Generated by trjconv : CNT in water t= 503.00000
33518
    1C        C    1   2.839   2.766   4.745
    1C        C    2   2.895   2.718   4.866
    1C        C    3   2.842   2.771   4.984
    1C        C    4   2.853   2.776   4.260
    1C        C    5   2.903   2.727   4.383
    1C        C    6   2.846   2.772   4.504
    1C        C    7   3.010   2.635   4.624
    1C        C    8   2.896   2.718   4.625
    1C        C    9   3.073   2.599   4.745
    1C        C   10   3.004   2.628   4.864
    1C        C   11   3.180   2.493   4.976
    1C        C   12   3.056   2.556   4.973
    1C        C   13   2.851   2.769   3.771
    1C        C   14   2.903   2.720   3.893
    1C        C   15   2.852   2.773   4.013
    1C        C   16   3.021   2.649   4.137
    1C        C   17   2.903   2.728   4.137
    1C        C   18   3.083   2.616   4.259
    1C        C   19   3.024   2.654   4.382
    1C        C   20   3.210   2.556   4.503
    1C        C   21   3.081   2.612   4.504
    1C        C   22   3.276   2.530   4.626
    1C        C   23   3.205   2.546   4.747
    1C        C   24   3.413   2.484   4.866
    1C        C   25   3.270   2.500   4.865
    1C        C   26   3.490   2.483   4.983
    1C        C   27   2.848   2.766   3.281
    1C        C   28   2.902   2.721   3.404
    1C        C   29   2.854   2.774   3.525
    1C        C   30   3.017   2.639   3.647
    1C        C   31   2.906   2.727   3.648
    1C        C   32   3.076   2.601   3.770
    1C        C   33   3.016   2.635   3.894
    1C        C   34   3.211   2.552   4.016
    1C        C   35   3.081   2.607   4.016
    1C        C   36   3.277   2.527   4.138
    1C        C   37   3.210   2.555   4.259
    1C        C   38   3.417   2.508   4.382
    1C        C   39   3.277   2.531   4.381
    1C        C   40   3.486   2.500   4.504
    1C        C   41   3.414   2.502   4.626
    1C        C   42   3.630   2.484   4.743
    1C        C   43   3.488   2.486   4.745
    1C        C   44   3.705   2.482   4.863
    1C        C   45   3.629   2.477   4.980
    1C        C   46   2.842   2.758   2.792
    1C        C   47   2.897   2.712   2.914
    1C        C   48   2.846   2.762   3.036
    1C        C   49   3.016   2.637   3.161
    1C        C   50   2.901   2.719   3.159
    1C        C   51   3.078   2.601   3.282
    1C        C   52   3.017   2.638   3.403
    1C        C   53   3.205   2.540   3.525
    1C        C   54   3.077   2.601   3.525
    1C        C   55   3.275   2.525   3.647
    1C        C   56   3.208   2.551   3.768
    1C        C   57   3.413   2.503   3.893
    1C        C   58   3.275   2.532   3.891
    1C        C   59   3.485   2.497   4.014
    1C        C   60   3.416   2.501   4.138
    1C        C   61   3.628   2.497   4.258
    1C        C   62   3.487   2.497   4.260
    1C        C   63   3.699   2.505   4.380
    1C        C   64   3.627   2.496   4.501
    1C        C   65   3.833   2.544   4.620
    1C        C   66   3.701   2.494   4.622
    1C        C   67   3.904   2.564   4.741
    1C        C   68   3.839   2.525   4.861
    1C        C   69   4.051   2.583   4.974
    1C        C   70   3.922   2.529   4.973
    1C        C   71   2.830   2.739   2.306
    1C        C   72   2.888   2.697   2.428
    1C        C   73   2.836   2.751   2.548
    1C        C   74   3.009   2.628   2.671
    1C        C   75   2.893   2.708   2.670
    1C        C   76   3.072   2.594   2.793
    1C        C   77   3.012   2.630   2.915
    1C        C   78   3.203   2.542   3.035
    1C        C   79   3.072   2.595   3.038
    1C        C   80   3.273   2.524   3.156
    1C        C   81   3.206   2.540   3.280
    1C        C   82   3.412   2.495   3.402
    1C        C   83   3.273   2.521   3.403
    1C        C   84   3.482   2.493   3.525
    1C        C   85   3.414   2.501   3.648
    1C        C   86   3.625   2.501   3.769
    1C        C   87   3.484   2.494   3.771
    1C        C   88   3.695   2.507   3.892
    1C        C   89   3.626   2.496   4.015
    1C        C   90   3.832   2.555   4.134
    1C        C   91   3.698   2.510   4.136
    1C        C   92   3.898   2.576   4.257
    1C        C   93   3.833   2.548   4.379
    1C        C   94   4.026   2.639   4.499
    1C        C   95   3.903   2.571   4.500
    1C        C   96   4.089   2.674   4.620
    1C        C   97   4.030   2.630   4.741
    1C        C   98   4.199   2.760   4.860
    1C        C   99   4.102   2.655   4.861
    1C        C  100   4.212   2.843   4.971
    1C        C  101   2.826   2.738   2.067
    1C        C  102   2.989   2.592   2.190
    1C        C  103   2.878   2.683   2.185
    1C        C  104   3.065   2.571   2.309
    1C        C  105   3.006   2.620   2.428
    1C        C  106   3.201   2.535   2.549
    1C        C  107   3.070   2.589   2.549
    1C        C  108   3.270   2.518   2.671
    1C        C  109   3.203   2.539   2.793
    1C        C  110   3.411   2.495   2.912
    1C        C  111   3.271   2.516   2.914
    1C        C  112   3.482   2.488   3.034
    1C        C  113   3.412   2.498   3.157
    1C        C  114   3.623   2.494   3.279
    1C        C  115   3.482   2.490   3.279
    1C        C  116   3.693   2.508   3.401
    1C        C  117   3.623   2.502   3.524
    1C        C  118   3.832   2.542   3.645
    1C        C  119   3.694   2.509   3.646
    1C        C  120   3.894   2.573   3.768
    1C        C  121   3.830   2.548   3.891
    1C        C  122   4.021   2.646   4.011
    1C        C  123   3.897   2.578   4.011
    1C        C  124   4.084   2.679   4.133
    1C        C  125   4.024   2.640   4.255
    1C        C  126   4.197   2.765   4.376
    1C        C  127   4.086   2.677   4.377
    1C        C  128   4.244   2.819   4.497
    1C        C  129   4.195   2.768   4.620
    1C        C  130   4.326   2.938   4.737
    1C        C  131   4.249   2.819   4.740
    1C        C  132   4.356   3.004   4.858
    1C        C  133   4.285   2.962   4.971
    1C        C  134   3.175   2.469   2.078
    1C        C  135   3.043   2.515   2.082
    1C        C  136   3.261   2.479   2.189
    1C        C  137   3.196   2.518   2.309
    1C        C  138   3.406   2.471   2.425
    1C        C  139   3.268   2.502   2.429
    1C        C  140   3.480   2.478   2.546
    1C        C  141   3.409   2.491   2.667
    1C        C  142   3.621   2.491   2.791
    1C        C  143   3.480   2.490   2.789
    1C        C  144   3.693   2.502   2.912
    1C        C  145   3.623   2.493   3.035
    1C        C  146   3.829   2.539   3.156
    1C        C  147   3.694   2.498   3.157
    1C        C  148   3.895   2.567   3.277
    1C        C  149   3.828   2.548   3.400
    1C        C  150   4.022   2.633   3.522
    1C        C  151   3.896   2.568   3.522
    1C        C  152   4.081   2.674   3.644
    1C        C  153   4.019   2.640   3.767
    1C        C  154   4.192   2.766   3.886
    1C        C  155   4.080   2.680   3.887
    1C        C  156   4.241   2.819   4.007
    1C        C  157   4.194   2.767   4.130
    1C        C  158   4.338   2.920   4.251
    1C        C  159   4.250   2.810   4.253
    1C        C  160   4.378   2.983   4.371
    1C        C  161   4.331   2.930   4.494
    1C        C  162   4.442   3.114   4.615
    1C        C  163   4.369   2.993   4.615
    1C        C  164   4.472   3.183   4.735
    1C        C  165   4.435   3.121   4.856
    1C        C  166   4.510   3.323   4.971
    1C        C  167   4.471   3.190   4.973
    1C        C  168   3.473   2.430   2.067
    1C        C  169   3.399   2.450   2.184
    1C        C  170   3.617   2.464   2.304
    1C        C  171   3.475   2.459   2.303
    1C        C  172   3.689   2.492   2.422
    1C        C  173   3.621   2.483   2.546
    1C        C  174   3.826   2.539   2.666
    1C        C  175   3.691   2.496   2.668
    1C        C  176   3.894   2.562   2.788
    1C        C  177   3.830   2.535   2.911
    1C        C  178   4.023   2.622   3.032
    1C        C  179   3.896   2.560   3.033
    1C        C  180   4.084   2.660   3.154
    1C        C  181   4.024   2.626   3.277
    1C        C  182   4.194   2.754   3.397
    1C        C  183   4.083   2.666   3.399
    1C        C  184   4.245   2.803   3.519
    1C        C  185   4.196   2.755   3.642
    1C        C  186   4.337   2.917   3.761
    1C        C  187   4.249   2.807   3.763
    1C        C  188   4.379   2.976   3.883
    1C        C  189   4.335   2.925   4.007
    1C        C  190   4.451   3.102   4.128
    1C        C  191   4.381   2.979   4.130
    1C        C  192   4.477   3.170   4.249
    1C        C  193   4.447   3.106   4.371
    1C        C  194   4.508   3.311   4.489
    1C        C  195   4.475   3.173   4.491
    1C        C  196   4.526   3.384   4.609
    1C        C  197   4.515   3.319   4.733
    1C        C  198   4.561   3.534   4.848
    1C        C  199   4.538   3.392   4.853
    1C        C  200   4.590   3.619   4.959
    1C        C  201   3.612   2.414   2.072
    1C        C  202   3.825   2.508   2.181
    1C        C  203   3.692   2.455   2.183
    1C        C  204   3.895   2.538   2.301
    1C        C  205   3.827   2.520   2.423
    1C        C  206   4.020   2.617   2.542
    1C        C  207   3.895   2.551   2.543
    1C        C  208   4.079   2.659   2.664
    1C        C  209   4.020   2.626   2.788
    1C        C  210   4.190   2.752   2.905
    1C        C  211   4.081   2.662   2.910
    1C        C  212   4.244   2.798   3.027
    1C        C  213   4.193   2.750   3.150
    1C        C  214   4.338   2.904   3.271
    1C        C  215   4.245   2.797   3.273
    1C        C  216   4.374   2.967   3.392
    1C        C  217   4.334   2.913   3.516
    1C        C  218   4.445   3.095   3.639
    1C        C  219   4.377   2.972   3.637
    1C        C  220   4.468   3.166   3.759
    1C        C  221   4.444   3.101   3.883
    1C        C  222   4.504   3.304   4.003
    1C        C  223   4.474   3.166   4.004
    1C        C  224   4.514   3.377   4.123
    1C        C  225   4.513   3.307   4.245
    1C        C  226   4.527   3.520   4.365
    1C        C  227   4.523   3.379   4.367
    1C        C  228   4.521   3.594   4.485
    1C        C  229   4.531   3.525   4.608
    1C        C  230   4.499   3.739   4.726
    1C        C  231   4.538   3.603   4.726
    1C        C  232   4.498   3.817   4.844
    1C        C  233   4.551   3.754   4.957
    1C        C  234   4.017   2.606   2.060
    1C        C  235   3.894   2.542   2.064
    1C        C  236   4.079   2.647   2.179
    1C        C  237   4.019   2.609   2.301
    1C        C  238   4.198   2.734   2.419
    1C        C  239   4.079   2.655   2.420
    1C        C  240   4.248   2.785   2.540
    1C        C  241   4.191   2.745   2.663
    1C        C  242   4.340   2.901   2.782
    1C        C  243   4.246   2.796   2.783
    1C        C  244   4.380   2.958   2.905
    1C        C  245   4.335   2.905   3.028
    1C        C  246   4.442   3.090   3.146
    1C        C  247   4.379   2.964   3.149
    1C        C  248   4.464   3.155   3.269
    1C        C  249   4.436   3.094   3.393
    1C        C  250   4.493   3.298   3.515
    1C        C  251   4.466   3.160   3.515
    1C        C  252   4.508   3.371   3.635
    1C        C  253   4.507   3.301   3.758
    1C        C  254   4.522   3.514   3.877
    1C        C  255   4.518   3.373   3.880
    1C        C  256   4.513   3.586   3.998
    1C        C  257   4.515   3.519   4.122
    1C        C  258   4.492   3.730   4.241
    1C        C  259   4.516   3.591   4.244
    1C        C  260   4.473   3.800   4.362
    1C        C  261   4.489   3.732   4.485
    1C        C  262   4.430   3.941   4.602
    1C        C  263   4.473   3.807   4.604
    1C        C  264   4.405   4.011   4.722
    1C        C  265   4.439   3.945   4.842
    1C        C  266   4.323   4.131   4.958
    1C        C  267   4.401   4.016   4.957
    1C        C  268   4.261   2.772   2.061
    1C        C  269   4.195   2.728   2.176
    1C        C  270   4.347   2.882   2.298
    1C        C  271   4.253   2.776   2.296
    1C        C  272   4.386   2.949   2.416
    1C        C  273   4.340   2.893   2.537
    1C        C  274   4.445   3.080   2.660
    1C        C  275   4.378   2.956   2.658
    1C        C  276   4.476   3.145   2.782
    1C        C  277   4.451   3.080   2.905
    1C        C  278   4.504   3.291   3.024
    1C        C  279   4.469   3.154   3.023
    1C        C  280   4.510   3.361   3.147
    1C        C  281   4.499   3.292   3.269
    1C        C  282   4.514   3.504   3.388
    1C        C  283   4.510   3.363   3.391
    1C        C  284   4.509   3.579   3.508
    1C        C  285   4.510   3.512   3.633
    1C        C  286   4.489   3.722   3.752
    1C        C  287   4.516   3.584   3.755
    1C        C  288   4.471   3.792   3.874
    1C        C  289   4.490   3.726   3.997
    1C        C  290   4.430   3.931   4.116
    1C        C  291   4.476   3.798   4.118
    1C        C  292   4.396   3.998   4.237
    1C        C  293   4.423   3.932   4.359
    1C        C  294   4.321   4.121   4.477
    1C        C  295   4.390   3.998   4.479
    1C        C  296   4.287   4.186   4.598
    1C        C  297   4.333   4.133   4.720
    1C        C  298   4.200   4.309   4.834
    1C        C  299   4.288   4.197   4.839
    1C        C  300   4.167   4.395   4.945
    1C        C  301   4.349   2.879   2.061
    1C        C  302   4.466   3.066   2.173
    1C        C  303   4.396   2.941   2.178
    1C        C  304   4.480   3.140   2.293
    1C        C  305   4.449   3.076   2.415
    1C        C  306   4.507   3.280   2.534
    1C        C  307   4.476   3.142   2.537
    1C        C  308   4.516   3.351   2.655
    1C        C  309   4.504   3.283   2.779
    1C        C  310   4.515   3.498   2.897
    1C        C  311   4.514   3.357   2.899
    1C        C  312   4.513   3.570   3.018
    1C        C  313   4.508   3.503   3.142
    1C        C  314   4.480   3.712   3.262
    1C        C  315   4.502   3.572   3.265
    1C        C  316   4.461   3.782   3.383
    1C        C  317   4.481   3.718   3.507
    1C        C  318   4.417   3.919   3.625
    1C        C  319   4.468   3.788   3.629
    1C        C  320   4.387   3.983   3.748
    1C        C  321   4.419   3.923   3.872
    1C        C  322   4.314   4.107   3.988
    1C        C  323   4.393   3.990   3.994
    1C        C  324   4.275   4.167   4.109
    1C        C  325   4.323   4.118   4.233
    1C        C  326   4.184   4.280   4.352
    1C        C  327   4.282   4.179   4.354
    1C        C  328   4.130   4.330   4.472
    1C        C  329   4.190   4.289   4.593
    1C        C  330   4.024   4.430   4.711
    1C        C  331   4.137   4.344   4.712
    1C        C  332   3.967   4.486   4.828
    1C        C  333   4.050   4.471   4.939
    1C        C  334   4.562   3.264   2.061
    1C        C  335   4.529   3.128   2.061
    1C        C  336   4.540   3.347   2.172
    1C        C  337   4.513   3.279   2.292
    1C        C  338   4.528   3.492   2.410
    1C        C  339   4.525   3.351   2.413
    1C        C  340   4.519   3.563   2.532
    1C        C  341   4.522   3.492   2.653
    1C        C  342   4.489   3.706   2.772
    1C        C  343   4.512   3.566   2.773
    1C        C  344   4.473   3.776   2.893
    1C        C  345   4.489   3.710   3.017
    1C        C  346   4.418   3.911   3.135
    1C        C  347   4.467   3.779   3.138
    1C        C  348   4.384   3.975   3.256
    1C        C  349   4.410   3.914   3.381
    1C        C  350   4.314   4.104   3.499
    1C        C  351   4.384   3.981   3.502
    1C        C  352   4.271   4.161   3.621
    1C        C  353   4.315   4.104   3.742
    1C        C  354   4.172   4.261   3.865
    1C        C  355   4.274   4.163   3.864
    1C        C  356   4.120   4.312   3.986
    1C        C  357   4.174   4.266   4.109
    1C        C  358   4.008   4.400   4.231
    1C        C  359   4.124   4.320   4.230
    1C        C  360   3.950   4.447   4.351
    1C        C  361   4.017   4.415   4.471
    1C        C  362   3.826   4.514   4.591
    1C        C  363   3.955   4.458   4.591
    1C        C  364   3.760   4.541   4.714
    1C        C  365   3.834   4.534   4.834
    1C        C  366   3.627   4.585   4.949
    1C        C  367   3.765   4.570   4.950
    1C        C  368   4.502   3.562   2.054
    1C        C  369   4.523   3.487   2.170
    1C        C  370   4.501   3.704   2.287
    1C        C  371   4.520   3.564   2.289
    1C        C  372   4.485   3.774   2.408
    1C        C  373   4.496   3.703   2.530
    1C        C  374   4.417   3.905   2.646
    1C        C  375   4.471   3.774   2.650
    1C        C  376   4.390   3.970   2.768
    1C        C  377   4.422   3.908   2.890
    1C        C  378   4.315   4.093   3.012
    1C        C  379   4.393   3.975   3.011
    1C        C  380   4.266   4.150   3.131
    1C        C  381   4.309   4.095   3.254
    1C        C  382   4.173   4.258   3.375
    1C        C  383   4.271   4.156   3.375
    1C        C  384   4.121   4.306   3.497
    1C        C  385   4.171   4.262   3.621
    1C        C  386   4.005   4.392   3.743
    1C        C  387   4.120   4.310   3.744
    1C        C  388   3.940   4.427   3.864
    1C        C  389   4.002   4.389   3.985
    1C        C  390   3.817   4.490   4.106
    1C        C  391   3.945   4.431   4.108
    1C        C  392   3.750   4.514   4.227
    1C        C  393   3.820   4.501   4.349
    1C        C  394   3.614   4.552   4.473
    1C        C  395   3.754   4.531   4.471
    1C        C  396   3.545   4.563   4.596
    1C        C  397   3.621   4.564   4.716
    1C        C  398   3.406   4.558   4.842
    1C        C  399   3.546   4.572   4.835
    1C        C  400   3.340   4.515   4.958
    1C        C  401   4.503   3.701   2.049
    1C        C  402   4.447   3.911   2.165
    1C        C  403   4.487   3.776   2.166
    1C        C  404   4.403   3.971   2.285
    1C        C  405   4.429   3.903   2.406
    1C        C  406   4.319   4.093   2.525
    1C        C  407   4.391   3.971   2.524
    1C        C  408   4.271   4.148   2.646
    1C        C  409   4.312   4.088   2.768
    1C        C  410   4.170   4.245   2.886
    1C        C  411   4.274   4.150   2.889
    1C        C  412   4.112   4.290   3.007
    1C        C  413   4.167   4.251   3.132
    1C        C  414   3.999   4.382   3.252
    1C        C  415   4.116   4.303   3.253
    1C        C  416   3.939   4.414   3.376
    1C        C  417   4.004   4.386   3.498
    1C        C  418   3.813   4.478   3.617
    1C        C  419   3.944   4.424   3.620
    1C        C  420   3.746   4.506   3.737
    1C        C  421   3.811   4.483   3.861
    1C        C  422   3.610   4.541   3.986
    1C        C  423   3.748   4.510   3.984
    1C        C  424   3.541   4.545   4.109
    1C        C  425   3.611   4.542   4.232
    1C        C  426   3.399   4.549   4.355
    1C        C  427   3.540   4.549   4.353
    1C        C  428   3.330   4.543   4.479
    1C        C  429   3.404   4.557   4.598
    1C        C  430   3.196   4.516   4.723
    1C        C  431   3.335   4.548   4.721
    1C        C  432   3.127   4.488   4.844
    1C        C  433   3.205   4.483   4.960
    1C        C  434   4.384   4.117   2.053
    1C        C  435   4.448   3.993   2.051
    1C        C  436   4.302   4.159   2.162
    1C        C  437   4.329   4.092   2.285
    1C        C  438   4.178   4.250   2.399
    1C        C  439   4.275   4.148   2.403
    1C        C  440   4.120   4.295   2.520
    1C        C  441   4.173   4.249   2.642
    1C        C  442   4.000   4.372   2.763
    1C        C  443   4.116   4.292   2.764
    1C        C  444   3.939   4.412   2.884
    1C        C  445   3.999   4.374   3.006
    1C        C  446   3.812   4.473   3.128
    1C        C  447   3.940   4.414   3.128
    1C        C  448   3.746   4.495   3.251
    1C        C  449   3.811   4.473   3.375
    1C        C  450   3.606   4.533   3.496
    1C        C  451   3.745   4.504   3.496
    1C        C  452   3.539   4.545   3.619
    1C        C  453   3.609   4.543   3.742
    1C        C  454   3.398   4.545   3.864
    1C        C  455   3.539   4.553   3.864
    1C        C  456   3.329   4.542   3.987
    1C        C  457   3.400   4.545   4.109
    1C        C  458   3.193   4.508   4.235
    1C        C  459   3.330   4.544   4.232
    1C        C  460   3.126   4.487   4.357
    1C        C  461   3.192   4.511   4.480
    1C        C  462   2.997   4.434   4.601
    1C        C  463   3.125   4.493   4.603
    1C        C  464   2.929   4.402   4.721
    1C        C  465   2.992   4.440   4.842
    1C        C  466   2.797   4.335   4.956
    1C        C  467   2.905   4.423   4.955
    1C        C  468   4.126   4.286   2.039
    1C        C  469   4.192   4.251   2.158
    1C        C  470   4.004   4.369   2.277
    1C        C  471   4.126   4.295   2.275
    1C        C  472   3.940   4.406   2.397
    1C        C  473   4.004   4.375   2.519
    1C        C  474   3.811   4.467   2.641
    1C        C  475   3.939   4.408   2.641
    1C        C  476   3.743   4.493   2.762
    1C        C  477   3.810   4.471   2.884
    1C        C  478   3.607   4.530   3.007
    1C        C  479   3.745   4.500   3.006
    1C        C  480   3.537   4.535   3.130
    1C        C  481   3.608   4.523   3.252
    1C        C  482   3.395   4.537   3.375
    1C        C  483   3.536   4.535   3.373
    1C        C  484   3.325   4.534   3.498
    1C        C  485   3.398   4.545   3.619
    1C        C  486   3.190   4.505   3.745
    1C        C  487   3.328   4.537   3.741
    1C        C  488   3.126   4.479   3.868
    1C        C  489   3.194   4.502   3.989
    1C        C  490   3.006   4.410   4.115
    1C        C  491   3.128   4.481   4.113
    1C        C  492   2.944   4.378   4.238
    1C        C  493   3.001   4.422   4.360
    1C        C  494   2.828   4.299   4.483
    1C        C  495   2.937   4.389   4.481
    1C        C  496   2.770   4.254   4.603
    1C        C  497   2.817   4.315   4.722
    1C        C  498   2.662   4.163   4.840
    1C        C  499   2.753   4.271   4.840
    1C        C  500   2.593   4.118   4.953
    1C        C  501   4.004   4.353   2.037
    1C        C  502   3.816   4.464   2.154
    1C        C  503   3.943   4.402   2.154
    1C        C  504   3.747   4.489   2.274
    1C        C  505   3.811   4.464   2.397
    1C        C  506   3.603   4.505   2.517
    1C        C  507   3.743   4.487   2.519
    1C        C  508   3.533   4.516   2.639
    1C        C  509   3.604   4.515   2.761
    1C        C  510   3.395   4.532   2.884
    1C        C  511   3.537   4.529   2.885
    1C        C  512   3.325   4.527   3.007
    1C        C  513   3.396   4.530   3.128
    1C        C  514   3.191   4.489   3.254
    1C        C  515   3.327   4.526   3.252
    1C        C  516   3.124   4.469   3.377
    1C        C  517   3.189   4.497   3.499
    1C        C  518   3.004   4.402   3.625
    1C        C  519   3.125   4.473   3.623
    1C        C  520   2.948   4.361   3.749
    1C        C  521   3.005   4.406   3.870
    1C        C  522   2.841   4.275   3.996
    1C        C  523   2.949   4.366   3.993
    1C        C  524   2.790   4.229   4.120
    1C        C  525   2.837   4.286   4.240
    1C        C  526   2.694   4.131   4.363
    1C        C  527   2.781   4.242   4.362
    1C        C  528   2.648   4.075   4.484
    1C        C  529   2.679   4.146   4.602
    1C        C  530   2.577   3.958   4.729
    1C        C  531   2.637   4.087   4.724
    1C        C  532   2.537   3.901   4.853
    1C        C  533   2.525   3.995   4.960
    1C        C  534   3.617   4.553   2.035
    1C        C  535   3.751   4.511   2.040
    1C        C  536   3.536   4.538   2.152
    1C        C  537   3.608   4.517   2.274
    1C        C  538   3.394   4.526   2.400
    1C        C  539   3.535   4.524   2.394
    1C        C  540   3.318   4.516   2.519
    1C        C  541   3.392   4.521   2.639
    1C        C  542   3.187   4.486   2.764
    1C        C  543   3.324   4.517   2.763
    1C        C  544   3.122   4.462   2.887
    1C        C  545   3.189   4.485   3.009
    1C        C  546   2.997   4.400   3.135
    1C        C  547   3.124   4.462   3.132
    1C        C  548   2.943   4.359   3.259
    1C        C  549   3.002   4.399   3.382
    1C        C  550   2.836   4.268   3.504
    1C        C  551   2.942   4.362   3.504
    1C        C  552   2.785   4.224   3.628
    1C        C  553   2.837   4.274   3.749
    1C        C  554   2.704   4.114   3.873
    1C        C  555   2.793   4.223   3.874
    1C        C  556   2.663   4.060   3.996
    1C        C  557   2.696   4.123   4.118
    1C        C  558   2.601   3.937   4.242
    1C        C  559   2.660   4.066   4.242
    1C        C  560   2.572   3.875   4.365
    1C        C  561   2.591   3.946   4.485
    1C        C  562   2.526   3.748   4.614
    1C        C  563   2.559   3.885   4.609
    1C        C  564   2.513   3.680   4.737
    1C        C  565   2.516   3.759   4.855
    1C        C  566   2.532   3.545   4.976
    1C        C  567   2.524   3.684   4.973
    1C        C  568   3.329   4.472   2.041
    1C        C  569   3.396   4.514   2.157
    1C        C  570   3.186   4.476   2.278
    1C        C  571   3.323   4.515   2.278
    1C        C  572   3.114   4.457   2.398
    1C        C  573   3.180   4.485   2.519
    1C        C  574   2.993   4.395   2.647
    1C        C  575   3.117   4.462   2.643
    1C        C  576   2.937   4.354   2.770
    1C        C  577   2.999   4.393   2.891
    1C        C  578   2.832   4.266   3.014
    1C        C  579   2.938   4.359   3.014
    1C        C  580   2.782   4.218   3.137
    1C        C  581   2.837   4.267   3.258
    1C        C  582   2.701   4.107   3.383
    1C        C  583   2.788   4.219   3.381
    1C        C  584   2.662   4.051   3.507
    1C        C  585   2.699   4.112   3.629
    1C        C  586   2.591   3.931   3.755
    1C        C  587   2.660   4.054   3.752
    1C        C  588   2.563   3.869   3.878
    1C        C  589   2.593   3.937   3.998
    1C        C  590   2.530   3.736   4.126
    1C        C  591   2.570   3.871   4.121
    1C        C  592   2.514   3.668   4.249
    1C        C  593   2.529   3.740   4.370
    1C        C  594   2.505   3.533   4.495
    1C        C  595   2.514   3.674   4.494
    1C        C  596   2.513   3.465   4.619
    1C        C  597   2.512   3.538   4.740
    1C        C  598   2.533   3.325   4.856
    1C        C  599   2.526   3.466   4.861
    1C        C  600   2.527   3.249   4.973
    1C        C  601   3.194   4.440   2.039
    1C        C  602   2.984   4.392   2.159
    1C        C  603   3.119   4.440   2.157
    1C        C  604   2.929   4.350   2.283
    1C        C  605   2.988   4.394   2.404
    1C        C  606   2.821   4.265   2.527
    1C        C  607   2.931   4.353   2.527
    1C        C  608   2.772   4.214   2.649
    1C        C  609   2.829   4.262   2.769
    1C        C  610   2.693   4.103   2.895
    1C        C  611   2.781   4.215   2.893
    1C        C  612   2.657   4.045   3.018
    1C        C  613   2.697   4.105   3.140
    1C        C  614   2.591   3.923   3.266
    1C        C  615   2.657   4.048   3.263
    1C        C  616   2.564   3.860   3.389
    1C        C  617   2.593   3.928   3.510
    1C        C  618   2.523   3.729   3.637
    1C        C  619   2.565   3.864   3.633
    1C        C  620   2.508   3.661   3.760
    1C        C  621   2.522   3.733   3.880
    1C        C  622   2.504   3.525   4.007
    1C        C  623   2.513   3.666   4.004
    1C        C  624   2.506   3.455   4.130
    1C        C  625   2.500   3.528   4.251
    1C        C  626   2.534   3.322   4.376
    1C        C  627   2.503   3.460   4.374
    1C        C  628   2.556   3.254   4.498
    1C        C  629   2.538   3.326   4.618
    1C        C  630   2.593   3.116   4.741
    1C        C  631   2.547   3.251   4.737
    1C        C  632   2.618   3.050   4.864
    1C        C  633   2.565   3.114   4.981
    1C        C  634   2.791   4.300   2.051
    1C        C  635   2.888   4.400   2.053
    1C        C  636   2.753   4.226   2.164
    1C        C  637   2.817   4.262   2.284
    1C        C  638   2.678   4.104   2.407
    1C        C  639   2.765   4.215   2.407
    1C        C  640   2.640   4.047   2.531
    1C        C  641   2.681   4.106   2.652
    1C        C  642   2.585   3.918   2.777
    1C        C  643   2.646   4.045   2.775
    1C        C  644   2.557   3.854   2.900
    1C        C  645   2.587   3.922   3.020
    1C        C  646   2.519   3.725   3.148
    1C        C  647   2.560   3.860   3.144
    1C        C  648   2.505   3.654   3.269
    1C        C  649   2.523   3.725   3.390
    1C        C  650   2.505   3.518   3.517
    1C        C  651   2.509   3.660   3.515
    1C        C  652   2.508   3.449   3.640
    1C        C  653   2.505   3.520   3.762
    1C        C  654   2.532   3.313   3.889
    1C        C  655   2.508   3.452   3.886
    1C        C  656   2.552   3.246   4.012
    1C        C  657   2.533   3.316   4.132
    1C        C  658   2.604   3.119   4.258
    1C        C  659   2.551   3.250   4.256
    1C        C  660   2.636   3.054   4.379
    1C        C  661   2.604   3.121   4.500
    1C        C  662   2.709   2.934   4.624
    1C        C  663   2.631   3.052   4.621
    1C        C  664   2.750   2.876   4.746
    1C        C  665   2.697   2.931   4.866
    1C        C  666   2.742   2.868   4.983
    1C        C  667   2.678   4.024   2.051
    1C        C  668   2.683   4.104   2.166
    1C        C  669   2.585   3.911   2.289
    1C        C  670   2.642   4.041   2.286
    1C        C  671   2.554   3.849   2.413
    1C        C  672   2.576   3.921   2.532
    1C        C  673   2.513   3.720   2.659
    1C        C  674   2.551   3.856   2.655
    1C        C  675   2.499   3.650   2.781
    1C        C  676   2.519   3.718   2.903
    1C        C  677   2.498   3.511   3.029
    1C        C  678   2.508   3.652   3.027
    1C        C  679   2.500   3.440   3.151
    1C        C  680   2.494   3.513   3.272
    1C        C  681   2.531   3.307   3.400
    1C        C  682   2.504   3.445   3.396
    1C        C  683   2.548   3.240   3.523
    1C        C  684   2.530   3.310   3.645
    1C        C  685   2.604   3.113   3.769
    1C        C  686   2.548   3.242   3.768
    1C        C  687   2.638   3.051   3.892
    1C        C  688   2.606   3.115   4.013
    1C        C  689   2.714   2.936   4.136
    1C        C  690   2.634   3.053   4.137
    1C        C  691   2.756   2.878   4.257
    1C        C  692   2.711   2.934   4.379
    1C        C  693   2.753   2.879   4.502
    1C        C  694   2.631   3.893   2.058
    1C        C  695   2.512   3.706   2.175
    1C        C  696   2.576   3.832   2.172
    1C        C  697   2.494   3.639   2.297
    1C        C  698   2.512   3.715   2.415
    1C        C  699   2.487   3.507   2.541
    1C        C  700   2.500   3.647   2.538
    1C        C  701   2.496   3.437   2.663
    1C        C  702   2.495   3.509   2.785
    1C        C  703   2.522   3.300   2.911
    1C        C  704   2.497   3.439   2.907
    1C        C  705   2.542   3.231   3.033
    1C        C  706   2.524   3.301   3.155
    1C        C  707   2.598   3.105   3.277
    1C        C  708   2.546   3.237   3.278
    1C        C  709   2.631   3.044   3.400
    1C        C  710   2.600   3.109   3.521
    1C        C  711   2.712   2.933   3.649
    1C        C  712   2.634   3.050   3.646
    1C        C  713   2.757   2.874   3.769
    1C        C  714   2.720   2.936   3.891
    1C        C  715   2.759   2.879   4.015
    1C        C  716   2.449   3.499   2.063
    1C        C  717   2.492   3.632   2.058
    1C        C  718   2.457   3.422   2.183
    1C        C  719   2.470   3.498   2.302
    1C        C  720   2.511   3.290   2.423
    1C        C  721   2.480   3.428   2.424
    1C        C  722   2.534   3.224   2.546
    1C        C  723   2.524   3.298   2.666
    1C        C  724   2.596   3.101   2.789
    1C        C  725   2.544   3.232   2.789
    1C        C  726   2.624   3.038   2.913
    1C        C  727   2.587   3.098   3.035
    1C        C  728   2.712   2.924   3.156
    1C        C  729   2.626   3.037   3.157
    1C        C  730   2.758   2.875   3.280
    1C        C  731   2.718   2.932   3.403
    1C        C  732   2.760   2.880   3.527
    1C        C  733   2.479   3.192   2.074
    1C        C  734   2.483   3.281   2.182
    1C        C  735   2.584   3.089   2.303
    1C        C  736   2.523   3.217   2.303
    1C        C  737   2.615   3.025   2.425
    1C        C  738   2.588   3.094   2.545
    1C        C  739   2.702   2.916   2.668
    1C        C  740   2.624   3.034   2.668
    1C        C  741   2.745   2.861   2.791
    1C        C  742   2.707   2.923   2.911
    1C        C  743   2.754   2.869   3.033
    1C        C  744   2.547   3.071   2.068
    1C        C  745   2.692   2.905   2.186
    1C        C  746   2.612   3.021   2.182
    1C        C  747   2.738   2.848   2.307
    1C        C  748   2.689   2.905   2.426
    1C        C  749   2.739   2.853   2.548
    1C        C  750   2.734   2.842   2.069
    1C        C  751   3.663   2.309   1.980
    1C        O  752   3.686   2.186   1.999
    1C        O  753   3.670   2.334   1.843
    1C        C  754   4.621   3.054   1.971
    1C        O  755   4.618   3.079   1.848
    1C        O  756   4.745   3.004   2.014
    1C        C  757   4.438   4.206   1.948
    1C        O  758   4.510   4.309   1.958
    1C        O  759   4.400   4.185   1.815
    1C        C  760   3.595   4.663   1.939
    1C        O  761   3.610   4.785   1.965
    1C        O  762   3.605   4.643   1.801
    1C        C  763   2.857   4.531   1.991
    1C        O  764   2.847   4.536   1.866
    1C        O  765   2.767   4.615   2.057
    1C        C  766   2.349   3.463   1.959
    1C        O  767   2.388   3.471   1.839
    1C        O  768   2.211   3.478   1.969
    1C        C  769   4.704   3.581   5.045
    1C        O  770   4.689   3.537   5.162
    1C        O  771   4.835   3.630   5.030
    1C        C  772   4.250   4.431   5.062
    1C        O  773   4.240   4.366   5.169
    1C        O  774   4.319   4.551   5.085
    1C        C  775   4.135   2.517   5.077
    1C        O  776   4.224   2.434   5.045
    1C        O  777   4.143   2.566   5.208
    1C        C  778   2.893   4.541   5.044
    1C        O  779   2.825   4.645   5.022
    1C        O  780   2.930   4.540   5.179
    1C        C  781   2.474   3.042   5.073
    1C        O  782   2.361   3.003   5.035
    1C        O  783   2.479   3.082   5.207
    1C        C  784   2.418   3.988   5.063
    1C        O  785   2.305   4.040   5.041
    1C        O  786   2.442   3.985   5.201
    1C        C  787   2.961   2.452   1.977
    1C        O  788   2.977   2.483   1.856
    1C        O  789   2.878   2.343   2.004
    1C        C  790   3.188   2.377   5.068
    1C        O  791   3.154   2.260   5.038
    1C        O  792   3.199   2.403   5.205
    1C        H  793   4.286   3.016   5.064
    1C        H  794   4.162   2.826   5.064
    1C        H  795   4.463   3.144   5.069
    1C        H  796   4.509   3.380   5.062
    1C        H  797   4.554   3.810   5.048
    1C        H  798   4.423   3.979   5.055
    1C        H  799   4.258   4.133   5.044
    1C        H  800   4.009   4.498   5.035
    1C        H  801   3.822   4.602   5.036
    1C        H  802   3.593   4.644   5.031
    1C        H  803   3.388   4.520   5.054
    1C        H  804   3.170   4.420   5.039
    1C        H  805   3.892   2.471   5.058
    1C        H  806   3.672   2.463   5.077
    1C        H  807   3.001   2.557   5.065
    1C        H  808   3.442   2.459   5.076
    1C        H  809   2.867   2.727   5.079
    1C        H  810   2.716   2.911   5.077
    1C        H  811   2.466   3.287   5.052
    1C        H  812   2.567   3.499   5.066
    1C        H  813   2.486   3.729   5.062
    1C        H  814   2.567   4.198   5.019
    1C        H  815   2.777   4.287   5.050
    1C        H  816   2.687   2.873   1.978
    1C        H  817   2.886   2.728   1.978
    1C        H  818   3.220   2.464   1.981
    1C        H  819   3.419   2.378   1.991
    1C        H  820   3.841   2.540   1.971
    1C        H  821   4.060   2.623   1.963
    1C        H  822   4.250   2.708   1.976
    1C        H  823   4.367   2.921   1.964
    1C        H  824   4.624   3.306   1.985
    1C        H  825   4.443   3.510   1.981
    1C        H  826   4.572   3.747   1.981
    1C        H  827   3.810   4.527   1.952
    1C        H  828   3.938   4.318   1.961
    1C        H  829   4.168   4.261   1.944
    1C        H  830   4.527   3.978   1.980
    1C        H  831   2.659   3.829   1.977
    1C        H  832   2.650   4.077   1.962
    1C        H  833   2.712   4.318   1.981
    1C        H  834   3.371   4.492   1.945
    1C        H  835   3.150   4.437   1.942
    1C        H  836   2.508   2.997   2.001
    1C        H  837   2.404   3.209   1.999
    1C        H  838   2.562   3.652   1.979
    2V3OU   H29  839   2.803   3.541   5.518
    2V3OU   C27  840   2.781   3.503   5.622
    2V3OU   H27  841   2.722   3.567   5.692
    2V3OU   H28  842   2.725   3.408   5.608
    2V3OU   O11  843   2.909   3.476   5.679
    2V3OU   C15  844   2.918   3.394   5.791
    2V3OU   C13  845   3.051   3.374   5.832
    2V3OU   C14  846   3.076   3.266   5.917
    2V3OU   C16  847   2.970   3.189   5.966
    2V3OU    H6  848   2.990   3.107   6.036
    2V3OU   C12  849   3.216   3.233   5.951
    2V3OU    O2  850   3.239   3.131   6.019
    2V3OU   C10  851   3.325   3.304   5.884
    2V3OU    C8  852   3.458   3.267   5.900
    2V3OU   O10  853   3.489   3.149   5.961
    2V3OU   H26  854   3.404   3.112   5.990
    2V3OU    C6  855   3.565   3.348   5.850
    2V3OU    C5  856   3.539   3.467   5.783
    2V3OU    C4  857   3.703   3.293   5.860
    2V3OU    H4  858   3.718   3.228   5.951
    2V3OU    H5  859   3.711   3.220   5.774
    2V3OU    C2  860   3.817   3.394   5.852
    2V3OU    O6  861   3.795   3.469   5.972
    2V3OU   H21  862   3.757   3.554   5.946
    2V3OU    C3  863   3.785   3.493   5.739
    2V3OU    H2  864   3.868   3.567   5.729
    2V3OU    H3  865   3.781   3.430   5.646
    2V3OU   C25  866   3.951   3.324   5.832
    2V3OU    O7  867   4.004   3.290   5.726
    2V3OU   C26  868   4.032   3.291   5.956
    2V3OU   H22  869   4.065   3.385   6.007
    2V3OU   H23  870   4.114   3.219   5.931
    2V3OU    O8  871   3.962   3.203   6.041
    2V3OU   H24  872   3.918   3.258   6.108
    2V3OU    C1  873   3.651   3.563   5.754
    2V3OU    H1  874   3.628   3.616   5.657
    2V3OU    O3  875   3.664   3.655   5.862
    2V3OU   C19  876   3.621   3.791   5.853
    2V3OU    H9  877   3.520   3.815   5.809
    2V3OU    O4  878   3.713   3.850   5.764
    2V3OU   C20  879   3.842   3.872   5.822
    2V3OU   H10  880   3.900   3.775   5.827
    2V3OU   C24  881   3.611   3.854   5.992
    2V3OU   H16  882   3.549   3.785   6.056
    2V3OU   H17  883   3.564   3.955   5.981
    2V3OU   C23  884   3.748   3.872   6.058
    2V3OU   H15  885   3.786   3.767   6.081
    2V3OU    N1  886   3.730   3.964   6.168
    2V3OU   H19  887   3.804   3.926   6.224
    2V3OU   H20  888   3.647   3.929   6.211
    2V3OU   C21  889   3.849   3.939   5.959
    2V3OU   H11  890   3.955   3.922   5.994
    2V3OU    O5  891   3.826   4.079   5.953
    2V3OU   H18  892   3.777   4.107   6.032
    2V3OU   C22  893   3.909   3.951   5.710
    2V3OU   H12  894   3.859   4.051   5.702
    2V3OU   H13  895   3.902   3.894   5.614
    2V3OU   H14  896   4.018   3.964   5.732
    2V3OU   C11  897   3.157   3.469   5.793
    2V3OU    O1  898   3.134   3.583   5.748
    2V3OU    C9  899   3.297   3.422   5.809
    2V3OU    C7  900   3.402   3.499   5.761
    2V3OU    O9  901   3.391   3.619   5.693
    2V3OU   H25  902   3.297   3.631   5.676
    2V3OU   C17  903   2.814   3.318   5.848
    2V3OU    H7  904   2.714   3.340   5.810
    2V3OU   C18  905   2.836   3.213   5.936
    2V3OU    H8  906   2.755   3.148   5.973
    3SOL     OW  907   3.955   3.214   3.873
    3SOL    HW1  908   3.865   3.177   3.847
    3SOL    HW2  909   4.020   3.199   3.799
    4SOL     OW  910   6.764   6.037   0.827
    4SOL    HW1  911   6.803   5.948   0.805
    4SOL    HW2  912   6.664   6.031   0.823
    5SOL     OW  913   5.198   2.229   1.116
    5SOL    HW1  914   5.169   2.283   1.195
    5SOL    HW2  915   5.147   2.143   1.114
    6SOL     OW  916   4.340   1.014   2.668
    6SOL    HW1  917   4.408   1.047   2.603
    6SOL    HW2  918   4.252   1.059   2.650
    7SOL     OW  919   2.258   4.209   4.521
    7SOL    HW1  920   2.199   4.202   4.602
    7SOL    HW2  921   2.351   4.182   4.545
    8SOL     OW  922   1.107   2.629   5.055
    8SOL    HW1  923   1.104   2.554   5.121
    8SOL    HW2  924   1.140   2.594   4.967
    9SOL     OW  925   0.269   1.127   6.311
    9SOL    HW1  926   0.345   1.154   6.370
    9SOL    HW2  927   0.237   1.036   6.339
   10SOL     OW  928   5.345   4.933   1.664
   10SOL    HW1  929   5.442   4.936   1.641
   10SOL    HW2  930   5.313   5.024   1.690
   11SOL     OW  931   2.608   2.219   1.296
   11SOL    HW1  932   2.696   2.265   1.304
   11SOL    HW2  933   2.551   2.268   1.230
   12SOL     OW  934   4.952   4.675   2.782
   12SOL    HW1  935   4.912   4.722   2.861
   12SOL    HW2  936   4.913   4.583   2.776
   13SOL     OW  937   6.008   5.909   1.117
   13SOL    HW1  938   6.070   5.913   1.038
   13SOL    HW2  939   5.939   5.838   1.101
   14SOL     OW  940   4.132   6.937   6.872
   14SOL    HW1  941   4.083   6.967   6.954
   14SOL    HW2  942   4.219   6.985   6.866
   15SOL     OW  943   1.425   6.007   6.363
   15SOL    HW1  944   1.348   6.052   6.317
   15SOL    HW2  945   1.505   6.066   6.358
   16SOL     OW  946   2.005   4.898   5.058
   16SOL    HW1  947   1.973   4.805   5.078
   16SOL    HW2  948   2.096   4.910   5.098
   17SOL     OW  949   6.447   1.144   5.025
   17SOL    HW1  950   6.432   1.097   5.112
   17SOL    HW2  951   6.540   1.181   5.023
   18SOL     OW  952   2.708   1.364   5.787
   18SOL    HW1  953   2.805   1.374   5.764
   18SOL    HW2  954   2.699   1.325   5.878
   19SOL     OW  955   3.198   6.540   3.284
   19SOL    HW1  956   3.180   6.591   3.200
   19SOL    HW2  957   3.199   6.442   3.265
   20SOL     OW  958   5.922   1.315   5.496
   20SOL    HW1  959   5.846   1.289   5.556
   20SOL    HW2  960   5.969   1.232   5.465
   21SOL     OW  961   2.112   3.823   2.921
   21SOL    HW1  962   2.098   3.851   2.826
   21SOL    HW2  963   2.119   3.724   2.926
   22SOL     OW  964   0.972   1.060   0.332
   22SOL    HW1  965   1.047   1.002   0.363
   22SOL    HW2  966   0.885   1.014   0.349
   23SOL     OW  967   6.009   4.769   1.118
   23SOL    HW1  968   6.016   4.695   1.052
   23SOL    HW2  969   5.922   4.761   1.168
   24SOL     OW  970   5.398   1.540   0.650
   24SOL    HW1  971   5.377   1.633   0.617
   24SOL    HW2  972   5.466   1.546   0.723
   25SOL     OW  973   2.007   0.683   4.779
   25SOL    HW1  974   1.967   0.690   4.870
   25SOL    HW2  975   2.066   0.602   4.775
   26SOL     OW  976   1.094   1.985   6.321
   26SOL    HW1  977   1.180   2.034   6.337
   26SOL    HW2  978   1.020   2.052   6.311
   27SOL     OW  979   6.995   6.955   2.278
   27SOL    HW1  980   0.037   6.888   2.317
   27SOL    HW2  981   6.935   6.991   2.349
   28SOL     OW  982   2.039   0.887   5.353
   28SOL    HW1  983   2.024   0.825   5.275
   28SOL    HW2  984   2.137   0.889   5.375
   29SOL     OW  985   6.251   0.112   1.313
   29SOL    HW1  986   6.305   0.097   1.231
   29SOL    HW2  987   6.301   0.077   1.393
   30SOL     OW  988   4.489   6.912   5.271
   30SOL    HW1  989   4.456   6.818   5.277
   30SOL    HW2  990   4.513   6.934   5.177
   31SOL     OW  991   0.457   4.799   4.827
   31SOL    HW1  992   0.419   4.882   4.785
   31SOL    HW2  993   0.546   4.780   4.787
   32SOL     OW  994   3.616   0.717   1.099
   32SOL    HW1  995   3.630   0.693   1.002
   32SOL    HW2  996   3.521   0.699   1.124
   33SOL     OW  997   2.354   5.448   6.356
   33SOL    HW1  998   2.310   5.524   6.309
   33SOL    HW2  999   2.301   5.364   6.342
   34SOL     OW 1000   2.629   5.755   5.558
   34SOL    HW1 1001   2.691   5.746   5.635
   34SOL    HW2 1002   2.676   5.798   5.481
   35SOL     OW 1003   1.632   2.899   6.162
   35SOL    HW1 1004   1.537   2.869   6.149
   35SOL    HW2 1005   1.686   2.872   6.082
   36SOL     OW 1006   5.086   0.895   3.019
   36SOL    HW1 1007   5.039   0.954   3.085
   36SOL    HW2 1008   5.034   0.811   3.007
   37SOL     OW 1009   2.180   6.737   4.161
   37SOL    HW1 1010   2.207   6.703   4.251
   37SOL    HW2 1011   2.239   6.812   4.134
   38SOL     OW 1012   1.423   4.537   2.742
   38SOL    HW1 1013   1.333   4.528   2.700
   38SOL    HW2 1014   1.455   4.631   2.731
   39SOL     OW 1015   6.736   5.045   1.506
   39SOL    HW1 1016   6.749   4.952   1.541
   39SOL    HW2 1017   6.646   5.079   1.533
   40SOL     OW 1018   4.871   1.423   0.229
   40SOL    HW1 1019   4.864   1.491   0.156
   40SOL    HW2 1020   4.790   1.364   0.227
   41SOL     OW 1021   5.571   3.927   1.562
   41SOL    HW1 1022   5.623   3.956   1.482
   41SOL    HW2 1023   5.596   3.834   1.587
   42SOL     OW 1024   2.212   4.657   6.873
   42SOL    HW1 1025   2.281   4.614   6.932
   42SOL    HW2 1026   2.245   4.659   6.779
   43SOL     OW 1027   5.129   6.807   5.062
   43SOL    HW1 1028   5.053   6.851   5.110
   43SOL    HW2 1029   5.115   6.815   4.963
   44SOL     OW 1030   0.458   1.209   6.846
   44SOL    HW1 1031   0.434   1.260   6.764
   44SOL    HW2 1032   0.558   1.199   6.851
   45SOL     OW 1033   1.899   4.656   6.145
   45SOL    HW1 1034   1.947   4.737   6.178
   45SOL    HW2 1035   1.889   4.590   6.220
   46SOL     OW 1036   1.565   3.720   5.249
   46SOL    HW1 1037   1.549   3.642   5.188
   46SOL    HW2 1038   1.653   3.761   5.228
   47SOL     OW 1039   5.718   3.749   6.902
   47SOL    HW1 1040   5.766   3.763   6.988
   47SOL    HW2 1041   5.664   3.665   6.907
   48SOL     OW 1042   6.374   4.122   0.720
   48SOL    HW1 1043   6.411   4.158   0.634
   48SOL    HW2 1044   6.284   4.084   0.703
   49SOL     OW 1045   2.918   3.610   6.590
   49SOL    HW1 1046   2.901   3.666   6.671
   49SOL    HW2 1047   2.840   3.618   6.527
   50SOL     OW 1048   5.993   2.166   6.935
   50SOL    HW1 1049   5.933   2.211   7.001
   50SOL    HW2 1050   5.950   2.081   6.904
   51SOL     OW 1051   1.067   5.848   2.068
   51SOL    HW1 1052   1.000   5.888   2.005
   51SOL    HW2 1053   1.043   5.752   2.086
   52SOL     OW 1054   5.707   2.869   2.155
   52SOL    HW1 1055   5.680   2.927   2.077
   52SOL    HW2 1056   5.742   2.927   2.229
   53SOL     OW 1057   3.272   0.320   1.358
   53SOL    HW1 1058   3.308   0.268   1.281
   53SOL    HW2 1059   3.347   0.342   1.421
   54SOL     OW 1060   6.176   0.247   6.592
   54SOL    HW1 1061   6.159   0.150   6.577
   54SOL    HW2 1062   6.091   0.292   6.620
   55SOL     OW 1063   1.575   3.391   6.194
   55SOL    HW1 1064   1.624   3.459   6.139
   55SOL    HW2 1065   1.482   3.380   6.157
   56SOL     OW 1066   0.912   2.125   0.231
   56SOL    HW1 1067   0.829   2.118   0.286
   56SOL    HW2 1068   0.990   2.094   0.284
   57SOL     OW 1069   4.241   6.115   0.901
   57SOL    HW1 1070   4.211   6.184   0.835
   57SOL    HW2 1071   4.162   6.082   0.952
   58SOL     OW 1072   1.266   1.040   0.242
   58SOL    HW1 1073   1.336   1.112   0.244
   58SOL    HW2 1074   1.177   1.079   0.266
   59SOL     OW 1075   4.400   3.206   5.641
   59SOL    HW1 1076   4.394   3.267   5.720
   59SOL    HW2 1077   4.309   3.167   5.623
   60SOL     OW 1078   6.128   2.748   2.375
   60SOL    HW1 1079   6.120   2.810   2.453
   60SOL    HW2 1080   6.202   2.779   2.315
   61SOL     OW 1081   0.871   6.510   3.736
   61SOL    HW1 1082   0.874   6.426   3.791
   61SOL    HW2 1083   0.928   6.499   3.655
   62SOL     OW 1084   6.328   3.326   3.447
   62SOL    HW1 1085   6.268   3.403   3.429
   62SOL    HW2 1086   6.283   3.263   3.510
   63SOL     OW 1087   3.728   0.550   6.584
   63SOL    HW1 1088   3.807   0.488   6.579
   63SOL    HW2 1089   3.758   0.642   6.560
   64SOL     OW 1090   0.927   2.320   5.772
   64SOL    HW1 1091   0.902   2.415   5.790
   64SOL    HW2 1092   1.022   2.315   5.743
   65SOL     OW 1093   0.670   5.300   4.446
   65SOL    HW1 1094   0.751   5.310   4.388
   65SOL    HW2 1095   0.594   5.265   4.391
   66SOL     OW 1096   4.227   1.505   1.502
   66SOL    HW1 1097   4.306   1.565   1.505
   66SOL    HW2 1098   4.253   1.414   1.537
   67SOL     OW 1099   0.395   3.258   1.717
   67SOL    HW1 1100   0.382   3.316   1.636
   67SOL    HW2 1101   0.381   3.163   1.691
   68SOL     OW 1102   6.919   1.911   0.026
   68SOL    HW1 1103   6.998   1.899   6.986
   68SOL    HW2 1104   6.888   2.006   0.023
   69SOL     OW 1105   1.212   5.639   6.643
   69SOL    HW1 1106   1.133   5.650   6.583
   69SOL    HW2 1107   1.287   5.597   6.591
   70SOL     OW 1108   5.032   4.522   3.697
   70SOL    HW1 1109   4.949   4.498   3.648
   70SOL    HW2 1110   5.011   4.533   3.794
   71SOL     OW 1111   5.077   1.818   4.462
   71SOL    HW1 1112   5.018   1.859   4.391
   71SOL    HW2 1113   5.154   1.879   4.479
   72SOL     OW 1114   0.138   1.057   3.493
   72SOL    HW1 1115   0.161   1.007   3.409
   72SOL    HW2 1116   0.217   1.058   3.554
   73SOL     OW 1117   2.167   0.556   1.074
   73SOL    HW1 1118   2.078   0.550   1.030
   73SOL    HW2 1119   2.226   0.483   1.041
   74SOL     OW 1120   3.444   2.358   0.524
   74SOL    HW1 1121   3.416   2.453   0.537
   74SOL    HW2 1122   3.542   2.354   0.506
   75SOL     OW 1123   3.100   2.830   0.406
   75SOL    HW1 1124   3.028   2.785   0.353
   75SOL    HW2 1125   3.080   2.928   0.415
   76SOL     OW 1126   4.002   5.392   5.791
   76SOL    HW1 1127   4.076   5.325   5.784
   76SOL    HW2 1128   4.012   5.461   5.719
   77SOL     OW 1129   0.816   5.378   5.008
   77SOL    HW1 1130   0.851   5.294   5.050
   77SOL    HW2 1131   0.848   5.456   5.062
   78SOL     OW 1132   4.740   1.963   0.922
   78SOL    HW1 1133   4.739   2.061   0.901
   78SOL    HW2 1134   4.817   1.919   0.876
   79SOL     OW 1135   1.331   4.389   3.715
   79SOL    HW1 1136   1.379   4.350   3.636
   79SOL    HW2 1137   1.244   4.428   3.686
   80SOL     OW 1138   3.148   2.144   4.797
   80SOL    HW1 1139   3.162   2.194   4.883
   80SOL    HW2 1140   3.050   2.139   4.777
   81SOL     OW 1141   3.594   5.399   1.621
   81SOL    HW1 1142   3.664   5.423   1.553
   81SOL    HW2 1143   3.631   5.414   1.713
   82SOL     OW 1144   2.679   6.959   1.768
   82SOL    HW1 1145   2.725   0.021   1.733
   82SOL    HW2 1146   2.581   6.978   1.777
   83SOL     OW 1147   5.003   1.557   4.049
   83SOL    HW1 1148   5.088   1.582   4.095
   83SOL    HW2 1149   4.939   1.518   4.115
   84SOL     OW 1150   5.794   3.105   3.010
   84SOL    HW1 1151   5.870   3.041   2.996
   84SOL    HW2 1152   5.756   3.090   3.102
   85SOL     OW 1153   2.526   6.549   3.835
   85SOL    HW1 1154   2.436   6.525   3.871
   85SOL    HW2 1155   2.517   6.583   3.741
   86SOL     OW 1156   5.105   0.313   0.814
   86SOL    HW1 1157   5.071   0.393   0.765
   86SOL    HW2 1158   5.166   0.342   0.887
   87SOL     OW 1159   2.624   3.568   6.696
   87SOL    HW1 1160   2.552   3.569   6.626
   87SOL    HW2 1161   2.615   3.649   6.754
   88SOL     OW 1162   2.256   3.394   1.528
   88SOL    HW1 1163   2.346   3.360   1.501
   88SOL    HW2 1164   2.225   3.345   1.610
   89SOL     OW 1165   3.119   3.319   3.856
   89SOL    HW1 1166   3.203   3.320   3.802
   89SOL    HW2 1167   3.129   3.254   3.932
   90SOL     OW 1168   5.935   3.999   2.343
   90SOL    HW1 1169   5.999   3.927   2.316
   90SOL    HW2 1170   5.983   4.087   2.342
   91SOL     OW 1171   4.636   5.832   6.275
   91SOL    HW1 1172   4.585   5.805   6.356
   91SOL    HW2 1173   4.573   5.865   6.205
   92SOL     OW 1174   5.385   4.391   0.062
   92SOL    HW1 1175   5.359   4.299   0.032
   92SOL    HW2 1176   5.303   4.448   0.067
   93SOL     OW 1177   3.078   4.090   1.626
   93SOL    HW1 1178   3.016   4.069   1.550
   93SOL    HW2 1179   3.031   4.148   1.693
   94SOL     OW 1180   3.497   2.101   4.016
   94SOL    HW1 1181   3.474   2.058   4.103
   94SOL    HW2 1182   3.414   2.111   3.961
   95SOL     OW 1183   0.508   0.095   4.122
   95SOL    HW1 1184   0.438   0.105   4.052
   95SOL    HW2 1185   0.464   0.076   4.210
   96SOL     OW 1186   0.243   5.350   6.494
   96SOL    HW1 1187   0.191   5.435   6.493
   96SOL    HW2 1188   0.182   5.274   6.470
   97SOL     OW 1189   2.259   4.449   5.879
   97SOL    HW1 1190   2.241   4.547   5.876
   97SOL    HW2 1191   2.225   4.411   5.965
   98SOL     OW 1192   0.175   1.729   4.035
   98SOL    HW1 1193   0.274   1.741   4.041
   98SOL    HW2 1194   0.147   1.650   4.089
   99SOL     OW 1195   3.696   4.431   5.270
   99SOL    HW1 1196   3.726   4.391   5.356
   99SOL    HW2 1197   3.694   4.361   5.199
  100SOL     OW 1198   0.740   0.417   5.145
  100SOL    HW1 1199   0.786   0.423   5.056
  100SOL    HW2 1200   0.749   0.324   5.180
  101SOL     OW 1201   4.821   3.080   2.407
  101SOL    HW1 1202   4.803   3.124   2.318
  101SOL    HW2 1203   4.844   3.150   2.474
  102SOL     OW 1204   4.486   0.718   0.094
  102SOL    HW1 1205   4.560   0.652   0.082
  102SOL    HW2 1206   4.419   0.681   0.157
  103SOL     OW 1207   1.069   1.551   1.844
  103SOL    HW1 1208   1.062   1.579   1.940
  103SOL    HW2 1209   1.165   1.545   1.818
  104SOL     OW 1210   6.644   4.221   1.976
  104SOL    HW1 1211   6.568   4.212   1.912
  104SOL    HW2 1212   6.716   4.277   1.935
  105SOL     OW 1213   0.419   0.155   4.681
  105SOL    HW1 1214   0.483   0.104   4.738
  105SOL    HW2 1215   0.469   0.199   4.606
  106SOL     OW 1216   4.509   3.271   1.674
  106SOL    HW1 1217   4.409   3.277   1.663
  106SOL    HW2 1218   4.531   3.201   1.742
  107SOL     OW 1219   5.882   6.896   1.815
  107SOL    HW1 1220   5.801   6.933   1.770
  107SOL    HW2 1221   5.858   6.809   1.858
  108SOL     OW 1222   3.303   1.009   4.644
  108SOL    HW1 1223   3.379   0.948   4.623
  108SOL    HW2 1224   3.227   0.991   4.582
  109SOL     OW 1225   2.244   1.103   5.072
  109SOL    HW1 1226   2.323   1.058   5.113
  109SOL    HW2 1227   2.200   1.161   5.140
  110SOL     OW 1228   3.557   3.963   5.588
  110SOL    HW1 1229   3.614   3.922   5.659
  110SOL    HW2 1230   3.463   3.970   5.620
  111SOL     OW 1231   6.094   2.766   0.789
  111SOL    HW1 1232   6.162   2.824   0.833
  111SOL    HW2 1233   6.036   2.723   0.858
  112SOL     OW 1234   5.716   0.042   6.195
  112SOL    HW1 1235   5.776   0.121   6.179
  112SOL    HW2 1236   5.710   7.009   6.111
  113SOL     OW 1237   0.566   4.957   2.749
  113SOL    HW1 1238   0.647   5.014   2.731
  113SOL    HW2 1239   0.586   4.863   2.723
  114SOL     OW 1240   6.920   2.483   2.109
  114SOL    HW1 1241   6.932   2.562   2.169
  114SOL    HW2 1242   6.914   2.514   2.014
  115SOL     OW 1243   4.644   0.141   2.922
  115SOL    HW1 1244   4.670   0.070   2.856
  115SOL    HW2 1245   4.545   0.147   2.928
  116SOL     OW 1246   6.942   5.161   0.737
  116SOL    HW1 1247   6.867   5.224   0.718
  116SOL    HW2 1248   6.947   5.144   0.836
  117SOL     OW 1249   2.967   2.506   0.312
  117SOL    HW1 1250   3.038   2.460   0.257
  117SOL    HW2 1251   2.909   2.561   0.251
  118SOL     OW 1252   6.834   1.605   2.495
  118SOL    HW1 1253   6.768   1.533   2.518
  118SOL    HW2 1254   6.841   1.668   2.572
  119SOL     OW 1255   6.086   0.656   4.765
  119SOL    HW1 1256   6.135   0.726   4.817
  119SOL    HW2 1257   6.063   0.692   4.675
  120SOL     OW 1258   4.325   0.747   4.583
  120SOL    HW1 1259   4.324   0.840   4.620
  120SOL    HW2 1260   4.415   0.707   4.597
  121SOL     OW 1261   0.594   5.410   6.846
  121SOL    HW1 1262   0.518   5.466   6.813
  121SOL    HW2 1263   0.587   5.318   6.807
  122SOL     OW 1264   6.762   4.599   5.976
  122SOL    HW1 1265   6.791   4.672   5.914
  122SOL    HW2 1266   6.696   4.635   6.041
  123SOL     OW 1267   0.837   2.826   1.930
  123SOL    HW1 1268   0.929   2.787   1.924
  123SOL    HW2 1269   0.839   2.908   1.987
  124SOL     OW 1270   1.212   3.207   0.449
  124SOL    HW1 1271   1.303   3.174   0.421
  124SOL    HW2 1272   1.201   3.193   0.547
  125SOL     OW 1273   4.346   2.673   0.665
  125SOL    HW1 1274   4.426   2.631   0.708
  125SOL    HW2 1275   4.375   2.750   0.608
  126SOL     OW 1276   3.676   2.922   4.062
  126SOL    HW1 1277   3.666   2.871   3.976
  126SOL    HW2 1278   3.607   2.890   4.127
  127SOL     OW 1279   0.341   4.312   5.321
  127SOL    HW1 1280   0.280   4.391   5.322
  127SOL    HW2 1281   0.397   4.314   5.238
  128SOL     OW 1282   4.871   3.953   6.653
  128SOL    HW1 1283   4.820   3.888   6.597
  128SOL    HW2 1284   4.920   4.017   6.593
  129SOL     OW 1285   0.221   5.724   2.175
  129SOL    HW1 1286   0.282   5.759   2.247
  129SOL    HW2 1287   0.172   5.801   2.134
  130SOL     OW 1288   6.053   2.988   4.331
  130SOL    HW1 1289   5.993   3.017   4.406
  130SOL    HW2 1290   6.042   2.890   4.315
  131SOL     OW 1291   0.675   3.478   3.647
  131SOL    HW1 1292   0.744   3.474   3.719
  131SOL    HW2 1293   0.620   3.394   3.649
  132SOL     OW 1294   4.522   2.501   0.861
  132SOL    HW1 1295   4.425   2.479   0.872
  132SOL    HW2 1296   4.557   2.538   0.948
  133SOL     OW 1297   4.851   5.676   6.228
  133SOL    HW1 1298   4.787   5.741   6.268
  133SOL    HW2 1299   4.909   5.722   6.162
  134SOL     OW 1300   5.468   2.211   0.935
  134SOL    HW1 1301   5.407   2.160   0.995
  134SOL    HW2 1302   5.474   2.306   0.967
  135SOL     OW 1303   5.045   3.695   3.992
  135SOL    HW1 1304   5.131   3.715   3.944
  135SOL    HW2 1305   4.976   3.763   3.965
  136SOL     OW 1306   3.929   1.106   6.318
  136SOL    HW1 1307   3.944   1.203   6.337
  136SOL    HW2 1308   4.017   1.059   6.314
  137SOL     OW 1309   2.485   3.707   5.812
  137SOL    HW1 1310   2.532   3.764   5.745
  137SOL    HW2 1311   2.449   3.626   5.766
  138SOL     OW 1312   0.878   5.415   6.810
  138SOL    HW1 1313   0.846   5.325   6.838
  138SOL    HW2 1314   0.828   5.444   6.728
  139SOL     OW 1315   1.307   0.213   1.078
  139SOL    HW1 1316   1.268   0.304   1.089
  139SOL    HW2 1317   1.253   0.161   1.012
  140SOL     OW 1318   4.325   0.761   1.413
  140SOL    HW1 1319   4.389   0.726   1.481
  140SOL    HW2 1320   4.232   0.755   1.448
  141SOL     OW 1321   0.313   2.530   0.686
  141SOL    HW1 1322   0.310   2.446   0.741
  141SOL    HW2 1323   0.409   2.553   0.667
  142SOL     OW 1324   2.191   3.837   0.657
  142SOL    HW1 1325   2.191   3.936   0.638
  142SOL    HW2 1326   2.100   3.810   0.689
  143SOL     OW 1327   4.658   6.287   2.095
  143SOL    HW1 1328   4.586   6.236   2.048
  143SOL    HW2 1329   4.660   6.261   2.191
  144SOL     OW 1330   3.139   5.847   3.264
  144SOL    HW1 1331   3.151   5.760   3.313
  144SOL    HW2 1332   3.045   5.855   3.232
  145SOL     OW 1333   6.821   5.470   4.065
  145SOL    HW1 1334   6.818   5.480   4.164
  145SOL    HW2 1335   6.844   5.558   4.024
  146SOL     OW 1336   5.124   0.569   6.264
  146SOL    HW1 1337   5.124   0.660   6.223
  146SOL    HW2 1338   5.035   0.550   6.304
  147SOL     OW 1339   5.421   0.827   5.170
  147SOL    HW1 1340   5.336   0.877   5.158
  147SOL    HW2 1341   5.440   0.775   5.087
  148SOL     OW 1342   2.160   5.978   1.579
  148SOL    HW1 1343   2.124   5.906   1.521
  148SOL    HW2 1344   2.245   6.014   1.539
  149SOL     OW 1345   2.177   2.321   4.282
  149SOL    HW1 1346   2.199   2.416   4.303
  149SOL    HW2 1347   2.102   2.290   4.340
  150SOL     OW 1348   4.250   1.426   4.930
  150SOL    HW1 1349   4.195   1.350   4.965
  150SOL    HW2 1350   4.192   1.508   4.923
  151SOL     OW 1351   5.852   3.059   0.774
  151SOL    HW1 1352   5.901   3.081   0.859
  151SOL    HW2 1353   5.916   3.063   0.698
  152SOL     OW 1354   1.303   2.722   1.720
  152SOL    HW1 1355   1.222   2.698   1.773
  152SOL    HW2 1356   1.304   2.669   1.635
  153SOL     OW 1357   2.444   1.676   3.598
  153SOL    HW1 1358   2.371   1.646   3.660
  153SOL    HW2 1359   2.497   1.597   3.569
  154SOL     OW 1360   6.156   2.288   2.490
  154SOL    HW1 1361   6.114   2.351   2.425
  154SOL    HW2 1362   6.085   2.235   2.535
  155SOL     OW 1363   6.742   5.140   3.273
  155SOL    HW1 1364   6.735   5.181   3.183
  155SOL    HW2 1365   6.764   5.211   3.341
  156SOL     OW 1366   5.229   2.186   0.446
  156SOL    HW1 1367   5.236   2.258   0.515
  156SOL    HW2 1368   5.296   2.201   0.374
  157SOL     OW 1369   5.326   6.564   1.029
  157SOL    HW1 1370   5.305   6.621   0.950
  157SOL    HW2 1371   5.352   6.473   0.998
  158SOL     OW 1372   0.889   3.006   4.327
  158SOL    HW1 1373   0.870   2.917   4.368
  158SOL    HW2 1374   0.834   3.017   4.244
  159SOL     OW 1375   6.162   5.495   0.571
  159SOL    HW1 1376   6.209   5.536   0.493
  159SOL    HW2 1377   6.229   5.450   0.631
  160SOL     OW 1378   5.557   0.544   1.034
  160SOL    HW1 1379   5.541   0.447   1.012
  160SOL    HW2 1380   5.641   0.575   0.990
  161SOL     OW 1381   6.264   6.674   0.898
  161SOL    HW1 1382   6.300   6.713   0.983
  161SOL    HW2 1383   6.165   6.689   0.895
  162SOL     OW 1384   4.270   0.142   6.532
  162SOL    HW1 1385   4.244   0.113   6.440
  162SOL    HW2 1386   4.369   0.133   6.542
  163SOL     OW 1387   0.389   3.125   2.343
  163SOL    HW1 1388   0.450   3.045   2.346
  163SOL    HW2 1389   0.317   3.113   2.412
  164SOL     OW 1390   3.075   2.118   3.111
  164SOL    HW1 1391   3.163   2.080   3.084
  164SOL    HW2 1392   3.040   2.177   3.038
  165SOL     OW 1393   6.946   6.717   4.012
  165SOL    HW1 1394   6.970   6.685   4.104
  165SOL    HW2 1395   6.917   6.639   3.956
  166SOL     OW 1396   6.362   5.133   4.119
  166SOL    HW1 1397   6.316   5.077   4.049
  166SOL    HW2 1398   6.457   5.148   4.091
  167SOL     OW 1399   2.383   1.183   4.876
  167SOL    HW1 1400   2.320   1.183   4.954
  167SOL    HW2 1401   2.333   1.160   4.793
  168SOL     OW 1402   3.952   3.502   1.961
  168SOL    HW1 1403   3.923   3.412   1.992
  168SOL    HW2 1404   3.892   3.532   1.887
  169SOL     OW 1405   5.204   2.772   0.321
  169SOL    HW1 1406   5.219   2.727   0.233
  169SOL    HW2 1407   5.109   2.760   0.349
  170SOL     OW 1408   5.982   5.652   0.739
  170SOL    HW1 1409   6.018   5.586   0.673
  170SOL    HW2 1410   5.882   5.654   0.733
  171SOL     OW 1411   3.598   3.034   1.068
  171SOL    HW1 1412   3.585   3.132   1.074
  171SOL    HW2 1413   3.632   2.999   1.155
  172SOL     OW 1414   1.264   1.388   6.462
  172SOL    HW1 1415   1.299   1.470   6.507
  172SOL    HW2 1416   1.225   1.326   6.531
  173SOL     OW 1417   6.446   1.208   4.171
  173SOL    HW1 1418   6.352   1.175   4.155
  173SOL    HW2 1419   6.448   1.259   4.257
  174SOL     OW 1420   5.417   4.325   4.093
  174SOL    HW1 1421   5.407   4.354   4.188
  174SOL    HW2 1422   5.511   4.293   4.077
  175SOL     OW 1423   0.435   6.394   2.470
  175SOL    HW1 1424   0.410   6.380   2.374
  175SOL    HW2 1425   0.517   6.451   2.475
  176SOL     OW 1426   6.692   3.142   1.775
  176SOL    HW1 1427   6.608   3.196   1.769
  176SOL    HW2 1428   6.757   3.189   1.835
  177SOL     OW 1429   5.754   2.455   3.483
  177SOL    HW1 1430   5.748   2.384   3.413
  177SOL    HW2 1431   5.787   2.540   3.441
  178SOL     OW 1432   2.521   5.988   4.543
  178SOL    HW1 1433   2.581   5.912   4.518
  178SOL    HW2 1434   2.577   6.068   4.567
  179SOL     OW 1435   3.072   4.654   1.281
  179SOL    HW1 1436   3.075   4.587   1.354
  179SOL    HW2 1437   3.043   4.743   1.318
  180SOL     OW 1438   4.614   1.038   6.411
  180SOL    HW1 1439   4.556   0.958   6.420
  180SOL    HW2 1440   4.697   1.026   6.466
  181SOL     OW 1441   2.960   1.719   6.054
  181SOL    HW1 1442   2.926   1.804   6.012
  181SOL    HW2 1443   2.883   1.670   6.094
  182SOL     OW 1444   3.513   2.943   5.620
  182SOL    HW1 1445   3.421   2.984   5.617
  182SOL    HW2 1446   3.514   2.860   5.566
  183SOL     OW 1447   2.884   0.965   3.117
  183SOL    HW1 1448   2.880   0.866   3.102
  183SOL    HW2 1449   2.966   1.002   3.074
  184SOL     OW 1450   5.531   6.082   3.657
  184SOL    HW1 1451   5.547   6.173   3.618
  184SOL    HW2 1452   5.618   6.041   3.682
  185SOL     OW 1453   0.142   0.140   4.583
  185SOL    HW1 1454   0.241   0.128   4.591
  185SOL    HW2 1455   0.114   0.122   4.489
  186SOL     OW 1456   3.321   5.994   5.262
  186SOL    HW1 1457   3.228   5.967   5.237
  186SOL    HW2 1458   3.318   6.059   5.337
  187SOL     OW 1459   3.847   6.040   1.472
  187SOL    HW1 1460   3.844   5.993   1.560
  187SOL    HW2 1461   3.928   6.098   1.468
  188SOL     OW 1462   1.412   3.682   3.627
  188SOL    HW1 1463   1.341   3.725   3.682
  188SOL    HW2 1464   1.472   3.628   3.686
  189SOL     OW 1465   5.179   4.996   5.355
  189SOL    HW1 1466   5.248   5.043   5.410
  189SOL    HW2 1467   5.095   5.050   5.354
  190SOL     OW 1468   6.063   0.310   0.475
  190SOL    HW1 1469   6.129   0.270   0.412
  190SOL    HW2 1470   6.111   0.361   0.547
  191SOL     OW 1471   0.834   1.818   5.541
  191SOL    HW1 1472   0.852   1.907   5.583
  191SOL    HW2 1473   0.742   1.789   5.565
  192SOL     OW 1474   0.402   5.827   1.449
  192SOL    HW1 1475   0.452   5.776   1.519
  192SOL    HW2 1476   0.451   5.911   1.427
  193SOL     OW 1477   2.157   0.153   1.154
  193SOL    HW1 1478   2.057   0.153   1.149
  193SOL    HW2 1479   2.185   0.123   1.245
  194SOL     OW 1480   3.608   5.881   2.161
  194SOL    HW1 1481   3.639   5.869   2.255
  194SOL    HW2 1482   3.515   5.845   2.151
  195SOL     OW 1483   3.849   0.612   0.908
  195SOL    HW1 1484   3.870   0.560   0.990
  195SOL    HW2 1485   3.870   0.709   0.922
  196SOL     OW 1486   4.070   2.242   0.686
  196SOL    HW1 1487   4.080   2.163   0.747
  196SOL    HW2 1488   3.995   2.299   0.718
  197SOL     OW 1489   1.727   5.904   0.574
  197SOL    HW1 1490   1.725   5.834   0.504
  197SOL    HW2 1491   1.822   5.932   0.591
  198SOL     OW 1492   3.872   6.597   6.576
  198SOL    HW1 1493   3.828   6.687   6.581
  198SOL    HW2 1494   3.971   6.609   6.565
  199SOL     OW 1495   0.569   0.501   3.157
  199SOL    HW1 1496   0.478   0.526   3.125
  199SOL    HW2 1497   0.571   0.506   3.257
  200SOL     OW 1498   0.796   4.058   3.364
  200SOL    HW1 1499   0.800   4.151   3.403
  200SOL    HW2 1500   0.704   4.020   3.377
  201SOL     OW 1501   5.421   1.708   6.564
  201SOL    HW1 1502   5.428   1.668   6.473
  201SOL    HW2 1503   5.395   1.636   6.630
  202SOL     OW 1504   3.664   0.788   2.345
  202SOL    HW1 1505   3.659   0.727   2.266
  202SOL    HW2 1506   3.602   0.756   2.416
  203SOL     OW 1507   5.880   2.894   6.609
  203SOL    HW1 1508   5.954   2.894   6.676
  203SOL    HW2 1509   5.812   2.825   6.634
  204SOL     OW 1510   2.303   6.771   1.465
  204SOL    HW1 1511   2.360   6.799   1.387
  204SOL    HW2 1512   2.230   6.711   1.433
  205SOL     OW 1513   5.330   0.679   0.880
  205SOL    HW1 1514   5.333   0.650   0.784
  205SOL    HW2 1515   5.393   0.622   0.934
  206SOL     OW 1516   0.255   5.409   1.690
  206SOL    HW1 1517   0.213   5.488   1.645
  206SOL    HW2 1518   0.213   5.325   1.658
  207SOL     OW 1519   4.653   1.800   5.555
  207SOL    HW1 1520   4.692   1.719   5.600
  207SOL    HW2 1521   4.638   1.780   5.458
  208SOL     OW 1522   3.683   4.777   6.490
  208SOL    HW1 1523   3.636   4.690   6.472
  208SOL    HW2 1524   3.715   4.815   6.403
  209SOL     OW 1525   6.956   5.073   4.875
  209SOL    HW1 1526   7.010   5.019   4.811
  209SOL    HW2 1527   6.871   5.025   4.895
  210SOL     OW 1528   3.953   2.160   1.382
  210SOL    HW1 1529   4.022   2.141   1.312
  210SOL    HW2 1530   3.986   2.231   1.443
  211SOL     OW 1531   1.404   2.273   2.043
  211SOL    HW1 1532   1.406   2.366   2.005
  211SOL    HW2 1533   1.348   2.271   2.126
  212SOL     OW 1534   0.564   5.455   4.669
  212SOL    HW1 1535   0.647   5.474   4.720
  212SOL    HW2 1536   0.586   5.401   4.588
  213SOL     OW 1537   4.276   2.417   6.128
  213SOL    HW1 1538   4.265   2.484   6.055
  213SOL    HW2 1539   4.280   2.463   6.216
  214SOL     OW 1540   1.573   6.362   3.253
  214SOL    HW1 1541   1.594   6.266   3.233
  214SOL    HW2 1542   1.588   6.417   3.172
  215SOL     OW 1543   3.667   3.498   3.009
  215SOL    HW1 1544   3.726   3.490   3.089
  215SOL    HW2 1545   3.701   3.437   2.937
  216SOL     OW 1546   1.738   6.799   5.558
  216SOL    HW1 1547   1.653   6.853   5.558
  216SOL    HW2 1548   1.759   6.771   5.652
  217SOL     OW 1549   6.824   2.665   3.962
  217SOL    HW1 1550   6.769   2.680   4.044
  217SOL    HW2 1551   6.915   2.634   3.987
  218SOL     OW 1552   1.842   3.552   5.275
  218SOL    HW1 1553   1.854   3.648   5.249
  218SOL    HW2 1554   1.844   3.545   5.375
  219SOL     OW 1555   3.539   5.429   0.426
  219SOL    HW1 1556   3.519   5.343   0.472
  219SOL    HW2 1557   3.463   5.453   0.365
  220SOL     OW 1558   1.664   4.503   0.547
  220SOL    HW1 1559   1.762   4.482   0.553
  220SOL    HW2 1560   1.628   4.469   0.460
  221SOL     OW 1561   6.494   2.876   4.264
  221SOL    HW1 1562   6.456   2.960   4.226
  221SOL    HW2 1563   6.577   2.898   4.315
  222SOL     OW 1564   1.230   5.938   4.402
  222SOL    HW1 1565   1.130   5.949   4.402
  222SOL    HW2 1566   1.254   5.863   4.340
  223SOL     OW 1567   5.703   4.375   2.325
  223SOL    HW1 1568   5.667   4.453   2.376
  223SOL    HW2 1569   5.675   4.290   2.370
  224SOL     OW 1570   3.873   2.117   2.192
  224SOL    HW1 1571   3.805   2.148   2.126
  224SOL    HW2 1572   3.828   2.091   2.277
  225SOL     OW 1573   6.904   0.224   1.299
  225SOL    HW1 1574   6.953   0.144   1.266
  225SOL    HW2 1575   6.830   0.246   1.235
  226SOL     OW 1576   0.145   5.918   1.413
  226SOL    HW1 1577   0.234   5.877   1.429
  226SOL    HW2 1578   0.134   5.999   1.471
  227SOL     OW 1579   1.754   3.039   2.750
  227SOL    HW1 1580   1.705   3.126   2.744
  227SOL    HW2 1581   1.837   3.043   2.694
  228SOL     OW 1582   3.433   6.510   2.484
  228SOL    HW1 1583   3.472   6.552   2.567
  228SOL    HW2 1584   3.355   6.454   2.509
  229SOL     OW 1585   6.160   5.710   3.264
  229SOL    HW1 1586   6.096   5.633   3.271
  229SOL    HW2 1587   6.251   5.680   3.290
  230SOL     OW 1588   1.054   3.889   6.306
  230SOL    HW1 1589   0.987   3.863   6.236
  230SOL    HW2 1590   1.032   3.979   6.342
  231SOL     OW 1591   0.561   1.437   0.441
  231SOL    HW1 1592   0.465   1.448   0.413
  231SOL    HW2 1593   0.577   1.489   0.524
  232SOL     OW 1594   1.472   4.313   6.603
  232SOL    HW1 1595   1.518   4.376   6.666
  232SOL    HW2 1596   1.537   4.282   6.533
  233SOL     OW 1597   3.227   0.976   6.399
  233SOL    HW1 1598   3.292   1.052   6.395
  233SOL    HW2 1599   3.219   0.944   6.493
  234SOL     OW 1600   2.874   5.568   6.683
  234SOL    HW1 1601   2.884   5.580   6.781
  234SOL    HW2 1602   2.876   5.657   6.638
  235SOL     OW 1603   3.776   3.304   4.475
  235SOL    HW1 1604   3.704   3.291   4.543
  235SOL    HW2 1605   3.758   3.247   4.395
  236SOL     OW 1606   6.905   2.029   5.497
  236SOL    HW1 1607   6.974   2.001   5.429
  236SOL    HW2 1608   6.861   1.948   5.535
  237SOL     OW 1609   6.733   6.361   1.933
  237SOL    HW1 1610   6.691   6.329   1.848
  237SOL    HW2 1611   6.832   6.349   1.928
  238SOL     OW 1612   6.795   1.861   2.257
  238SOL    HW1 1613   6.727   1.926   2.291
  238SOL    HW2 1614   6.763   1.822   2.170
  239SOL     OW 1615   0.000   5.817   0.977
  239SOL    HW1 1616   7.000   5.737   1.034
  239SOL    HW2 1617   0.005   5.899   1.035
  240SOL     OW 1618   6.925   3.030   5.469
  240SOL    HW1 1619   6.981   2.983   5.401
  240SOL    HW2 1620   6.984   3.079   5.533
  241SOL     OW 1621   6.162   1.657   4.710
  241SOL    HW1 1622   6.171   1.605   4.795
  241SOL    HW2 1623   6.072   1.640   4.669
  242SOL     OW 1624   2.358   2.738   3.184
  242SOL    HW1 1625   2.282   2.802   3.174
  242SOL    HW2 1626   2.333   2.651   3.142
  243SOL     OW 1627   4.164   1.279   6.501
  243SOL    HW1 1628   4.167   1.266   6.600
  243SOL    HW2 1629   4.095   1.346   6.477
  244SOL     OW 1630   6.898   0.748   6.139
  244SOL    HW1 1631   6.957   0.674   6.171
  244SOL    HW2 1632   6.937   0.787   6.055
  245SOL     OW 1633   5.287   2.617   4.018
  245SOL    HW1 1634   5.283   2.656   4.110
  245SOL    HW2 1635   5.225   2.666   3.958
  246SOL     OW 1636   4.913   3.278   3.626
  246SOL    HW1 1637   4.988   3.342   3.611
  246SOL    HW2 1638   4.880   3.285   3.720
  247SOL     OW 1639   2.415   0.008   3.581
  247SOL    HW1 1640   2.513   0.025   3.569
  247SOL    HW2 1641   2.402   6.951   3.642
  248SOL     OW 1642   6.630   1.238   1.830
  248SOL    HW1 1643   6.704   1.224   1.896
  248SOL    HW2 1644   6.627   1.334   1.804
  249SOL     OW 1645   2.138   6.044   4.762
  249SOL    HW1 1646   2.049   6.059   4.718
  249SOL    HW2 1647   2.205   6.106   4.722
  250SOL     OW 1648   5.069   3.305   6.063
  250SOL    HW1 1649   4.982   3.257   6.080
  250SOL    HW2 1650   5.145   3.248   6.094
  251SOL     OW 1651   1.905   2.601   0.669
  251SOL    HW1 1652   1.975   2.539   0.705
  251SOL    HW2 1653   1.949   2.675   0.617
  252SOL     OW 1654   0.625   1.197   0.554
  252SOL    HW1 1655   0.608   1.280   0.500
  252SOL    HW2 1656   0.704   1.212   0.613
  253SOL     OW 1657   1.435   4.198   5.790
  253SOL    HW1 1658   1.438   4.143   5.873
  253SOL    HW2 1659   1.469   4.290   5.810
  254SOL     OW 1660   4.978   3.574   5.969
  254SOL    HW1 1661   5.037   3.511   6.018
  254SOL    HW2 1662   4.993   3.667   6.001
  255SOL     OW 1663   3.332   1.817   2.410
  255SOL    HW1 1664   3.263   1.886   2.429
  255SOL    HW2 1665   3.309   1.768   2.326
  256SOL     OW 1666   6.905   5.441   1.842
  256SOL    HW1 1667   6.886   5.402   1.932
  256SOL    HW2 1668   6.875   5.377   1.771
  257SOL     OW 1669   3.045   5.148   6.740
  257SOL    HW1 1670   3.123   5.191   6.696
  257SOL    HW2 1671   2.987   5.104   6.671
  258SOL     OW 1672   4.719   4.245   3.807
  258SOL    HW1 1673   4.692   4.265   3.713
  258SOL    HW2 1674   4.661   4.296   3.871
  259SOL     OW 1675   0.946   2.221   3.585
  259SOL    HW1 1676   0.978   2.300   3.533
  259SOL    HW2 1677   0.895   2.159   3.526
  260SOL     OW 1678   6.899   6.662   5.591
  260SOL    HW1 1679   6.871   6.672   5.495
  260SOL    HW2 1680   6.849   6.587   5.633
  261SOL     OW 1681   0.341   1.328   3.306
  261SOL    HW1 1682   0.355   1.357   3.401
  261SOL    HW2 1683   0.246   1.304   3.293
  262SOL     OW 1684   2.249   4.884   2.605
  262SOL    HW1 1685   2.265   4.926   2.515
  262SOL    HW2 1686   2.334   4.842   2.637
  263SOL     OW 1687   6.625   2.920   5.126
  263SOL    HW1 1688   6.643   2.993   5.192
  263SOL    HW2 1689   6.528   2.895   5.130
  264SOL     OW 1690   3.112   3.979   6.523
  264SOL    HW1 1691   3.127   3.891   6.567
  264SOL    HW2 1692   3.150   3.977   6.431
  265SOL     OW 1693   4.972   5.433   4.341
  265SOL    HW1 1694   4.918   5.463   4.263
  265SOL    HW2 1695   5.040   5.504   4.364
  266SOL     OW 1696   3.639   3.124   6.618
  266SOL    HW1 1697   3.696   3.095   6.541
  266SOL    HW2 1698   3.582   3.202   6.591
  267SOL     OW 1699   2.218   1.489   6.613
  267SOL    HW1 1700   2.132   1.456   6.575
  267SOL    HW2 1701   2.282   1.510   6.539
  268SOL     OW 1702   3.099   5.016   3.780
  268SOL    HW1 1703   3.047   4.972   3.853
  268SOL    HW2 1704   3.175   5.068   3.820
  269SOL     OW 1705   1.890   1.237   4.821
  269SOL    HW1 1706   1.922   1.143   4.833
  269SOL    HW2 1707   1.814   1.238   4.756
  270SOL     OW 1708   4.881   6.676   4.441
  270SOL    HW1 1709   4.861   6.673   4.539
  270SOL    HW2 1710   4.795   6.673   4.390
  271SOL     OW 1711   1.718   1.691   0.848
  271SOL    HW1 1712   1.629   1.647   0.864
  271SOL    HW2 1713   1.704   1.785   0.816
  272SOL     OW 1714   4.339   6.008   1.599
  272SOL    HW1 1715   4.276   5.999   1.676
  272SOL    HW2 1716   4.421   5.953   1.617
  273SOL     OW 1717   2.342   6.788   4.690
  273SOL    HW1 1718   2.439   6.811   4.697
  273SOL    HW2 1719   2.319   6.719   4.758
  274SOL     OW 1720   5.761   1.611   0.851
  274SOL    HW1 1721   5.824   1.661   0.911
  274SOL    HW2 1722   5.740   1.668   0.772
  275SOL     OW 1723   5.999   5.777   5.822
  275SOL    HW1 1724   5.915   5.827   5.802
  275SOL    HW2 1725   6.068   5.840   5.856
  276SOL     OW 1726   6.852   6.724   4.491
  276SOL    HW1 1727   6.767   6.777   4.482
  276SOL    HW2 1728   6.831   6.634   4.528
  277SOL     OW 1729   4.611   2.372   5.357
  277SOL    HW1 1730   4.633   2.433   5.433
  277SOL    HW2 1731   4.574   2.426   5.281
  278SOL     OW 1732   5.871   3.941   3.235
  278SOL    HW1 1733   5.944   3.955   3.167
  278SOL    HW2 1734   5.786   3.918   3.188
  279SOL     OW 1735   6.929   3.719   3.754
  279SOL    HW1 1736   7.007   3.768   3.715
  279SOL    HW2 1737   6.937   3.719   3.853
  280SOL     OW 1738   4.052   0.941   3.687
  280SOL    HW1 1739   4.118   0.933   3.761
  280SOL    HW2 1740   4.010   1.032   3.690
  281SOL     OW 1741   4.807   5.796   5.345
  281SOL    HW1 1742   4.843   5.730   5.279
  281SOL    HW2 1743   4.880   5.823   5.407
  282SOL     OW 1744   1.444   2.649   0.525
  282SOL    HW1 1745   1.410   2.743   0.524
  282SOL    HW2 1746   1.537   2.647   0.560
  283SOL     OW 1747   5.410   3.716   4.294
  283SOL    HW1 1748   5.439   3.807   4.320
  283SOL    HW2 1749   5.350   3.678   4.365
  284SOL     OW 1750   5.009   6.002   2.568
  284SOL    HW1 1751   5.094   5.950   2.558
  284SOL    HW2 1752   4.975   6.028   2.478
  285SOL     OW 1753   3.962   0.635   5.802
  285SOL    HW1 1754   3.895   0.610   5.872
  285SOL    HW2 1755   3.945   0.729   5.771
  286SOL     OW 1756   2.379   5.040   5.433
  286SOL    HW1 1757   2.457   5.006   5.486
  286SOL    HW2 1758   2.300   5.048   5.493
  287SOL     OW 1759   3.987   6.911   0.085
  287SOL    HW1 1760   3.974   6.990   0.145
  287SOL    HW2 1761   3.900   6.863   0.075
  288SOL     OW 1762   5.040   1.924   0.425
  288SOL    HW1 1763   5.082   2.014   0.442
  288SOL    HW2 1764   5.075   1.887   0.339
  289SOL     OW 1765   5.973   5.508   4.021
  289SOL    HW1 1766   6.020   5.481   4.105
  289SOL    HW2 1767   6.018   5.465   3.942
  290SOL     OW 1768   3.730   0.795   6.127
  290SOL    HW1 1769   3.694   0.889   6.125
  290SOL    HW2 1770   3.680   0.743   6.196
  291SOL     OW 1771   3.868   0.093   5.450
  291SOL    HW1 1772   3.925   0.071   5.529
  291SOL    HW2 1773   3.920   0.147   5.384
  292SOL     OW 1774   3.786   0.035   3.879
  292SOL    HW1 1775   3.779   0.043   3.978
  292SOL    HW2 1776   3.879   0.008   3.854
  293SOL     OW 1777   5.319   6.053   2.712
  293SOL    HW1 1778   5.278   5.998   2.639
  293SOL    HW2 1779   5.358   6.136   2.672
  294SOL     OW 1780   6.690   1.170   6.383
  294SOL    HW1 1781   6.729   1.087   6.346
  294SOL    HW2 1782   6.750   1.248   6.363
  295SOL     OW 1783   1.222   0.324   4.465
  295SOL    HW1 1784   1.314   0.323   4.506
  295SOL    HW2 1785   1.171   0.402   4.500
  296SOL     OW 1786   0.527   2.124   2.124
  296SOL    HW1 1787   0.544   2.206   2.070
  296SOL    HW2 1788   0.470   2.060   2.072
  297SOL     OW 1789   5.257   3.270   3.492
  297SOL    HW1 1790   5.255   3.238   3.397
  297SOL    HW2 1791   5.327   3.221   3.543
  298SOL     OW 1792   4.216   0.778   5.793
  298SOL    HW1 1793   4.155   0.754   5.869
  298SOL    HW2 1794   4.288   0.839   5.825
  299SOL     OW 1795   0.874   0.751   6.855
  299SOL    HW1 1796   0.961   0.762   6.806
  299SOL    HW2 1797   0.890   0.753   6.953
  300SOL     OW 1798   4.393   0.102   3.564
  300SOL    HW1 1799   4.435   0.046   3.492
  300SOL    HW2 1800   4.392   0.051   3.650
  301SOL     OW 1801   6.507   5.466   6.528
  301SOL    HW1 1802   6.574   5.537   6.546
  301SOL    HW2 1803   6.505   5.446   6.430
  302SOL     OW 1804   6.814   5.981   2.606
  302SOL    HW1 1805   6.904   5.955   2.572
  302SOL    HW2 1806   6.799   5.942   2.697
  303SOL     OW 1807   5.870   6.129   3.640
  303SOL    HW1 1808   5.847   6.034   3.662
  303SOL    HW2 1809   5.961   6.150   3.676
  304SOL     OW 1810   2.650   6.191   4.671
  304SOL    HW1 1811   2.614   6.202   4.764
  304SOL    HW2 1812   2.750   6.193   4.674
  305SOL     OW 1813   1.107   2.712   1.910
  305SOL    HW1 1814   1.125   2.688   2.005
  305SOL    HW2 1815   1.057   2.637   1.866
  306SOL     OW 1816   0.124   6.539   3.346
  306SOL    HW1 1817   0.215   6.557   3.385
  306SOL    HW2 1818   0.056   6.595   3.394
  307SOL     OW 1819   3.637   3.273   3.998
  307SOL    HW1 1820   3.651   3.238   4.091
  307SOL    HW2 1821   3.635   3.373   4.001
  308SOL     OW 1822   6.430   1.970   2.750
  308SOL    HW1 1823   6.441   1.928   2.840
  308SOL    HW2 1824   6.488   2.052   2.744
  309SOL     OW 1825   1.811   5.676   6.514
  309SOL    HW1 1826   1.859   5.760   6.541
  309SOL    HW2 1827   1.775   5.687   6.422
  310SOL     OW 1828   5.820   6.441   4.878
  310SOL    HW1 1829   5.854   6.365   4.934
  310SOL    HW2 1830   5.759   6.499   4.932
  311SOL     OW 1831   1.915   6.018   2.034
  311SOL    HW1 1832   1.960   5.968   1.960
  311SOL    HW2 1833   1.977   6.025   2.112
  312SOL     OW 1834   3.139   0.192   3.935
  312SOL    HW1 1835   3.229   0.228   3.958
  312SOL    HW2 1836   3.088   0.260   3.882
  313SOL     OW 1837   3.021   3.392   2.723
  313SOL    HW1 1838   3.019   3.479   2.773
  313SOL    HW2 1839   3.068   3.404   2.636
  314SOL     OW 1840   3.028   5.298   6.054
  314SOL    HW1 1841   2.951   5.296   6.118
  314SOL    HW2 1842   3.084   5.379   6.072
  315SOL     OW 1843   5.601   1.133   4.484
  315SOL    HW1 1844   5.524   1.196   4.494
  315SOL    HW2 1845   5.669   1.152   4.554
  316SOL     OW 1846   4.041   1.064   5.964
  316SOL    HW1 1847   4.114   1.095   5.903
  316SOL    HW2 1848   4.066   1.083   6.059
  317SOL     OW 1849   0.733   2.024   1.011
  317SOL    HW1 1850   0.833   2.021   1.008
  317SOL    HW2 1851   0.702   2.118   1.003
  318SOL     OW 1852   0.551   0.244   5.583
  318SOL    HW1 1853   0.460   0.212   5.606
  318SOL    HW2 1854   0.592   0.184   5.514
  319SOL     OW 1855   6.685   0.560   3.766
  319SOL    HW1 1856   6.773   0.601   3.743
  319SOL    HW2 1857   6.654   0.594   3.855
  320SOL     OW 1858   5.537   2.247   6.530
  320SOL    HW1 1859   5.577   2.335   6.505
  320SOL    HW2 1860   5.549   2.232   6.628
  321SOL     OW 1861   5.169   2.996   0.661
  321SOL    HW1 1862   5.242   2.947   0.613
  321SOL    HW2 1863   5.154   2.954   0.751
  322SOL     OW 1864   3.204   2.619   6.534
  322SOL    HW1 1865   3.151   2.662   6.461
  322SOL    HW2 1866   3.143   2.599   6.611
  323SOL     OW 1867   1.921   3.812   3.159
  323SOL    HW1 1868   1.888   3.718   3.168
  323SOL    HW2 1869   1.971   3.822   3.073
  324SOL     OW 1870   0.359   0.047   2.708
  324SOL    HW1 1871   0.291   7.017   2.761
  324SOL    HW2 1872   0.432   7.006   2.680
  325SOL     OW 1873   0.084   4.129   0.651
  325SOL    HW1 1874   0.167   4.077   0.630
  325SOL    HW2 1875   0.004   4.076   0.624
  326SOL     OW 1876   0.609   6.152   6.878
  326SOL    HW1 1877   0.690   6.095   6.865
  326SOL    HW2 1878   0.601   6.177   6.975
  327SOL     OW 1879   4.669   5.395   5.021
  327SOL    HW1 1880   4.692   5.416   5.116
  327SOL    HW2 1881   4.578   5.354   5.016
  328SOL     OW 1882   1.445   4.837   3.521
  328SOL    HW1 1883   1.426   4.786   3.605
  328SOL    HW2 1884   1.383   4.915   3.514
  329SOL     OW 1885   3.002   3.238   1.617
  329SOL    HW1 1886   2.919   3.231   1.674
  329SOL    HW2 1887   3.020   3.150   1.573
  330SOL     OW 1888   3.265   3.451   0.530
  330SOL    HW1 1889   3.361   3.477   0.537
  330SOL    HW2 1890   3.207   3.531   0.539
  331SOL     OW 1891   5.552   5.053   5.206
  331SOL    HW1 1892   5.626   4.989   5.185
  331SOL    HW2 1893   5.572   5.100   5.292
  332SOL     OW 1894   5.595   2.441   2.828
  332SOL    HW1 1895   5.577   2.539   2.825
  332SOL    HW2 1896   5.644   2.413   2.745
  333SOL     OW 1897   3.775   0.275   4.480
  333SOL    HW1 1898   3.718   0.300   4.559
  333SOL    HW2 1899   3.775   0.350   4.414
  334SOL     OW 1900   3.682   3.765   3.355
  334SOL    HW1 1901   3.760   3.711   3.388
  334SOL    HW2 1902   3.713   3.858   3.336
  335SOL     OW 1903   4.153   1.557   0.945
  335SOL    HW1 1904   4.248   1.589   0.939
  335SOL    HW2 1905   4.125   1.519   0.856
  336SOL     OW 1906   3.340   1.843   4.542
  336SOL    HW1 1907   3.337   1.936   4.505
  336SOL    HW2 1908   3.251   1.799   4.528
  337SOL     OW 1909   0.528   0.757   5.397
  337SOL    HW1 1910   0.531   0.697   5.317
  337SOL    HW2 1911   0.462   0.831   5.380
  338SOL     OW 1912   4.580   1.385   1.084
  338SOL    HW1 1913   4.497   1.363   1.134
  338SOL    HW2 1914   4.567   1.366   0.987
  339SOL     OW 1915   3.865   5.294   6.029
  339SOL    HW1 1916   3.883   5.344   5.944
  339SOL    HW2 1917   3.948   5.248   6.059
  340SOL     OW 1918   5.317   2.305   3.899
  340SOL    HW1 1919   5.391   2.305   3.966
  340SOL    HW2 1920   5.285   2.399   3.883
  341SOL     OW 1921   6.726   6.300   3.035
  341SOL    HW1 1922   6.716   6.203   3.016
  341SOL    HW2 1923   6.775   6.345   2.960
  342SOL     OW 1924   4.760   1.765   2.339
  342SOL    HW1 1925   4.720   1.802   2.255
  342SOL    HW2 1926   4.792   1.672   2.323
  343SOL     OW 1927   6.722   6.771   2.237
  343SOL    HW1 1928   6.740   6.864   2.266
  343SOL    HW2 1929   6.661   6.772   2.158
  344SOL     OW 1930   0.520   2.375   1.218
  344SOL    HW1 1931   0.569   2.366   1.304
  344SOL    HW2 1932   0.428   2.411   1.234
  345SOL     OW 1933   6.481   2.346   4.491
  345SOL    HW1 1934   6.494   2.390   4.403
  345SOL    HW2 1935   6.461   2.415   4.560
  346SOL     OW 1936   2.298   6.537   3.986
  346SOL    HW1 1937   2.230   6.489   3.931
  346SOL    HW2 1938   2.253   6.601   4.048
  347SOL     OW 1939   2.229   4.495   0.459
  347SOL    HW1 1940   2.156   4.474   0.395
  347SOL    HW2 1941   2.191   4.505   0.551
  348SOL     OW 1942   3.904   5.367   1.400
  348SOL    HW1 1943   3.888   5.281   1.450
  348SOL    HW2 1944   3.985   5.412   1.435
  349SOL     OW 1945   5.827   4.192   1.142
  349SOL    HW1 1946   5.915   4.167   1.100
  349SOL    HW2 1947   5.765   4.226   1.071
  350SOL     OW 1948   3.352   2.510   0.091
  350SOL    HW1 1949   3.385   2.502   7.017
  350SOL    HW2 1950   3.298   2.594   0.101
  351SOL     OW 1951   3.423   4.400   1.052
  351SOL    HW1 1952   3.425   4.330   1.123
  351SOL    HW2 1953   3.468   4.483   1.084
  352SOL     OW 1954   4.508   0.327   2.668
  352SOL    HW1 1955   4.508   0.340   2.569
  352SOL    HW2 1956   4.602   0.335   2.703
  353SOL     OW 1957   1.639   0.489   6.904
  353SOL    HW1 1958   1.697   0.566   6.876
  353SOL    HW2 1959   1.679   0.444   6.984
  354SOL     OW 1960   0.209   2.383   0.392
  354SOL    HW1 1961   0.243   2.315   0.457
  354SOL    HW2 1962   0.184   2.467   0.442
  355SOL     OW 1963   0.756   2.418   3.099
  355SOL    HW1 1964   0.724   2.325   3.082
  355SOL    HW2 1965   0.722   2.449   3.188
  356SOL     OW 1966   1.938   1.066   5.587
  356SOL    HW1 1967   1.986   1.012   5.518
  356SOL    HW2 1968   1.883   1.006   5.644
  357SOL     OW 1969   5.338   6.665   4.948
  357SOL    HW1 1970   5.361   6.732   4.878
  357SOL    HW2 1971   5.256   6.695   4.997
  358SOL     OW 1972   3.410   5.888   6.525
  358SOL    HW1 1973   3.395   5.829   6.604
  358SOL    HW2 1974   3.347   5.863   6.452
  359SOL     OW 1975   1.391   2.148   2.515
  359SOL    HW1 1976   1.318   2.082   2.534
  359SOL    HW2 1977   1.480   2.103   2.521
  360SOL     OW 1978   1.019   4.540   4.159
  360SOL    HW1 1979   0.951   4.611   4.142
  360SOL    HW2 1980   1.110   4.582   4.167
  361SOL     OW 1981   6.562   1.641   2.385
  361SOL    HW1 1982   6.612   1.714   2.432
  361SOL    HW2 1983   6.600   1.553   2.412
  362SOL     OW 1984   3.892   3.753   0.835
  362SOL    HW1 1985   3.844   3.746   0.747
  362SOL    HW2 1986   3.877   3.670   0.888
  363SOL     OW 1987   5.507   5.481   1.790
  363SOL    HW1 1988   5.497   5.437   1.879
  363SOL    HW2 1989   5.430   5.544   1.775
  364SOL     OW 1990   0.912   6.657   6.580
  364SOL    HW1 1991   0.851   6.725   6.538
  364SOL    HW2 1992   0.983   6.704   6.633
  365SOL     OW 1993   5.271   1.407   3.670
  365SOL    HW1 1994   5.311   1.483   3.617
  365SOL    HW2 1995   5.185   1.438   3.711
  366SOL     OW 1996   5.817   1.632   6.570
  366SOL    HW1 1997   5.849   1.615   6.663
  366SOL    HW2 1998   5.844   1.556   6.511
  367SOL     OW 1999   5.987   1.438   6.310
  367SOL    HW1 2000   5.992   1.530   6.348
  367SOL    HW2 2001   5.997   1.371   6.383
  368SOL     OW 2002   0.364   2.533   5.522
  368SOL    HW1 2003   0.348   2.459   5.457
  368SOL    HW2 2004   0.457   2.526   5.559
  369SOL     OW 2005   6.844   3.799   1.571
  369SOL    HW1 2006   6.791   3.863   1.627
  369SOL    HW2 2007   6.859   3.839   1.481
  370SOL     OW 2008   1.431   3.001   4.017
  370SOL    HW1 2009   1.445   2.967   3.924
  370SOL    HW2 2010   1.421   3.100   4.014
  371SOL     OW 2011   0.559   4.845   6.753
  371SOL    HW1 2012   0.474   4.793   6.743
  371SOL    HW2 2013   0.562   4.888   6.843
  372SOL     OW 2014   3.699   6.439   5.967
  372SOL    HW1 2015   3.792   6.441   5.929
  372SOL    HW2 2016   3.698   6.489   6.054
  373SOL     OW 2017   6.061   5.269   3.434
  373SOL    HW1 2018   6.014   5.226   3.357
  373SOL    HW2 2019   6.051   5.211   3.515
  374SOL     OW 2020   2.751   0.836   2.809
  374SOL    HW1 2021   2.670   0.881   2.848
  374SOL    HW2 2022   2.807   0.800   2.883
  375SOL     OW 2023   1.033   5.281   4.719
  375SOL    HW1 2024   1.023   5.307   4.623
  375SOL    HW2 2025   1.102   5.339   4.762
  376SOL     OW 2026   3.412   0.813   3.545
  376SOL    HW1 2027   3.424   0.893   3.485
  376SOL    HW2 2028   3.397   0.732   3.489
  377SOL     OW 2029   1.691   1.714   7.001
  377SOL    HW1 2030   1.657   1.741   0.071
  377SOL    HW2 2031   1.685   1.791   6.938
  378SOL     OW 2032   4.531   1.542   2.034
  378SOL    HW1 2033   4.493   1.601   2.104
  378SOL    HW2 2034   4.493   1.567   1.945
  379SOL     OW 2035   5.201   1.859   6.121
  379SOL    HW1 2036   5.253   1.775   6.132
  379SOL    HW2 2037   5.109   1.846   6.157
  380SOL     OW 2038   4.267   2.728   6.990
  380SOL    HW1 2039   4.301   2.822   6.990
  380SOL    HW2 2040   4.205   2.715   0.047
  381SOL     OW 2041   1.858   4.015   3.308
  381SOL    HW1 2042   1.778   3.995   3.363
  381SOL    HW2 2043   1.885   3.934   3.256
  382SOL     OW 2044   4.765   0.720   6.403
  382SOL    HW1 2045   4.819   0.758   6.478
  382SOL    HW2 2046   4.696   0.787   6.375
  383SOL     OW 2047   5.319   1.991   0.723
  383SOL    HW1 2048   5.236   1.961   0.769
  383SOL    HW2 2049   5.298   2.065   0.660
  384SOL     OW 2050   6.009   3.791   4.860
  384SOL    HW1 2051   6.066   3.764   4.782
  384SOL    HW2 2052   6.034   3.883   4.889
  385SOL     OW 2053   4.394   3.356   0.046
  385SOL    HW1 2054   4.415   3.308   0.131
  385SOL    HW2 2055   4.426   3.302   6.989
  386SOL     OW 2056   3.972   6.023   4.073
  386SOL    HW1 2057   3.979   5.934   4.116
  386SOL    HW2 2058   4.034   6.087   4.118
  387SOL     OW 2059   3.013   6.631   3.941
  387SOL    HW1 2060   3.078   6.689   3.892
  387SOL    HW2 2061   2.945   6.596   3.877
  388SOL     OW 2062   1.288   4.674   6.857
  388SOL    HW1 2063   1.272   4.630   6.945
  388SOL    HW2 2064   1.270   4.610   6.783
  389SOL     OW 2065   3.094   3.436   2.457
  389SOL    HW1 2066   3.134   3.499   2.390
  389SOL    HW2 2067   3.055   3.358   2.409
  390SOL     OW 2068   2.427   1.630   3.916
  390SOL    HW1 2069   2.370   1.569   3.861
  390SOL    HW2 2070   2.394   1.630   4.011
  391SOL     OW 2071   0.587   2.756   6.407
  391SOL    HW1 2072   0.663   2.695   6.428
  391SOL    HW2 2073   0.528   2.714   6.337
  392SOL     OW 2074   3.084   5.604   3.353
  392SOL    HW1 2075   3.003   5.548   3.334
  392SOL    HW2 2076   3.118   5.583   3.445
  393SOL     OW 2077   5.992   4.298   5.458
  393SOL    HW1 2078   5.915   4.296   5.394
  393SOL    HW2 2079   6.045   4.382   5.443
  394SOL     OW 2080   2.454   0.184   6.790
  394SOL    HW1 2081   2.510   0.153   6.713
  394SOL    HW2 2082   2.362   0.206   6.757
  395SOL     OW 2083   6.542   3.461   1.151
  395SOL    HW1 2084   6.596   3.538   1.184
  395SOL    HW2 2085   6.576   3.376   1.193
  396SOL     OW 2086   3.487   3.228   4.526
  396SOL    HW1 2087   3.497   3.155   4.594
  396SOL    HW2 2088   3.406   3.283   4.548
  397SOL     OW 2089   4.146   2.238   6.418
  397SOL    HW1 2090   4.147   2.312   6.351
  397SOL    HW2 2091   4.090   2.163   6.383
  398SOL     OW 2092   1.264   5.024   2.248
  398SOL    HW1 2093   1.325   5.098   2.273
  398SOL    HW2 2094   1.261   5.015   2.148
  399SOL     OW 2095   5.279   5.089   2.365
  399SOL    HW1 2096   5.337   5.168   2.348
  399SOL    HW2 2097   5.320   5.008   2.322
  400SOL     OW 2098   1.492   5.313   5.249
  400SOL    HW1 2099   1.580   5.294   5.294
  400SOL    HW2 2100   1.453   5.228   5.214
  401SOL     OW 2101   5.581   1.396   6.494
  401SOL    HW1 2102   5.613   1.491   6.494
  401SOL    HW2 2103   5.588   1.360   6.587
  402SOL     OW 2104   5.891   5.010   1.360
  402SOL    HW1 2105   5.951   5.089   1.345
  402SOL    HW2 2106   5.835   5.027   1.441
  403SOL     OW 2107   5.678   3.865   6.634
  403SOL    HW1 2108   5.734   3.791   6.670
  403SOL    HW2 2109   5.736   3.946   6.621
  404SOL     OW 2110   0.412   6.860   4.575
  404SOL    HW1 2111   0.467   6.886   4.655
  404SOL    HW2 2112   0.315   6.867   4.599
  405SOL     OW 2113   0.883   2.387   0.676
  405SOL    HW1 2114   0.830   2.343   0.604
  405SOL    HW2 2115   0.955   2.444   0.635
  406SOL     OW 2116   1.344   3.249   3.437
  406SOL    HW1 2117   1.378   3.343   3.431
  406SOL    HW2 2118   1.421   3.188   3.456
  407SOL     OW 2119   2.561   0.995   3.801
  407SOL    HW1 2120   2.576   0.897   3.805
  407SOL    HW2 2121   2.630   1.042   3.856
  408SOL     OW 2122   1.921   7.009   3.273
  408SOL    HW1 2123   1.904   7.012   3.372
  408SOL    HW2 2124   1.842   6.969   3.227
  409SOL     OW 2125   6.106   3.405   3.657
  409SOL    HW1 2126   6.019   3.365   3.629
  409SOL    HW2 2127   6.148   3.452   3.579
  410SOL     OW 2128   2.993   1.498   6.317
  410SOL    HW1 2129   2.949   1.519   6.229
  410SOL    HW2 2130   2.940   1.539   6.391
  411SOL     OW 2131   6.476   4.108   5.053
  411SOL    HW1 2132   6.397   4.153   5.010
  411SOL    HW2 2133   6.502   4.028   4.999
  412SOL     OW 2134   3.589   0.148   2.582
  412SOL    HW1 2135   3.606   0.052   2.602
  412SOL    HW2 2136   3.676   0.194   2.563
  413SOL     OW 2137   2.332   0.351   1.015
  413SOL    HW1 2138   2.283   0.272   1.051
  413SOL    HW2 2139   2.391   0.322   0.940
  414SOL     OW 2140   4.360   3.840   0.300
  414SOL    HW1 2141   4.300   3.762   0.281
  414SOL    HW2 2142   4.311   3.909   0.352
  415SOL     OW 2143   2.972   6.443   1.941
  415SOL    HW1 2144   2.933   6.530   1.973
  415SOL    HW2 2145   3.044   6.462   1.874
  416SOL     OW 2146   3.987   5.740   5.564
  416SOL    HW1 2147   4.080   5.715   5.593
  416SOL    HW2 2148   3.962   5.828   5.606
  417SOL     OW 2149   4.705   6.323   1.071
  417SOL    HW1 2150   4.737   6.229   1.055
  417SOL    HW2 2151   4.619   6.337   1.020
  418SOL     OW 2152   5.647   4.681   1.015
  418SOL    HW1 2153   5.661   4.722   1.105
  418SOL    HW2 2154   5.719   4.712   0.953
  419SOL     OW 2155   6.220   6.295   1.058
  419SOL    HW1 2156   6.236   6.274   1.154
  419SOL    HW2 2157   6.224   6.210   1.004
  420SOL     OW 2158   4.121   3.949   0.142
  420SOL    HW1 2159   4.062   3.922   0.218
  420SOL    HW2 2160   4.125   3.875   0.075
  421SOL     OW 2161   1.855   6.350   6.346
  421SOL    HW1 2162   1.940   6.353   6.294
  421SOL    HW2 2163   1.869   6.394   6.435
  422SOL     OW 2164   5.889   3.427   6.826
  422SOL    HW1 2165   5.843   3.425   6.915
  422SOL    HW2 2166   5.891   3.335   6.787
  423SOL     OW 2167   0.678   2.550   6.656
  423SOL    HW1 2168   0.733   2.630   6.633
  423SOL    HW2 2169   0.736   2.468   6.656
  424SOL     OW 2170   2.177   3.702   0.035
  424SOL    HW1 2171   2.106   3.728   0.100
  424SOL    HW2 2172   2.262   3.750   0.057
  425SOL     OW 2173   2.970   1.095   0.654
  425SOL    HW1 2174   2.939   1.174   0.603
  425SOL    HW2 2175   2.924   1.091   0.743
  426SOL     OW 2176   5.696   4.037   5.271
  426SOL    HW1 2177   5.640   4.018   5.191
  426SOL    HW2 2178   5.720   3.951   5.316
  427SOL     OW 2179   5.147   3.945   1.014
  427SOL    HW1 2180   5.083   3.869   1.006
  427SOL    HW2 2181   5.241   3.910   1.004
  428SOL     OW 2182   3.700   0.820   4.751
  428SOL    HW1 2183   3.667   0.839   4.844
  428SOL    HW2 2184   3.656   0.884   4.687
  429SOL     OW 2185   2.088   5.020   6.406
  429SOL    HW1 2186   2.171   4.979   6.445
  429SOL    HW2 2187   2.042   5.074   6.476
  430SOL     OW 2188   1.129   6.974   5.131
  430SOL    HW1 2189   1.048   6.921   5.159
  430SOL    HW2 2190   1.147   0.024   5.200
  431SOL     OW 2191   3.864   1.877   0.580
  431SOL    HW1 2192   3.785   1.922   0.538
  431SOL    HW2 2193   3.834   1.817   0.653
  432SOL     OW 2194   0.402   2.019   1.059
  432SOL    HW1 2195   0.457   1.937   1.042
  432SOL    HW2 2196   0.429   2.060   1.146
  433SOL     OW 2197   3.578   6.325   5.296
  433SOL    HW1 2198   3.596   6.398   5.231
  433SOL    HW2 2199   3.626   6.242   5.269
  434SOL     OW 2200   0.372   3.561   1.357
  434SOL    HW1 2201   0.411   3.604   1.439
  434SOL    HW2 2202   0.436   3.570   1.281
  435SOL     OW 2203   3.763   4.038   0.422
  435SOL    HW1 2204   3.703   3.964   0.393
  435SOL    HW2 2205   3.728   4.125   0.388
  436SOL     OW 2206   2.355   1.189   6.877
  436SOL    HW1 2207   2.378   1.184   6.974
  436SOL    HW2 2208   2.404   1.265   6.834
  437SOL     OW 2209   6.941   0.062   6.933
  437SOL    HW1 2210   6.948   0.073   0.012
  437SOL    HW2 2211   6.915   0.149   6.892
  438SOL     OW 2212   1.598   2.813   1.868
  438SOL    HW1 2213   1.697   2.818   1.880
  438SOL    HW2 2214   1.553   2.842   1.953
  439SOL     OW 2215   0.109   5.380   3.135
  439SOL    HW1 2216   0.120   5.286   3.169
  439SOL    HW2 2217   0.022   5.417   3.167
  440SOL     OW 2218   1.059   3.068   4.057
  440SOL    HW1 2219   0.990   3.012   4.012
  440SOL    HW2 2220   1.128   3.009   4.099
  441SOL     OW 2221   0.481   1.159   3.772
  441SOL    HW1 2222   0.403   1.131   3.828
  441SOL    HW2 2223   0.484   1.102   3.690
  442SOL     OW 2224   6.884   4.247   0.221
  442SOL    HW1 2225   6.880   4.279   0.126
  442SOL    HW2 2226   6.970   4.198   0.236
  443SOL     OW 2227   0.281   4.560   5.596
  443SOL    HW1 2228   0.257   4.621   5.521
  443SOL    HW2 2229   0.356   4.500   5.567
  444SOL     OW 2230   4.209   3.263   6.215
  444SOL    HW1 2231   4.233   3.182   6.162
  444SOL    HW2 2232   4.109   3.267   6.225
  445SOL     OW 2233   2.157   4.716   3.017
  445SOL    HW1 2234   2.069   4.706   2.971
  445SOL    HW2 2235   2.153   4.792   3.081
  446SOL     OW 2236   4.735   4.601   3.826
  446SOL    HW1 2237   4.758   4.576   3.731
  446SOL    HW2 2238   4.666   4.538   3.862
  447SOL     OW 2239   6.524   5.644   0.583
  447SOL    HW1 2240   6.442   5.690   0.550
  447SOL    HW2 2241   6.526   5.550   0.549
  448SOL     OW 2242   4.558   0.346   5.472
  448SOL    HW1 2243   4.614   0.286   5.530
  448SOL    HW2 2244   4.512   0.414   5.529
  449SOL     OW 2245   5.522   0.257   4.649
  449SOL    HW1 2246   5.450   0.197   4.686
  449SOL    HW2 2247   5.561   0.215   4.567
  450SOL     OW 2248   6.804   6.351   3.751
  450SOL    HW1 2249   6.750   6.433   3.729
  450SOL    HW2 2250   6.824   6.301   3.667
  451SOL     OW 2251   0.367   2.531   3.077
  451SOL    HW1 2252   0.272   2.527   3.106
  451SOL    HW2 2253   0.424   2.482   3.143
  452SOL     OW 2254   0.252   4.854   6.661
  452SOL    HW1 2255   0.183   4.911   6.705
  452SOL    HW2 2256   0.303   4.909   6.594
  453SOL     OW 2257   2.435   1.009   5.947
  453SOL    HW1 2258   2.345   0.997   5.906
  453SOL    HW2 2259   2.461   0.927   5.997
  454SOL     OW 2260   1.003   6.286   0.077
  454SOL    HW1 2261   0.999   6.232   7.014
  454SOL    HW2 2262   1.064   6.242   0.143
  455SOL     OW 2263   5.469   0.965   5.842
  455SOL    HW1 2264   5.403   1.023   5.794
  455SOL    HW2 2265   5.431   0.873   5.853
  456SOL     OW 2266   4.402   5.524   6.180
  456SOL    HW1 2267   4.304   5.533   6.166
  456SOL    HW2 2268   4.429   5.578   6.260
  457SOL     OW 2269   2.022   4.873   2.740
  457SOL    HW1 2270   2.113   4.847   2.706
  457SOL    HW2 2271   1.993   4.809   2.811
  458SOL     OW 2272   6.642   5.611   6.143
  458SOL    HW1 2273   6.642   5.522   6.188
  458SOL    HW2 2274   6.563   5.618   6.082
  459SOL     OW 2275   1.698   0.344   2.814
  459SOL    HW1 2276   1.637   0.423   2.824
  459SOL    HW2 2277   1.677   0.276   2.885
  460SOL     OW 2278   6.357   2.211   3.304
  460SOL    HW1 2279   6.456   2.203   3.305
  460SOL    HW2 2280   6.327   2.267   3.381
  461SOL     OW 2281   4.920   6.346   5.498
  461SOL    HW1 2282   4.870   6.327   5.414
  461SOL    HW2 2283   4.946   6.443   5.502
  462SOL     OW 2284   3.232   3.043   6.574
  462SOL    HW1 2285   3.244   3.134   6.537
  462SOL    HW2 2286   3.320   2.996   6.578
  463SOL     OW 2287   6.588   5.327   2.144
  463SOL    HW1 2288   6.620   5.237   2.175
  463SOL    HW2 2289   6.666   5.381   2.112
  464SOL     OW 2290   2.159   1.370   5.446
  464SOL    HW1 2291   2.116   1.339   5.361
  464SOL    HW2 2292   2.239   1.313   5.465
  465SOL     OW 2293   6.623   2.651   4.169
  465SOL    HW1 2294   6.579   2.731   4.208
  465SOL    HW2 2295   6.558   2.576   4.162
  466SOL     OW 2296   1.246   6.942   3.827
  466SOL    HW1 2297   1.294   6.858   3.802
  466SOL    HW2 2298   1.205   6.982   3.745
  467SOL     OW 2299   1.498   0.398   5.307
  467SOL    HW1 2300   1.475   0.495   5.294
  467SOL    HW2 2301   1.460   0.367   5.394
  468SOL     OW 2302   3.540   4.927   1.178
  468SOL    HW1 2303   3.606   4.852   1.178
  468SOL    HW2 2304   3.453   4.895   1.140
  469SOL     OW 2305   1.975   5.719   6.833
  469SOL    HW1 2306   2.004   5.626   6.812
  469SOL    HW2 2307   1.890   5.718   6.885
  470SOL     OW 2308   3.825   0.244   2.502
  470SOL    HW1 2309   3.848   0.266   2.407
  470SOL    HW2 2310   3.865   0.156   2.527
  471SOL     OW 2311   2.266   2.340   4.606
  471SOL    HW1 2312   2.256   2.271   4.678
  471SOL    HW2 2313   2.362   2.369   4.602
  472SOL     OW 2314   3.917   4.719   5.705
  472SOL    HW1 2315   3.917   4.812   5.739
  472SOL    HW2 2316   4.011   4.686   5.696
  473SOL     OW 2317   1.219   3.542   2.766
  473SOL    HW1 2318   1.121   3.561   2.761
  473SOL    HW2 2319   1.259   3.591   2.843
  474SOL     OW 2320   4.284   5.325   4.390
  474SOL    HW1 2321   4.209   5.263   4.369
  474SOL    HW2 2322   4.262   5.378   4.472
  475SOL     OW 2323   0.402   6.699   6.159
  475SOL    HW1 2324   0.426   6.776   6.218
  475SOL    HW2 2325   0.303   6.697   6.145
  476SOL     OW 2326   0.177   4.435   2.360
  476SOL    HW1 2327   0.245   4.497   2.399
  476SOL    HW2 2328   0.203   4.340   2.380
  477SOL     OW 2329   2.008   5.454   3.811
  477SOL    HW1 2330   1.940   5.522   3.782
  477SOL    HW2 2331   2.033   5.472   3.906
  478SOL     OW 2332   2.681   5.043   3.491
  478SOL    HW1 2333   2.612   4.992   3.440
  478SOL    HW2 2334   2.743   4.980   3.536
  479SOL     OW 2335   3.708   2.359   0.457
  479SOL    HW1 2336   3.778   2.293   0.431
  479SOL    HW2 2337   3.750   2.448   0.473
  480SOL     OW 2338   0.798   6.792   2.486
  480SOL    HW1 2339   0.893   6.761   2.491
  480SOL    HW2 2340   0.788   6.857   2.411
  481SOL     OW 2341   4.351   0.145   1.131
  481SOL    HW1 2342   4.398   0.097   1.205
  481SOL    HW2 2343   4.368   0.099   1.045
  482SOL     OW 2344   5.308   4.202   1.939
  482SOL    HW1 2345   5.254   4.126   1.902
  482SOL    HW2 2346   5.274   4.224   2.031
  483SOL     OW 2347   5.458   1.832   1.626
  483SOL    HW1 2348   5.371   1.799   1.589
  483SOL    HW2 2349   5.517   1.754   1.648
  484SOL     OW 2350   6.960   2.293   4.198
  484SOL    HW1 2351   6.883   2.296   4.262
  484SOL    HW2 2352   6.938   2.231   4.123
  485SOL     OW 2353   3.815   4.980   2.098
  485SOL    HW1 2354   3.764   4.903   2.060
  485SOL    HW2 2355   3.787   5.064   2.053
  486SOL     OW 2356   0.443   0.617   0.696
  486SOL    HW1 2357   0.487   0.617   0.786
  486SOL    HW2 2358   0.510   0.644   0.627
  487SOL     OW 2359   0.078   2.298   6.822
  487SOL    HW1 2360   0.102   2.379   6.769
  487SOL    HW2 2361   0.063   2.324   6.918
  488SOL     OW 2362   0.131   2.176   2.263
  488SOL    HW1 2363   0.133   2.100   2.327
  488SOL    HW2 2364   0.120   2.262   2.313
  489SOL     OW 2365   3.347   5.679   6.700
  489SOL    HW1 2366   3.403   5.643   6.774
  489SOL    HW2 2367   3.336   5.609   6.629
  490SOL     OW 2368   5.739   6.415   4.609
  490SOL    HW1 2369   5.782   6.433   4.697
  490SOL    HW2 2370   5.646   6.382   4.624
  491SOL     OW 2371   0.452   2.554   2.562
  491SOL    HW1 2372   0.509   2.585   2.486
  491SOL    HW2 2373   0.355   2.570   2.540
  492SOL     OW 2374   1.980   0.478   5.575
  492SOL    HW1 2375   1.975   0.403   5.641
  492SOL    HW2 2376   1.942   0.448   5.488
  493SOL     OW 2377   6.680   4.449   5.252
  493SOL    HW1 2378   6.626   4.530   5.276
  493SOL    HW2 2379   6.736   4.470   5.171
  494SOL     OW 2380   6.785   0.443   0.879
  494SOL    HW1 2381   6.827   0.533   0.891
  494SOL    HW2 2382   6.686   0.450   0.894
  495SOL     OW 2383   4.619   4.508   1.542
  495SOL    HW1 2384   4.665   4.438   1.486
  495SOL    HW2 2385   4.685   4.548   1.606
  496SOL     OW 2386   6.121   3.298   3.201
  496SOL    HW1 2387   6.156   3.230   3.265
  496SOL    HW2 2388   6.021   3.297   3.203
  497SOL     OW 2389   3.680   0.623   5.032
  497SOL    HW1 2390   3.763   0.628   4.977
  497SOL    HW2 2391   3.631   0.710   5.026
  498SOL     OW 2392   0.721   3.021   2.572
  498SOL    HW1 2393   0.809   3.031   2.619
  498SOL    HW2 2394   0.728   2.945   2.506
  499SOL     OW 2395   3.277   0.814   4.898
  499SOL    HW1 2396   3.224   0.811   4.983
  499SOL    HW2 2397   3.230   0.874   4.833
  500SOL     OW 2398   0.918   3.823   2.433
  500SOL    HW1 2399   0.841   3.772   2.472
  500SOL    HW2 2400   0.976   3.857   2.507
  501SOL     OW 2401   1.345   3.337   6.825
  501SOL    HW1 2402   1.318   3.259   6.883
  501SOL    HW2 2403   1.266   3.369   6.773
  502SOL     OW 2404   3.773   5.092   6.934
  502SOL    HW1 2405   3.799   5.004   6.974
  502SOL    HW2 2406   3.682   5.085   6.895
  503SOL     OW 2407   5.918   5.131   5.577
  503SOL    HW1 2408   5.996   5.104   5.521
  503SOL    HW2 2409   5.910   5.230   5.578
  504SOL     OW 2410   2.139   6.216   4.463
  504SOL    HW1 2411   2.191   6.162   4.397
  504SOL    HW2 2412   2.200   6.247   4.537
  505SOL     OW 2413   4.166   0.283   6.006
  505SOL    HW1 2414   4.207   0.198   5.974
  505SOL    HW2 2415   4.202   0.305   6.097
  506SOL     OW 2416   2.203   4.255   6.094
  506SOL    HW1 2417   2.106   4.234   6.103
  506SOL    HW2 2418   2.229   4.321   6.164
  507SOL     OW 2419   3.342   1.392   4.118
  507SOL    HW1 2420   3.372   1.384   4.023
  507SOL    HW2 2421   3.365   1.308   4.168
  508SOL     OW 2422   6.709   3.911   3.723
  508SOL    HW1 2423   6.618   3.870   3.712
  508SOL    HW2 2424   6.774   3.840   3.750
  509SOL     OW 2425   4.719   1.800   1.546
  509SOL    HW1 2426   4.633   1.832   1.506
  509SOL    HW2 2427   4.763   1.735   1.484
  510SOL     OW 2428   0.132   4.238   4.520
  510SOL    HW1 2429   0.217   4.215   4.474
  510SOL    HW2 2430   0.063   4.168   4.500
  511SOL     OW 2431   0.322   0.031   0.754
  511SOL    HW1 2432   0.387   0.099   0.789
  511SOL    HW2 2433   0.372   6.982   0.702
  512SOL     OW 2434   0.828   3.564   6.174
  512SOL    HW1 2435   0.845   3.577   6.271
  512SOL    HW2 2436   0.804   3.468   6.157
  513SOL     OW 2437   6.191   6.267   5.113
  513SOL    HW1 2438   6.236   6.184   5.081
  513SOL    HW2 2439   6.182   6.331   5.037
  514SOL     OW 2440   5.715   1.611   3.811
  514SOL    HW1 2441   5.794   1.654   3.855
  514SOL    HW2 2442   5.701   1.653   3.721
  515SOL     OW 2443   2.045   6.230   6.605
  515SOL    HW1 2444   1.949   6.249   6.622
  515SOL    HW2 2445   2.072   6.147   6.654
  516SOL     OW 2446   2.059   5.220   1.991
  516SOL    HW1 2447   2.111   5.137   2.012
  516SOL    HW2 2448   2.122   5.295   1.970
  517SOL     OW 2449   4.632   0.013   0.604
  517SOL    HW1 2450   4.585   0.091   0.562
  517SOL    HW2 2451   4.719   0.043   0.643
  518SOL     OW 2452   2.860   2.603   1.214
  518SOL    HW1 2453   2.858   2.504   1.205
  518SOL    HW2 2454   2.806   2.644   1.140
  519SOL     OW 2455   0.872   6.601   0.065
  519SOL    HW1 2456   0.780   6.638   0.050
  519SOL    HW2 2457   0.873   6.504   0.041
  520SOL     OW 2458   5.500   4.720   5.578
  520SOL    HW1 2459   5.578   4.757   5.630
  520SOL    HW2 2460   5.532   4.679   5.494
  521SOL     OW 2461   6.686   1.472   0.569
  521SOL    HW1 2462   6.772   1.502   0.610
  521SOL    HW2 2463   6.704   1.409   0.495
  522SOL     OW 2464   3.864   3.496   4.141
  522SOL    HW1 2465   3.788   3.517   4.202
  522SOL    HW2 2466   3.890   3.400   4.152
  523SOL     OW 2467   6.861   6.902   4.740
  523SOL    HW1 2468   6.873   6.864   4.648
  523SOL    HW2 2469   6.783   6.858   4.784
  524SOL     OW 2470   2.722   0.531   5.374
  524SOL    HW1 2471   2.760   0.599   5.313
  524SOL    HW2 2472   2.657   0.574   5.437
  525SOL     OW 2473   2.569   3.405   6.903
  525SOL    HW1 2474   2.656   3.368   6.934
  525SOL    HW2 2475   2.582   3.455   6.817
  526SOL     OW 2476   3.403   5.882   4.751
  526SOL    HW1 2477   3.447   5.796   4.723
  526SOL    HW2 2478   3.407   5.891   4.850
  527SOL     OW 2479   0.456   1.218   6.493
  527SOL    HW1 2480   0.540   1.169   6.516
  527SOL    HW2 2481   0.451   1.303   6.547
  528SOL     OW 2482   2.428   0.970   5.229
  528SOL    HW1 2483   2.483   1.051   5.247
  528SOL    HW2 2484   2.481   0.904   5.176
  529SOL     OW 2485   0.205   5.208   4.026
  529SOL    HW1 2486   0.305   5.216   4.019
  529SOL    HW2 2487   0.182   5.116   4.058
  530SOL     OW 2488   2.215   2.991   5.251
  530SOL    HW1 2489   2.166   3.002   5.165
  530SOL    HW2 2490   2.313   3.006   5.235
  531SOL     OW 2491   0.345   0.420   1.110
  531SOL    HW1 2492   0.427   0.464   1.075
  531SOL    HW2 2493   0.278   0.411   1.037
  532SOL     OW 2494   1.400   1.139   5.739
  532SOL    HW1 2495   1.377   1.166   5.832
  532SOL    HW2 2496   1.333   1.073   5.705
  533SOL     OW 2497   5.911   0.449   4.448
  533SOL    HW1 2498   5.839   0.472   4.513
  533SOL    HW2 2499   5.931   0.351   4.455
  534SOL     OW 2500   4.233   5.180   2.380
  534SOL    HW1 2501   4.223   5.146   2.287
  534SOL    HW2 2502   4.305   5.250   2.382
  535SOL     OW 2503   0.383   3.756   3.438
  535SOL    HW1 2504   0.348   3.667   3.470
  535SOL    HW2 2505   0.309   3.823   3.440
  536SOL     OW 2506   1.431   5.507   1.169
  536SOL    HW1 2507   1.487   5.588   1.183
  536SOL    HW2 2508   1.347   5.532   1.120
  537SOL     OW 2509   2.312   6.884   2.372
  537SOL    HW1 2510   2.409   6.910   2.376
  537SOL    HW2 2511   2.305   6.788   2.343
  538SOL     OW 2512   0.809   6.244   3.541
  538SOL    HW1 2513   0.783   6.186   3.463
  538SOL    HW2 2514   0.872   6.315   3.510
  539SOL     OW 2515   1.744   4.643   1.936
  539SOL    HW1 2516   1.720   4.731   1.894
  539SOL    HW2 2517   1.714   4.568   1.877
  540SOL     OW 2518   1.228   2.235   2.270
  540SOL    HW1 2519   1.205   2.321   2.317
  540SOL    HW2 2520   1.211   2.158   2.332
  541SOL     OW 2521   3.003   5.641   5.831
  541SOL    HW1 2522   3.062   5.695   5.771
  541SOL    HW2 2523   2.980   5.555   5.786
  542SOL     OW 2524   5.868   5.495   6.638
  542SOL    HW1 2525   5.920   5.566   6.591
  542SOL    HW2 2526   5.930   5.438   6.692
  543SOL     OW 2527   0.471   5.553   0.139
  543SOL    HW1 2528   0.566   5.562   0.110
  543SOL    HW2 2529   0.411   5.590   0.068
  544SOL     OW 2530   1.145   5.054   0.875
  544SOL    HW1 2531   1.221   5.014   0.926
  544SOL    HW2 2532   1.063   5.055   0.932
  545SOL     OW 2533   3.844   1.818   3.150
  545SOL    HW1 2534   3.900   1.782   3.225
  545SOL    HW2 2535   3.883   1.906   3.120
  546SOL     OW 2536   0.928   3.917   0.066
  546SOL    HW1 2537   0.993   3.940   7.014
  546SOL    HW2 2538   0.886   3.828   0.047
  547SOL     OW 2539   2.858   2.979   0.243
  547SOL    HW1 2540   2.805   2.972   0.158
  547SOL    HW2 2541   2.860   3.074   0.273
  548SOL     OW 2542   3.597   2.873   3.804
  548SOL    HW1 2543   3.531   2.936   3.846
  548SOL    HW2 2544   3.558   2.835   3.720
  549SOL     OW 2545   6.439   3.370   1.780
  549SOL    HW1 2546   6.520   3.418   1.747
  549SOL    HW2 2547   6.427   3.388   1.878
  550SOL     OW 2548   0.828   4.361   2.155
  550SOL    HW1 2549   0.784   4.295   2.216
  550SOL    HW2 2550   0.785   4.451   2.167
  551SOL     OW 2551   6.732   2.457   0.323
  551SOL    HW1 2552   6.661   2.498   0.379
  551SOL    HW2 2553   6.694   2.427   0.236
  552SOL     OW 2554   4.108   5.975   0.198
  552SOL    HW1 2555   4.188   5.933   0.157
  552SOL    HW2 2556   4.075   5.918   0.273
  553SOL     OW 2557   1.806   1.745   1.749
  553SOL    HW1 2558   1.825   1.747   1.651
  553SOL    HW2 2559   1.842   1.661   1.789
  554SOL     OW 2560   5.214   6.113   5.325
  554SOL    HW1 2561   5.200   6.131   5.228
  554SOL    HW2 2562   5.226   6.199   5.374
  555SOL     OW 2563   1.633   4.436   4.626
  555SOL    HW1 2564   1.631   4.352   4.572
  555SOL    HW2 2565   1.619   4.415   4.722
  556SOL     OW 2566   4.945   3.227   4.049
  556SOL    HW1 2567   5.031   3.176   4.055
  556SOL    HW2 2568   4.891   3.211   4.131
  557SOL     OW 2569   0.377   6.249   6.178
  557SOL    HW1 2570   0.282   6.277   6.178
  557SOL    HW2 2571   0.431   6.313   6.123
  558SOL     OW 2572   3.796   4.201   5.150
  558SOL    HW1 2573   3.892   4.207   5.174
  558SOL    HW2 2574   3.751   4.131   5.206
  559SOL     OW 2575   6.298   5.891   6.363
  559SOL    HW1 2576   6.368   5.889   6.292
  559SOL    HW2 2577   6.320   5.822   6.432
  560SOL     OW 2578   4.266   6.513   0.115
  560SOL    HW1 2579   4.231   6.580   0.050
  560SOL    HW2 2580   4.221   6.526   0.204
  561SOL     OW 2581   5.599   6.630   0.869
  561SOL    HW1 2582   5.626   6.539   0.900
  561SOL    HW2 2583   5.553   6.679   0.943
  562SOL     OW 2584   5.831   1.719   5.371
  562SOL    HW1 2585   5.892   1.639   5.376
  562SOL    HW2 2586   5.886   1.802   5.363
  563SOL     OW 2587   3.055   6.380   4.118
  563SOL    HW1 2588   2.982   6.341   4.174
  563SOL    HW2 2589   3.015   6.425   4.038
  564SOL     OW 2590   1.191   0.825   6.396
  564SOL    HW1 2591   1.234   0.915   6.396
  564SOL    HW2 2592   1.254   0.758   6.357
  565SOL     OW 2593   4.848   3.970   4.935
  565SOL    HW1 2594   4.867   4.060   4.975
  565SOL    HW2 2595   4.806   3.980   4.845
  566SOL     OW 2596   5.304   4.841   2.926
  566SOL    HW1 2597   5.231   4.891   2.878
  566SOL    HW2 2598   5.264   4.785   2.997
  567SOL     OW 2599   3.585   2.948   4.413
  567SOL    HW1 2600   3.520   2.938   4.337
  567SOL    HW2 2601   3.535   2.938   4.499
  568SOL     OW 2602   2.466   1.808   0.242
  568SOL    HW1 2603   2.560   1.803   0.210
  568SOL    HW2 2604   2.464   1.846   0.334
  569SOL     OW 2605   2.385   2.843   0.444
  569SOL    HW1 2606   2.387   2.745   0.464
  569SOL    HW2 2607   2.316   2.887   0.502
  570SOL     OW 2608   6.570   6.036   1.130
  570SOL    HW1 2609   6.495   6.051   1.194
  570SOL    HW2 2610   6.646   5.991   1.177
  571SOL     OW 2611   4.283   5.312   3.347
  571SOL    HW1 2612   4.184   5.320   3.338
  571SOL    HW2 2613   4.306   5.303   3.444
  572SOL     OW 2614   1.678   3.895   4.952
  572SOL    HW1 2615   1.709   3.801   4.969
  572SOL    HW2 2616   1.590   3.893   4.905
  573SOL     OW 2617   3.928   1.984   6.244
  573SOL    HW1 2618   3.869   1.951   6.171
  573SOL    HW2 2619   3.883   2.060   6.292
  574SOL     OW 2620   2.321   1.741   4.196
  574SOL    HW1 2621   2.375   1.760   4.278
  574SOL    HW2 2622   2.287   1.647   4.199
  575SOL     OW 2623   5.620   2.496   0.075
  575SOL    HW1 2624   5.622   2.534   0.167
  575SOL    HW2 2625   5.529   2.507   0.036
  576SOL     OW 2626   0.528   2.048   2.673
  576SOL    HW1 2627   0.486   1.976   2.727
  576SOL    HW2 2628   0.520   2.027   2.576
  577SOL     OW 2629   3.206   1.840   3.508
  577SOL    HW1 2630   3.132   1.836   3.440
  577SOL    HW2 2631   3.249   1.930   3.505
  578SOL     OW 2632   0.133   3.416   3.883
  578SOL    HW1 2633   0.153   3.330   3.930
  578SOL    HW2 2634   0.097   3.482   3.948
  579SOL     OW 2635   4.465   3.222   6.850
  579SOL    HW1 2636   4.517   3.198   6.768
  579SOL    HW2 2637   4.513   3.190   6.931
  580SOL     OW 2638   0.782   5.844   0.313
  580SOL    HW1 2639   0.759   5.881   0.223
  580SOL    HW2 2640   0.790   5.919   0.378
  581SOL     OW 2641   3.888   3.907   2.707
  581SOL    HW1 2642   3.905   3.950   2.796
  581SOL    HW2 2643   3.878   3.808   2.720
  582SOL     OW 2644   6.175   3.774   2.033
  582SOL    HW1 2645   6.085   3.801   2.067
  582SOL    HW2 2646   6.212   3.848   1.976
  583SOL     OW 2647   1.789   4.810   6.968
  583SOL    HW1 2648   1.721   4.798   0.019
  583SOL    HW2 2649   1.801   4.907   6.949
  584SOL     OW 2650   0.289   5.476   4.617
  584SOL    HW1 2651   0.388   5.470   4.620
  584SOL    HW2 2652   0.250   5.421   4.692
  585SOL     OW 2653   0.122   1.446   6.670
  585SOL    HW1 2654   0.208   1.401   6.693
  585SOL    HW2 2655   0.115   1.533   6.718
  586SOL     OW 2656   2.427   6.406   0.696
  586SOL    HW1 2657   2.513   6.376   0.737
  586SOL    HW2 2658   2.446   6.472   0.624
  587SOL     OW 2659   0.951   2.985   5.109
  587SOL    HW1 2660   0.869   3.003   5.162
  587SOL    HW2 2661   0.937   3.012   5.014
  588SOL     OW 2662   3.375   7.004   1.551
  588SOL    HW1 2663   3.442   0.056   1.568
  588SOL    HW2 2664   3.357   6.955   1.636
  589SOL     OW 2665   4.751   5.185   2.467
  589SOL    HW1 2666   4.756   5.149   2.560
  589SOL    HW2 2667   4.767   5.284   2.468
  590SOL     OW 2668   6.840   2.019   1.804
  590SOL    HW1 2669   6.836   2.114   1.837
  590SOL    HW2 2670   6.906   1.968   1.860
  591SOL     OW 2671   3.504   6.657   3.075
  591SOL    HW1 2672   3.547   6.636   3.163
  591SOL    HW2 2673   3.573   6.686   3.009
  592SOL     OW 2674   5.461   0.975   6.910
  592SOL    HW1 2675   5.548   1.004   6.870
  592SOL    HW2 2676   5.452   1.014   7.002
  593SOL     OW 2677   5.425   1.628   3.627
  593SOL    HW1 2678   5.424   1.653   3.724
  593SOL    HW2 2679   5.503   1.569   3.609
  594SOL     OW 2680   4.690   2.817   1.156
  594SOL    HW1 2681   4.617   2.772   1.207
  594SOL    HW2 2682   4.717   2.901   1.204
  595SOL     OW 2683   3.424   6.536   4.010
  595SOL    HW1 2684   3.341   6.570   4.054
  595SOL    HW2 2685   3.402   6.455   3.955
  596SOL     OW 2686   1.295   4.817   2.845
  596SOL    HW1 2687   1.203   4.851   2.823
  596SOL    HW2 2688   1.347   4.807   2.760
  597SOL     OW 2689   4.020   1.879   5.760
  597SOL    HW1 2690   3.926   1.857   5.734
  597SOL    HW2 2691   4.078   1.798   5.751
  598SOL     OW 2692   3.237   4.176   0.884
  598SOL    HW1 2693   3.190   4.095   0.848
  598SOL    HW2 2694   3.334   4.154   0.897
  599SOL     OW 2695   6.783   6.260   2.613
  599SOL    HW1 2696   6.776   6.161   2.604
  599SOL    HW2 2697   6.803   6.300   2.524
  600SOL     OW 2698   2.501   0.535   0.502
  600SOL    HW1 2699   2.558   0.494   0.573
  600SOL    HW2 2700   2.436   0.598   0.544
  601SOL     OW 2701   2.778   5.242   3.329
  601SOL    HW1 2702   2.744   5.160   3.375
  601SOL    HW2 2703   2.875   5.253   3.350
  602SOL     OW 2704   1.344   1.209   1.458
  602SOL    HW1 2705   1.417   1.144   1.478
  602SOL    HW2 2706   1.382   1.292   1.419
  603SOL     OW 2707   3.939   2.180   3.484
  603SOL    HW1 2708   3.862   2.154   3.543
  603SOL    HW2 2709   3.908   2.184   3.389
  604SOL     OW 2710   0.396   4.165   5.611
  604SOL    HW1 2711   0.398   4.209   5.521
  604SOL    HW2 2712   0.316   4.197   5.662
  605SOL     OW 2713   5.774   0.854   4.617
  605SOL    HW1 2714   5.850   0.794   4.591
  605SOL    HW2 2715   5.703   0.851   4.546
  606SOL     OW 2716   3.514   0.046   3.367
  606SOL    HW1 2717   3.510   0.077   3.272
  606SOL    HW2 2718   3.570   0.110   3.420
  607SOL     OW 2719   4.591   0.849   4.211
  607SOL    HW1 2720   4.644   0.903   4.145
  607SOL    HW2 2721   4.652   0.793   4.266
  608SOL     OW 2722   4.756   1.611   1.357
  608SOL    HW1 2723   4.841   1.571   1.321
  608SOL    HW2 2724   4.707   1.657   1.283
  609SOL     OW 2725   3.100   3.794   4.562
  609SOL    HW1 2726   3.124   3.789   4.659
  609SOL    HW2 2727   3.183   3.784   4.507
  610SOL     OW 2728   5.030   2.281   4.483
  610SOL    HW1 2729   5.115   2.230   4.499
  610SOL    HW2 2730   5.008   2.280   4.386
  611SOL     OW 2731   0.368   0.146   1.187
  611SOL    HW1 2732   0.359   0.236   1.144
  611SOL    HW2 2733   0.443   0.148   1.254
  612SOL     OW 2734   3.547   5.561   5.505
  612SOL    HW1 2735   3.473   5.497   5.524
  612SOL    HW2 2736   3.556   5.625   5.581
  613SOL     OW 2737   3.643   2.305   6.660
  613SOL    HW1 2738   3.579   2.376   6.630
  613SOL    HW2 2739   3.734   2.325   6.625
  614SOL     OW 2740   4.986   4.539   1.293
  614SOL    HW1 2741   5.063   4.600   1.274
  614SOL    HW2 2742   4.954   4.499   1.207
  615SOL     OW 2743   6.081   6.495   1.208
  615SOL    HW1 2744   6.143   6.420   1.230
  615SOL    HW2 2745   5.996   6.457   1.171
  616SOL     OW 2746   5.961   1.375   5.148
  616SOL    HW1 2747   5.875   1.425   5.141
  616SOL    HW2 2748   6.010   1.382   5.061
  617SOL     OW 2749   0.050   5.153   5.598
  617SOL    HW1 2750   0.124   5.085   5.601
  617SOL    HW2 2751   0.026   5.181   5.691
  618SOL     OW 2752   6.428   3.757   0.788
  618SOL    HW1 2753   6.523   3.726   0.786
  618SOL    HW2 2754   6.409   3.802   0.875
  619SOL     OW 2755   2.859   0.459   5.916
  619SOL    HW1 2756   2.870   0.404   5.832
  619SOL    HW2 2757   2.762   0.470   5.935
  620SOL     OW 2758   6.081   1.661   2.436
  620SOL    HW1 2759   6.114   1.731   2.373
  620SOL    HW2 2760   6.158   1.626   2.491
  621SOL     OW 2761   2.870   1.124   6.609
  621SOL    HW1 2762   2.938   1.164   6.548
  621SOL    HW2 2763   2.817   1.197   6.653
  622SOL     OW 2764   1.203   1.902   4.819
  622SOL    HW1 2765   1.278   1.906   4.885
  622SOL    HW2 2766   1.160   1.992   4.811
  623SOL     OW 2767   5.797   0.242   3.657
  623SOL    HW1 2768   5.764   0.309   3.590
  623SOL    HW2 2769   5.894   0.226   3.643
  624SOL     OW 2770   7.014   0.446   6.500
  624SOL    HW1 2771   0.075   0.500   6.524
  624SOL    HW2 2772   6.934   0.505   6.500
  625SOL     OW 2773   2.609   1.724   0.820
  625SOL    HW1 2774   2.688   1.677   0.858
  625SOL    HW2 2775   2.637   1.812   0.782
  626SOL     OW 2776   6.819   5.833   4.096
  626SOL    HW1 2777   6.724   5.802   4.094
  626SOL    HW2 2778   6.834   5.900   4.023
  627SOL     OW 2779   6.514   0.654   0.244
  627SOL    HW1 2780   6.462   0.569   0.234
  627SOL    HW2 2781   6.479   0.705   0.323
  628SOL     OW 2782   4.072   4.445   5.990
  628SOL    HW1 2783   4.010   4.469   6.065
  628SOL    HW2 2784   4.136   4.520   5.974
  629SOL     OW 2785   1.262   6.834   6.458
  629SOL    HW1 2786   1.180   6.863   6.408
  629SOL    HW2 2787   1.309   6.764   6.406
  630SOL     OW 2788   6.331   1.372   1.381
  630SOL    HW1 2789   6.294   1.331   1.465
  630SOL    HW2 2790   6.425   1.341   1.367
  631SOL     OW 2791   1.666   2.821   3.608
  631SOL    HW1 2792   1.583   2.825   3.665
  631SOL    HW2 2793   1.640   2.824   3.511
  632SOL     OW 2794   3.454   3.887   6.716
  632SOL    HW1 2795   3.402   3.899   6.801
  632SOL    HW2 2796   3.432   3.799   6.676
  633SOL     OW 2797   1.571   6.195   1.360
  633SOL    HW1 2798   1.633   6.157   1.292
  633SOL    HW2 2799   1.509   6.123   1.391
  634SOL     OW 2800   3.236   3.056   4.882
  634SOL    HW1 2801   3.250   2.981   4.947
  634SOL    HW2 2802   3.317   3.115   4.882
  635SOL     OW 2803   5.666   0.417   6.510
  635SOL    HW1 2804   5.645   0.334   6.562
  635SOL    HW2 2805   5.583   0.473   6.502
  636SOL     OW 2806   2.683   0.306   5.522
  636SOL    HW1 2807   2.589   0.278   5.503
  636SOL    HW2 2808   2.710   0.377   5.457
  637SOL     OW 2809   6.762   0.387   2.853
  637SOL    HW1 2810   6.835   0.454   2.868
  637SOL    HW2 2811   6.792   0.319   2.786
  638SOL     OW 2812   0.062   3.373   4.663
  638SOL    HW1 2813   0.116   3.423   4.730
  638SOL    HW2 2814   0.001   3.309   4.710
  639SOL     OW 2815   5.553   4.460   2.113
  639SOL    HW1 2816   5.605   4.436   2.195
  639SOL    HW2 2817   5.554   4.384   2.048
  640SOL     OW 2818   0.292   2.507   1.923
  640SOL    HW1 2819   0.193   2.515   1.916
  640SOL    HW2 2820   0.320   2.520   2.018
  641SOL     OW 2821   2.111   4.917   4.354
  641SOL    HW1 2822   2.190   4.893   4.410
  641SOL    HW2 2823   2.031   4.931   4.412
  642SOL     OW 2824   0.732   4.249   4.728
  642SOL    HW1 2825   0.664   4.322   4.722
  642SOL    HW2 2826   0.821   4.284   4.700
  643SOL     OW 2827   4.764   5.336   0.849
  643SOL    HW1 2828   4.856   5.346   0.811
  643SOL    HW2 2829   4.767   5.352   0.948
  644SOL     OW 2830   7.008   6.955   5.393
  644SOL    HW1 2831   6.955   6.870   5.382
  644SOL    HW2 2832   6.954   0.001   5.445
  645SOL     OW 2833   4.100   5.308   2.001
  645SOL    HW1 2834   4.185   5.359   1.992
  645SOL    HW2 2835   4.062   5.322   2.093
  646SOL     OW 2836   3.844   2.028   4.635
  646SOL    HW1 2837   3.746   2.046   4.623
  646SOL    HW2 2838   3.857   1.932   4.657
  647SOL     OW 2839   3.956   2.618   5.962
  647SOL    HW1 2840   3.954   2.699   5.904
  647SOL    HW2 2841   3.915   2.541   5.912
  648SOL     OW 2842   6.514   1.335   3.061
  648SOL    HW1 2843   6.458   1.262   3.099
  648SOL    HW2 2844   6.610   1.320   3.085
  649SOL     OW 2845   2.061   5.614   0.595
  649SOL    HW1 2846   1.961   5.606   0.588
  649SOL    HW2 2847   2.100   5.524   0.616
  650SOL     OW 2848   0.494   3.891   0.910
  650SOL    HW1 2849   0.560   3.836   0.961
  650SOL    HW2 2850   0.425   3.926   0.973
  651SOL     OW 2851   1.239   0.551   4.225
  651SOL    HW1 2852   1.330   0.583   4.248
  651SOL    HW2 2853   1.200   0.501   4.303
  652SOL     OW 2854   3.900   6.608   1.828
  652SOL    HW1 2855   3.843   6.535   1.867
  652SOL    HW2 2856   3.857   6.643   1.745
  653SOL     OW 2857   1.296   0.411   2.342
  653SOL    HW1 2858   1.220   0.465   2.303
  653SOL    HW2 2859   1.354   0.470   2.397
  654SOL     OW 2860   0.259   7.007   5.000
  654SOL    HW1 2861   0.211   6.942   4.941
  654SOL    HW2 2862   0.212   7.012   5.088
  655SOL     OW 2863   0.367   4.156   1.873
  655SOL    HW1 2864   0.350   4.059   1.889
  655SOL    HW2 2865   0.462   4.177   1.893
  656SOL     OW 2866   3.732   6.024   0.124
  656SOL    HW1 2867   3.786   6.108   0.127
  656SOL    HW2 2868   3.647   6.041   0.074
  657SOL     OW 2869   3.803   3.318   2.833
  657SOL    HW1 2870   3.802   3.318   2.733
  657SOL    HW2 2871   3.879   3.262   2.866
  658SOL     OW 2872   1.813   1.630   5.194
  658SOL    HW1 2873   1.823   1.546   5.140
  658SOL    HW2 2874   1.805   1.606   5.290
  659SOL     OW 2875   1.711   5.815   6.255
  659SOL    HW1 2876   1.725   5.911   6.281
  659SOL    HW2 2877   1.616   5.789   6.272
  660SOL     OW 2878   4.809   4.655   3.124
  660SOL    HW1 2879   4.788   4.706   3.207
  660SOL    HW2 2880   4.729   4.653   3.065
  661SOL     OW 2881   4.788   4.321   4.482
  661SOL    HW1 2882   4.871   4.366   4.515
  661SOL    HW2 2883   4.710   4.385   4.488
  662SOL     OW 2884   5.235   3.290   6.530
  662SOL    HW1 2885   5.291   3.259   6.453
  662SOL    HW2 2886   5.151   3.236   6.535
  663SOL     OW 2887   6.869   4.029   6.919
  663SOL    HW1 2888   6.856   3.962   6.993
  663SOL    HW2 2889   6.784   4.079   6.903
  664SOL     OW 2890   1.499   6.721   6.705
  664SOL    HW1 2891   1.482   6.817   6.680
  664SOL    HW2 2892   1.491   6.664   6.624
  665SOL     OW 2893   3.587   5.067   1.394
  665SOL    HW1 2894   3.498   5.093   1.432
  665SOL    HW2 2895   3.572   5.013   1.311
  666SOL     OW 2896   3.072   0.681   0.559
  666SOL    HW1 2897   2.991   0.726   0.522
  666SOL    HW2 2898   3.142   0.673   0.488
  667SOL     OW 2899   1.190   3.520   3.155
  667SOL    HW1 2900   1.237   3.546   3.070
  667SOL    HW2 2901   1.229   3.435   3.190
  668SOL     OW 2902   5.396   0.169   0.698
  668SOL    HW1 2903   5.360   0.152   0.606
  668SOL    HW2 2904   5.340   0.123   0.765
  669SOL     OW 2905   2.123   6.187   2.839
  669SOL    HW1 2906   2.139   6.153   2.932
  669SOL    HW2 2907   2.036   6.151   2.805
  670SOL     OW 2908   3.558   3.058   3.305
  670SOL    HW1 2909   3.546   3.121   3.229
  670SOL    HW2 2910   3.639   3.001   3.289
  671SOL     OW 2911   0.905   0.045   6.326
  671SOL    HW1 2912   0.843   6.992   6.351
  671SOL    HW2 2913   0.992   0.007   6.294
  672SOL     OW 2914   2.567   1.943   3.655
  672SOL    HW1 2915   2.503   1.868   3.675
  672SOL    HW2 2916   2.641   1.908   3.598
  673SOL     OW 2917   5.625   6.401   0.423
  673SOL    HW1 2918   5.595   6.359   0.508
  673SOL    HW2 2919   5.666   6.490   0.442
  674SOL     OW 2920   6.842   1.767   3.373
  674SOL    HW1 2921   6.757   1.714   3.366
  674SOL    HW2 2922   6.882   1.752   3.463
  675SOL     OW 2923   5.802   1.239   4.711
  675SOL    HW1 2924   5.868   1.180   4.758
  675SOL    HW2 2925   5.847   1.285   4.635
  676SOL     OW 2926   2.114   4.977   4.800
  676SOL    HW1 2927   2.055   4.922   4.859
  676SOL    HW2 2928   2.192   4.923   4.771
  677SOL     OW 2929   4.940   6.717   1.061
  677SOL    HW1 2930   4.931   6.623   1.029
  677SOL    HW2 2931   4.848   6.756   1.074
  678SOL     OW 2932   2.133   1.344   5.982
  678SOL    HW1 2933   2.044   1.301   5.995
  678SOL    HW2 2934   2.134   1.391   5.894
  679SOL     OW 2935   5.550   6.645   2.796
  679SOL    HW1 2936   5.607   6.572   2.834
  679SOL    HW2 2937   5.469   6.657   2.854
  680SOL     OW 2938   5.458   3.740   5.172
  680SOL    HW1 2939   5.534   3.786   5.126
  680SOL    HW2 2940   5.453   3.645   5.140
  681SOL     OW 2941   1.870   6.846   2.062
  681SOL    HW1 2942   1.771   6.863   2.064
  681SOL    HW2 2943   1.910   6.893   1.983
  682SOL     OW 2944   1.218   6.269   6.834
  682SOL    HW1 2945   1.221   6.332   6.911
  682SOL    HW2 2946   1.174   6.183   6.862
  683SOL     OW 2947   5.335   1.667   0.296
  683SOL    HW1 2948   5.325   1.706   0.387
  683SOL    HW2 2949   5.430   1.642   0.280
  684SOL     OW 2950   0.208   6.132   6.484
  684SOL    HW1 2951   0.187   6.144   6.581
  684SOL    HW2 2952   0.133   6.171   6.430
  685SOL     OW 2953   5.945   1.209   5.899
  685SOL    HW1 2954   5.934   1.211   5.998
  685SOL    HW2 2955   5.856   1.197   5.856
  686SOL     OW 2956   5.510   4.545   3.051
  686SOL    HW1 2957   5.421   4.526   3.094
  686SOL    HW2 2958   5.532   4.642   3.062
  687SOL     OW 2959   5.906   2.440   4.657
  687SOL    HW1 2960   5.815   2.454   4.618
  687SOL    HW2 2961   5.972   2.498   4.609
  688SOL     OW 2962   0.435   3.432   4.831
  688SOL    HW1 2963   0.509   3.450   4.767
  688SOL    HW2 2964   0.408   3.336   4.823
  689SOL     OW 2965   5.840   4.649   5.555
  689SOL    HW1 2966   5.848   4.597   5.640
  689SOL    HW2 2967   5.917   4.713   5.547
  690SOL     OW 2968   0.606   2.768   3.679
  690SOL    HW1 2969   0.612   2.725   3.769
  690SOL    HW2 2970   0.689   2.820   3.662
  691SOL     OW 2971   0.264   3.292   6.906
  691SOL    HW1 2972   0.348   3.339   6.934
  691SOL    HW2 2973   0.265   3.198   6.939
  692SOL     OW 2974   1.813   7.008   3.508
  692SOL    HW1 2975   1.825   6.953   3.591
  692SOL    HW2 2976   1.779   0.078   3.533
  693SOL     OW 2977   6.691   0.620   2.280
  693SOL    HW1 2978   6.707   0.566   2.197
  693SOL    HW2 2979   6.759   0.693   2.285
  694SOL     OW 2980   1.824   0.420   2.224
  694SOL    HW1 2981   1.818   0.355   2.300
  694SOL    HW2 2982   1.798   0.374   2.139
  695SOL     OW 2983   4.124   5.642   6.046
  695SOL    HW1 2984   4.134   5.738   6.073
  695SOL    HW2 2985   4.035   5.608   6.076
  696SOL     OW 2986   4.553   5.520   2.585
  696SOL    HW1 2987   4.644   5.499   2.549
  696SOL    HW2 2988   4.557   5.529   2.685
  697SOL     OW 2989   1.301   3.872   4.071
  697SOL    HW1 2990   1.228   3.823   4.119
  697SOL    HW2 2991   1.353   3.927   4.136
  698SOL     OW 2992   3.887   6.544   3.855
  698SOL    HW1 2993   3.817   6.502   3.799
  698SOL    HW2 2994   3.961   6.478   3.873
  699SOL     OW 2995   1.952   4.629   6.857
  699SOL    HW1 2996   2.050   4.640   6.873
  699SOL    HW2 2997   1.901   4.687   6.920
  700SOL     OW 2998   2.272   1.051   3.792
  700SOL    HW1 2999   2.241   1.132   3.743
  700SOL    HW2 3000   2.371   1.054   3.803
  701SOL     OW 3001   0.738   4.966   5.993
  701SOL    HW1 3002   0.675   5.038   5.963
  701SOL    HW2 3003   0.704   4.924   6.077
  702SOL     OW 3004   5.350   5.383   4.944
  702SOL    HW1 3005   5.406   5.303   4.965
  702SOL    HW2 3006   5.352   5.401   4.845
  703SOL     OW 3007   4.580   3.824   0.127
  703SOL    HW1 3008   4.572   3.897   0.059
  703SOL    HW2 3009   4.501   3.827   0.189
  704SOL     OW 3010   2.499   0.310   0.811
  704SOL    HW1 3011   2.575   0.253   0.780
  704SOL    HW2 3012   2.420   0.295   0.753
  705SOL     OW 3013   6.034   2.786   3.069
  705SOL    HW1 3014   6.124   2.829   3.070
  705SOL    HW2 3015   6.044   2.690   3.042
  706SOL     OW 3016   4.512   1.893   3.953
  706SOL    HW1 3017   4.416   1.908   3.926
  706SOL    HW2 3018   4.557   1.835   3.885
  707SOL     OW 3019   4.975   1.528   1.588
  707SOL    HW1 3020   4.939   1.435   1.583
  707SOL    HW2 3021   4.923   1.580   1.655
  708SOL     OW 3022   4.111   0.945   1.532
  708SOL    HW1 3023   4.134   0.971   1.625
  708SOL    HW2 3024   4.149   1.011   1.468
  709SOL     OW 3025   1.097   5.078   0.085
  709SOL    HW1 3026   1.115   5.175   0.099
  709SOL    HW2 3027   1.167   5.040   0.024
  710SOL     OW 3028   2.995   3.704   2.586
  710SOL    HW1 3029   3.054   3.638   2.539
  710SOL    HW2 3030   3.007   3.695   2.685
  711SOL     OW 3031   0.867   0.338   4.092
  711SOL    HW1 3032   0.954   0.331   4.043
  711SOL    HW2 3033   0.804   0.267   4.060
  712SOL     OW 3034   1.463   3.988   1.545
  712SOL    HW1 3035   1.546   3.988   1.489
  712SOL    HW2 3036   1.392   3.936   1.499
  713SOL     OW 3037   4.085   3.213   3.424
  713SOL    HW1 3038   4.018   3.146   3.453
  713SOL    HW2 3039   4.080   3.224   3.324
  714SOL     OW 3040   4.942   5.169   5.400
  714SOL    HW1 3041   4.893   5.159   5.314
  714SOL    HW2 3042   4.943   5.266   5.426
  715SOL     OW 3043   4.209   0.398   6.261
  715SOL    HW1 3044   4.193   0.496   6.268
  715SOL    HW2 3045   4.297   0.375   6.303
  716SOL     OW 3046   6.780   4.791   1.924
  716SOL    HW1 3047   6.686   4.758   1.940
  716SOL    HW2 3048   6.779   4.890   1.915
  717SOL     OW 3049   5.848   3.002   0.385
  717SOL    HW1 3050   5.791   3.057   0.325
  717SOL    HW2 3051   5.912   2.947   0.331
  718SOL     OW 3052   3.415   3.626   6.561
  718SOL    HW1 3053   3.460   3.671   6.484
  718SOL    HW2 3054   3.484   3.584   6.620
  719SOL     OW 3055   5.206   4.559   0.114
  719SOL    HW1 3056   5.144   4.518   0.181
  719SOL    HW2 3057   5.220   4.656   0.137
  720SOL     OW 3058   2.092   0.371   6.142
  720SOL    HW1 3059   2.014   0.389   6.082
  720SOL    HW2 3060   2.059   0.355   6.235
  721SOL     OW 3061   1.528   6.895   5.795
  721SOL    HW1 3062   1.621   6.878   5.827
  721SOL    HW2 3063   1.482   6.808   5.776
  722SOL     OW 3064   4.701   0.203   5.880
  722SOL    HW1 3065   4.622   0.170   5.932
  722SOL    HW2 3066   4.764   0.128   5.863
  723SOL     OW 3067   1.517   3.131   2.465
  723SOL    HW1 3068   1.513   3.031   2.462
  723SOL    HW2 3069   1.612   3.160   2.468
  724SOL     OW 3070   6.616   1.004   4.753
  724SOL    HW1 3071   6.556   0.952   4.813
  724SOL    HW2 3072   6.586   0.994   4.658
  725SOL     OW 3073   2.195   5.319   0.674
  725SOL    HW1 3074   2.272   5.297   0.734
  725SOL    HW2 3075   2.115   5.264   0.700
  726SOL     OW 3076   4.055   6.989   6.609
  726SOL    HW1 3077   4.079   6.973   6.704
  726SOL    HW2 3078   4.111   0.043   6.572
  727SOL     OW 3079   2.765   4.941   4.198
  727SOL    HW1 3080   2.811   4.912   4.282
  727SOL    HW2 3081   2.677   4.892   4.190
  728SOL     OW 3082   6.824   3.431   4.978
  728SOL    HW1 3083   6.860   3.494   5.047
  728SOL    HW2 3084   6.830   3.337   5.012
  729SOL     OW 3085   3.093   0.225   1.004
  729SOL    HW1 3086   3.103   0.165   0.925
  729SOL    HW2 3087   3.120   0.177   1.087
  730SOL     OW 3088   6.204   0.045   4.645
  730SOL    HW1 3089   6.199   0.091   4.733
  730SOL    HW2 3090   6.254   0.102   4.580
  731SOL     OW 3091   6.153   3.547   3.428
  731SOL    HW1 3092   6.077   3.535   3.363
  731SOL    HW2 3093   6.193   3.638   3.415
  732SOL     OW 3094   0.023   2.939   2.362
  732SOL    HW1 3095   0.113   2.921   2.401
  732SOL    HW2 3096   6.974   2.935   2.434
  733SOL     OW 3097   4.698   4.261   3.540
  733SOL    HW1 3098   4.618   4.320   3.548
  733SOL    HW2 3099   4.705   4.228   3.446
  734SOL     OW 3100   6.729   4.702   0.951
  734SOL    HW1 3101   6.783   4.629   0.993
  734SOL    HW2 3102   6.790   4.764   0.901
  735SOL     OW 3103   1.024   4.501   6.402
  735SOL    HW1 3104   1.000   4.502   6.305
  735SOL    HW2 3105   1.019   4.594   6.438
  736SOL     OW 3106   6.143   1.351   3.187
  736SOL    HW1 3107   6.196   1.277   3.144
  736SOL    HW2 3108   6.189   1.381   3.271
  737SOL     OW 3109   5.606   3.469   0.302
  737SOL    HW1 3110   5.543   3.396   0.328
  737SOL    HW2 3111   5.585   3.551   0.355
  738SOL     OW 3112   0.428   4.260   3.985
  738SOL    HW1 3113   0.444   4.270   4.083
  738SOL    HW2 3114   0.334   4.226   3.970
  739SOL     OW 3115   5.053   6.044   6.935
  739SOL    HW1 3116   5.082   6.137   6.957
  739SOL    HW2 3117   4.986   6.013   7.003
  740SOL     OW 3118   5.627   6.538   1.244
  740SOL    HW1 3119   5.629   6.623   1.191
  740SOL    HW2 3120   5.533   6.504   1.250
  741SOL     OW 3121   2.267   1.124   3.227
  741SOL    HW1 3122   2.354   1.098   3.270
  741SOL    HW2 3123   2.258   1.077   3.139
  742SOL     OW 3124   1.065   0.326   3.294
  742SOL    HW1 3125   0.996   0.392   3.267
  742SOL    HW2 3126   1.102   0.349   3.384
  743SOL     OW 3127   1.565   3.844   4.334
  743SOL    HW1 3128   1.619   3.846   4.250
  743SOL    HW2 3129   1.529   3.935   4.353
  744SOL     OW 3130   0.629   6.178   0.848
  744SOL    HW1 3131   0.729   6.176   0.856
  744SOL    HW2 3132   0.602   6.256   0.792
  745SOL     OW 3133   1.531   5.780   2.537
  745SOL    HW1 3134   1.552   5.869   2.499
  745SOL    HW2 3135   1.603   5.715   2.513
  746SOL     OW 3136   1.759   0.539   4.667
  746SOL    HW1 3137   1.796   0.624   4.705
  746SOL    HW2 3138   1.737   0.477   4.742
  747SOL     OW 3139   5.548   5.019   2.583
  747SOL    HW1 3140   5.600   4.982   2.659
  747SOL    HW2 3141   5.451   4.997   2.594
  748SOL     OW 3142   4.235   3.236   1.670
  748SOL    HW1 3143   4.279   3.177   1.602
  748SOL    HW2 3144   4.135   3.224   1.665
  749SOL     OW 3145   6.977   1.649   5.256
  749SOL    HW1 3146   6.968   1.653   5.157
  749SOL    HW2 3147   0.053   1.637   5.279
  750SOL     OW 3148   2.411   4.163   0.696
  750SOL    HW1 3149   2.346   4.144   0.622
  750SOL    HW2 3150   2.363   4.210   0.771
  751SOL     OW 3151   4.820   0.778   0.572
  751SOL    HW1 3152   4.823   0.680   0.555
  751SOL    HW2 3153   4.910   0.809   0.604
  752SOL     OW 3154   5.136   1.611   1.974
  752SOL    HW1 3155   5.088   1.568   2.051
  752SOL    HW2 3156   5.203   1.546   1.936
  753SOL     OW 3157   2.062   2.722   3.516
  753SOL    HW1 3158   2.149   2.770   3.504
  753SOL    HW2 3159   2.075   2.624   3.497
  754SOL     OW 3160   4.877   5.506   7.007
  754SOL    HW1 3161   4.950   5.444   6.981
  754SOL    HW2 3162   4.887   5.593   6.958
  755SOL     OW 3163   0.236   6.629   1.256
  755SOL    HW1 3164   0.173   6.654   1.183
  755SOL    HW2 3165   0.213   6.679   1.339
  756SOL     OW 3166   4.263   0.269   3.805
  756SOL    HW1 3167   4.268   0.178   3.762
  756SOL    HW2 3168   4.214   0.331   3.744
  757SOL     OW 3169   0.611   0.532   3.694
  757SOL    HW1 3170   0.682   0.542   3.764
  757SOL    HW2 3171   0.646   0.477   3.618
  758SOL     OW 3172   4.203   2.744   1.101
  758SOL    HW1 3173   4.222   2.654   1.138
  758SOL    HW2 3174   4.104   2.760   1.101
  759SOL     OW 3175   1.584   1.407   0.477
  759SOL    HW1 3176   1.628   1.469   0.411
  759SOL    HW2 3177   1.543   1.460   0.551
  760SOL     OW 3178   4.569   1.765   6.423
  760SOL    HW1 3179   4.629   1.805   6.353
  760SOL    HW2 3180   4.477   1.753   6.385
  761SOL     OW 3181   6.328   2.631   6.598
  761SOL    HW1 3182   6.418   2.591   6.619
  761SOL    HW2 3183   6.268   2.620   6.677
  762SOL     OW 3184   2.257   5.624   3.518
  762SOL    HW1 3185   2.249   5.529   3.489
  762SOL    HW2 3186   2.190   5.642   3.590
  763SOL     OW 3187   5.077   5.740   6.730
  763SOL    HW1 3188   5.089   5.644   6.704
  763SOL    HW2 3189   5.066   5.796   6.648
  764SOL     OW 3190   4.223   0.808   2.241
  764SOL    HW1 3191   4.144   0.788   2.182
  764SOL    HW2 3192   4.304   0.762   2.205
  765SOL     OW 3193   0.141   6.897   3.424
  765SOL    HW1 3194   0.159   6.810   3.471
  765SOL    HW2 3195   0.047   6.898   3.391
  766SOL     OW 3196   0.076   6.502   6.817
  766SOL    HW1 3197   0.162   6.552   6.817
  766SOL    HW2 3198   0.019   6.533   6.894
  767SOL     OW 3199   5.681   6.852   2.371
  767SOL    HW1 3200   5.715   6.821   2.282
  767SOL    HW2 3201   5.667   6.951   2.369
  768SOL     OW 3202   3.115   6.684   3.548
  768SOL    HW1 3203   3.104   6.595   3.590
  768SOL    HW2 3204   3.131   6.673   3.449
  769SOL     OW 3205   3.887   0.920   5.753
  769SOL    HW1 3206   3.909   0.963   5.841
  769SOL    HW2 3207   3.926   0.974   5.679
  770SOL     OW 3208   3.428   4.898   4.161
  770SOL    HW1 3209   3.417   4.938   4.070
  770SOL    HW2 3210   3.348   4.919   4.217
  771SOL     OW 3211   0.910   5.785   3.808
  771SOL    HW1 3212   0.941   5.736   3.727
  771SOL    HW2 3213   0.819   5.752   3.835
  772SOL     OW 3214   6.655   4.364   5.949
  772SOL    HW1 3215   6.694   4.457   5.955
  772SOL    HW2 3216   6.591   4.360   5.873
  773SOL     OW 3217   0.384   4.248   2.595
  773SOL    HW1 3218   0.379   4.205   2.505
  773SOL    HW2 3219   0.312   4.211   2.654
  774SOL     OW 3220   1.451   1.268   1.977
  774SOL    HW1 3221   1.541   1.226   1.980
  774SOL    HW2 3222   1.433   1.301   1.884
  775SOL     OW 3223   2.103   2.029   4.483
  775SOL    HW1 3224   2.027   1.968   4.503
  775SOL    HW2 3225   2.154   1.994   4.405
  776SOL     OW 3226   2.114   0.746   6.084
  776SOL    HW1 3227   2.049   0.670   6.080
  776SOL    HW2 3228   2.176   0.732   6.162
  777SOL     OW 3229   4.199   0.876   0.790
  777SOL    HW1 3230   4.161   0.968   0.792
  777SOL    HW2 3231   4.233   0.855   0.698
  778SOL     OW 3232   4.060   6.804   4.472
  778SOL    HW1 3233   3.966   6.781   4.447
  778SOL    HW2 3234   4.081   6.897   4.441
  779SOL     OW 3235   0.928   1.139   2.510
  779SOL    HW1 3236   1.000   1.196   2.472
  779SOL    HW2 3237   0.969   1.069   2.570
  780SOL     OW 3238   5.429   3.221   4.875
  780SOL    HW1 3239   5.375   3.223   4.959
  780SOL    HW2 3240   5.498   3.294   4.878
  781SOL     OW 3241   0.165   1.479   5.658
  781SOL    HW1 3242   0.121   1.567   5.640
  781SOL    HW2 3243   0.101   1.420   5.707
  782SOL     OW 3244   0.559   3.042   0.838
  782SOL    HW1 3245   0.526   3.118   0.895
  782SOL    HW2 3246   0.526   2.956   0.875
  783SOL     OW 3247   3.262   4.485   0.139
  783SOL    HW1 3248   3.179   4.464   0.189
  783SOL    HW2 3249   3.288   4.580   0.155
  784SOL     OW 3250   4.739   0.408   5.030
  784SOL    HW1 3251   4.689   0.324   5.047
  784SOL    HW2 3252   4.716   0.443   4.939
  785SOL     OW 3253   6.454   2.799   3.383
  785SOL    HW1 3254   6.363   2.765   3.361
  785SOL    HW2 3255   6.493   2.745   3.458
  786SOL     OW 3256   6.889   0.080   0.179
  786SOL    HW1 3257   6.840   0.149   0.231
  786SOL    HW2 3258   6.834   7.017   0.175
  787SOL     OW 3259   3.226   1.702   6.039
  787SOL    HW1 3260   3.258   1.659   6.124
  787SOL    HW2 3261   3.127   1.714   6.043
  788SOL     OW 3262   1.315   4.221   4.039
  788SOL    HW1 3263   1.352   4.311   4.016
  788SOL    HW2 3264   1.268   4.183   3.960
  789SOL     OW 3265   5.432   3.948   1.053
  789SOL    HW1 3266   5.419   3.966   1.151
  789SOL    HW2 3267   5.435   4.035   1.003
  790SOL     OW 3268   3.154   1.370   3.573
  790SOL    HW1 3269   3.210   1.355   3.492
  790SOL    HW2 3270   3.183   1.454   3.619
  791SOL     OW 3271   3.596   1.638   4.080
  791SOL    HW1 3272   3.659   1.605   4.150
  791SOL    HW2 3273   3.542   1.714   4.116
  792SOL     OW 3274   6.148   0.350   3.141
  792SOL    HW1 3275   6.206   0.345   3.222
  792SOL    HW2 3276   6.186   0.292   3.068
  793SOL     OW 3277   6.339   0.573   6.843
  793SOL    HW1 3278   6.425   0.621   6.861
  793SOL    HW2 3279   6.275   0.589   6.918
  794SOL     OW 3280   2.183   5.195   5.587
  794SOL    HW1 3281   2.101   5.184   5.643
  794SOL    HW2 3282   2.258   5.231   5.643
  795SOL     OW 3283   4.773   4.836   6.074
  795SOL    HW1 3284   4.687   4.808   6.030
  795SOL    HW2 3285   4.843   4.767   6.056
  796SOL     OW 3286   0.617   2.219   6.228
  796SOL    HW1 3287   0.550   2.146   6.216
  796SOL    HW2 3288   0.618   2.248   6.324
  797SOL     OW 3289   5.774   2.727   4.130
  797SOL    HW1 3290   5.768   2.725   4.030
  797SOL    HW2 3291   5.692   2.770   4.167
  798SOL     OW 3292   6.027   0.941   6.217
  798SOL    HW1 3293   5.963   1.018   6.223
  798SOL    HW2 3294   6.061   0.932   6.123
  799SOL     OW 3295   0.033   3.380   3.327
  799SOL    HW1 3296   6.963   3.416   3.352
  799SOL    HW2 3297   0.023   3.288   3.288
  800SOL     OW 3298   6.171   1.569   1.968
  800SOL    HW1 3299   6.103   1.527   1.908
  800SOL    HW2 3300   6.252   1.593   1.915
  801SOL     OW 3301   0.009   2.536   3.202
  801SOL    HW1 3302   7.009   2.438   3.195
  801SOL    HW2 3303   0.053   2.555   3.290
  802SOL     OW 3304   5.734   0.921   0.735
  802SOL    HW1 3305   5.775   0.965   0.655
  802SOL    HW2 3306   5.699   0.990   0.797
  803SOL     OW 3307   6.962   0.001   5.024
  803SOL    HW1 3308   6.940   0.088   4.980
  803SOL    HW2 3309   6.915   7.016   5.113
  804SOL     OW 3310   6.960   0.377   0.665
  804SOL    HW1 3311   6.891   0.386   0.737
  804SOL    HW2 3312   7.017   0.297   0.684
  805SOL     OW 3313   2.887   3.469   6.162
  805SOL    HW1 3314   2.891   3.527   6.080
  805SOL    HW2 3315   2.956   3.397   6.155
  806SOL     OW 3316   5.278   0.922   0.987
  806SOL    HW1 3317   5.299   0.830   0.953
  806SOL    HW2 3318   5.229   0.973   0.916
  807SOL     OW 3319   1.102   7.003   3.600
  807SOL    HW1 3320   1.036   0.058   3.602
  807SOL    HW2 3321   1.128   6.983   3.506
  808SOL     OW 3322   5.100   3.615   5.317
  808SOL    HW1 3323   5.069   3.566   5.398
  808SOL    HW2 3324   5.067   3.569   5.235
  809SOL     OW 3325   0.005   4.503   6.008
  809SOL    HW1 3326   7.019   4.464   5.916
  809SOL    HW2 3327   6.935   4.537   6.036
  810SOL     OW 3328   6.023   4.681   6.973
  810SOL    HW1 3329   6.044   4.751   0.022
  810SOL    HW2 3330   6.106   4.657   6.924
  811SOL     OW 3331   5.062   4.985   4.339
  811SOL    HW1 3332   5.147   4.975   4.391
  811SOL    HW2 3333   5.027   5.078   4.350
  812SOL     OW 3334   0.260   6.865   2.336
  812SOL    HW1 3335   0.295   6.802   2.405
  812SOL    HW2 3336   0.240   6.954   2.378
  813SOL     OW 3337   5.074   5.710   2.366
  813SOL    HW1 3338   5.083   5.618   2.326
  813SOL    HW2 3339   4.990   5.715   2.419
  814SOL     OW 3340   5.169   6.208   1.448
  814SOL    HW1 3341   5.107   6.263   1.504
  814SOL    HW2 3342   5.264   6.227   1.474
  815SOL     OW 3343   0.066   2.329   0.771
  815SOL    HW1 3344   0.057   2.346   0.673
  815SOL    HW2 3345   0.061   2.416   0.821
  816SOL     OW 3346   6.331   0.395   1.114
  816SOL    HW1 3347   6.249   0.386   1.057
  816SOL    HW2 3348   6.304   0.416   1.208
  817SOL     OW 3349   1.806   2.370   2.909
  817SOL    HW1 3350   1.845   2.322   2.831
  817SOL    HW2 3351   1.861   2.451   2.929
  818SOL     OW 3352   6.738   1.810   0.998
  818SOL    HW1 3353   6.765   1.856   1.083
  818SOL    HW2 3354   6.786   1.723   0.991
  819SOL     OW 3355   0.334   3.865   4.167
  819SOL    HW1 3356   0.327   3.917   4.082
  819SOL    HW2 3357   0.376   3.776   4.149
  820SOL     OW 3358   1.103   2.943   4.627
  820SOL    HW1 3359   1.048   3.023   4.649
  820SOL    HW2 3360   1.146   2.955   4.537
  821SOL     OW 3361   1.392   3.356   0.125
  821SOL    HW1 3362   1.466   3.397   0.070
  821SOL    HW2 3363   1.378   3.409   0.208
  822SOL     OW 3364   1.483   3.801   4.788
  822SOL    HW1 3365   1.407   3.782   4.850
  822SOL    HW2 3366   1.509   3.718   4.740
  823SOL     OW 3367   3.190   3.797   0.964
  823SOL    HW1 3368   3.160   3.822   0.872
  823SOL    HW2 3369   3.226   3.704   0.963
  824SOL     OW 3370   5.618   1.908   5.597
  824SOL    HW1 3371   5.568   1.955   5.524
  824SOL    HW2 3372   5.625   1.811   5.575
  825SOL     OW 3373   1.960   4.272   2.482
  825SOL    HW1 3374   1.936   4.212   2.558
  825SOL    HW2 3375   1.893   4.345   2.475
  826SOL     OW 3376   0.430   3.863   5.872
  826SOL    HW1 3377   0.472   3.815   5.948
  826SOL    HW2 3378   0.395   3.951   5.903
  827SOL     OW 3379   4.113   5.939   6.882
  827SOL    HW1 3380   4.201   5.949   6.927
  827SOL    HW2 3381   4.043   5.912   6.948
  828SOL     OW 3382   6.210   6.595   6.051
  828SOL    HW1 3383   6.286   6.620   6.111
  828SOL    HW2 3384   6.193   6.669   5.987
  829SOL     OW 3385   3.441   2.946   4.673
  829SOL    HW1 3386   3.372   2.987   4.732
  829SOL    HW2 3387   3.491   2.875   4.723
  830SOL     OW 3388   4.367   3.890   5.295
  830SOL    HW1 3389   4.426   3.947   5.352
  830SOL    HW2 3390   4.385   3.793   5.315
  831SOL     OW 3391   6.705   0.866   5.187
  831SOL    HW1 3392   6.726   0.890   5.092
  831SOL    HW2 3393   6.606   0.869   5.201
  832SOL     OW 3394   2.236   1.561   6.101
  832SOL    HW1 3395   2.201   1.476   6.062
  832SOL    HW2 3396   2.270   1.620   6.028
  833SOL     OW 3397   0.193   0.037   5.974
  833SOL    HW1 3398   0.157   7.013   6.056
  833SOL    HW2 3399   0.293   0.030   5.974
  834SOL     OW 3400   3.450   4.247   5.191
  834SOL    HW1 3401   3.406   4.296   5.266
  834SOL    HW2 3402   3.462   4.309   5.113
  835SOL     OW 3403   4.045   0.110   3.291
  835SOL    HW1 3404   4.082   0.061   3.369
  835SOL    HW2 3405   4.000   0.045   3.229
  836SOL     OW 3406   2.327   1.476   0.605
  836SOL    HW1 3407   2.255   1.407   0.616
  836SOL    HW2 3408   2.324   1.513   0.513
  837SOL     OW 3409   4.465   0.919   5.801
  837SOL    HW1 3410   4.521   0.925   5.719
  837SOL    HW2 3411   4.524   0.922   5.882
  838SOL     OW 3412   2.432   5.086   3.026
  838SOL    HW1 3413   2.332   5.092   3.019
  838SOL    HW2 3414   2.471   5.074   2.935
  839SOL     OW 3415   2.713   1.368   2.370
  839SOL    HW1 3416   2.687   1.273   2.387
  839SOL    HW2 3417   2.634   1.420   2.338
  840SOL     OW 3418   0.842   1.430   6.619
  840SOL    HW1 3419   0.825   1.512   6.563
  840SOL    HW2 3420   0.874   1.457   6.709
  841SOL     OW 3421   0.735   3.512   6.893
  841SOL    HW1 3422   0.698   3.578   6.827
  841SOL    HW2 3423   0.794   3.447   6.846
  842SOL     OW 3424   3.781   5.489   3.826
  842SOL    HW1 3425   3.793   5.581   3.865
  842SOL    HW2 3426   3.766   5.497   3.727
  843SOL     OW 3427   6.494   2.336   1.888
  843SOL    HW1 3428   6.471   2.433   1.891
  843SOL    HW2 3429   6.525   2.306   1.978
  844SOL     OW 3430   5.705   5.379   0.570
  844SOL    HW1 3431   5.673   5.284   0.570
  844SOL    HW2 3432   5.805   5.382   0.568
  845SOL     OW 3433   0.666   4.274   5.251
  845SOL    HW1 3434   0.616   4.360   5.252
  845SOL    HW2 3435   0.662   4.235   5.159
  846SOL     OW 3436   6.093   1.548   6.683
  846SOL    HW1 3437   6.176   1.541   6.738
  846SOL    HW2 3438   6.098   1.629   6.624
  847SOL     OW 3439   5.029   3.564   1.877
  847SOL    HW1 3440   4.956   3.622   1.839
  847SOL    HW2 3441   5.013   3.469   1.850
  848SOL     OW 3442   6.261   0.396   5.770
  848SOL    HW1 3443   6.346   0.346   5.753
  848SOL    HW2 3444   6.274   0.459   5.846
  849SOL     OW 3445   0.250   5.279   4.426
  849SOL    HW1 3446   0.162   5.299   4.383
  849SOL    HW2 3447   0.276   5.355   4.486
  850SOL     OW 3448   3.728   0.464   2.853
  850SOL    HW1 3449   3.762   0.396   2.788
  850SOL    HW2 3450   3.699   0.546   2.804
  851SOL     OW 3451   0.780   0.837   6.441
  851SOL    HW1 3452   0.830   0.904   6.496
  851SOL    HW2 3453   0.837   0.757   6.426
  852SOL     OW 3454   2.096   4.211   6.442
  852SOL    HW1 3455   1.997   4.207   6.437
  852SOL    HW2 3456   2.127   4.305   6.424
  853SOL     OW 3457   1.746   3.782   1.416
  853SOL    HW1 3458   1.671   3.750   1.358
  853SOL    HW2 3459   1.743   3.882   1.422
  854SOL     OW 3460   5.622   5.026   1.799
  854SOL    HW1 3461   5.670   5.107   1.834
  854SOL    HW2 3462   5.538   5.012   1.852
  855SOL     OW 3463   5.490   0.062   1.669
  855SOL    HW1 3464   5.555   0.084   1.596
  855SOL    HW2 3465   5.405   0.027   1.630
  856SOL     OW 3466   1.598   7.013   5.055
  856SOL    HW1 3467   1.678   7.004   4.997
  856SOL    HW2 3468   1.518   6.976   5.007
  857SOL     OW 3469   6.932   3.515   2.369
  857SOL    HW1 3470   6.923   3.611   2.344
  857SOL    HW2 3471   6.854   3.488   2.426
  858SOL     OW 3472   2.997   4.082   1.088
  858SOL    HW1 3473   3.057   4.081   1.009
  858SOL    HW2 3474   3.051   4.090   1.172
  859SOL     OW 3475   6.737   4.765   6.958
  859SOL    HW1 3476   6.639   4.775   6.974
  859SOL    HW2 3477   6.752   4.707   6.878
  860SOL     OW 3478   2.024   4.626   1.485
  860SOL    HW1 3479   1.946   4.605   1.426
  860SOL    HW2 3480   2.010   4.715   1.527
  861SOL     OW 3481   3.271   5.486   5.554
  861SOL    HW1 3482   3.205   5.462   5.625
  861SOL    HW2 3483   3.295   5.404   5.501
  862SOL     OW 3484   4.389   4.671   4.454
  862SOL    HW1 3485   4.339   4.669   4.367
  862SOL    HW2 3486   4.335   4.719   4.523
  863SOL     OW 3487   5.962   1.183   1.269
  863SOL    HW1 3488   5.927   1.117   1.203
  863SOL    HW2 3489   6.043   1.228   1.231
  864SOL     OW 3490   6.235   4.670   2.628
  864SOL    HW1 3491   6.147   4.687   2.582
  864SOL    HW2 3492   6.231   4.583   2.676
  865SOL     OW 3493   1.358   7.002   4.392
  865SOL    HW1 3494   1.377   0.078   4.369
  865SOL    HW2 3495   1.286   6.998   4.461
  866SOL     OW 3496   3.680   1.784   1.256
  866SOL    HW1 3497   3.700   1.732   1.174
  866SOL    HW2 3498   3.608   1.850   1.237
  867SOL     OW 3499   1.532   2.712   5.870
  867SOL    HW1 3500   1.598   2.785   5.854
  867SOL    HW2 3501   1.449   2.729   5.817
  868SOL     OW 3502   5.362   2.755   3.224
  868SOL    HW1 3503   5.350   2.675   3.166
  868SOL    HW2 3504   5.298   2.751   3.300
  869SOL     OW 3505   6.850   4.901   2.744
  869SOL    HW1 3506   6.778   4.875   2.679
  869SOL    HW2 3507   6.929   4.935   2.694
  870SOL     OW 3508   0.032   2.581   0.873
  870SOL    HW1 3509   0.023   2.568   0.972
  870SOL    HW2 3510   0.094   2.657   0.855
  871SOL     OW 3511   6.166   3.357   0.757
  871SOL    HW1 3512   6.152   3.456   0.748
  871SOL    HW2 3513   6.187   3.318   0.667
  872SOL     OW 3514   5.866   2.763   2.749
  872SOL    HW1 3515   5.829   2.773   2.841
  872SOL    HW2 3516   5.892   2.667   2.734
  873SOL     OW 3517   4.752   6.886   5.622
  873SOL    HW1 3518   4.786   6.846   5.536
  873SOL    HW2 3519   4.717   6.813   5.680
  874SOL     OW 3520   0.284   3.653   6.172
  874SOL    HW1 3521   0.381   3.636   6.153
  874SOL    HW2 3522   0.232   3.647   6.088
  875SOL     OW 3523   6.090   4.792   6.553
  875SOL    HW1 3524   6.130   4.718   6.606
  875SOL    HW2 3525   6.129   4.879   6.583
  876SOL     OW 3526   1.178   3.285   1.873
  876SOL    HW1 3527   1.095   3.341   1.874
  876SOL    HW2 3528   1.157   3.193   1.905
  877SOL     OW 3529   5.518   6.011   0.606
  877SOL    HW1 3530   5.491   6.010   0.702
  877SOL    HW2 3531   5.616   6.030   0.600
  878SOL     OW 3532   2.717   3.712   0.174
  878SOL    HW1 3533   2.763   3.625   0.156
  878SOL    HW2 3534   2.779   3.788   0.155
  879SOL     OW 3535   4.423   2.102   2.246
  879SOL    HW1 3536   4.342   2.155   2.223
  879SOL    HW2 3537   4.430   2.092   2.345
  880SOL     OW 3538   3.921   5.633   0.838
  880SOL    HW1 3539   3.837   5.657   0.790
  880SOL    HW2 3540   3.975   5.716   0.854
  881SOL     OW 3541   4.146   5.268   4.916
  881SOL    HW1 3542   4.175   5.362   4.932
  881SOL    HW2 3543   4.166   5.242   4.822
  882SOL     OW 3544   1.065   1.324   4.353
  882SOL    HW1 3545   1.141   1.387   4.374
  882SOL    HW2 3546   1.048   1.265   4.432
  883SOL     OW 3547   2.994   4.988   6.500
  883SOL    HW1 3548   3.078   4.936   6.519
  883SOL    HW2 3549   2.951   4.952   6.417
  884SOL     OW 3550   4.841   4.092   1.563
  884SOL    HW1 3551   4.798   4.137   1.642
  884SOL    HW2 3552   4.771   4.073   1.494
  885SOL     OW 3553   4.674   6.204   6.957
  885SOL    HW1 3554   4.588   6.223   7.004
  885SOL    HW2 3555   4.750   6.240   7.011
  886SOL     OW 3556   4.962   1.395   6.350
  886SOL    HW1 3557   4.954   1.301   6.382
  886SOL    HW2 3558   4.992   1.396   6.255
  887SOL     OW 3559   4.847   0.459   6.320
  887SOL    HW1 3560   4.795   0.530   6.368
  887SOL    HW2 3561   4.845   0.374   6.374
  888SOL     OW 3562   6.076   6.449   3.369
  888SOL    HW1 3563   6.012   6.474   3.442
  888SOL    HW2 3564   6.027   6.399   3.298
  889SOL     OW 3565   0.950   6.697   4.906
  889SOL    HW1 3566   0.858   6.707   4.867
  889SOL    HW2 3567   1.014   6.755   4.856
  890SOL     OW 3568   2.444   4.927   2.007
  890SOL    HW1 3569   2.436   4.853   1.940
  890SOL    HW2 3570   2.479   4.890   2.093
  891SOL     OW 3571   5.848   3.337   6.074
  891SOL    HW1 3572   5.920   3.269   6.060
  891SOL    HW2 3573   5.804   3.357   5.986
  892SOL     OW 3574   2.659   5.302   1.834
  892SOL    HW1 3575   2.742   5.247   1.843
  892SOL    HW2 3576   2.663   5.353   1.748
  893SOL     OW 3577   1.983   0.308   0.704
  893SOL    HW1 3578   1.976   0.330   0.802
  893SOL    HW2 3579   1.909   0.352   0.654
  894SOL     OW 3580   1.204   5.766   3.373
  894SOL    HW1 3581   1.221   5.668   3.369
  894SOL    HW2 3582   1.221   5.799   3.466
  895SOL     OW 3583   1.817   0.238   4.738
  895SOL    HW1 3584   1.835   0.198   4.648
  895SOL    HW2 3585   1.755   0.317   4.728
  896SOL     OW 3586   5.419   6.841   3.346
  896SOL    HW1 3587   5.512   6.862   3.316
  896SOL    HW2 3588   5.410   6.860   3.444
  897SOL     OW 3589   5.136   2.678   5.991
  897SOL    HW1 3590   5.085   2.700   6.074
  897SOL    HW2 3591   5.203   2.750   5.972
  898SOL     OW 3592   6.270   6.551   4.175
  898SOL    HW1 3593   6.332   6.605   4.117
  898SOL    HW2 3594   6.298   6.455   4.171
  899SOL     OW 3595   0.814   4.802   6.655
  899SOL    HW1 3596   0.815   4.712   6.698
  899SOL    HW2 3597   0.727   4.847   6.674
  900SOL     OW 3598   0.898   6.201   3.900
  900SOL    HW1 3599   0.960   6.123   3.890
  900SOL    HW2 3600   0.823   6.193   3.835
  901SOL     OW 3601   5.535   2.612   3.579
  901SOL    HW1 3602   5.459   2.556   3.612
  901SOL    HW2 3603   5.607   2.553   3.543
  902SOL     OW 3604   0.075   6.282   0.100
  902SOL    HW1 3605   0.059   6.294   0.198
  902SOL    HW2 3606   0.083   6.184   0.079
  903SOL     OW 3607   0.478   4.561   0.237
  903SOL    HW1 3608   0.429   4.523   0.316
  903SOL    HW2 3609   0.576   4.563   0.257
  904SOL     OW 3610   1.831   1.557   3.614
  904SOL    HW1 3611   1.735   1.527   3.622
  904SOL    HW2 3612   1.883   1.523   3.692
  905SOL     OW 3613   5.581   1.751   5.286
  905SOL    HW1 3614   5.581   1.779   5.190
  905SOL    HW2 3615   5.675   1.741   5.318
  906SOL     OW 3616   6.197   3.906   5.183
  906SOL    HW1 3617   6.277   3.935   5.235
  906SOL    HW2 3618   6.114   3.936   5.232
  907SOL     OW 3619   6.918   3.301   1.556
  907SOL    HW1 3620   6.967   3.220   1.590
  907SOL    HW2 3621   6.980   3.379   1.556
  908SOL     OW 3622   1.503   0.693   3.160
  908SOL    HW1 3623   1.510   0.595   3.147
  908SOL    HW2 3624   1.477   0.712   3.255
  909SOL     OW 3625   4.157   0.254   0.965
  909SOL    HW1 3626   4.242   0.241   1.016
  909SOL    HW2 3627   4.090   0.299   1.025
  910SOL     OW 3628   2.245   1.833   1.580
  910SOL    HW1 3629   2.294   1.869   1.660
  910SOL    HW2 3630   2.297   1.853   1.497
  911SOL     OW 3631   0.359   4.280   0.953
  911SOL    HW1 3632   0.422   4.268   0.876
  911SOL    HW2 3633   0.407   4.265   1.039
  912SOL     OW 3634   0.714   0.419   6.175
  912SOL    HW1 3635   0.649   0.428   6.250
  912SOL    HW2 3636   0.668   0.436   6.088
  913SOL     OW 3637   2.353   1.321   1.717
  913SOL    HW1 3638   2.317   1.228   1.728
  913SOL    HW2 3639   2.400   1.348   1.801
  914SOL     OW 3640   2.894   7.013   3.420
  914SOL    HW1 3641   2.867   7.017   3.324
  914SOL    HW2 3642   2.984   6.968   3.428
  915SOL     OW 3643   0.929   2.049   6.984
  915SOL    HW1 3644   0.925   2.075   0.060
  915SOL    HW2 3645   0.884   1.960   6.971
  916SOL     OW 3646   1.479   3.118   3.123
  916SOL    HW1 3647   1.526   3.206   3.116
  916SOL    HW2 3648   1.390   3.124   3.078
  917SOL     OW 3649   3.398   2.432   6.594
  917SOL    HW1 3650   3.357   2.341   6.601
  917SOL    HW2 3651   3.329   2.498   6.564
  918SOL     OW 3652   1.206   0.739   5.369
  918SOL    HW1 3653   1.282   0.691   5.326
  918SOL    HW2 3654   1.242   0.809   5.431
  919SOL     OW 3655   2.529   6.789   1.225
  919SOL    HW1 3656   2.441   6.744   1.208
  919SOL    HW2 3657   2.529   6.879   1.182
  920SOL     OW 3658   2.149   0.694   4.180
  920SOL    HW1 3659   2.132   0.734   4.270
  920SOL    HW2 3660   2.193   0.761   4.122
  921SOL     OW 3661   5.314   5.221   6.640
  921SOL    HW1 3662   5.368   5.161   6.700
  921SOL    HW2 3663   5.281   5.168   6.562
  922SOL     OW 3664   1.905   3.771   6.363
  922SOL    HW1 3665   1.973   3.747   6.293
  922SOL    HW2 3666   1.867   3.861   6.342
  923SOL     OW 3667   3.976   0.906   6.657
  923SOL    HW1 3668   3.950   1.002   6.645
  923SOL    HW2 3669   4.049   0.900   6.725
  924SOL     OW 3670   6.632   3.952   3.127
  924SOL    HW1 3671   6.617   3.870   3.182
  924SOL    HW2 3672   6.604   4.032   3.179
  925SOL     OW 3673   6.018   2.323   3.142
  925SOL    HW1 3674   6.054   2.395   3.083
  925SOL    HW2 3675   6.004   2.239   3.088
  926SOL     OW 3676   5.559   6.371   0.702
  926SOL    HW1 3677   5.518   6.299   0.757
  926SOL    HW2 3678   5.654   6.347   0.682
  927SOL     OW 3679   4.288   5.016   4.559
  927SOL    HW1 3680   4.214   5.058   4.612
  927SOL    HW2 3681   4.374   5.026   4.608
  928SOL     OW 3682   0.781   1.331   1.070
  928SOL    HW1 3683   0.724   1.320   0.989
  928SOL    HW2 3684   0.803   1.241   1.108
  929SOL     OW 3685   0.732   2.556   2.655
  929SOL    HW1 3686   0.702   2.609   2.735
  929SOL    HW2 3687   0.667   2.482   2.639
  930SOL     OW 3688   4.966   6.160   3.154
  930SOL    HW1 3689   4.954   6.197   3.061
  930SOL    HW2 3690   4.988   6.235   3.217
  931SOL     OW 3691   1.965   2.809   2.297
  931SOL    HW1 3692   2.052   2.849   2.270
  931SOL    HW2 3693   1.893   2.840   2.234
  932SOL     OW 3694   4.772   6.452   1.318
  932SOL    HW1 3695   4.743   6.400   1.237
  932SOL    HW2 3696   4.706   6.523   1.339
  933SOL     OW 3697   1.919   6.225   3.624
  933SOL    HW1 3698   1.958   6.160   3.558
  933SOL    HW2 3699   1.898   6.178   3.709
  934SOL     OW 3700   2.911   1.160   5.386
  934SOL    HW1 3701   2.863   1.136   5.470
  934SOL    HW2 3702   2.886   1.253   5.359
  935SOL     OW 3703   2.473   3.058   6.358
  935SOL    HW1 3704   2.532   3.065   6.438
  935SOL    HW2 3705   2.418   2.975   6.365
  936SOL     OW 3706   0.262   1.723   1.646
  936SOL    HW1 3707   0.219   1.814   1.642
  936SOL    HW2 3708   0.286   1.694   1.553
  937SOL     OW 3709   4.937   2.258   3.732
  937SOL    HW1 3710   4.876   2.182   3.707
  937SOL    HW2 3711   4.934   2.271   3.832
  938SOL     OW 3712   6.805   2.074   0.296
  938SOL    HW1 3713   6.904   2.077   0.305
  938SOL    HW2 3714   6.777   2.116   0.209
  939SOL     OW 3715   6.393   0.971   5.834
  939SOL    HW1 3716   6.361   0.890   5.784
  939SOL    HW2 3717   6.489   0.959   5.859
  940SOL     OW 3718   0.494   0.788   4.376
  940SOL    HW1 3719   0.552   0.706   4.372
  940SOL    HW2 3720   0.488   0.829   4.285
  941SOL     OW 3721   5.357   2.839   5.146
  941SOL    HW1 3722   5.377   2.753   5.099
  941SOL    HW2 3723   5.263   2.866   5.128
  942SOL     OW 3724   5.177   7.013   5.474
  942SOL    HW1 3725   5.125   0.009   5.559
  942SOL    HW2 3726   5.172   0.074   5.416
  943SOL     OW 3727   5.904   1.949   6.800
  943SOL    HW1 3728   5.810   1.920   6.816
  943SOL    HW2 3729   5.967   1.878   6.831
  944SOL     OW 3730   5.881   4.198   4.863
  944SOL    HW1 3731   5.923   4.115   4.900
  944SOL    HW2 3732   5.845   4.179   4.772
  945SOL     OW 3733   5.333   3.742   5.408
  945SOL    HW1 3734   5.240   3.704   5.401
  945SOL    HW2 3735   5.368   3.761   5.316
  946SOL     OW 3736   6.004   2.878   5.915
  946SOL    HW1 3737   6.037   2.910   5.826
  946SOL    HW2 3738   5.912   2.839   5.904
  947SOL     OW 3739   1.328   2.913   5.483
  947SOL    HW1 3740   1.398   2.894   5.414
  947SOL    HW2 3741   1.311   3.012   5.487
  948SOL     OW 3742   4.043   1.854   0.345
  948SOL    HW1 3743   3.994   1.924   0.292
  948SOL    HW2 3744   3.999   1.842   0.434
  949SOL     OW 3745   6.020   5.678   6.479
  949SOL    HW1 3746   6.113   5.684   6.516
  949SOL    HW2 3747   5.977   5.768   6.481
  950SOL     OW 3748   4.261   5.276   0.712
  950SOL    HW1 3749   4.322   5.337   0.762
  950SOL    HW2 3750   4.311   5.193   0.687
  951SOL     OW 3751   1.067   2.382   3.353
  951SOL    HW1 3752   1.086   2.460   3.294
  951SOL    HW2 3753   0.980   2.341   3.327
  952SOL     OW 3754   5.466   1.187   1.373
  952SOL    HW1 3755   5.408   1.213   1.451
  952SOL    HW2 3756   5.410   1.139   1.305
  953SOL     OW 3757   3.425   0.081   6.341
  953SOL    HW1 3758   3.402   0.175   6.314
  953SOL    HW2 3759   3.348   0.041   6.391
  954SOL     OW 3760   0.372   6.522   1.041
  954SOL    HW1 3761   0.301   6.454   1.023
  954SOL    HW2 3762   0.351   6.572   1.125
  955SOL     OW 3763   6.428   6.565   2.449
  955SOL    HW1 3764   6.375   6.604   2.374
  955SOL    HW2 3765   6.404   6.468   2.460
  956SOL     OW 3766   0.609   2.460   0.193
  956SOL    HW1 3767   0.649   2.416   0.112
  956SOL    HW2 3768   0.519   2.421   0.211
  957SOL     OW 3769   2.639   6.164   5.525
  957SOL    HW1 3770   2.578   6.210   5.460
  957SOL    HW2 3771   2.652   6.069   5.497
  958SOL     OW 3772   4.817   2.299   0.146
  958SOL    HW1 3773   4.750   2.262   0.210
  958SOL    HW2 3774   4.908   2.267   0.171
  959SOL     OW 3775   1.377   4.327   2.366
  959SOL    HW1 3776   1.346   4.418   2.337
  959SOL    HW2 3777   1.425   4.336   2.454
  960SOL     OW 3778   1.540   5.874   5.337
  960SOL    HW1 3779   1.476   5.810   5.379
  960SOL    HW2 3780   1.629   5.868   5.383
  961SOL     OW 3781   3.803   0.083   1.544
  961SOL    HW1 3782   3.706   0.101   1.534
  961SOL    HW2 3783   3.836   0.124   1.629
  962SOL     OW 3784   1.670   6.568   4.032
  962SOL    HW1 3785   1.761   6.603   4.054
  962SOL    HW2 3786   1.633   6.518   4.110
  963SOL     OW 3787   5.855   0.556   1.839
  963SOL    HW1 3788   5.816   0.603   1.760
  963SOL    HW2 3789   5.858   0.618   1.917
  964SOL     OW 3790   4.952   3.891   1.345
  964SOL    HW1 3791   4.952   3.989   1.327
  964SOL    HW2 3792   4.881   3.846   1.290
  965SOL     OW 3793   1.169   2.245   1.057
  965SOL    HW1 3794   1.188   2.342   1.070
  965SOL    HW2 3795   1.085   2.234   1.003
  966SOL     OW 3796   0.137   1.965   1.698
  966SOL    HW1 3797   0.116   1.927   1.788
  966SOL    HW2 3798   0.112   2.061   1.695
  967SOL     OW 3799   0.698   5.852   2.348
  967SOL    HW1 3800   0.770   5.912   2.383
  967SOL    HW2 3801   0.685   5.870   2.250
  968SOL     OW 3802   6.376   4.221   2.194
  968SOL    HW1 3803   6.467   4.257   2.175
  968SOL    HW2 3804   6.315   4.243   2.117
  969SOL     OW 3805   4.151   6.280   6.336
  969SOL    HW1 3806   4.189   6.202   6.386
  969SOL    HW2 3807   4.052   6.284   6.349
  970SOL     OW 3808   4.343   2.336   5.422
  970SOL    HW1 3809   4.362   2.240   5.443
  970SOL    HW2 3810   4.429   2.383   5.403
  971SOL     OW 3811   0.444   2.433   1.708
  971SOL    HW1 3812   0.396   2.471   1.787
  971SOL    HW2 3813   0.399   2.349   1.679
  972SOL     OW 3814   6.895   5.679   1.723
  972SOL    HW1 3815   6.797   5.698   1.721
  972SOL    HW2 3816   6.911   5.590   1.766
  973SOL     OW 3817   6.097   4.077   5.620
  973SOL    HW1 3818   6.184   4.055   5.576
  973SOL    HW2 3819   6.051   4.149   5.568
  974SOL     OW 3820   2.972   1.481   4.099
  974SOL    HW1 3821   2.901   1.513   4.036
  974SOL    HW2 3822   3.020   1.560   4.138
  975SOL     OW 3823   4.015   6.959   5.618
  975SOL    HW1 3824   3.986   6.920   5.705
  975SOL    HW2 3825   3.971   6.908   5.543
  976SOL     OW 3826   0.253   5.781   3.805
  976SOL    HW1 3827   0.238   5.879   3.790
  976SOL    HW2 3828   0.195   5.749   3.881
  977SOL     OW 3829   1.417   2.352   3.119
  977SOL    HW1 3830   1.354   2.280   3.150
  977SOL    HW2 3831   1.368   2.416   3.060
  978SOL     OW 3832   6.004   3.353   4.619
  978SOL    HW1 3833   6.068   3.277   4.629
  978SOL    HW2 3834   5.978   3.387   4.710
  979SOL     OW 3835   5.467   0.889   3.213
  979SOL    HW1 3836   5.554   0.938   3.204
  979SOL    HW2 3837   5.467   0.808   3.154
  980SOL     OW 3838   6.385   0.866   4.791
  980SOL    HW1 3839   6.324   0.848   4.869
  980SOL    HW2 3840   6.343   0.934   4.731
  981SOL     OW 3841   7.018   3.340   5.472
  981SOL    HW1 3842   6.952   3.409   5.501
  981SOL    HW2 3843   0.064   3.382   5.409
  982SOL     OW 3844   1.585   3.047   1.671
  982SOL    HW1 3845   1.561   3.004   1.584
  982SOL    HW2 3846   1.606   2.976   1.739
  983SOL     OW 3847   5.477   1.611   3.157
  983SOL    HW1 3848   5.528   1.528   3.178
  983SOL    HW2 3849   5.454   1.612   3.060
  984SOL     OW 3850   4.764   1.060   4.747
  984SOL    HW1 3851   4.774   1.123   4.669
  984SOL    HW2 3852   4.833   0.988   4.741
  985SOL     OW 3853   3.156   4.935   0.063
  985SOL    HW1 3854   3.181   5.002   7.014
  985SOL    HW2 3855   3.221   4.859   0.060
  986SOL     OW 3856   4.414   5.240   6.360
  986SOL    HW1 3857   4.508   5.250   6.326
  986SOL    HW2 3858   4.416   5.202   6.452
  987SOL     OW 3859   3.235   6.909   2.565
  987SOL    HW1 3860   3.189   6.853   2.496
  987SOL    HW2 3861   3.281   6.849   2.630
  988SOL     OW 3862   3.401   4.168   1.879
  988SOL    HW1 3863   3.419   4.256   1.835
  988SOL    HW2 3864   3.463   4.156   1.957
  989SOL     OW 3865   1.146   0.146   4.860
  989SOL    HW1 3866   1.119   0.079   4.930
  989SOL    HW2 3867   1.231   0.116   4.817
  990SOL     OW 3868   4.793   6.158   3.775
  990SOL    HW1 3869   4.720   6.116   3.721
  990SOL    HW2 3870   4.783   6.131   3.871
  991SOL     OW 3871   6.576   1.494   5.090
  991SOL    HW1 3872   6.604   1.428   5.019
  991SOL    HW2 3873   6.540   1.444   5.169
  992SOL     OW 3874   0.545   3.277   0.582
  992SOL    HW1 3875   0.480   3.351   0.602
  992SOL    HW2 3876   0.542   3.210   0.656
  993SOL     OW 3877   3.574   5.148   4.012
  993SOL    HW1 3878   3.586   5.110   4.104
  993SOL    HW2 3879   3.663   5.151   3.966
  994SOL     OW 3880   2.896   3.578   2.209
  994SOL    HW1 3881   2.898   3.612   2.304
  994SOL    HW2 3882   2.859   3.485   2.208
  995SOL     OW 3883   1.007   1.257   5.012
  995SOL    HW1 3884   1.085   1.320   5.009
  995SOL    HW2 3885   0.935   1.288   4.951
  996SOL     OW 3886   1.303   3.840   2.162
  996SOL    HW1 3887   1.350   3.790   2.090
  996SOL    HW2 3888   1.272   3.777   2.233
  997SOL     OW 3889   6.614   1.080   1.596
  997SOL    HW1 3890   6.555   1.132   1.535
  997SOL    HW2 3891   6.627   1.131   1.681
  998SOL     OW 3892   5.109   0.256   3.370
  998SOL    HW1 3893   5.192   0.264   3.425
  998SOL    HW2 3894   5.043   0.325   3.398
  999SOL     OW 3895   0.039   5.570   1.158
  999SOL    HW1 3896   0.132   5.599   1.133
  999SOL    HW2 3897   0.005   5.507   1.088
 1000SOL     OW 3898   4.083   1.883   4.026
 1000SOL    HW1 3899   4.006   1.933   3.987
 1000SOL    HW2 3900   4.049   1.798   4.067
 1001SOL     OW 3901   4.515   0.043   6.041
 1001SOL    HW1 3902   4.436   0.064   5.983
 1001SOL    HW2 3903   4.489   0.052   6.137
 1002SOL     OW 3904   6.688   1.803   0.590
 1002SOL    HW1 3905   6.621   1.756   0.647
 1002SOL    HW2 3906   6.775   1.809   0.638
 1003SOL     OW 3907   4.301   4.961   2.538
 1003SOL    HW1 3908   4.258   4.874   2.514
 1003SOL    HW2 3909   4.243   5.036   2.507
 1004SOL     OW 3910   5.996   5.574   0.314
 1004SOL    HW1 3911   5.984   5.501   0.248
 1004SOL    HW2 3912   5.915   5.582   0.371
 1005SOL     OW 3913   6.608   6.210   3.867
 1005SOL    HW1 3914   6.676   6.262   3.815
 1005SOL    HW2 3915   6.544   6.273   3.911
 1006SOL     OW 3916   2.292   4.431   1.122
 1006SOL    HW1 3917   2.288   4.519   1.169
 1006SOL    HW2 3918   2.260   4.359   1.184
 1007SOL     OW 3919   0.579   0.637   3.396
 1007SOL    HW1 3920   0.667   0.683   3.395
 1007SOL    HW2 3921   0.548   0.625   3.491
 1008SOL     OW 3922   2.211   3.081   3.362
 1008SOL    HW1 3923   2.213   3.174   3.325
 1008SOL    HW2 3924   2.204   3.085   3.462
 1009SOL     OW 3925   1.394   5.900   4.931
 1009SOL    HW1 3926   1.383   5.916   4.833
 1009SOL    HW2 3927   1.324   5.836   4.962
 1010SOL     OW 3928   4.946   1.114   6.659
 1010SOL    HW1 3929   4.906   1.201   6.688
 1010SOL    HW2 3930   4.949   1.051   6.737
 1011SOL     OW 3931   3.535   6.059   3.671
 1011SOL    HW1 3932   3.502   6.113   3.593
 1011SOL    HW2 3933   3.463   6.053   3.740
 1012SOL     OW 3934   4.899   5.501   0.318
 1012SOL    HW1 3935   4.889   5.414   0.271
 1012SOL    HW2 3936   4.865   5.492   0.412
 1013SOL     OW 3937   0.428   1.404   1.462
 1013SOL    HW1 3938   0.527   1.407   1.471
 1013SOL    HW2 3939   0.387   1.379   1.550
 1014SOL     OW 3940   5.108   0.308   6.166
 1014SOL    HW1 3941   5.058   0.244   6.224
 1014SOL    HW2 3942   5.081   0.401   6.188
 1015SOL     OW 3943   3.154   6.178   4.347
 1015SOL    HW1 3944   3.205   6.092   4.340
 1015SOL    HW2 3945   3.213   6.254   4.321
 1016SOL     OW 3946   4.584   2.947   1.439
 1016SOL    HW1 3947   4.528   2.891   1.377
 1016SOL    HW2 3948   4.587   2.904   1.529
 1017SOL     OW 3949   4.295   1.901   6.660
 1017SOL    HW1 3950   4.322   1.926   6.567
 1017SOL    HW2 3951   4.285   1.983   6.716
 1018SOL     OW 3952   1.699   3.480   2.544
 1018SOL    HW1 3953   1.609   3.522   2.560
 1018SOL    HW2 3954   1.688   3.400   2.485
 1019SOL     OW 3955   6.084   0.829   0.581
 1019SOL    HW1 3956   6.154   0.771   0.622
 1019SOL    HW2 3957   6.076   0.808   0.484
 1020SOL     OW 3958   2.844   1.621   1.470
 1020SOL    HW1 3959   2.855   1.560   1.548
 1020SOL    HW2 3960   2.933   1.660   1.446
 1021SOL     OW 3961   6.791   1.529   1.021
 1021SOL    HW1 3962   6.854   1.471   0.970
 1021SOL    HW2 3963   6.817   1.530   1.118
 1022SOL     OW 3964   4.275   3.017   6.531
 1022SOL    HW1 3965   4.314   3.063   6.451
 1022SOL    HW2 3966   4.344   2.957   6.571
 1023SOL     OW 3967   4.936   1.233   3.960
 1023SOL    HW1 3968   4.971   1.263   4.049
 1023SOL    HW2 3969   4.970   1.294   3.889
 1024SOL     OW 3970   5.945   1.532   3.459
 1024SOL    HW1 3971   6.021   1.555   3.398
 1024SOL    HW2 3972   5.961   1.574   3.548
 1025SOL     OW 3973   3.096   4.489   1.027
 1025SOL    HW1 3974   3.112   4.453   1.119
 1025SOL    HW2 3975   3.020   4.554   1.030
 1026SOL     OW 3976   0.996   2.719   6.830
 1026SOL    HW1 3977   0.981   2.678   6.740
 1026SOL    HW2 3978   0.934   2.676   6.897
 1027SOL     OW 3979   2.776   4.879   2.585
 1027SOL    HW1 3980   2.693   4.919   2.545
 1027SOL    HW2 3981   2.825   4.827   2.514
 1028SOL     OW 3982   1.856   6.151   0.885
 1028SOL    HW1 3983   1.923   6.076   0.887
 1028SOL    HW2 3984   1.833   6.174   0.790
 1029SOL     OW 3985   2.743   1.057   6.186
 1029SOL    HW1 3986   2.841   1.035   6.194
 1029SOL    HW2 3987   2.699   1.045   6.275
 1030SOL     OW 3988   3.461   4.110   4.846
 1030SOL    HW1 3989   3.546   4.160   4.860
 1030SOL    HW2 3990   3.409   4.154   4.772
 1031SOL     OW 3991   2.268   5.333   1.024
 1031SOL    HW1 3992   2.355   5.358   1.066
 1031SOL    HW2 3993   2.254   5.390   0.943
 1032SOL     OW 3994   1.877   0.659   4.427
 1032SOL    HW1 3995   1.790   0.615   4.447
 1032SOL    HW2 3996   1.877   0.751   4.466
 1033SOL     OW 3997   1.868   5.780   3.440
 1033SOL    HW1 3998   1.926   5.832   3.376
 1033SOL    HW2 3999   1.848   5.837   3.520
 1034SOL     OW 4000   1.385   5.373   3.490
 1034SOL    HW1 4001   1.326   5.421   3.424
 1034SOL    HW2 4002   1.401   5.432   3.569
 1035SOL     OW 4003   2.494   1.268   4.115
 1035SOL    HW1 4004   2.413   1.325   4.113
 1035SOL    HW2 4005   2.507   1.230   4.207
 1036SOL     OW 4006   4.958   1.823   6.961
 1036SOL    HW1 4007   5.040   1.808   7.016
 1036SOL    HW2 4008   4.980   1.805   6.864
 1037SOL     OW 4009   2.869   2.224   6.633
 1037SOL    HW1 4010   2.956   2.230   6.682
 1037SOL    HW2 4011   2.828   2.134   6.650
 1038SOL     OW 4012   2.660   1.437   3.937
 1038SOL    HW1 4013   2.594   1.509   3.919
 1038SOL    HW2 4014   2.617   1.365   3.992
 1039SOL     OW 4015   3.785   1.409   3.242
 1039SOL    HW1 4016   3.854   1.480   3.260
 1039SOL    HW2 4017   3.780   1.348   3.321
 1040SOL     OW 4018   6.258   4.461   3.258
 1040SOL    HW1 4019   6.312   4.535   3.297
 1040SOL    HW2 4020   6.244   4.390   3.326
 1041SOL     OW 4021   0.777   6.728   4.450
 1041SOL    HW1 4022   0.823   6.781   4.521
 1041SOL    HW2 4023   0.794   6.770   4.360
 1042SOL     OW 4024   5.311   4.114   0.832
 1042SOL    HW1 4025   5.332   4.211   0.819
 1042SOL    HW2 4026   5.282   4.099   0.926
 1043SOL     OW 4027   3.023   1.244   6.416
 1043SOL    HW1 4028   3.029   1.338   6.380
 1043SOL    HW2 4029   3.045   1.179   6.343
 1044SOL     OW 4030   4.188   3.785   1.794
 1044SOL    HW1 4031   4.263   3.840   1.757
 1044SOL    HW2 4032   4.185   3.795   1.894
 1045SOL     OW 4033   3.327   1.365   3.371
 1045SOL    HW1 4034   3.317   1.397   3.277
 1045SOL    HW2 4035   3.396   1.421   3.418
 1046SOL     OW 4036   3.808   0.956   1.985
 1046SOL    HW1 4037   3.717   0.979   2.019
 1046SOL    HW2 4038   3.855   1.039   1.957
 1047SOL     OW 4039   0.985   5.173   2.020
 1047SOL    HW1 4040   1.000   5.127   1.932
 1047SOL    HW2 4041   0.994   5.106   2.094
 1048SOL     OW 4042   6.114   4.782   5.565
 1048SOL    HW1 4043   6.148   4.704   5.512
 1048SOL    HW2 4044   6.079   4.750   5.653
 1049SOL     OW 4045   0.729   3.251   5.066
 1049SOL    HW1 4046   0.779   3.315   5.008
 1049SOL    HW2 4047   0.791   3.211   5.134
 1050SOL     OW 4048   3.374   0.409   6.791
 1050SOL    HW1 4049   3.316   0.431   6.713
 1050SOL    HW2 4050   3.358   0.475   6.865
 1051SOL     OW 4051   4.514   4.888   1.717
 1051SOL    HW1 4052   4.594   4.847   1.760
 1051SOL    HW2 4053   4.539   4.924   1.628
 1052SOL     OW 4054   3.250   6.948   4.328
 1052SOL    HW1 4055   3.267   0.026   4.322
 1052SOL    HW2 4056   3.242   6.910   4.236
 1053SOL     OW 4057   4.321   4.898   2.998
 1053SOL    HW1 4058   4.334   4.973   3.062
 1053SOL    HW2 4059   4.231   4.906   2.955
 1054SOL     OW 4060   3.629   6.178   4.298
 1054SOL    HW1 4061   3.641   6.084   4.329
 1054SOL    HW2 4062   3.680   6.240   4.358
 1055SOL     OW 4063   4.495   5.292   4.667
 1055SOL    HW1 4064   4.481   5.363   4.736
 1055SOL    HW2 4065   4.519   5.206   4.712
 1056SOL     OW 4066   1.448   6.369   5.466
 1056SOL    HW1 4067   1.480   6.292   5.412
 1056SOL    HW2 4068   1.524   6.433   5.481
 1057SOL     OW 4069   3.764   3.999   1.952
 1057SOL    HW1 4070   3.781   4.020   2.049
 1057SOL    HW2 4071   3.723   4.078   1.907
 1058SOL     OW 4072   3.749   0.769   1.332
 1058SOL    HW1 4073   3.686   0.748   1.258
 1058SOL    HW2 4074   3.843   0.765   1.299
 1059SOL     OW 4075   3.428   1.852   1.167
 1059SOL    HW1 4076   3.364   1.916   1.209
 1059SOL    HW2 4077   3.398   1.758   1.185
 1060SOL     OW 4078   2.667   2.286   4.815
 1060SOL    HW1 4079   2.663   2.226   4.735
 1060SOL    HW2 4080   2.737   2.252   4.878
 1061SOL     OW 4081   3.109   6.205   1.439
 1061SOL    HW1 4082   3.046   6.252   1.376
 1061SOL    HW2 4083   3.202   6.214   1.405
 1062SOL     OW 4084   4.871   4.384   5.198
 1062SOL    HW1 4085   4.948   4.440   5.166
 1062SOL    HW2 4086   4.904   4.319   5.267
 1063SOL     OW 4087   2.551   2.618   5.771
 1063SOL    HW1 4088   2.597   2.624   5.683
 1063SOL    HW2 4089   2.572   2.530   5.813
 1064SOL     OW 4090   0.226   3.373   1.530
 1064SOL    HW1 4091   0.282   3.403   1.452
 1064SOL    HW2 4092   0.221   3.446   1.598
 1065SOL     OW 4093   5.912   5.996   5.322
 1065SOL    HW1 4094   5.989   5.976   5.261
 1065SOL    HW2 4095   5.923   6.088   5.360
 1066SOL     OW 4096   3.735   0.291   3.783
 1066SOL    HW1 4097   3.760   0.197   3.807
 1066SOL    HW2 4098   3.648   0.292   3.735
 1067SOL     OW 4099   1.605   3.475   1.639
 1067SOL    HW1 4100   1.657   3.556   1.665
 1067SOL    HW2 4101   1.646   3.394   1.680
 1068SOL     OW 4102   0.976   3.893   1.669
 1068SOL    HW1 4103   0.890   3.844   1.685
 1068SOL    HW2 4104   1.005   3.938   1.754
 1069SOL     OW 4105   3.644   4.029   1.583
 1069SOL    HW1 4106   3.679   3.959   1.645
 1069SOL    HW2 4107   3.545   4.040   1.598
 1070SOL     OW 4108   2.029   0.608   6.851
 1070SOL    HW1 4109   2.041   0.520   6.897
 1070SOL    HW2 4110   2.092   0.675   6.890
 1071SOL     OW 4111   3.989   6.646   3.613
 1071SOL    HW1 4112   3.942   6.640   3.701
 1071SOL    HW2 4113   3.994   6.555   3.572
 1072SOL     OW 4114   3.550   5.892   3.246
 1072SOL    HW1 4115   3.569   5.863   3.340
 1072SOL    HW2 4116   3.635   5.894   3.194
 1073SOL     OW 4117   2.952   4.956   2.783
 1073SOL    HW1 4118   2.888   4.914   2.719
 1073SOL    HW2 4119   3.019   5.010   2.732
 1074SOL     OW 4120   1.587   5.380   2.265
 1074SOL    HW1 4121   1.617   5.475   2.258
 1074SOL    HW2 4122   1.612   5.331   2.181
 1075SOL     OW 4123   0.310   4.093   2.894
 1075SOL    HW1 4124   0.259   4.009   2.876
 1075SOL    HW2 4125   0.404   4.084   2.861
 1076SOL     OW 4126   0.176   4.968   3.585
 1076SOL    HW1 4127   0.159   4.901   3.512
 1076SOL    HW2 4128   0.179   5.059   3.545
 1077SOL     OW 4129   4.388   0.419   0.751
 1077SOL    HW1 4130   4.418   0.390   0.842
 1077SOL    HW2 4131   4.288   0.416   0.746
 1078SOL     OW 4132   1.469   2.502   1.876
 1078SOL    HW1 4133   1.415   2.586   1.883
 1078SOL    HW2 4134   1.560   2.524   1.839
 1079SOL     OW 4135   2.399   5.317   2.530
 1079SOL    HW1 4136   2.483   5.316   2.583
 1079SOL    HW2 4137   2.412   5.263   2.446
 1080SOL     OW 4138   1.372   5.534   3.978
 1080SOL    HW1 4139   1.470   5.552   3.976
 1080SOL    HW2 4140   1.351   5.466   4.049
 1081SOL     OW 4141   1.245   1.273   0.425
 1081SOL    HW1 4142   1.185   1.304   0.351
 1081SOL    HW2 4143   1.334   1.248   0.387
 1082SOL     OW 4144   2.601   6.932   6.943
 1082SOL    HW1 4145   2.542   6.957   7.020
 1082SOL    HW2 4146   2.637   7.016   6.901
 1083SOL     OW 4147   3.630   2.641   1.291
 1083SOL    HW1 4148   3.646   2.639   1.193
 1083SOL    HW2 4149   3.589   2.554   1.319
 1084SOL     OW 4150   6.344   3.612   0.371
 1084SOL    HW1 4151   6.372   3.690   0.426
 1084SOL    HW2 4152   6.405   3.535   0.389
 1085SOL     OW 4153   2.121   4.098   3.920
 1085SOL    HW1 4154   2.044   4.093   3.856
 1085SOL    HW2 4155   2.193   4.156   3.882
 1086SOL     OW 4156   4.333   5.424   1.956
 1086SOL    HW1 4157   4.393   5.377   1.891
 1086SOL    HW2 4158   4.387   5.483   2.015
 1087SOL     OW 4159   4.233   2.915   5.371
 1087SOL    HW1 4160   4.156   2.893   5.312
 1087SOL    HW2 4161   4.264   3.008   5.352
 1088SOL     OW 4162   5.194   4.112   3.509
 1088SOL    HW1 4163   5.178   4.014   3.514
 1088SOL    HW2 4164   5.178   4.153   3.598
 1089SOL     OW 4165   5.907   0.077   3.040
 1089SOL    HW1 4166   5.831   0.065   2.976
 1089SOL    HW2 4167   5.888   0.155   3.100
 1090SOL     OW 4168   0.955   1.864   5.298
 1090SOL    HW1 4169   1.006   1.784   5.267
 1090SOL    HW2 4170   0.917   1.846   5.388
 1091SOL     OW 4171   1.261   2.307   4.650
 1091SOL    HW1 4172   1.326   2.374   4.614
 1091SOL    HW2 4173   1.235   2.244   4.576
 1092SOL     OW 4174   2.141   4.881   1.232
 1092SOL    HW1 4175   2.068   4.855   1.169
 1092SOL    HW2 4176   2.182   4.967   1.202
 1093SOL     OW 4177   0.229   1.661   2.767
 1093SOL    HW1 4178   0.158   1.718   2.809
 1093SOL    HW2 4179   0.212   1.654   2.669
 1094SOL     OW 4180   0.857   6.387   1.625
 1094SOL    HW1 4181   0.945   6.344   1.647
 1094SOL    HW2 4182   0.821   6.434   1.705
 1095SOL     OW 4183   6.130   3.414   5.874
 1095SOL    HW1 4184   6.125   3.335   5.934
 1095SOL    HW2 4185   6.177   3.489   5.921
 1096SOL     OW 4186   3.498   4.408   1.724
 1096SOL    HW1 4187   3.495   4.396   1.625
 1096SOL    HW2 4188   3.533   4.498   1.747
 1097SOL     OW 4189   1.747   4.354   5.375
 1097SOL    HW1 4190   1.712   4.293   5.304
 1097SOL    HW2 4191   1.827   4.403   5.340
 1098SOL     OW 4192   4.012   1.008   3.366
 1098SOL    HW1 4193   4.045   0.922   3.404
 1098SOL    HW2 4194   4.070   1.035   3.289
 1099SOL     OW 4195   3.739   1.516   2.436
 1099SOL    HW1 4196   3.675   1.558   2.501
 1099SOL    HW2 4197   3.809   1.583   2.411
 1100SOL     OW 4198   0.642   0.062   0.749
 1100SOL    HW1 4199   0.665   0.148   0.794
 1100SOL    HW2 4200   0.680   0.061   0.656
 1101SOL     OW 4201   6.016   2.422   0.752
 1101SOL    HW1 4202   5.964   2.340   0.727
 1101SOL    HW2 4203   5.961   2.479   0.813
 1102SOL     OW 4204   0.662   4.738   3.855
 1102SOL    HW1 4205   0.718   4.660   3.827
 1102SOL    HW2 4206   0.583   4.706   3.907
 1103SOL     OW 4207   0.849   3.206   1.681
 1103SOL    HW1 4208   0.903   3.289   1.678
 1103SOL    HW2 4209   0.898   3.132   1.634
 1104SOL     OW 4210   3.117   5.186   5.810
 1104SOL    HW1 4211   3.199   5.134   5.833
 1104SOL    HW2 4212   3.073   5.219   5.894
 1105SOL     OW 4213   4.472   6.025   0.159
 1105SOL    HW1 4214   4.425   5.937   0.163
 1105SOL    HW2 4215   4.565   6.016   0.193
 1106SOL     OW 4216   1.084   1.815   5.858
 1106SOL    HW1 4217   1.118   1.758   5.932
 1106SOL    HW2 4218   1.083   1.763   5.773
 1107SOL     OW 4219   1.115   0.518   1.531
 1107SOL    HW1 4220   1.127   0.582   1.454
 1107SOL    HW2 4221   1.205   0.494   1.568
 1108SOL     OW 4222   1.136   1.614   6.025
 1108SOL    HW1 4223   1.052   1.572   5.990
 1108SOL    HW2 4224   1.188   1.545   6.076
 1109SOL     OW 4225   4.450   1.044   3.766
 1109SOL    HW1 4226   4.518   1.110   3.798
 1109SOL    HW2 4227   4.430   1.060   3.670
 1110SOL     OW 4228   3.454   2.910   2.193
 1110SOL    HW1 4229   3.551   2.923   2.210
 1110SOL    HW2 4230   3.440   2.830   2.135
 1111SOL     OW 4231   5.385   0.072   0.004
 1111SOL    HW1 4232   5.408   0.168   7.008
 1111SOL    HW2 4233   5.463   0.026   0.045
 1112SOL     OW 4234   6.936   1.371   2.947
 1112SOL    HW1 4235   6.949   1.273   2.935
 1112SOL    HW2 4236   6.999   1.421   2.887
 1113SOL     OW 4237   6.463   3.683   1.641
 1113SOL    HW1 4238   6.462   3.765   1.699
 1113SOL    HW2 4239   6.370   3.658   1.616
 1114SOL     OW 4240   5.741   1.657   4.791
 1114SOL    HW1 4241   5.827   1.695   4.824
 1114SOL    HW2 4242   5.674   1.657   4.866
 1115SOL     OW 4243   2.372   3.206   0.355
 1115SOL    HW1 4244   2.312   3.168   0.426
 1115SOL    HW2 4245   2.349   3.302   0.341
 1116SOL     OW 4246   4.237   5.495   5.039
 1116SOL    HW1 4247   4.162   5.499   5.105
 1116SOL    HW2 4248   4.305   5.564   5.062
 1117SOL     OW 4249   2.482   3.340   1.110
 1117SOL    HW1 4250   2.580   3.319   1.104
 1117SOL    HW2 4251   2.431   3.280   1.049
 1118SOL     OW 4252   1.693   3.767   3.511
 1118SOL    HW1 4253   1.637   3.728   3.584
 1118SOL    HW2 4254   1.787   3.732   3.519
 1119SOL     OW 4255   3.353   4.021   2.276
 1119SOL    HW1 4256   3.424   3.955   2.301
 1119SOL    HW2 4257   3.278   3.972   2.231
 1120SOL     OW 4258   4.196   0.713   4.907
 1120SOL    HW1 4259   4.240   0.658   4.977
 1120SOL    HW2 4260   4.162   0.653   4.834
 1121SOL     OW 4261   5.308   3.262   2.295
 1121SOL    HW1 4262   5.311   3.227   2.389
 1121SOL    HW2 4263   5.242   3.337   2.290
 1122SOL     OW 4264   4.942   4.759   6.921
 1122SOL    HW1 4265   4.914   4.665   6.902
 1122SOL    HW2 4266   5.020   4.783   6.862
 1123SOL     OW 4267   3.707   0.730   1.874
 1123SOL    HW1 4268   3.687   0.754   1.779
 1123SOL    HW2 4269   3.768   0.799   1.913
 1124SOL     OW 4270   0.973   4.628   4.916
 1124SOL    HW1 4271   0.958   4.551   4.978
 1124SOL    HW2 4272   1.034   4.694   4.959
 1125SOL     OW 4273   4.053   3.228   5.009
 1125SOL    HW1 4274   4.002   3.158   5.059
 1125SOL    HW2 4275   4.054   3.205   4.911
 1126SOL     OW 4276   5.660   0.091   2.470
 1126SOL    HW1 4277   5.640   0.188   2.484
 1126SOL    HW2 4278   5.742   0.066   2.522
 1127SOL     OW 4279   1.283   4.980   6.938
 1127SOL    HW1 4280   1.328   4.893   6.915
 1127SOL    HW2 4281   1.274   5.036   6.856
 1128SOL     OW 4282   3.257   1.549   4.810
 1128SOL    HW1 4283   3.355   1.542   4.795
 1128SOL    HW2 4284   3.210   1.475   4.761
 1129SOL     OW 4285   5.221   0.177   6.628
 1129SOL    HW1 4286   5.129   0.167   6.665
 1129SOL    HW2 4287   5.268   0.250   6.677
 1130SOL     OW 4288   0.122   4.734   5.937
 1130SOL    HW1 4289   0.078   4.656   5.983
 1130SOL    HW2 4290   0.220   4.715   5.926
 1131SOL     OW 4291   0.517   5.102   5.906
 1131SOL    HW1 4292   0.570   5.150   5.836
 1131SOL    HW2 4293   0.458   5.167   5.954
 1132SOL     OW 4294   4.777   0.103   5.280
 1132SOL    HW1 4295   4.738   0.085   5.371
 1132SOL    HW2 4296   4.710   0.154   5.225
 1133SOL     OW 4297   1.013   2.717   0.779
 1133SOL    HW1 4298   0.997   2.659   0.859
 1133SOL    HW2 4299   1.108   2.747   0.778
 1134SOL     OW 4300   6.533   2.974   5.872
 1134SOL    HW1 4301   6.589   2.953   5.792
 1134SOL    HW2 4302   6.542   3.071   5.895
 1135SOL     OW 4303   5.139   1.721   3.211
 1135SOL    HW1 4304   5.070   1.723   3.283
 1135SOL    HW2 4305   5.149   1.628   3.176
 1136SOL     OW 4306   3.862   5.384   4.362
 1136SOL    HW1 4307   3.917   5.391   4.279
 1136SOL    HW2 4308   3.815   5.471   4.377
 1137SOL     OW 4309   1.782   1.573   5.464
 1137SOL    HW1 4310   1.832   1.495   5.500
 1137SOL    HW2 4311   1.778   1.645   5.534
 1138SOL     OW 4312   0.554   4.444   5.532
 1138SOL    HW1 4313   0.541   4.445   5.433
 1138SOL    HW2 4314   0.649   4.422   5.553
 1139SOL     OW 4315   1.144   6.747   1.637
 1139SOL    HW1 4316   1.054   6.787   1.653
 1139SOL    HW2 4317   1.178   6.775   1.547
 1140SOL     OW 4318   3.508   1.517   3.490
 1140SOL    HW1 4319   3.514   1.462   3.573
 1140SOL    HW2 4320   3.543   1.609   3.509
 1141SOL     OW 4321   6.704   5.900   5.886
 1141SOL    HW1 4322   6.788   5.923   5.935
 1141SOL    HW2 4323   6.627   5.900   5.950
 1142SOL     OW 4324   5.902   0.960   4.008
 1142SOL    HW1 4325   5.970   0.959   4.081
 1142SOL    HW2 4326   5.815   0.993   4.044
 1143SOL     OW 4327   4.176   1.384   2.524
 1143SOL    HW1 4328   4.172   1.288   2.551
 1143SOL    HW2 4329   4.168   1.442   2.605
 1144SOL     OW 4330   1.014   6.286   5.267
 1144SOL    HW1 4331   0.951   6.357   5.301
 1144SOL    HW2 4332   0.961   6.213   5.225
 1145SOL     OW 4333   1.350   5.061   5.423
 1145SOL    HW1 4334   1.380   5.094   5.512
 1145SOL    HW2 4335   1.346   5.137   5.358
 1146SOL     OW 4336   5.969   2.043   0.575
 1146SOL    HW1 4337   6.052   2.094   0.601
 1146SOL    HW2 4338   5.897   2.062   0.641
 1147SOL     OW 4339   6.178   2.657   1.806
 1147SOL    HW1 4340   6.185   2.591   1.731
 1147SOL    HW2 4341   6.124   2.735   1.776
 1148SOL     OW 4342   4.601   0.588   0.512
 1148SOL    HW1 4343   4.623   0.595   0.609
 1148SOL    HW2 4344   4.590   0.680   0.473
 1149SOL     OW 4345   0.384   3.271   2.659
 1149SOL    HW1 4346   0.467   3.280   2.603
 1149SOL    HW2 4347   0.311   3.232   2.604
 1150SOL     OW 4348   1.197   4.780   6.019
 1150SOL    HW1 4349   1.240   4.736   5.940
 1150SOL    HW2 4350   1.268   4.827   6.072
 1151SOL     OW 4351   4.639   5.629   0.123
 1151SOL    HW1 4352   4.731   5.594   0.107
 1151SOL    HW2 4353   4.606   5.677   0.041
 1152SOL     OW 4354   0.539   0.613   5.187
 1152SOL    HW1 4355   0.469   0.634   5.118
 1152SOL    HW2 4356   0.588   0.530   5.160
 1153SOL     OW 4357   2.131   5.289   2.516
 1153SOL    HW1 4358   2.100   5.280   2.421
 1153SOL    HW2 4359   2.227   5.320   2.516
 1154SOL     OW 4360   2.017   4.637   2.002
 1154SOL    HW1 4361   1.926   4.644   1.960
 1154SOL    HW2 4362   2.086   4.665   1.935
 1155SOL     OW 4363   3.005   5.482   1.941
 1155SOL    HW1 4364   3.071   5.506   2.013
 1155SOL    HW2 4365   2.923   5.443   1.983
 1156SOL     OW 4366   1.821   0.926   4.184
 1156SOL    HW1 4367   1.828   0.826   4.193
 1156SOL    HW2 4368   1.732   0.950   4.146
 1157SOL     OW 4369   1.396   2.060   4.187
 1157SOL    HW1 4370   1.476   2.020   4.231
 1157SOL    HW2 4371   1.363   1.997   4.116
 1158SOL     OW 4372   4.477   5.209   5.514
 1158SOL    HW1 4373   4.493   5.175   5.606
 1158SOL    HW2 4374   4.476   5.133   5.449
 1159SOL     OW 4375   5.376   5.346   3.283
 1159SOL    HW1 4376   5.422   5.351   3.195
 1159SOL    HW2 4377   5.348   5.251   3.301
 1160SOL     OW 4378   2.631   2.931   0.514
 1160SOL    HW1 4379   2.544   2.893   0.482
 1160SOL    HW2 4380   2.647   3.019   0.470
 1161SOL     OW 4381   4.119   0.046   4.397
 1161SOL    HW1 4382   4.067   0.059   4.313
 1161SOL    HW2 4383   4.101   0.122   4.459
 1162SOL     OW 4384   3.929   4.443   1.698
 1162SOL    HW1 4385   4.016   4.397   1.715
 1162SOL    HW2 4386   3.854   4.390   1.739
 1163SOL     OW 4387   4.606   2.148   2.474
 1163SOL    HW1 4388   4.676   2.170   2.406
 1163SOL    HW2 4389   4.549   2.228   2.491
 1164SOL     OW 4390   6.005   3.277   3.973
 1164SOL    HW1 4391   5.908   3.272   3.951
 1164SOL    HW2 4392   6.056   3.215   3.914
 1165SOL     OW 4393   1.617   4.952   2.348
 1165SOL    HW1 4394   1.581   5.000   2.269
 1165SOL    HW2 4395   1.717   4.954   2.345
 1166SOL     OW 4396   3.687   2.992   6.189
 1166SOL    HW1 4397   3.671   2.901   6.226
 1166SOL    HW2 4398   3.746   2.986   6.108
 1167SOL     OW 4399   4.586   1.407   4.364
 1167SOL    HW1 4400   4.538   1.387   4.278
 1167SOL    HW2 4401   4.660   1.471   4.347
 1168SOL     OW 4402   6.162   5.923   3.485
 1168SOL    HW1 4403   6.153   6.022   3.475
 1168SOL    HW2 4404   6.167   5.881   3.394
 1169SOL     OW 4405   1.025   3.428   1.663
 1169SOL    HW1 4406   1.077   3.510   1.687
 1169SOL    HW2 4407   1.008   3.426   1.565
 1170SOL     OW 4408   2.778   0.461   0.652
 1170SOL    HW1 4409   2.752   0.520   0.729
 1170SOL    HW2 4410   2.768   0.365   0.679
 1171SOL     OW 4411   2.255   0.259   0.690
 1171SOL    HW1 4412   2.168   0.303   0.713
 1171SOL    HW2 4413   2.264   0.253   0.590
 1172SOL     OW 4414   3.281   3.348   5.229
 1172SOL    HW1 4415   3.335   3.306   5.157
 1172SOL    HW2 4416   3.311   3.442   5.244
 1173SOL     OW 4417   4.845   0.968   6.186
 1173SOL    HW1 4418   4.929   0.915   6.181
 1173SOL    HW2 4419   4.851   1.033   6.261
 1174SOL     OW 4420   3.156   6.844   1.002
 1174SOL    HW1 4421   3.151   6.776   1.075
 1174SOL    HW2 4422   3.230   6.821   0.939
 1175SOL     OW 4423   6.728   4.951   5.023
 1175SOL    HW1 4424   6.755   4.934   5.117
 1175SOL    HW2 4425   6.651   5.015   5.021
 1176SOL     OW 4426   6.733   3.651   1.243
 1176SOL    HW1 4427   6.823   3.612   1.261
 1176SOL    HW2 4428   6.725   3.674   1.146
 1177SOL     OW 4429   6.266   3.359   0.177
 1177SOL    HW1 4430   6.362   3.375   0.202
 1177SOL    HW2 4431   6.207   3.391   0.251
 1178SOL     OW 4432   5.587   4.213   1.953
 1178SOL    HW1 4433   5.636   4.131   1.925
 1178SOL    HW2 4434   5.496   4.188   1.987
 1179SOL     OW 4435   2.561   5.660   6.802
 1179SOL    HW1 4436   2.570   5.760   6.798
 1179SOL    HW2 4437   2.494   5.630   6.736
 1180SOL     OW 4438   2.829   2.046   3.927
 1180SOL    HW1 4439   2.901   1.976   3.927
 1180SOL    HW2 4440   2.769   2.032   3.848
 1181SOL     OW 4441   2.035   4.369   3.106
 1181SOL    HW1 4442   2.108   4.381   3.039
 1181SOL    HW2 4443   2.056   4.423   3.187
 1182SOL     OW 4444   1.314   4.640   3.349
 1182SOL    HW1 4445   1.224   4.615   3.385
 1182SOL    HW2 4446   1.344   4.726   3.392
 1183SOL     OW 4447   4.740   5.354   1.109
 1183SOL    HW1 4448   4.645   5.361   1.139
 1183SOL    HW2 4449   4.797   5.328   1.186
 1184SOL     OW 4450   3.152   2.765   5.715
 1184SOL    HW1 4451   3.176   2.705   5.638
 1184SOL    HW2 4452   3.147   2.859   5.683
 1185SOL     OW 4453   2.096   2.107   0.229
 1185SOL    HW1 4454   2.171   2.149   0.178
 1185SOL    HW2 4455   2.123   2.094   0.324
 1186SOL     OW 4456   3.877   1.109   5.274
 1186SOL    HW1 4457   3.898   1.011   5.274
 1186SOL    HW2 4458   3.780   1.122   5.253
 1187SOL     OW 4459   0.074   1.193   5.547
 1187SOL    HW1 4460   0.129   1.247   5.484
 1187SOL    HW2 4461   0.130   1.121   5.587
 1188SOL     OW 4462   1.307   0.012   5.686
 1188SOL    HW1 4463   1.337   0.078   5.617
 1188SOL    HW2 4464   1.385   6.980   5.720
 1189SOL     OW 4465   6.849   0.927   1.461
 1189SOL    HW1 4466   6.799   0.881   1.388
 1189SOL    HW2 4467   6.784   0.964   1.528
 1190SOL     OW 4468   4.551   4.422   2.784
 1190SOL    HW1 4469   4.542   4.517   2.756
 1190SOL    HW2 4470   4.559   4.364   2.703
 1191SOL     OW 4471   3.687   4.584   6.885
 1191SOL    HW1 4472   3.610   4.645   6.905
 1191SOL    HW2 4473   3.726   4.550   6.971
 1192SOL     OW 4474   4.536   5.062   2.354
 1192SOL    HW1 4475   4.462   5.061   2.422
 1192SOL    HW2 4476   4.617   5.106   2.392
 1193SOL     OW 4477   4.261   6.669   3.907
 1193SOL    HW1 4478   4.222   6.577   3.911
 1193SOL    HW2 4479   4.258   6.703   3.813
 1194SOL     OW 4480   6.240   0.440   1.361
 1194SOL    HW1 4481   6.286   0.514   1.410
 1194SOL    HW2 4482   6.265   0.352   1.402
 1195SOL     OW 4483   4.014   0.604   6.705
 1195SOL    HW1 4484   4.019   0.661   6.787
 1195SOL    HW2 4485   4.029   0.660   6.624
 1196SOL     OW 4486   6.940   5.622   2.410
 1196SOL    HW1 4487   6.870   5.552   2.393
 1196SOL    HW2 4488   0.007   5.590   2.375
 1197SOL     OW 4489   2.982   5.639   6.216
 1197SOL    HW1 4490   2.995   5.612   6.311
 1197SOL    HW2 4491   2.888   5.617   6.188
 1198SOL     OW 4492   3.172   1.639   2.648
 1198SOL    HW1 4493   3.127   1.723   2.678
 1198SOL    HW2 4494   3.172   1.635   2.548
 1199SOL     OW 4495   3.533   4.162   3.642
 1199SOL    HW1 4496   3.442   4.169   3.601
 1199SOL    HW2 4497   3.524   4.165   3.742
 1200SOL     OW 4498   3.975   3.860   0.383
 1200SOL    HW1 4499   3.878   3.884   0.386
 1200SOL    HW2 4500   3.995   3.790   0.452
 1201SOL     OW 4501   1.430   0.687   4.877
 1201SOL    HW1 4502   1.389   0.776   4.896
 1201SOL    HW2 4503   1.376   0.615   4.921
 1202SOL     OW 4504   5.883   0.325   4.984
 1202SOL    HW1 4505   5.973   0.322   4.941
 1202SOL    HW2 4506   5.818   0.273   4.929
 1203SOL     OW 4507   5.823   6.650   1.935
 1203SOL    HW1 4508   5.912   6.604   1.942
 1203SOL    HW2 4509   5.756   6.586   1.898
 1204SOL     OW 4510   3.007   0.276   0.141
 1204SOL    HW1 4511   2.929   0.308   0.195
 1204SOL    HW2 4512   3.061   0.212   0.196
 1205SOL     OW 4513   0.318   2.158   5.194
 1205SOL    HW1 4514   0.288   2.063   5.177
 1205SOL    HW2 4515   0.327   2.206   5.107
 1206SOL     OW 4516   0.861   1.630   4.713
 1206SOL    HW1 4517   0.859   1.730   4.704
 1206SOL    HW2 4518   0.820   1.588   4.632
 1207SOL     OW 4519   5.722   6.130   6.630
 1207SOL    HW1 4520   5.762   6.170   6.548
 1207SOL    HW2 4521   5.625   6.112   6.615
 1208SOL     OW 4522   3.801   4.056   3.670
 1208SOL    HW1 4523   3.831   4.051   3.765
 1208SOL    HW2 4524   3.712   4.103   3.666
 1209SOL     OW 4525   6.494   4.769   4.779
 1209SOL    HW1 4526   6.418   4.833   4.795
 1209SOL    HW2 4527   6.489   4.735   4.685
 1210SOL     OW 4528   2.759   6.610   2.761
 1210SOL    HW1 4529   2.753   6.703   2.798
 1210SOL    HW2 4530   2.815   6.611   2.678
 1211SOL     OW 4531   1.249   3.549   4.425
 1211SOL    HW1 4532   1.191   3.485   4.475
 1211SOL    HW2 4533   1.254   3.636   4.474
 1212SOL     OW 4534   2.166   4.008   4.827
 1212SOL    HW1 4535   2.118   4.092   4.801
 1212SOL    HW2 4536   2.230   4.028   4.902
 1213SOL     OW 4537   5.449   2.888   5.603
 1213SOL    HW1 4538   5.518   2.826   5.640
 1213SOL    HW2 4539   5.360   2.865   5.641
 1214SOL     OW 4540   2.118   2.591   2.743
 1214SOL    HW1 4541   2.059   2.511   2.736
 1214SOL    HW2 4542   2.211   2.566   2.719
 1215SOL     OW 4543   0.557   5.288   2.003
 1215SOL    HW1 4544   0.483   5.324   2.059
 1215SOL    HW2 4545   0.634   5.263   2.061
 1216SOL     OW 4546   3.032   0.093   1.913
 1216SOL    HW1 4547   3.054   0.153   1.989
 1216SOL    HW2 4548   2.952   0.037   1.936
 1217SOL     OW 4549   1.309   1.521   2.759
 1217SOL    HW1 4550   1.383   1.559   2.703
 1217SOL    HW2 4551   1.305   1.422   2.743
 1218SOL     OW 4552   0.459   3.597   4.388
 1218SOL    HW1 4553   0.492   3.616   4.480
 1218SOL    HW2 4554   0.385   3.529   4.392
 1219SOL     OW 4555   2.331   6.077   3.348
 1219SOL    HW1 4556   2.350   5.980   3.330
 1219SOL    HW2 4557   2.401   6.114   3.408
 1220SOL     OW 4558   6.675   4.355   2.873
 1220SOL    HW1 4559   6.639   4.391   2.787
 1220SOL    HW2 4560   6.624   4.393   2.950
 1221SOL     OW 4561   4.846   3.581   6.973
 1221SOL    HW1 4562   4.751   3.595   6.946
 1221SOL    HW2 4563   4.851   3.513   0.026
 1222SOL     OW 4564   5.658   5.856   1.279
 1222SOL    HW1 4565   5.706   5.823   1.361
 1222SOL    HW2 4566   5.685   5.801   1.201
 1223SOL     OW 4567   5.684   5.638   5.000
 1223SOL    HW1 4568   5.778   5.662   5.026
 1223SOL    HW2 4569   5.632   5.614   5.082
 1224SOL     OW 4570   4.790   4.687   1.949
 1224SOL    HW1 4571   4.839   4.678   2.036
 1224SOL    HW2 4572   4.695   4.711   1.967
 1225SOL     OW 4573   4.671   1.190   0.163
 1225SOL    HW1 4574   4.694   1.107   0.113
 1225SOL    HW2 4575   4.571   1.198   0.170
 1226SOL     OW 4576   4.803   4.828   0.438
 1226SOL    HW1 4577   4.866   4.874   0.375
 1226SOL    HW2 4578   4.741   4.770   0.386
 1227SOL     OW 4579   5.209   4.870   6.581
 1227SOL    HW1 4580   5.276   4.884   6.654
 1227SOL    HW2 4581   5.150   4.950   6.573
 1228SOL     OW 4582   3.664   3.555   4.330
 1228SOL    HW1 4583   3.660   3.488   4.404
 1228SOL    HW2 4584   3.580   3.608   4.327
 1229SOL     OW 4585   1.931   5.659   2.763
 1229SOL    HW1 4586   1.904   5.676   2.857
 1229SOL    HW2 4587   2.029   5.676   2.753
 1230SOL     OW 4588   5.187   5.330   1.964
 1230SOL    HW1 4589   5.272   5.371   1.997
 1230SOL    HW2 4590   5.140   5.286   2.041
 1231SOL     OW 4591   1.900   2.086   6.856
 1231SOL    HW1 4592   1.881   2.162   6.794
 1231SOL    HW2 4593   1.999   2.072   6.861
 1232SOL     OW 4594   2.960   1.054   4.854
 1232SOL    HW1 4595   2.900   1.074   4.777
 1232SOL    HW2 4596   2.907   1.060   4.939
 1233SOL     OW 4597   6.617   5.377   5.632
 1233SOL    HW1 4598   6.654   5.366   5.540
 1233SOL    HW2 4599   6.543   5.311   5.647
 1234SOL     OW 4600   6.532   3.781   6.611
 1234SOL    HW1 4601   6.615   3.725   6.609
 1234SOL    HW2 4602   6.503   3.794   6.705
 1235SOL     OW 4603   6.311   5.074   1.267
 1235SOL    HW1 4604   6.360   5.132   1.334
 1235SOL    HW2 4605   6.332   4.978   1.285
 1236SOL     OW 4606   1.342   1.604   3.020
 1236SOL    HW1 4607   1.441   1.611   3.024
 1236SOL    HW2 4608   1.314   1.578   2.928
 1237SOL     OW 4609   0.927   6.764   5.197
 1237SOL    HW1 4610   0.833   6.741   5.170
 1237SOL    HW2 4611   0.990   6.737   5.124
 1238SOL     OW 4612   0.810   0.315   4.488
 1238SOL    HW1 4613   0.828   0.390   4.425
 1238SOL    HW2 4614   0.885   0.307   4.553
 1239SOL     OW 4615   5.143   4.774   4.173
 1239SOL    HW1 4616   5.110   4.851   4.228
 1239SOL    HW2 4617   5.195   4.809   4.095
 1240SOL     OW 4618   1.057   3.983   2.120
 1240SOL    HW1 4619   1.143   3.948   2.158
 1240SOL    HW2 4620   0.982   3.922   2.146
 1241SOL     OW 4621   4.305   5.340   5.307
 1241SOL    HW1 4622   4.353   5.317   5.223
 1241SOL    HW2 4623   4.362   5.317   5.386
 1242SOL     OW 4624   2.230   4.310   0.876
 1242SOL    HW1 4625   2.249   4.366   0.957
 1242SOL    HW2 4626   2.178   4.363   0.810
 1243SOL     OW 4627   0.602   3.898   4.398
 1243SOL    HW1 4628   0.619   3.882   4.300
 1243SOL    HW2 4629   0.521   3.847   4.426
 1244SOL     OW 4630   6.029   0.455   5.448
 1244SOL    HW1 4631   6.013   0.437   5.351
 1244SOL    HW2 4632   6.118   0.499   5.460
 1245SOL     OW 4633   4.678   6.021   1.286
 1245SOL    HW1 4634   4.591   6.070   1.285
 1245SOL    HW2 4635   4.727   6.041   1.371
 1246SOL     OW 4636   5.086   0.737   0.643
 1246SOL    HW1 4637   5.110   0.833   0.657
 1246SOL    HW2 4638   5.170   0.682   0.641
 1247SOL     OW 4639   6.774   6.953   2.890
 1247SOL    HW1 4640   6.770   6.861   2.852
 1247SOL    HW2 4641   6.862   6.966   2.936
 1248SOL     OW 4642   1.207   6.639   4.555
 1248SOL    HW1 4643   1.127   6.645   4.614
 1248SOL    HW2 4644   1.179   6.647   4.460
 1249SOL     OW 4645   5.888   5.888   6.432
 1249SOL    HW1 4646   5.912   5.962   6.370
 1249SOL    HW2 4647   5.791   5.894   6.455
 1250SOL     OW 4648   0.067   2.833   4.884
 1250SOL    HW1 4649   0.160   2.857   4.913
 1250SOL    HW2 4650   0.020   2.786   4.959
 1251SOL     OW 4651   2.816   1.124   2.819
 1251SOL    HW1 4652   2.731   1.127   2.872
 1251SOL    HW2 4653   2.864   1.039   2.838
 1252SOL     OW 4654   1.733   6.069   6.370
 1252SOL    HW1 4655   1.760   6.164   6.355
 1252SOL    HW2 4656   1.812   6.018   6.405
 1253SOL     OW 4657   3.300   6.995   0.090
 1253SOL    HW1 4658   3.263   6.921   0.033
 1253SOL    HW2 4659   3.334   0.048   0.031
 1254SOL     OW 4660   5.874   0.281   3.195
 1254SOL    HW1 4661   5.834   0.292   3.286
 1254SOL    HW2 4662   5.973   0.295   3.200
 1255SOL     OW 4663   5.566   1.119   5.432
 1255SOL    HW1 4664   5.546   1.205   5.386
 1255SOL    HW2 4665   5.480   1.074   5.457
 1256SOL     OW 4666   0.315   5.902   4.769
 1256SOL    HW1 4667   0.387   5.841   4.736
 1256SOL    HW2 4668   0.238   5.899   4.706
 1257SOL     OW 4669   0.448   6.355   3.568
 1257SOL    HW1 4670   0.393   6.313   3.495
 1257SOL    HW2 4671   0.545   6.347   3.546
 1258SOL     OW 4672   4.370   6.064   6.149
 1258SOL    HW1 4673   4.367   6.035   6.054
 1258SOL    HW2 4674   4.429   6.144   6.158
 1259SOL     OW 4675   5.878   0.189   5.472
 1259SOL    HW1 4676   5.800   0.191   5.535
 1259SOL    HW2 4677   5.916   0.281   5.464
 1260SOL     OW 4678   3.154   1.370   1.181
 1260SOL    HW1 4679   3.218   1.341   1.253
 1260SOL    HW2 4680   3.074   1.310   1.182
 1261SOL     OW 4681   6.710   4.297   5.483
 1261SOL    HW1 4682   6.768   4.216   5.487
 1261SOL    HW2 4683   6.720   4.341   5.393
 1262SOL     OW 4684   4.081   4.833   1.164
 1262SOL    HW1 4685   4.060   4.760   1.228
 1262SOL    HW2 4686   4.074   4.922   1.210
 1263SOL     OW 4687   6.611   2.209   0.999
 1263SOL    HW1 4688   6.671   2.144   0.953
 1263SOL    HW2 4689   6.663   2.260   1.067
 1264SOL     OW 4690   6.966   2.979   3.926
 1264SOL    HW1 4691   6.995   2.886   3.947
 1264SOL    HW2 4692   6.866   2.984   3.926
 1265SOL     OW 4693   6.943   6.194   4.642
 1265SOL    HW1 4694   6.892   6.151   4.718
 1265SOL    HW2 4695   6.968   6.124   4.576
 1266SOL     OW 4696   2.144   1.308   4.277
 1266SOL    HW1 4697   2.131   1.223   4.225
 1266SOL    HW2 4698   2.074   1.314   4.349
 1267SOL     OW 4699   6.321   4.999   2.242
 1267SOL    HW1 4700   6.324   5.013   2.341
 1267SOL    HW2 4701   6.248   5.054   2.202
 1268SOL     OW 4702   6.130   3.770   0.300
 1268SOL    HW1 4703   6.208   3.715   0.328
 1268SOL    HW2 4704   6.152   3.821   0.217
 1269SOL     OW 4705   6.928   5.667   6.083
 1269SOL    HW1 4706   6.835   5.631   6.096
 1269SOL    HW2 4707   6.931   5.762   6.112
 1270SOL     OW 4708   1.738   2.359   4.898
 1270SOL    HW1 4709   1.717   2.421   4.974
 1270SOL    HW2 4710   1.770   2.412   4.820
 1271SOL     OW 4711   5.165   1.948   3.057
 1271SOL    HW1 4712   5.080   1.939   3.004
 1271SOL    HW2 4713   5.183   1.863   3.105
 1272SOL     OW 4714   0.254   6.507   1.997
 1272SOL    HW1 4715   0.207   6.593   1.977
 1272SOL    HW2 4716   0.343   6.527   2.036
 1273SOL     OW 4717   2.583   6.451   6.553
 1273SOL    HW1 4718   2.547   6.535   6.595
 1273SOL    HW2 4719   2.550   6.445   6.458
 1274SOL     OW 4720   6.605   2.744   1.538
 1274SOL    HW1 4721   6.692   2.778   1.504
 1274SOL    HW2 4722   6.586   2.655   1.499
 1275SOL     OW 4723   3.816   1.601   3.872
 1275SOL    HW1 4724   3.796   1.690   3.912
 1275SOL    HW2 4725   3.830   1.534   3.945
 1276SOL     OW 4726   6.304   0.298   3.344
 1276SOL    HW1 4727   6.369   0.246   3.288
 1276SOL    HW2 4728   6.353   0.342   3.419
 1277SOL     OW 4729   0.406   1.153   5.127
 1277SOL    HW1 4730   0.497   1.194   5.125
 1277SOL    HW2 4731   0.385   1.112   5.039
 1278SOL     OW 4732   2.784   1.698   5.359
 1278SOL    HW1 4733   2.849   1.712   5.285
 1278SOL    HW2 4734   2.785   1.778   5.419
 1279SOL     OW 4735   2.436   5.288   6.915
 1279SOL    HW1 4736   2.404   5.193   6.916
 1279SOL    HW2 4737   2.536   5.289   6.921
 1280SOL     OW 4738   1.973   6.262   3.301
 1280SOL    HW1 4739   1.950   6.294   3.209
 1280SOL    HW2 4740   1.906   6.298   3.367
 1281SOL     OW 4741   0.774   6.885   3.702
 1281SOL    HW1 4742   0.856   6.887   3.646
 1281SOL    HW2 4743   0.693   6.876   3.644
 1282SOL     OW 4744   1.453   0.539   2.515
 1282SOL    HW1 4745   1.538   0.559   2.466
 1282SOL    HW2 4746   1.462   0.452   2.563
 1283SOL     OW 4747   5.221   5.232   5.895
 1283SOL    HW1 4748   5.272   5.251   5.979
 1283SOL    HW2 4749   5.123   5.245   5.912
 1284SOL     OW 4750   2.375   1.886   2.049
 1284SOL    HW1 4751   2.407   1.836   2.130
 1284SOL    HW2 4752   2.287   1.929   2.070
 1285SOL     OW 4753   4.900   2.139   5.621
 1285SOL    HW1 4754   4.959   2.218   5.605
 1285SOL    HW2 4755   4.938   2.059   5.574
 1286SOL     OW 4756   6.096   5.543   1.681
 1286SOL    HW1 4757   6.091   5.635   1.643
 1286SOL    HW2 4758   6.190   5.522   1.706
 1287SOL     OW 4759   6.591   4.749   6.134
 1287SOL    HW1 4760   6.560   4.710   6.221
 1287SOL    HW2 4761   6.648   4.829   6.152
 1288SOL     OW 4762   6.747   2.643   2.781
 1288SOL    HW1 4763   6.749   2.655   2.880
 1288SOL    HW2 4764   6.669   2.585   2.756
 1289SOL     OW 4765   6.391   5.897   2.747
 1289SOL    HW1 4766   6.310   5.956   2.741
 1289SOL    HW2 4767   6.370   5.818   2.805
 1290SOL     OW 4768   0.965   6.915   2.007
 1290SOL    HW1 4769   0.880   6.958   2.037
 1290SOL    HW2 4770   0.971   6.920   1.907
 1291SOL     OW 4771   2.326   6.802   0.309
 1291SOL    HW1 4772   2.372   6.882   0.349
 1291SOL    HW2 4773   2.322   6.729   0.377
 1292SOL     OW 4774   1.085   6.209   0.487
 1292SOL    HW1 4775   1.134   6.252   0.411
 1292SOL    HW2 4776   1.151   6.163   0.546
 1293SOL     OW 4777   0.351   2.828   5.741
 1293SOL    HW1 4778   0.274   2.773   5.771
 1293SOL    HW2 4779   0.436   2.789   5.776
 1294SOL     OW 4780   6.909   2.207   2.529
 1294SOL    HW1 4781   6.902   2.114   2.495
 1294SOL    HW2 4782   6.845   2.266   2.480
 1295SOL     OW 4783   6.254   2.945   1.806
 1295SOL    HW1 4784   6.245   2.928   1.708
 1295SOL    HW2 4785   6.350   2.936   1.832
 1296SOL     OW 4786   3.873   2.615   6.326
 1296SOL    HW1 4787   3.923   2.693   6.287
 1296SOL    HW2 4788   3.850   2.551   6.252
 1297SOL     OW 4789   6.859   1.699   6.050
 1297SOL    HW1 4790   6.829   1.781   6.001
 1297SOL    HW2 4791   6.902   1.636   5.986
 1298SOL     OW 4792   5.393   3.120   3.657
 1298SOL    HW1 4793   5.379   3.021   3.656
 1298SOL    HW2 4794   5.392   3.154   3.751
 1299SOL     OW 4795   0.772   3.841   4.027
 1299SOL    HW1 4796   0.766   3.768   4.094
 1299SOL    HW2 4797   0.734   3.925   4.066
 1300SOL     OW 4798   2.780   3.552   1.268
 1300SOL    HW1 4799   2.842   3.524   1.342
 1300SOL    HW2 4800   2.767   3.476   1.205
 1301SOL     OW 4801   0.289   0.357   3.145
 1301SOL    HW1 4802   0.381   0.331   3.116
 1301SOL    HW2 4803   0.292   0.444   3.193
 1302SOL     OW 4804   2.517   5.783   4.965
 1302SOL    HW1 4805   2.480   5.777   4.872
 1302SOL    HW2 4806   2.459   5.731   5.028
 1303SOL     OW 4807   4.030   1.225   1.363
 1303SOL    HW1 4808   3.956   1.161   1.339
 1303SOL    HW2 4809   4.079   1.252   1.281
 1304SOL     OW 4810   2.648   0.991   6.439
 1304SOL    HW1 4811   2.723   1.004   6.503
 1304SOL    HW2 4812   2.565   1.035   6.475
 1305SOL     OW 4813   4.788   6.760   4.678
 1305SOL    HW1 4814   4.772   6.849   4.635
 1305SOL    HW2 4815   4.748   6.759   4.770
 1306SOL     OW 4816   0.843   4.769   4.140
 1306SOL    HW1 4817   0.829   4.826   4.059
 1306SOL    HW2 4818   0.757   4.725   4.165
 1307SOL     OW 4819   1.920   1.688   4.302
 1307SOL    HW1 4820   1.976   1.764   4.269
 1307SOL    HW2 4821   1.918   1.688   4.402
 1308SOL     OW 4822   4.646   5.948   2.804
 1308SOL    HW1 4823   4.568   5.903   2.848
 1308SOL    HW2 4824   4.730   5.926   2.854
 1309SOL     OW 4825   5.557   2.793   4.675
 1309SOL    HW1 4826   5.475   2.757   4.630
 1309SOL    HW2 4827   5.551   2.893   4.678
 1310SOL     OW 4828   4.793   3.747   5.327
 1310SOL    HW1 4829   4.787   3.774   5.423
 1310SOL    HW2 4830   4.752   3.657   5.315
 1311SOL     OW 4831   4.993   5.637   5.496
 1311SOL    HW1 4832   5.032   5.723   5.464
 1311SOL    HW2 4833   5.014   5.564   5.430
 1312SOL     OW 4834   0.100   6.741   1.063
 1312SOL    HW1 4835   0.026   6.749   0.995
 1312SOL    HW2 4836   0.162   6.819   1.053
 1313SOL     OW 4837   3.330   5.545   4.965
 1313SOL    HW1 4838   3.325   5.463   5.022
 1313SOL    HW2 4839   3.426   5.574   4.956
 1314SOL     OW 4840   6.281   1.570   4.497
 1314SOL    HW1 4841   6.229   1.609   4.421
 1314SOL    HW2 4842   6.249   1.609   4.583
 1315SOL     OW 4843   2.014   0.944   2.808
 1315SOL    HW1 4844   1.960   0.962   2.890
 1315SOL    HW2 4845   1.983   0.859   2.765
 1316SOL     OW 4846   2.957   6.609   2.543
 1316SOL    HW1 4847   2.930   6.522   2.500
 1316SOL    HW2 4848   2.989   6.672   2.472
 1317SOL     OW 4849   0.036   5.752   4.004
 1317SOL    HW1 4850   6.997   5.817   4.051
 1317SOL    HW2 4851   0.035   5.665   4.053
 1318SOL     OW 4852   0.072   6.574   0.731
 1318SOL    HW1 4853   0.125   6.547   0.811
 1318SOL    HW2 4854   0.114   6.534   0.649
 1319SOL     OW 4855   6.389   1.158   7.018
 1319SOL    HW1 4856   6.351   1.086   6.959
 1319SOL    HW2 4857   6.458   1.209   6.968
 1320SOL     OW 4858   5.540   5.131   6.181
 1320SOL    HW1 4859   5.537   5.046   6.129
 1320SOL    HW2 4860   5.599   5.119   6.261
 1321SOL     OW 4861   4.041   2.550   6.744
 1321SOL    HW1 4862   3.985   2.509   6.816
 1321SOL    HW2 4863   4.136   2.520   6.755
 1322SOL     OW 4864   6.069   1.586   5.319
 1322SOL    HW1 4865   6.125   1.546   5.391
 1322SOL    HW2 4866   6.040   1.514   5.256
 1323SOL     OW 4867   6.542   1.750   4.574
 1323SOL    HW1 4868   6.466   1.695   4.611
 1323SOL    HW2 4869   6.505   1.828   4.523
 1324SOL     OW 4870   0.761   3.894   0.633
 1324SOL    HW1 4871   0.746   3.837   0.552
 1324SOL    HW2 4872   0.838   3.956   0.616
 1325SOL     OW 4873   3.610   5.777   2.874
 1325SOL    HW1 4874   3.605   5.842   2.798
 1325SOL    HW2 4875   3.678   5.808   2.940
 1326SOL     OW 4876   5.685   3.290   4.081
 1326SOL    HW1 4877   5.726   3.201   4.099
 1326SOL    HW2 4878   5.650   3.329   4.166
 1327SOL     OW 4879   3.100   5.201   3.368
 1327SOL    HW1 4880   3.149   5.179   3.283
 1327SOL    HW2 4881   3.108   5.124   3.432
 1328SOL     OW 4882   1.628   2.552   6.658
 1328SOL    HW1 4883   1.716   2.564   6.614
 1328SOL    HW2 4884   1.640   2.507   6.747
 1329SOL     OW 4885   1.073   0.405   0.893
 1329SOL    HW1 4886   1.098   0.425   0.798
 1329SOL    HW2 4887   1.144   0.441   0.954
 1330SOL     OW 4888   6.338   6.617   1.492
 1330SOL    HW1 4889   6.270   6.551   1.524
 1330SOL    HW2 4890   6.303   6.663   1.410
 1331SOL     OW 4891   5.764   0.291   2.175
 1331SOL    HW1 4892   5.863   0.300   2.187
 1331SOL    HW2 4893   5.744   0.275   2.078
 1332SOL     OW 4894   4.468   1.666   1.520
 1332SOL    HW1 4895   4.555   1.619   1.507
 1332SOL    HW2 4896   4.459   1.740   1.453
 1333SOL     OW 4897   3.820   4.342   5.484
 1333SOL    HW1 4898   3.914   4.326   5.454
 1333SOL    HW2 4899   3.819   4.371   5.580
 1334SOL     OW 4900   0.432   3.789   4.630
 1334SOL    HW1 4901   0.466   3.713   4.686
 1334SOL    HW2 4902   0.465   3.875   4.668
 1335SOL     OW 4903   2.614   4.643   3.148
 1335SOL    HW1 4904   2.537   4.688   3.192
 1335SOL    HW2 4905   2.679   4.711   3.116
 1336SOL     OW 4906   0.666   0.482   5.643
 1336SOL    HW1 4907   0.602   0.544   5.597
 1336SOL    HW2 4908   0.633   0.388   5.637
 1337SOL     OW 4909   2.388   1.248   6.095
 1337SOL    HW1 4910   2.418   1.156   6.071
 1337SOL    HW2 4911   2.320   1.279   6.029
 1338SOL     OW 4912   4.006   5.785   0.419
 1338SOL    HW1 4913   4.060   5.804   0.501
 1338SOL    HW2 4914   4.035   5.698   0.379
 1339SOL     OW 4915   0.219   4.502   4.297
 1339SOL    HW1 4916   0.299   4.485   4.355
 1339SOL    HW2 4917   0.201   4.421   4.241
 1340SOL     OW 4918   1.905   1.818   6.166
 1340SOL    HW1 4919   1.812   1.848   6.189
 1340SOL    HW2 4920   1.901   1.729   6.122
 1341SOL     OW 4921   4.260   1.649   3.708
 1341SOL    HW1 4922   4.280   1.587   3.632
 1341SOL    HW2 4923   4.344   1.666   3.759
 1342SOL     OW 4924   0.171   6.389   0.921
 1342SOL    HW1 4925   0.092   6.329   0.931
 1342SOL    HW2 4926   0.241   6.344   0.866
 1343SOL     OW 4927   4.050   4.939   2.880
 1343SOL    HW1 4928   3.966   4.894   2.909
 1343SOL    HW2 4929   4.110   4.873   2.834
 1344SOL     OW 4930   5.983   1.265   2.715
 1344SOL    HW1 4931   5.942   1.356   2.709
 1344SOL    HW2 4932   6.007   1.233   2.623
 1345SOL     OW 4933   0.922   6.833   3.377
 1345SOL    HW1 4934   0.854   6.895   3.337
 1345SOL    HW2 4935   0.884   6.741   3.380
 1346SOL     OW 4936   0.138   0.573   3.817
 1346SOL    HW1 4937   0.221   0.521   3.837
 1346SOL    HW2 4938   0.139   0.604   3.722
 1347SOL     OW 4939   6.284   0.408   2.843
 1347SOL    HW1 4940   6.252   0.316   2.864
 1347SOL    HW2 4941   6.206   0.467   2.821
 1348SOL     OW 4942   5.111   4.394   4.636
 1348SOL    HW1 4943   5.063   4.459   4.578
 1348SOL    HW2 4944   5.187   4.440   4.682
 1349SOL     OW 4945   4.852   2.661   6.981
 1349SOL    HW1 4946   4.854   2.612   0.048
 1349SOL    HW2 4947   4.758   2.686   6.958
 1350SOL     OW 4948   3.312   0.086   5.731
 1350SOL    HW1 4949   3.252   0.165   5.715
 1350SOL    HW2 4950   3.401   0.118   5.765
 1351SOL     OW 4951   0.940   0.488   4.322
 1351SOL    HW1 4952   0.939   0.581   4.285
 1351SOL    HW2 4953   0.914   0.424   4.250
 1352SOL     OW 4954   0.357   0.581   3.587
 1352SOL    HW1 4955   0.297   0.516   3.539
 1352SOL    HW2 4956   0.425   0.530   3.640
 1353SOL     OW 4957   1.468   4.464   3.960
 1353SOL    HW1 4958   1.494   4.559   3.975
 1353SOL    HW2 4959   1.423   4.455   3.872
 1354SOL     OW 4960   0.448   0.376   1.587
 1354SOL    HW1 4961   0.380   0.350   1.655
 1354SOL    HW2 4962   0.410   0.446   1.527
 1355SOL     OW 4963   4.899   2.948   6.518
 1355SOL    HW1 4964   4.801   2.954   6.503
 1355SOL    HW2 4965   4.924   2.854   6.543
 1356SOL     OW 4966   3.120   3.823   2.219
 1356SOL    HW1 4967   3.031   3.779   2.211
 1356SOL    HW2 4968   3.156   3.844   2.128
 1357SOL     OW 4969   2.735   2.653   5.573
 1357SOL    HW1 4970   2.808   2.594   5.609
 1357SOL    HW2 4971   2.774   2.717   5.507
 1358SOL     OW 4972   2.474   2.581   5.344
 1358SOL    HW1 4973   2.479   2.676   5.313
 1358SOL    HW2 4974   2.566   2.547   5.365
 1359SOL     OW 4975   6.628   1.148   0.474
 1359SOL    HW1 4976   6.623   1.114   0.380
 1359SOL    HW2 4977   6.543   1.126   0.522
 1360SOL     OW 4978   2.993   3.503   4.555
 1360SOL    HW1 4979   2.994   3.447   4.638
 1360SOL    HW2 4980   2.993   3.600   4.581
 1361SOL     OW 4981   1.059   5.996   0.884
 1361SOL    HW1 4982   1.108   5.965   0.802
 1361SOL    HW2 4983   1.054   6.096   0.884
 1362SOL     OW 4984   3.173   2.868   6.213
 1362SOL    HW1 4985   3.270   2.853   6.234
 1362SOL    HW2 4986   3.163   2.893   6.117
 1363SOL     OW 4987   5.727   6.381   2.346
 1363SOL    HW1 4988   5.655   6.325   2.388
 1363SOL    HW2 4989   5.707   6.393   2.249
 1364SOL     OW 4990   0.848   3.588   0.906
 1364SOL    HW1 4991   0.937   3.613   0.867
 1364SOL    HW2 4992   0.831   3.491   0.892
 1365SOL     OW 4993   0.220   3.723   5.341
 1365SOL    HW1 4994   0.280   3.759   5.412
 1365SOL    HW2 4995   0.228   3.778   5.258
 1366SOL     OW 4996   5.146   0.567   1.064
 1366SOL    HW1 4997   5.046   0.560   1.055
 1366SOL    HW2 4998   5.181   0.633   0.998
 1367SOL     OW 4999   0.732   6.329   4.539
 1367SOL    HW1 5000   0.697   6.238   4.561
 1367SOL    HW2 5001   0.830   6.333   4.559
 1368SOL     OW 5002   1.284   6.594   5.502
 1368SOL    HW1 5003   1.215   6.608   5.573
 1368SOL    HW2 5004   1.318   6.500   5.505
 1369SOL     OW 5005   2.815   6.697   3.511
 1369SOL    HW1 5006   2.840   6.788   3.479
 1369SOL    HW2 5007   2.860   6.628   3.454
 1370SOL     OW 5008   6.610   2.159   2.717
 1370SOL    HW1 5009   6.632   2.106   2.635
 1370SOL    HW2 5010   6.585   2.252   2.691
 1371SOL     OW 5011   6.107   2.057   5.669
 1371SOL    HW1 5012   6.054   2.050   5.753
 1371SOL    HW2 5013   6.136   1.966   5.640
 1372SOL     OW 5014   6.781   3.161   0.174
 1372SOL    HW1 5015   6.772   3.068   0.210
 1372SOL    HW2 5016   6.769   3.159   0.075
 1373SOL     OW 5017   5.023   2.380   1.812
 1373SOL    HW1 5018   5.057   2.361   1.904
 1373SOL    HW2 5019   4.955   2.311   1.787
 1374SOL     OW 5020   4.017   3.597   0.566
 1374SOL    HW1 5021   3.956   3.519   0.556
 1374SOL    HW2 5022   4.062   3.593   0.655
 1375SOL     OW 5023   5.303   5.658   3.927
 1375SOL    HW1 5024   5.342   5.630   4.015
 1375SOL    HW2 5025   5.218   5.607   3.911
 1376SOL     OW 5026   2.517   4.602   6.077
 1376SOL    HW1 5027   2.559   4.511   6.084
 1376SOL    HW2 5028   2.584   4.666   6.040
 1377SOL     OW 5029   1.333   1.231   2.992
 1377SOL    HW1 5030   1.280   1.290   2.930
 1377SOL    HW2 5031   1.317   1.135   2.968
 1378SOL     OW 5032   4.603   2.154   4.028
 1378SOL    HW1 5033   4.557   2.069   4.000
 1378SOL    HW2 5034   4.552   2.195   4.104
 1379SOL     OW 5035   4.989   5.747   1.022
 1379SOL    HW1 5036   5.071   5.698   0.991
 1379SOL    HW2 5037   5.016   5.826   1.077
 1380SOL     OW 5038   6.984   6.288   1.909
 1380SOL    HW1 5039   6.977   6.259   2.005
 1380SOL    HW2 5040   0.058   6.279   1.878
 1381SOL     OW 5041   6.525   2.483   5.574
 1381SOL    HW1 5042   6.502   2.412   5.640
 1381SOL    HW2 5043   6.621   2.510   5.585
 1382SOL     OW 5044   4.781   2.590   0.236
 1382SOL    HW1 5045   4.754   2.494   0.227
 1382SOL    HW2 5046   4.701   2.649   0.233
 1383SOL     OW 5047   0.768   1.556   1.992
 1383SOL    HW1 5048   0.709   1.621   2.040
 1383SOL    HW2 5049   0.818   1.501   2.059
 1384SOL     OW 5050   5.920   1.779   1.665
 1384SOL    HW1 5051   5.916   1.876   1.690
 1384SOL    HW2 5052   6.015   1.748   1.666
 1385SOL     OW 5053   0.830   6.000   1.537
 1385SOL    HW1 5054   0.891   6.029   1.462
 1385SOL    HW2 5055   0.759   6.069   1.550
 1386SOL     OW 5056   2.352   5.782   4.206
 1386SOL    HW1 5057   2.297   5.822   4.132
 1386SOL    HW2 5058   2.446   5.770   4.174
 1387SOL     OW 5059   2.725   5.569   2.159
 1387SOL    HW1 5060   2.764   5.478   2.172
 1387SOL    HW2 5061   2.703   5.609   2.247
 1388SOL     OW 5062   6.521   0.575   1.862
 1388SOL    HW1 5063   6.440   0.591   1.917
 1388SOL    HW2 5064   6.545   0.658   1.812
 1389SOL     OW 5065   6.287   1.002   2.869
 1389SOL    HW1 5066   6.386   0.999   2.856
 1389SOL    HW2 5067   6.251   0.909   2.870
 1390SOL     OW 5068   0.784   1.706   6.008
 1390SOL    HW1 5069   0.818   1.637   5.943
 1390SOL    HW2 5070   0.764   1.662   6.096
 1391SOL     OW 5071   0.416   2.944   2.943
 1391SOL    HW1 5072   0.483   2.897   3.000
 1391SOL    HW2 5073   0.327   2.898   2.952
 1392SOL     OW 5074   4.926   4.663   5.465
 1392SOL    HW1 5075   5.024   4.647   5.454
 1392SOL    HW2 5076   4.887   4.692   5.378
 1393SOL     OW 5077   3.719   6.674   5.763
 1393SOL    HW1 5078   3.621   6.659   5.756
 1393SOL    HW2 5079   3.755   6.623   5.841
 1394SOL     OW 5080   2.136   5.835   5.741
 1394SOL    HW1 5081   2.228   5.851   5.706
 1394SOL    HW2 5082   2.116   5.737   5.741
 1395SOL     OW 5083   3.489   4.568   5.638
 1395SOL    HW1 5084   3.509   4.471   5.628
 1395SOL    HW2 5085   3.572   4.621   5.622
 1396SOL     OW 5086   5.710   5.971   4.422
 1396SOL    HW1 5087   5.761   5.988   4.506
 1396SOL    HW2 5088   5.753   6.019   4.346
 1397SOL     OW 5089   4.342   6.335   4.740
 1397SOL    HW1 5090   4.431   6.332   4.693
 1397SOL    HW2 5091   4.273   6.290   4.683
 1398SOL     OW 5092   1.529   1.500   4.625
 1398SOL    HW1 5093   1.491   1.525   4.714
 1398SOL    HW2 5094   1.481   1.551   4.553
 1399SOL     OW 5095   3.103   6.578   1.507
 1399SOL    HW1 5096   3.059   6.493   1.477
 1399SOL    HW2 5097   3.110   6.641   1.429
 1400SOL     OW 5098   1.037   0.223   2.305
 1400SOL    HW1 5099   1.132   0.252   2.315
 1400SOL    HW2 5100   0.995   0.274   2.231
 1401SOL     OW 5101   0.149   1.217   4.721
 1401SOL    HW1 5102   0.141   1.168   4.634
 1401SOL    HW2 5103   0.061   1.217   4.767
 1402SOL     OW 5104   6.773   3.319   0.388
 1402SOL    HW1 5105   6.766   3.246   0.320
 1402SOL    HW2 5106   6.765   3.280   0.480
 1403SOL     OW 5107   2.640   0.320   2.113
 1403SOL    HW1 5108   2.734   0.315   2.080
 1403SOL    HW2 5109   2.580   0.270   2.050
 1404SOL     OW 5110   5.966   0.534   0.357
 1404SOL    HW1 5111   5.976   0.446   0.404
 1404SOL    HW2 5112   5.883   0.580   0.389
 1405SOL     OW 5113   2.068   3.760   1.104
 1405SOL    HW1 5114   2.166   3.741   1.105
 1405SOL    HW2 5115   2.052   3.851   1.066
 1406SOL     OW 5116   1.874   4.026   1.003
 1406SOL    HW1 5117   1.813   4.081   1.060
 1406SOL    HW2 5118   1.831   3.937   0.986
 1407SOL     OW 5119   6.412   2.149   2.493
 1407SOL    HW1 5120   6.331   2.188   2.448
 1407SOL    HW2 5121   6.385   2.106   2.579
 1408SOL     OW 5122   6.512   0.673   6.650
 1408SOL    HW1 5123   6.483   0.725   6.569
 1408SOL    HW2 5124   6.433   0.626   6.689
 1409SOL     OW 5125   0.307   0.661   4.556
 1409SOL    HW1 5126   0.383   0.698   4.502
 1409SOL    HW2 5127   0.326   0.675   4.653
 1410SOL     OW 5128   0.511   2.986   6.921
 1410SOL    HW1 5129   0.495   2.917   6.851
 1410SOL    HW2 5130   0.431   2.991   6.981
 1411SOL     OW 5131   1.283   6.943   1.843
 1411SOL    HW1 5132   1.262   6.852   1.810
 1411SOL    HW2 5133   1.278   7.008   1.767
 1412SOL     OW 5134   0.873   2.639   0.035
 1412SOL    HW1 5135   0.778   2.671   0.029
 1412SOL    HW2 5136   0.875   2.546   0.069
 1413SOL     OW 5137   2.612   0.704   3.809
 1413SOL    HW1 5138   2.555   0.642   3.755
 1413SOL    HW2 5139   2.708   0.681   3.794
 1414SOL     OW 5140   2.100   1.871   1.887
 1414SOL    HW1 5141   2.086   1.895   1.791
 1414SOL    HW2 5142   2.072   1.947   1.945
 1415SOL     OW 5143   4.084   6.067   5.892
 1415SOL    HW1 5144   4.149   6.139   5.868
 1415SOL    HW2 5145   4.123   5.978   5.869
 1416SOL     OW 5146   4.498   5.264   1.749
 1416SOL    HW1 5147   4.414   5.228   1.709
 1416SOL    HW2 5148   4.568   5.193   1.751
 1417SOL     OW 5149   3.029   1.896   6.281
 1417SOL    HW1 5150   2.951   1.919   6.338
 1417SOL    HW2 5151   3.000   1.830   6.211
 1418SOL     OW 5152   3.672   4.116   3.144
 1418SOL    HW1 5153   3.698   4.212   3.144
 1418SOL    HW2 5154   3.662   4.084   3.238
 1419SOL     OW 5155   4.026   6.487   5.011
 1419SOL    HW1 5156   4.061   6.579   4.995
 1419SOL    HW2 5157   4.078   6.444   5.085
 1420SOL     OW 5158   0.731   5.947   2.077
 1420SOL    HW1 5159   0.763   5.853   2.064
 1420SOL    HW2 5160   0.762   6.004   2.000
 1421SOL     OW 5161   3.119   1.631   2.320
 1421SOL    HW1 5162   3.070   1.544   2.330
 1421SOL    HW2 5163   3.192   1.621   2.252
 1422SOL     OW 5164   2.946   5.249   0.630
 1422SOL    HW1 5165   2.901   5.274   0.715
 1422SOL    HW2 5166   2.878   5.236   0.558
 1423SOL     OW 5167   4.992   6.986   2.704
 1423SOL    HW1 5168   4.975   0.019   2.620
 1423SOL    HW2 5169   5.042   0.023   2.769
 1424SOL     OW 5170   6.141   5.505   4.925
 1424SOL    HW1 5171   6.087   5.563   4.864
 1424SOL    HW2 5172   6.131   5.537   5.019
 1425SOL     OW 5173   2.400   6.922   4.131
 1425SOL    HW1 5174   2.475   6.930   4.198
 1425SOL    HW2 5175   2.373   7.013   4.101
 1426SOL     OW 5176   1.071   1.474   5.411
 1426SOL    HW1 5177   1.150   1.426   5.372
 1426SOL    HW2 5178   0.992   1.413   5.411
 1427SOL     OW 5179   5.829   0.687   3.975
 1427SOL    HW1 5180   5.849   0.783   3.998
 1427SOL    HW2 5181   5.853   0.629   4.053
 1428SOL     OW 5182   5.669   2.109   6.795
 1428SOL    HW1 5183   5.644   2.028   6.742
 1428SOL    HW2 5184   5.763   2.100   6.828
 1429SOL     OW 5185   0.194   0.885   0.562
 1429SOL    HW1 5186   0.273   0.848   0.513
 1429SOL    HW2 5187   0.148   0.953   0.505
 1430SOL     OW 5188   1.816   5.131   3.454
 1430SOL    HW1 5189   1.833   5.096   3.546
 1430SOL    HW2 5190   1.719   5.151   3.444
 1431SOL     OW 5191   1.930   1.014   1.078
 1431SOL    HW1 5192   1.832   1.037   1.076
 1431SOL    HW2 5193   1.979   1.070   1.012
 1432SOL     OW 5194   1.851   1.222   2.493
 1432SOL    HW1 5195   1.881   1.140   2.444
 1432SOL    HW2 5196   1.833   1.296   2.428
 1433SOL     OW 5197   4.034   0.729   4.509
 1433SOL    HW1 5198   4.124   0.751   4.545
 1433SOL    HW2 5199   4.017   0.782   4.426
 1434SOL     OW 5200   1.105   1.008   5.515
 1434SOL    HW1 5201   1.017   1.014   5.563
 1434SOL    HW2 5202   1.101   1.062   5.431
 1435SOL     OW 5203   6.222   1.777   2.694
 1435SOL    HW1 5204   6.256   1.713   2.626
 1435SOL    HW2 5205   6.296   1.840   2.720
 1436SOL     OW 5206   4.149   3.586   0.313
 1436SOL    HW1 5207   4.096   3.597   0.229
 1436SOL    HW2 5208   4.099   3.628   0.389
 1437SOL     OW 5209   3.646   0.622   2.127
 1437SOL    HW1 5210   3.669   0.666   2.040
 1437SOL    HW2 5211   3.630   0.525   2.112
 1438SOL     OW 5212   3.157   6.850   1.408
 1438SOL    HW1 5213   3.247   6.890   1.425
 1438SOL    HW2 5214   3.093   6.880   1.479
 1439SOL     OW 5215   0.419   5.823   2.354
 1439SOL    HW1 5216   0.519   5.834   2.361
 1439SOL    HW2 5217   0.375   5.892   2.411
 1440SOL     OW 5218   3.063   3.264   1.297
 1440SOL    HW1 5219   2.997   3.327   1.338
 1440SOL    HW2 5220   3.059   3.176   1.343
 1441SOL     OW 5221   6.025   6.430   0.898
 1441SOL    HW1 5222   6.099   6.400   0.959
 1441SOL    HW2 5223   5.989   6.517   0.930
 1442SOL     OW 5224   6.006   5.074   0.634
 1442SOL    HW1 5225   6.060   5.050   0.554
 1442SOL    HW2 5226   5.963   5.164   0.619
 1443SOL     OW 5227   0.672   2.610   2.931
 1443SOL    HW1 5228   0.701   2.527   2.979
 1443SOL    HW2 5229   0.581   2.637   2.965
 1444SOL     OW 5230   5.935   5.259   0.251
 1444SOL    HW1 5231   6.034   5.265   0.247
 1444SOL    HW2 5232   5.898   5.256   0.157
 1445SOL     OW 5233   1.336   3.348   2.433
 1445SOL    HW1 5234   1.380   3.259   2.443
 1445SOL    HW2 5235   1.361   3.387   2.344
 1446SOL     OW 5236   6.959   0.372   6.824
 1446SOL    HW1 5237   6.955   0.441   6.897
 1446SOL    HW2 5238   6.875   0.376   6.770
 1447SOL     OW 5239   6.044   4.947   4.408
 1447SOL    HW1 5240   6.135   4.977   4.379
 1447SOL    HW2 5241   6.015   5.001   4.487
 1448SOL     OW 5242   1.252   3.340   5.779
 1448SOL    HW1 5243   1.309   3.261   5.753
 1448SOL    HW2 5244   1.302   3.424   5.759
 1449SOL     OW 5245   1.924   4.108   4.412
 1449SOL    HW1 5246   1.944   4.090   4.316
 1449SOL    HW2 5247   1.989   4.175   4.448
 1450SOL     OW 5248   2.362   2.115   4.361
 1450SOL    HW1 5249   2.412   2.154   4.284
 1450SOL    HW2 5250   2.277   2.165   4.375
 1451SOL     OW 5251   2.409   0.249   1.955
 1451SOL    HW1 5252   2.379   0.314   1.885
 1451SOL    HW2 5253   2.340   0.241   2.026
 1452SOL     OW 5254   4.851   2.931   5.588
 1452SOL    HW1 5255   4.937   2.975   5.613
 1452SOL    HW2 5256   4.782   2.951   5.657
 1453SOL     OW 5257   0.631   4.872   5.264
 1453SOL    HW1 5258   0.709   4.933   5.278
 1453SOL    HW2 5259   0.607   4.829   5.350
 1454SOL     OW 5260   3.541   1.796   3.518
 1454SOL    HW1 5261   3.516   1.859   3.444
 1454SOL    HW2 5262   3.531   1.843   3.606
 1455SOL     OW 5263   0.793   5.712   1.949
 1455SOL    HW1 5264   0.840   5.626   1.969
 1455SOL    HW2 5265   0.762   5.713   1.854
 1456SOL     OW 5266   6.270   5.430   5.248
 1456SOL    HW1 5267   6.353   5.395   5.204
 1456SOL    HW2 5268   6.250   5.376   5.329
 1457SOL     OW 5269   0.387   4.368   6.071
 1457SOL    HW1 5270   0.320   4.441   6.063
 1457SOL    HW2 5271   0.448   4.387   6.148
 1458SOL     OW 5272   4.789   5.137   5.172
 1458SOL    HW1 5273   4.795   5.237   5.168
 1458SOL    HW2 5274   4.815   5.098   5.083
 1459SOL     OW 5275   5.320   6.427   5.324
 1459SOL    HW1 5276   5.254   6.497   5.296
 1459SOL    HW2 5277   5.411   6.454   5.294
 1460SOL     OW 5278   1.674   6.546   5.459
 1460SOL    HW1 5279   1.740   6.496   5.403
 1460SOL    HW2 5280   1.685   6.644   5.444
 1461SOL     OW 5281   0.431   3.282   3.276
 1461SOL    HW1 5282   0.356   3.222   3.250
 1461SOL    HW2 5283   0.518   3.236   3.258
 1462SOL     OW 5284   0.689   0.454   0.643
 1462SOL    HW1 5285   0.707   0.430   0.738
 1462SOL    HW2 5286   0.742   0.535   0.618
 1463SOL     OW 5287   1.987   5.513   6.675
 1463SOL    HW1 5288   1.913   5.450   6.697
 1463SOL    HW2 5289   1.950   5.591   6.625
 1464SOL     OW 5290   0.582   4.292   4.249
 1464SOL    HW1 5291   0.666   4.343   4.231
 1464SOL    HW2 5292   0.538   4.329   4.331
 1465SOL     OW 5293   1.269   2.222   3.354
 1465SOL    HW1 5294   1.183   2.273   3.359
 1465SOL    HW2 5295   1.336   2.262   3.417
 1466SOL     OW 5296   4.640   2.296   1.379
 1466SOL    HW1 5297   4.696   2.374   1.407
 1466SOL    HW2 5298   4.645   2.284   1.280
 1467SOL     OW 5299   1.171   0.946   4.508
 1467SOL    HW1 5300   1.083   0.972   4.470
 1467SOL    HW2 5301   1.242   1.007   4.474
 1468SOL     OW 5302   2.707   5.719   2.391
 1468SOL    HW1 5303   2.617   5.763   2.387
 1468SOL    HW2 5304   2.722   5.684   2.483
 1469SOL     OW 5305   6.304   4.780   3.405
 1469SOL    HW1 5306   6.369   4.748   3.336
 1469SOL    HW2 5307   6.221   4.812   3.360
 1470SOL     OW 5308   6.414   1.961   0.544
 1470SOL    HW1 5309   6.475   2.031   0.581
 1470SOL    HW2 5310   6.461   1.908   0.474
 1471SOL     OW 5311   5.070   6.791   1.328
 1471SOL    HW1 5312   5.080   6.754   1.236
 1471SOL    HW2 5313   4.985   6.843   1.334
 1472SOL     OW 5314   1.585   0.044   6.373
 1472SOL    HW1 5315   1.624   6.992   6.315
 1472SOL    HW2 5316   1.589   0.131   6.324
 1473SOL     OW 5317   2.563   5.479   4.392
 1473SOL    HW1 5318   2.525   5.481   4.485
 1473SOL    HW2 5319   2.505   5.422   4.334
 1474SOL     OW 5320   3.670   5.138   1.001
 1474SOL    HW1 5321   3.645   5.054   1.050
 1474SOL    HW2 5322   3.693   5.210   1.067
 1475SOL     OW 5323   5.102   0.297   0.257
 1475SOL    HW1 5324   5.166   0.227   0.288
 1475SOL    HW2 5325   5.115   0.312   0.159
 1476SOL     OW 5326   4.761   0.847   1.157
 1476SOL    HW1 5327   4.812   0.831   1.242
 1476SOL    HW2 5328   4.734   0.943   1.153
 1477SOL     OW 5329   4.109   5.088   1.339
 1477SOL    HW1 5330   4.033   5.127   1.391
 1477SOL    HW2 5331   4.155   5.019   1.395
 1478SOL     OW 5332   5.238   5.715   6.150
 1478SOL    HW1 5333   5.167   5.745   6.086
 1478SOL    HW2 5334   5.266   5.622   6.126
 1479SOL     OW 5335   3.836   4.026   1.367
 1479SOL    HW1 5336   3.761   4.006   1.430
 1479SOL    HW2 5337   3.892   4.099   1.404
 1480SOL     OW 5338   3.233   0.348   4.692
 1480SOL    HW1 5339   3.226   0.448   4.695
 1480SOL    HW2 5340   3.174   0.308   4.762
 1481SOL     OW 5341   5.382   2.321   6.017
 1481SOL    HW1 5342   5.320   2.243   6.007
 1481SOL    HW2 5343   5.382   2.375   5.933
 1482SOL     OW 5344   4.735   1.090   0.427
 1482SOL    HW1 5345   4.719   1.167   0.489
 1482SOL    HW2 5346   4.726   1.121   0.332
 1483SOL     OW 5347   5.546   1.323   5.794
 1483SOL    HW1 5348   5.573   1.394   5.728
 1483SOL    HW2 5349   5.465   1.276   5.759
 1484SOL     OW 5350   3.124   5.675   5.120
 1484SOL    HW1 5351   3.181   5.631   5.050
 1484SOL    HW2 5352   3.081   5.756   5.081
 1485SOL     OW 5353   5.295   2.514   3.088
 1485SOL    HW1 5354   5.218   2.481   3.032
 1485SOL    HW2 5355   5.380   2.476   3.054
 1486SOL     OW 5356   5.041   0.073   3.994
 1486SOL    HW1 5357   5.004   0.021   3.917
 1486SOL    HW2 5358   4.997   0.163   3.998
 1487SOL     OW 5359   6.757   0.211   1.041
 1487SOL    HW1 5360   6.775   0.278   0.969
 1487SOL    HW2 5361   6.693   0.142   1.006
 1488SOL     OW 5362   6.184   0.751   2.883
 1488SOL    HW1 5363   6.128   0.692   2.824
 1488SOL    HW2 5364   6.163   0.732   2.978
 1489SOL     OW 5365   3.740   4.464   6.630
 1489SOL    HW1 5366   3.837   4.439   6.629
 1489SOL    HW2 5367   3.721   4.519   6.711
 1490SOL     OW 5368   0.142   2.120   2.683
 1490SOL    HW1 5369   0.216   2.175   2.645
 1490SOL    HW2 5370   0.054   2.159   2.655
 1491SOL     OW 5371   6.805   3.069   2.846
 1491SOL    HW1 5372   6.777   3.019   2.928
 1491SOL    HW2 5373   6.814   3.166   2.868
 1492SOL     OW 5374   5.964   1.546   3.003
 1492SOL    HW1 5375   5.977   1.610   2.928
 1492SOL    HW2 5376   6.040   1.480   3.004
 1493SOL     OW 5377   4.652   2.546   5.554
 1493SOL    HW1 5378   4.733   2.587   5.596
 1493SOL    HW2 5379   4.590   2.513   5.625
 1494SOL     OW 5380   6.236   4.554   5.452
 1494SOL    HW1 5381   6.300   4.515   5.519
 1494SOL    HW2 5382   6.255   4.517   5.362
 1495SOL     OW 5383   6.337   4.339   4.641
 1495SOL    HW1 5384   6.406   4.366   4.708
 1495SOL    HW2 5385   6.282   4.418   4.616
 1496SOL     OW 5386   6.311   5.692   6.558
 1496SOL    HW1 5387   6.296   5.709   6.656
 1496SOL    HW2 5388   6.400   5.647   6.546
 1497SOL     OW 5389   6.120   3.520   3.019
 1497SOL    HW1 5390   6.084   3.477   3.102
 1497SOL    HW2 5391   6.174   3.453   2.968
 1498SOL     OW 5392   3.412   4.397   0.704
 1498SOL    HW1 5393   3.512   4.402   0.711
 1498SOL    HW2 5394   3.388   4.332   0.632
 1499SOL     OW 5395   0.581   3.914   5.419
 1499SOL    HW1 5396   0.633   3.991   5.458
 1499SOL    HW2 5397   0.499   3.949   5.374
 1500SOL     OW 5398   0.925   5.500   1.636
 1500SOL    HW1 5399   0.923   5.596   1.663
 1500SOL    HW2 5400   0.854   5.450   1.685
 1501SOL     OW 5401   5.804   1.561   0.063
 1501SOL    HW1 5402   5.820   1.566   6.985
 1501SOL    HW2 5403   5.891   1.550   0.111
 1502SOL     OW 5404   6.451   6.976   6.825
 1502SOL    HW1 5405   6.520   6.963   6.896
 1502SOL    HW2 5406   6.373   0.007   6.863
 1503SOL     OW 5407   0.518   4.477   1.693
 1503SOL    HW1 5408   0.441   4.510   1.639
 1503SOL    HW2 5409   0.594   4.453   1.633
 1504SOL     OW 5410   0.795   0.390   2.398
 1504SOL    HW1 5411   0.697   0.379   2.416
 1504SOL    HW2 5412   0.839   0.300   2.395
 1505SOL     OW 5413   4.882   5.937   5.019
 1505SOL    HW1 5414   4.887   5.881   5.102
 1505SOL    HW2 5415   4.972   5.977   5.001
 1506SOL     OW 5416   0.511   1.492   0.749
 1506SOL    HW1 5417   0.586   1.547   0.712
 1506SOL    HW2 5418   0.424   1.524   0.711
 1507SOL     OW 5419   1.844   2.417   4.344
 1507SOL    HW1 5420   1.780   2.479   4.391
 1507SOL    HW2 5421   1.899   2.369   4.412
 1508SOL     OW 5422   1.319   0.832   0.561
 1508SOL    HW1 5423   1.390   0.842   0.491
 1508SOL    HW2 5424   1.262   0.914   0.561
 1509SOL     OW 5425   4.943   0.720   4.203
 1509SOL    HW1 5426   4.947   0.766   4.114
 1509SOL    HW2 5427   5.035   0.693   4.231
 1510SOL     OW 5428   3.510   5.677   3.984
 1510SOL    HW1 5429   3.433   5.708   3.929
 1510SOL    HW2 5430   3.494   5.583   4.014
 1511SOL     OW 5431   3.480   3.588   4.564
 1511SOL    HW1 5432   3.436   3.570   4.476
 1511SOL    HW2 5433   3.432   3.663   4.610
 1512SOL     OW 5434   6.690   6.263   1.107
 1512SOL    HW1 5435   6.668   6.325   1.182
 1512SOL    HW2 5436   6.631   6.182   1.112
 1513SOL     OW 5437   2.991   0.239   6.181
 1513SOL    HW1 5438   3.067   0.197   6.229
 1513SOL    HW2 5439   3.013   0.246   6.083
 1514SOL     OW 5440   3.303   2.149   5.718
 1514SOL    HW1 5441   3.293   2.059   5.761
 1514SOL    HW2 5442   3.306   2.220   5.789
 1515SOL     OW 5443   5.751   1.795   2.058
 1515SOL    HW1 5444   5.785   1.703   2.075
 1515SOL    HW2 5445   5.665   1.790   2.006
 1516SOL     OW 5446   5.795   0.009   4.606
 1516SOL    HW1 5447   5.735   0.008   4.526
 1516SOL    HW2 5448   5.867   6.961   4.594
 1517SOL     OW 5449   4.080   6.198   3.766
 1517SOL    HW1 5450   3.994   6.160   3.734
 1517SOL    HW2 5451   4.156   6.152   3.721
 1518SOL     OW 5452   0.411   2.425   7.000
 1518SOL    HW1 5453   0.378   2.516   0.004
 1518SOL    HW2 5454   0.431   2.422   6.902
 1519SOL     OW 5455   6.797   4.238   6.478
 1519SOL    HW1 5456   6.757   4.280   6.397
 1519SOL    HW2 5457   6.775   4.141   6.480
 1520SOL     OW 5458   0.021   5.863   2.476
 1520SOL    HW1 5459   0.059   5.910   2.397
 1520SOL    HW2 5460   7.006   5.773   2.448
 1521SOL     OW 5461   1.732   5.058   6.266
 1521SOL    HW1 5462   1.733   5.028   6.171
 1521SOL    HW2 5463   1.728   4.978   6.327
 1522SOL     OW 5464   4.839   5.610   4.150
 1522SOL    HW1 5465   4.750   5.575   4.179
 1522SOL    HW2 5466   4.838   5.710   4.152
 1523SOL     OW 5467   3.896   5.816   7.013
 1523SOL    HW1 5468   3.849   5.868   0.065
 1523SOL    HW2 5469   3.842   5.821   6.929
 1524SOL     OW 5470   2.100   1.661   2.302
 1524SOL    HW1 5471   2.157   1.677   2.383
 1524SOL    HW2 5472   2.141   1.590   2.245
 1525SOL     OW 5473   5.817   2.637   6.936
 1525SOL    HW1 5474   5.757   2.583   6.996
 1525SOL    HW2 5475   5.912   2.614   6.953
 1526SOL     OW 5476   0.841   1.167   0.695
 1526SOL    HW1 5477   0.871   1.086   0.745
 1526SOL    HW2 5478   0.905   1.242   0.711
 1527SOL     OW 5479   3.847   0.804   4.006
 1527SOL    HW1 5480   3.921   0.744   3.976
 1527SOL    HW2 5481   3.808   0.852   3.927
 1528SOL     OW 5482   4.425   3.415   1.200
 1528SOL    HW1 5483   4.345   3.462   1.163
 1528SOL    HW2 5484   4.483   3.481   1.248
 1529SOL     OW 5485   5.111   1.316   5.742
 1529SOL    HW1 5486   5.077   1.236   5.791
 1529SOL    HW2 5487   5.060   1.328   5.657
 1530SOL     OW 5488   3.397   6.366   1.863
 1530SOL    HW1 5489   3.482   6.399   1.821
 1530SOL    HW2 5490   3.417   6.325   1.952
 1531SOL     OW 5491   3.501   6.727   4.410
 1531SOL    HW1 5492   3.454   6.771   4.333
 1531SOL    HW2 5493   3.443   6.657   4.450
 1532SOL     OW 5494   2.574   5.252   6.349
 1532SOL    HW1 5495   2.528   5.341   6.347
 1532SOL    HW2 5496   2.508   5.180   6.323
 1533SOL     OW 5497   5.918   5.353   1.612
 1533SOL    HW1 5498   5.983   5.417   1.653
 1533SOL    HW2 5499   5.836   5.402   1.582
 1534SOL     OW 5500   3.510   5.062   6.438
 1534SOL    HW1 5501   3.518   5.160   6.421
 1534SOL    HW2 5502   3.510   5.013   6.351
 1535SOL     OW 5503   5.880   6.774   4.781
 1535SOL    HW1 5504   5.787   6.744   4.760
 1535SOL    HW2 5505   5.904   6.744   4.874
 1536SOL     OW 5506   4.509   4.024   6.664
 1536SOL    HW1 5507   4.436   4.092   6.668
 1536SOL    HW2 5508   4.476   3.942   6.617
 1537SOL     OW 5509   2.938   5.379   3.647
 1537SOL    HW1 5510   2.918   5.303   3.708
 1537SOL    HW2 5511   2.971   5.345   3.559
 1538SOL     OW 5512   3.026   1.327   6.853
 1538SOL    HW1 5513   3.064   1.321   6.946
 1538SOL    HW2 5514   2.929   1.301   6.855
 1539SOL     OW 5515   5.889   3.387   0.773
 1539SOL    HW1 5516   5.966   3.332   0.806
 1539SOL    HW2 5517   5.858   3.352   0.684
 1540SOL     OW 5518   3.283   0.088   4.959
 1540SOL    HW1 5519   3.297   7.011   4.971
 1540SOL    HW2 5520   3.264   0.108   4.863
 1541SOL     OW 5521   3.478   3.168   4.882
 1541SOL    HW1 5522   3.508   3.256   4.845
 1541SOL    HW2 5523   3.554   3.104   4.881
 1542SOL     OW 5524   6.784   0.174   2.690
 1542SOL    HW1 5525   6.726   0.101   2.728
 1542SOL    HW2 5526   6.751   0.199   2.599
 1543SOL     OW 5527   2.833   4.517   6.920
 1543SOL    HW1 5528   2.908   4.571   6.881
 1543SOL    HW2 5529   2.747   4.541   6.873
 1544SOL     OW 5530   4.055   3.351   4.390
 1544SOL    HW1 5531   4.043   3.304   4.303
 1544SOL    HW2 5532   3.965   3.373   4.428
 1545SOL     OW 5533   6.112   6.487   2.511
 1545SOL    HW1 5534   6.080   6.503   2.418
 1545SOL    HW2 5535   6.193   6.429   2.509
 1546SOL     OW 5536   5.411   6.403   5.961
 1546SOL    HW1 5537   5.364   6.431   6.044
 1546SOL    HW2 5538   5.502   6.445   5.958
 1547SOL     OW 5539   1.628   3.457   0.033
 1547SOL    HW1 5540   1.600   3.498   6.966
 1547SOL    HW2 5541   1.707   3.398   0.018
 1548SOL     OW 5542   6.333   2.277   6.519
 1548SOL    HW1 5543   6.274   2.209   6.563
 1548SOL    HW2 5544   6.277   2.355   6.489
 1549SOL     OW 5545   4.432   1.005   5.434
 1549SOL    HW1 5546   4.400   1.062   5.358
 1549SOL    HW2 5547   4.357   0.947   5.466
 1550SOL     OW 5548   3.301   3.010   3.075
 1550SOL    HW1 5549   3.256   3.044   2.993
 1550SOL    HW2 5550   3.378   3.070   3.098
 1551SOL     OW 5551   0.063   5.211   6.162
 1551SOL    HW1 5552   0.052   5.306   6.135
 1551SOL    HW2 5553   0.022   5.197   6.253
 1552SOL     OW 5554   2.319   4.399   2.069
 1552SOL    HW1 5555   2.230   4.352   2.075
 1552SOL    HW2 5556   2.382   4.341   2.018
 1553SOL     OW 5557   0.607   1.845   5.678
 1553SOL    HW1 5558   0.682   1.895   5.721
 1553SOL    HW2 5559   0.521   1.868   5.724
 1554SOL     OW 5560   2.819   1.851   3.541
 1554SOL    HW1 5561   2.869   1.825   3.624
 1554SOL    HW2 5562   2.810   1.772   3.481
 1555SOL     OW 5563   0.107   3.379   6.405
 1555SOL    HW1 5564   0.198   3.351   6.372
 1555SOL    HW2 5565   0.038   3.315   6.370
 1556SOL     OW 5566   1.891   1.288   5.903
 1556SOL    HW1 5567   1.939   1.342   5.835
 1556SOL    HW2 5568   1.794   1.283   5.880
 1557SOL     OW 5569   0.399   3.167   6.659
 1557SOL    HW1 5570   0.386   3.194   6.755
 1557SOL    HW2 5571   0.473   3.101   6.653
 1558SOL     OW 5572   6.506   0.101   4.927
 1558SOL    HW1 5573   6.594   0.112   4.881
 1558SOL    HW2 5574   6.512   0.136   5.020
 1559SOL     OW 5575   0.563   1.956   6.076
 1559SOL    HW1 5576   0.543   2.033   6.015
 1559SOL    HW2 5577   0.660   1.959   6.102
 1560SOL     OW 5578   0.143   0.808   6.451
 1560SOL    HW1 5579   0.206   0.816   6.373
 1560SOL    HW2 5580   0.146   0.892   6.504
 1561SOL     OW 5581   5.728   5.789   2.989
 1561SOL    HW1 5582   5.661   5.718   2.969
 1561SOL    HW2 5583   5.703   5.834   3.075
 1562SOL     OW 5584   5.725   0.672   3.341
 1562SOL    HW1 5585   5.738   0.727   3.259
 1562SOL    HW2 5586   5.796   0.694   3.408
 1563SOL     OW 5587   3.327   0.913   5.706
 1563SOL    HW1 5588   3.276   0.833   5.674
 1563SOL    HW2 5589   3.425   0.894   5.702
 1564SOL     OW 5590   1.225   2.264   2.773
 1564SOL    HW1 5591   1.294   2.199   2.804
 1564SOL    HW2 5592   1.207   2.331   2.846
 1565SOL     OW 5593   5.258   3.730   1.780
 1565SOL    HW1 5594   5.298   3.694   1.695
 1565SOL    HW2 5595   5.196   3.662   1.819
 1566SOL     OW 5596   5.512   4.018   3.608
 1566SOL    HW1 5597   5.592   4.069   3.576
 1566SOL    HW2 5598   5.529   3.920   3.597
 1567SOL     OW 5599   6.952   5.708   5.796
 1567SOL    HW1 5600   6.988   5.621   5.763
 1567SOL    HW2 5601   6.940   5.704   5.895
 1568SOL     OW 5602   0.193   0.368   0.899
 1568SOL    HW1 5603   0.153   0.283   0.865
 1568SOL    HW2 5604   0.181   0.440   0.830
 1569SOL     OW 5605   3.573   6.127   5.490
 1569SOL    HW1 5606   3.610   6.213   5.456
 1569SOL    HW2 5607   3.491   6.103   5.439
 1570SOL     OW 5608   3.568   1.919   1.613
 1570SOL    HW1 5609   3.628   1.861   1.559
 1570SOL    HW2 5610   3.509   1.861   1.670
 1571SOL     OW 5611   6.888   4.278   1.521
 1571SOL    HW1 5612   6.956   4.209   1.497
 1571SOL    HW2 5613   6.891   4.295   1.620
 1572SOL     OW 5614   1.602   6.913   2.372
 1572SOL    HW1 5615   1.557   6.903   2.283
 1572SOL    HW2 5616   1.660   6.833   2.389
 1573SOL     OW 5617   4.248   0.325   1.334
 1573SOL    HW1 5618   4.291   0.246   1.291
 1573SOL    HW2 5619   4.150   0.324   1.316
 1574SOL     OW 5620   6.642   2.315   2.147
 1574SOL    HW1 5621   6.694   2.240   2.188
 1574SOL    HW2 5622   6.702   2.394   2.135
 1575SOL     OW 5623   2.037   2.429   0.421
 1575SOL    HW1 5624   1.991   2.388   0.500
 1575SOL    HW2 5625   2.087   2.511   0.450
 1576SOL     OW 5626   6.347   6.299   4.126
 1576SOL    HW1 5627   6.310   6.211   4.154
 1576SOL    HW2 5628   6.315   6.321   4.034
 1577SOL     OW 5629   2.369   0.212   6.268
 1577SOL    HW1 5630   2.276   0.175   6.261
 1577SOL    HW2 5631   2.369   0.307   6.238
 1578SOL     OW 5632   5.786   4.871   5.128
 1578SOL    HW1 5633   5.737   4.793   5.089
 1578SOL    HW2 5634   5.863   4.838   5.183
 1579SOL     OW 5635   1.339   0.670   3.723
 1579SOL    HW1 5636   1.354   0.761   3.684
 1579SOL    HW2 5637   1.416   0.645   3.782
 1580SOL     OW 5638   3.319   4.339   5.407
 1580SOL    HW1 5639   3.381   4.337   5.485
 1580SOL    HW2 5640   3.224   4.345   5.439
 1581SOL     OW 5641   6.513   4.251   4.460
 1581SOL    HW1 5642   6.442   4.281   4.524
 1581SOL    HW2 5643   6.478   4.255   4.367
 1582SOL     OW 5644   6.251   5.250   4.764
 1582SOL    HW1 5645   6.222   5.287   4.676
 1582SOL    HW2 5646   6.207   5.302   4.838
 1583SOL     OW 5647   1.550   2.958   2.926
 1583SOL    HW1 5648   1.517   3.036   2.980
 1583SOL    HW2 5649   1.588   2.992   2.840
 1584SOL     OW 5650   2.339   6.907   6.204
 1584SOL    HW1 5651   2.402   6.968   6.157
 1584SOL    HW2 5652   2.388   6.858   6.277
 1585SOL     OW 5653   5.304   1.689   5.115
 1585SOL    HW1 5654   5.279   1.758   5.047
 1585SOL    HW2 5655   5.278   1.598   5.082
 1586SOL     OW 5656   3.615   3.813   3.086
 1586SOL    HW1 5657   3.637   3.797   3.182
 1586SOL    HW2 5658   3.583   3.907   3.074
 1587SOL     OW 5659   3.203   6.512   6.865
 1587SOL    HW1 5660   3.106   6.489   6.878
 1587SOL    HW2 5661   3.236   6.469   6.781
 1588SOL     OW 5662   5.873   3.101   1.830
 1588SOL    HW1 5663   5.826   3.073   1.746
 1588SOL    HW2 5664   5.966   3.131   1.808
 1589SOL     OW 5665   5.992   4.235   3.802
 1589SOL    HW1 5666   6.059   4.179   3.753
 1589SOL    HW2 5667   5.977   4.196   3.893
 1590SOL     OW 5668   1.568   0.860   5.854
 1590SOL    HW1 5669   1.552   0.871   5.952
 1590SOL    HW2 5670   1.483   0.832   5.809
 1591SOL     OW 5671   1.397   4.675   1.596
 1591SOL    HW1 5672   1.442   4.594   1.633
 1591SOL    HW2 5673   1.467   4.743   1.571
 1592SOL     OW 5674   3.322   3.517   2.808
 1592SOL    HW1 5675   3.230   3.555   2.819
 1592SOL    HW2 5676   3.333   3.483   2.715
 1593SOL     OW 5677   1.026   5.469   5.391
 1593SOL    HW1 5678   0.926   5.460   5.396
 1593SOL    HW2 5679   1.066   5.439   5.478
 1594SOL     OW 5680   6.568   5.247   2.807
 1594SOL    HW1 5681   6.574   5.346   2.804
 1594SOL    HW2 5682   6.572   5.210   2.714
 1595SOL     OW 5683   6.773   4.966   6.142
 1595SOL    HW1 5684   6.857   5.008   6.176
 1595SOL    HW2 5685   6.787   4.931   6.050
 1596SOL     OW 5686   2.976   4.876   6.258
 1596SOL    HW1 5687   3.016   4.785   6.260
 1596SOL    HW2 5688   3.044   4.942   6.227
 1597SOL     OW 5689   2.760   6.917   1.379
 1597SOL    HW1 5690   2.675   6.865   1.391
 1597SOL    HW2 5691   2.829   6.859   1.338
 1598SOL     OW 5692   0.086   5.277   1.355
 1598SOL    HW1 5693   0.170   5.316   1.393
 1598SOL    HW2 5694   0.102   5.248   1.260
 1599SOL     OW 5695   3.879   4.851   6.985
 1599SOL    HW1 5696   3.965   4.876   6.940
 1599SOL    HW2 5697   3.898   4.803   0.050
 1600SOL     OW 5698   3.745   1.556   4.301
 1600SOL    HW1 5699   3.688   1.491   4.352
 1600SOL    HW2 5700   3.805   1.605   4.365
 1601SOL     OW 5701   0.814   4.910   3.346
 1601SOL    HW1 5702   0.809   4.826   3.293
 1601SOL    HW2 5703   0.790   4.891   3.441
 1602SOL     OW 5704   1.005   4.929   3.876
 1602SOL    HW1 5705   1.072   4.989   3.921
 1602SOL    HW2 5706   0.946   4.984   3.817
 1603SOL     OW 5707   6.735   6.535   1.505
 1603SOL    HW1 5708   6.815   6.477   1.521
 1603SOL    HW2 5709   6.766   6.629   1.486
 1604SOL     OW 5710   0.527   5.336   6.458
 1604SOL    HW1 5711   0.431   5.339   6.487
 1604SOL    HW2 5712   0.531   5.326   6.359
 1605SOL     OW 5713   5.038   6.445   3.265
 1605SOL    HW1 5714   4.971   6.517   3.281
 1605SOL    HW2 5715   5.063   6.443   3.168
 1606SOL     OW 5716   4.958   6.759   6.329
 1606SOL    HW1 5717   5.012   6.821   6.387
 1606SOL    HW2 5718   4.861   6.778   6.342
 1607SOL     OW 5719   4.093   2.021   0.849
 1607SOL    HW1 5720   4.160   1.955   0.816
 1607SOL    HW2 5721   4.011   1.972   0.881
 1608SOL     OW 5722   2.729   0.173   0.739
 1608SOL    HW1 5723   2.740   0.106   0.666
 1608SOL    HW2 5724   2.768   0.138   0.823
 1609SOL     OW 5725   4.821   2.002   5.332
 1609SOL    HW1 5726   4.836   1.968   5.424
 1609SOL    HW2 5727   4.905   1.994   5.278
 1610SOL     OW 5728   6.375   5.626   4.811
 1610SOL    HW1 5729   6.359   5.633   4.712
 1610SOL    HW2 5730   6.296   5.582   4.854
 1611SOL     OW 5731   2.960   3.508   1.497
 1611SOL    HW1 5732   2.992   3.425   1.544
 1611SOL    HW2 5733   2.910   3.566   1.561
 1612SOL     OW 5734   2.965   0.631   4.375
 1612SOL    HW1 5735   2.995   0.632   4.279
 1612SOL    HW2 5736   2.924   0.720   4.397
 1613SOL     OW 5737   2.483   5.979   0.628
 1613SOL    HW1 5738   2.494   5.992   0.726
 1613SOL    HW2 5739   2.461   5.883   0.609
 1614SOL     OW 5740   6.211   2.634   6.857
 1614SOL    HW1 5741   6.228   2.660   6.952
 1614SOL    HW2 5742   6.192   2.536   6.852
 1615SOL     OW 5743   6.619   4.880   6.566
 1615SOL    HW1 5744   6.604   4.959   6.625
 1615SOL    HW2 5745   6.664   4.807   6.618
 1616SOL     OW 5746   2.953   1.887   5.645
 1616SOL    HW1 5747   2.914   1.908   5.555
 1616SOL    HW2 5748   2.930   1.961   5.709
 1617SOL     OW 5749   4.258   6.997   3.821
 1617SOL    HW1 5750   4.212   6.923   3.771
 1617SOL    HW2 5751   4.216   7.006   3.912
 1618SOL     OW 5752   5.732   2.505   0.906
 1618SOL    HW1 5753   5.754   2.601   0.922
 1618SOL    HW2 5754   5.699   2.463   0.991
 1619SOL     OW 5755   1.551   3.318   4.505
 1619SOL    HW1 5756   1.535   3.334   4.408
 1619SOL    HW2 5757   1.636   3.364   4.533
 1620SOL     OW 5758   3.347   5.474   0.710
 1620SOL    HW1 5759   3.372   5.395   0.654
 1620SOL    HW2 5760   3.418   5.489   0.779
 1621SOL     OW 5761   1.631   1.168   1.714
 1621SOL    HW1 5762   1.683   1.089   1.746
 1621SOL    HW2 5763   1.674   1.205   1.632
 1622SOL     OW 5764   2.102   1.882   4.201
 1622SOL    HW1 5765   2.119   1.969   4.154
 1622SOL    HW2 5766   2.181   1.822   4.189
 1623SOL     OW 5767   2.920   2.048   5.235
 1623SOL    HW1 5768   3.016   2.045   5.209
 1623SOL    HW2 5769   2.870   2.107   5.171
 1624SOL     OW 5770   2.123   1.211   0.367
 1624SOL    HW1 5771   2.080   1.286   0.417
 1624SOL    HW2 5772   2.129   1.235   0.270
 1625SOL     OW 5773   0.538   4.791   1.885
 1625SOL    HW1 5774   0.598   4.731   1.832
 1625SOL    HW2 5775   0.594   4.844   1.950
 1626SOL     OW 5776   1.843   1.866   6.629
 1626SOL    HW1 5777   1.898   1.891   6.709
 1626SOL    HW2 5778   1.898   1.813   6.565
 1627SOL     OW 5779   5.495   2.938   3.883
 1627SOL    HW1 5780   5.479   2.907   3.790
 1627SOL    HW2 5781   5.516   3.035   3.883
 1628SOL     OW 5782   2.898   3.489   0.124
 1628SOL    HW1 5783   2.881   3.467   0.028
 1628SOL    HW2 5784   2.997   3.503   0.137
 1629SOL     OW 5785   4.414   2.206   3.614
 1629SOL    HW1 5786   4.315   2.206   3.631
 1629SOL    HW2 5787   4.459   2.262   3.684
 1630SOL     OW 5788   6.966   4.620   4.250
 1630SOL    HW1 5789   6.929   4.649   4.161
 1630SOL    HW2 5790   0.031   4.668   4.267
 1631SOL     OW 5791   0.453   6.788   5.492
 1631SOL    HW1 5792   0.362   6.800   5.452
 1631SOL    HW2 5793   0.493   6.702   5.459
 1632SOL     OW 5794   5.918   0.444   1.550
 1632SOL    HW1 5795   5.999   0.499   1.531
 1632SOL    HW2 5796   5.838   0.503   1.560
 1633SOL     OW 5797   5.024   2.967   3.889
 1633SOL    HW1 5798   5.038   2.951   3.987
 1633SOL    HW2 5799   5.074   3.049   3.861
 1634SOL     OW 5800   3.395   1.057   6.770
 1634SOL    HW1 5801   3.367   1.026   6.861
 1634SOL    HW2 5802   3.325   1.117   6.733
 1635SOL     OW 5803   0.484   5.529   3.980
 1635SOL    HW1 5804   0.472   5.551   3.883
 1635SOL    HW2 5805   0.481   5.430   3.993
 1636SOL     OW 5806   1.968   6.002   1.317
 1636SOL    HW1 5807   2.066   5.990   1.300
 1636SOL    HW2 5808   1.948   6.099   1.328
 1637SOL     OW 5809   0.190   3.340   1.870
 1637SOL    HW1 5810   0.260   3.336   1.799
 1637SOL    HW2 5811   0.229   3.309   1.957
 1638SOL     OW 5812   1.335   2.786   4.727
 1638SOL    HW1 5813   1.252   2.834   4.698
 1638SOL    HW2 5814   1.396   2.851   4.773
 1639SOL     OW 5815   5.106   4.794   2.007
 1639SOL    HW1 5816   5.096   4.784   1.908
 1639SOL    HW2 5817   5.017   4.815   2.048
 1640SOL     OW 5818   5.662   0.180   1.453
 1640SOL    HW1 5819   5.670   0.229   1.366
 1640SOL    HW2 5820   5.745   0.195   1.507
 1641SOL     OW 5821   6.269   2.584   5.358
 1641SOL    HW1 5822   6.211   2.586   5.277
 1641SOL    HW2 5823   6.265   2.673   5.404
 1642SOL     OW 5824   6.914   2.618   1.876
 1642SOL    HW1 5825   6.959   2.574   1.798
 1642SOL    HW2 5826   6.936   2.715   1.877
 1643SOL     OW 5827   3.936   0.704   5.487
 1643SOL    HW1 5828   3.948   0.629   5.422
 1643SOL    HW2 5829   3.845   0.697   5.529
 1644SOL     OW 5830   3.236   0.478   0.955
 1644SOL    HW1 5831   3.143   0.485   0.921
 1644SOL    HW2 5832   3.241   0.514   1.049
 1645SOL     OW 5833   2.179   0.006   6.384
 1645SOL    HW1 5834   2.147   6.975   6.463
 1645SOL    HW2 5835   2.231   6.966   6.323
 1646SOL     OW 5836   1.245   3.585   1.205
 1646SOL    HW1 5837   1.296   3.597   1.120
 1646SOL    HW2 5838   1.282   3.508   1.256
 1647SOL     OW 5839   5.875   3.321   3.556
 1647SOL    HW1 5840   5.889   3.326   3.457
 1647SOL    HW2 5841   5.777   3.332   3.576
 1648SOL     OW 5842   4.327   0.025   2.260
 1648SOL    HW1 5843   4.346   0.121   2.240
 1648SOL    HW2 5844   4.403   6.989   2.227
 1649SOL     OW 5845   3.163   0.672   3.087
 1649SOL    HW1 5846   3.133   0.601   3.151
 1649SOL    HW2 5847   3.178   0.757   3.136
 1650SOL     OW 5848   2.497   6.121   3.569
 1650SOL    HW1 5849   2.419   6.072   3.608
 1650SOL    HW2 5850   2.581   6.088   3.610
 1651SOL     OW 5851   1.695   6.719   0.687
 1651SOL    HW1 5852   1.644   6.766   0.759
 1651SOL    HW2 5853   1.663   6.624   0.681
 1652SOL     OW 5854   3.116   2.646   1.276
 1652SOL    HW1 5855   3.029   2.618   1.236
 1652SOL    HW2 5856   3.177   2.568   1.283
 1653SOL     OW 5857   0.796   5.930   1.156
 1653SOL    HW1 5858   0.702   5.897   1.156
 1653SOL    HW2 5859   0.851   5.875   1.094
 1654SOL     OW 5860   0.581   3.465   2.888
 1654SOL    HW1 5861   0.632   3.469   2.974
 1654SOL    HW2 5862   0.538   3.376   2.878
 1655SOL     OW 5863   4.708   5.005   6.296
 1655SOL    HW1 5864   4.725   4.937   6.225
 1655SOL    HW2 5865   4.752   4.976   6.382
 1656SOL     OW 5866   0.368   5.139   3.091
 1656SOL    HW1 5867   0.274   5.153   3.124
 1656SOL    HW2 5868   0.366   5.105   2.997
 1657SOL     OW 5869   1.192   0.368   5.224
 1657SOL    HW1 5870   1.191   0.293   5.158
 1657SOL    HW2 5871   1.199   0.456   5.176
 1658SOL     OW 5872   6.184   6.084   2.834
 1658SOL    HW1 5873   6.189   6.177   2.870
 1658SOL    HW2 5874   6.128   6.028   2.895
 1659SOL     OW 5875   4.079   2.153   5.762
 1659SOL    HW1 5876   4.131   2.170   5.846
 1659SOL    HW2 5877   4.045   2.059   5.762
 1660SOL     OW 5878   1.524   5.648   3.195
 1660SOL    HW1 5879   1.572   5.733   3.172
 1660SOL    HW2 5880   1.436   5.646   3.148
 1661SOL     OW 5881   3.112   0.184   2.366
 1661SOL    HW1 5882   3.200   0.151   2.401
 1661SOL    HW2 5883   3.128   0.246   2.289
 1662SOL     OW 5884   0.335   0.605   3.251
 1662SOL    HW1 5885   0.336   0.687   3.193
 1662SOL    HW2 5886   0.413   0.608   3.314
 1663SOL     OW 5887   2.671   0.101   3.536
 1663SOL    HW1 5888   2.711   0.170   3.597
 1663SOL    HW2 5889   2.742   0.036   3.509
 1664SOL     OW 5890   2.359   5.832   4.720
 1664SOL    HW1 5891   2.284   5.893   4.746
 1664SOL    HW2 5892   2.424   5.882   4.662
 1665SOL     OW 5893   0.131   0.047   4.336
 1665SOL    HW1 5894   0.110   6.980   4.293
 1665SOL    HW2 5895   0.227   0.069   4.323
 1666SOL     OW 5896   6.081   2.454   5.719
 1666SOL    HW1 5897   6.067   2.399   5.801
 1666SOL    HW2 5898   6.132   2.401   5.651
 1667SOL     OW 5899   6.663   0.619   6.150
 1667SOL    HW1 5900   6.594   0.677   6.195
 1667SOL    HW2 5901   6.753   0.662   6.159
 1668SOL     OW 5902   3.548   0.867   5.026
 1668SOL    HW1 5903   3.539   0.965   5.046
 1668SOL    HW2 5904   3.458   0.827   5.012
 1669SOL     OW 5905   6.002   7.018   6.751
 1669SOL    HW1 5906   5.947   7.008   6.833
 1669SOL    HW2 5907   5.946   0.034   6.677
 1670SOL     OW 5908   5.684   4.382   5.649
 1670SOL    HW1 5909   5.692   4.437   5.732
 1670SOL    HW2 5910   5.588   4.382   5.620
 1671SOL     OW 5911   5.519   3.969   0.121
 1671SOL    HW1 5912   5.515   4.066   0.097
 1671SOL    HW2 5913   5.608   3.948   0.160
 1672SOL     OW 5914   1.786   5.359   2.487
 1672SOL    HW1 5915   1.724   5.331   2.414
 1672SOL    HW2 5916   1.879   5.331   2.463
 1673SOL     OW 5917   6.542   2.126   4.007
 1673SOL    HW1 5918   6.478   2.173   3.946
 1673SOL    HW2 5919   6.548   2.030   3.981
 1674SOL     OW 5920   0.470   4.336   6.571
 1674SOL    HW1 5921   0.493   4.395   6.648
 1674SOL    HW2 5922   0.451   4.243   6.604
 1675SOL     OW 5923   4.755   2.307   6.884
 1675SOL    HW1 5924   4.829   2.247   6.854
 1675SOL    HW2 5925   4.776   2.343   6.975
 1676SOL     OW 5926   1.506   0.419   3.106
 1676SOL    HW1 5927   1.422   0.383   3.066
 1676SOL    HW2 5928   1.573   0.346   3.113
 1677SOL     OW 5929   6.332   1.477   5.434
 1677SOL    HW1 5930   6.250   1.469   5.491
 1677SOL    HW2 5931   6.350   1.389   5.390
 1678SOL     OW 5932   5.247   6.925   1.596
 1678SOL    HW1 5933   5.309   6.847   1.607
 1678SOL    HW2 5934   5.196   6.915   1.510
 1679SOL     OW 5935   6.987   3.563   6.938
 1679SOL    HW1 5936   6.911   3.568   7.003
 1679SOL    HW2 5937   0.053   3.576   6.987
 1680SOL     OW 5938   1.232   1.540   4.469
 1680SOL    HW1 5939   1.326   1.572   4.458
 1680SOL    HW2 5940   1.215   1.520   4.565
 1681SOL     OW 5941   6.449   5.507   1.019
 1681SOL    HW1 5942   6.468   5.445   1.096
 1681SOL    HW2 5943   6.438   5.600   1.053
 1682SOL     OW 5944   6.375   3.300   5.687
 1682SOL    HW1 5945   6.302   3.333   5.747
 1682SOL    HW2 5946   6.452   3.270   5.743
 1683SOL     OW 5947   5.506   5.503   0.719
 1683SOL    HW1 5948   5.425   5.526   0.665
 1683SOL    HW2 5949   5.577   5.469   0.658
 1684SOL     OW 5950   0.688   5.896   5.225
 1684SOL    HW1 5951   0.591   5.919   5.238
 1684SOL    HW2 5952   0.699   5.849   5.137
 1685SOL     OW 5953   1.234   1.595   0.048
 1685SOL    HW1 5954   1.334   1.595   0.049
 1685SOL    HW2 5955   1.202   1.600   6.975
 1686SOL     OW 5956   1.937   6.989   0.207
 1686SOL    HW1 5957   1.898   6.955   0.122
 1686SOL    HW2 5958   2.033   6.963   0.213
 1687SOL     OW 5959   1.769   0.139   1.645
 1687SOL    HW1 5960   1.686   0.190   1.626
 1687SOL    HW2 5961   1.747   0.042   1.656
 1688SOL     OW 5962   0.588   2.094   3.457
 1688SOL    HW1 5963   0.529   2.061   3.384
 1688SOL    HW2 5964   0.601   2.193   3.446
 1689SOL     OW 5965   1.932   1.422   3.011
 1689SOL    HW1 5966   1.856   1.404   3.073
 1689SOL    HW2 5967   1.913   1.507   2.960
 1690SOL     OW 5968   0.997   1.942   1.061
 1690SOL    HW1 5969   1.069   1.874   1.074
 1690SOL    HW2 5970   0.969   1.979   1.149
 1691SOL     OW 5971   5.209   4.332   2.166
 1691SOL    HW1 5972   5.110   4.319   2.164
 1691SOL    HW2 5973   5.232   4.420   2.126
 1692SOL     OW 5974   1.412   0.773   3.455
 1692SOL    HW1 5975   1.486   0.828   3.492
 1692SOL    HW2 5976   1.412   0.683   3.498
 1693SOL     OW 5977   2.829   2.276   3.390
 1693SOL    HW1 5978   2.806   2.365   3.350
 1693SOL    HW2 5979   2.767   2.206   3.354
 1694SOL     OW 5980   4.609   6.011   5.264
 1694SOL    HW1 5981   4.631   6.102   5.298
 1694SOL    HW2 5982   4.683   5.948   5.286
 1695SOL     OW 5983   2.775   2.214   5.630
 1695SOL    HW1 5984   2.724   2.133   5.659
 1695SOL    HW2 5985   2.873   2.194   5.633
 1696SOL     OW 5986   3.456   5.732   0.647
 1696SOL    HW1 5987   3.445   5.760   0.552
 1696SOL    HW2 5988   3.402   5.649   0.664
 1697SOL     OW 5989   0.691   1.134   2.039
 1697SOL    HW1 5990   0.774   1.084   2.012
 1697SOL    HW2 5991   0.670   1.115   2.134
 1698SOL     OW 5992   4.766   2.033   1.202
 1698SOL    HW1 5993   4.677   2.059   1.238
 1698SOL    HW2 5994   4.758   2.013   1.104
 1699SOL     OW 5995   1.915   3.526   1.016
 1699SOL    HW1 5996   1.936   3.522   0.918
 1699SOL    HW2 5997   1.969   3.598   1.059
 1700SOL     OW 5998   6.432   3.215   4.010
 1700SOL    HW1 5999   6.462   3.270   4.087
 1700SOL    HW2 6000   6.389   3.274   3.941
 1701SOL     OW 6001   5.762   3.244   4.561
 1701SOL    HW1 6002   5.693   3.315   4.552
 1701SOL    HW2 6003   5.853   3.286   4.563
 1702SOL     OW 6004   5.060   3.142   0.441
 1702SOL    HW1 6005   4.995   3.215   0.459
 1702SOL    HW2 6006   5.092   3.104   0.528
 1703SOL     OW 6007   1.973   3.800   0.221
 1703SOL    HW1 6008   1.932   3.877   0.270
 1703SOL    HW2 6009   1.956   3.716   0.272
 1704SOL     OW 6010   1.040   1.196   2.117
 1704SOL    HW1 6011   1.002   1.107   2.091
 1704SOL    HW2 6012   1.140   1.191   2.116
 1705SOL     OW 6013   3.890   3.180   1.814
 1705SOL    HW1 6014   3.801   3.161   1.775
 1705SOL    HW2 6015   3.934   3.094   1.841
 1706SOL     OW 6016   2.703   1.312   0.018
 1706SOL    HW1 6017   2.651   1.386   0.060
 1706SOL    HW2 6018   2.714   1.237   0.084
 1707SOL     OW 6019   5.585   1.859   3.212
 1707SOL    HW1 6020   5.552   1.765   3.203
 1707SOL    HW2 6021   5.683   1.862   3.190
 1708SOL     OW 6022   6.893   5.007   2.986
 1708SOL    HW1 6023   6.821   5.076   2.988
 1708SOL    HW2 6024   6.886   4.954   2.902
 1709SOL     OW 6025   2.846   6.159   3.239
 1709SOL    HW1 6026   2.767   6.171   3.299
 1709SOL    HW2 6027   2.832   6.078   3.182
 1710SOL     OW 6028   0.141   6.320   3.531
 1710SOL    HW1 6029   0.135   6.356   3.624
 1710SOL    HW2 6030   0.102   6.385   3.467
 1711SOL     OW 6031   1.543   4.480   5.790
 1711SOL    HW1 6032   1.640   4.487   5.813
 1711SOL    HW2 6033   1.533   4.463   5.692
 1712SOL     OW 6034   0.721   4.893   0.521
 1712SOL    HW1 6035   0.752   4.800   0.501
 1712SOL    HW2 6036   0.621   4.896   0.517
 1713SOL     OW 6037   1.402   3.177   0.955
 1713SOL    HW1 6038   1.346   3.172   1.037
 1713SOL    HW2 6039   1.487   3.127   0.968
 1714SOL     OW 6040   3.255   1.767   0.500
 1714SOL    HW1 6041   3.232   1.671   0.515
 1714SOL    HW2 6042   3.352   1.776   0.481
 1715SOL     OW 6043   0.452   3.186   3.901
 1715SOL    HW1 6044   0.353   3.186   3.889
 1715SOL    HW2 6045   0.496   3.201   3.813
 1716SOL     OW 6046   0.260   6.749   0.192
 1716SOL    HW1 6047   0.358   6.761   0.178
 1716SOL    HW2 6048   0.210   6.805   0.126
 1717SOL     OW 6049   3.319   0.387   0.157
 1717SOL    HW1 6050   3.384   0.349   0.224
 1717SOL    HW2 6051   3.305   0.320   0.084
 1718SOL     OW 6052   0.965   4.810   5.619
 1718SOL    HW1 6053   0.881   4.864   5.608
 1718SOL    HW2 6054   1.042   4.861   5.581
 1719SOL     OW 6055   2.105   3.601   1.692
 1719SOL    HW1 6056   2.091   3.505   1.714
 1719SOL    HW2 6057   2.161   3.644   1.764
 1720SOL     OW 6058   6.765   1.566   1.320
 1720SOL    HW1 6059   6.679   1.616   1.311
 1720SOL    HW2 6060   6.835   1.628   1.357
 1721SOL     OW 6061   1.654   6.320   3.956
 1721SOL    HW1 6062   1.660   6.418   3.973
 1721SOL    HW2 6063   1.559   6.293   3.947
 1722SOL     OW 6064   5.989   6.320   2.067
 1722SOL    HW1 6065   5.889   6.322   2.076
 1722SOL    HW2 6066   6.018   6.392   2.003
 1723SOL     OW 6067   6.056   1.408   2.319
 1723SOL    HW1 6068   5.962   1.423   2.286
 1723SOL    HW2 6069   6.083   1.485   2.376
 1724SOL     OW 6070   4.882   0.524   0.155
 1724SOL    HW1 6071   4.881   0.612   0.203
 1724SOL    HW2 6072   4.903   0.451   0.220
 1725SOL     OW 6073   3.964   4.746   1.569
 1725SOL    HW1 6074   4.021   4.672   1.604
 1725SOL    HW2 6075   3.906   4.710   1.495
 1726SOL     OW 6076   0.689   5.030   4.558
 1726SOL    HW1 6077   0.689   5.099   4.485
 1726SOL    HW2 6078   0.674   5.074   4.646
 1727SOL     OW 6079   3.240   3.885   5.519
 1727SOL    HW1 6080   3.185   3.802   5.522
 1727SOL    HW2 6081   3.251   3.916   5.425
 1728SOL     OW 6082   4.657   4.325   3.053
 1728SOL    HW1 6083   4.603   4.345   2.971
 1728SOL    HW2 6084   4.753   4.316   3.029
 1729SOL     OW 6085   2.124   3.562   3.201
 1729SOL    HW1 6086   2.121   3.556   3.102
 1729SOL    HW2 6087   2.133   3.658   3.228
 1730SOL     OW 6088   5.796   2.775   4.836
 1730SOL    HW1 6089   5.704   2.765   4.798
 1730SOL    HW2 6090   5.841   2.853   4.792
 1731SOL     OW 6091   1.728   5.187   0.497
 1731SOL    HW1 6092   1.758   5.143   0.413
 1731SOL    HW2 6093   1.630   5.206   0.492
 1732SOL     OW 6094   0.317   4.771   0.190
 1732SOL    HW1 6095   0.394   4.712   0.214
 1732SOL    HW2 6096   0.269   4.732   0.112
 1733SOL     OW 6097   1.330   3.939   0.681
 1733SOL    HW1 6098   1.235   3.964   0.700
 1733SOL    HW2 6099   1.391   3.992   0.742
 1734SOL     OW 6100   4.792   3.207   0.645
 1734SOL    HW1 6101   4.821   3.288   0.592
 1734SOL    HW2 6102   4.861   3.187   0.715
 1735SOL     OW 6103   5.903   4.929   1.760
 1735SOL    HW1 6104   5.955   5.014   1.754
 1735SOL    HW2 6105   5.809   4.945   1.728
 1736SOL     OW 6106   3.678   3.678   0.634
 1736SOL    HW1 6107   3.675   3.592   0.683
 1736SOL    HW2 6108   3.605   3.738   0.667
 1737SOL     OW 6109   1.519   6.859   3.654
 1737SOL    HW1 6110   1.617   6.836   3.655
 1737SOL    HW2 6111   1.467   6.787   3.699
 1738SOL     OW 6112   1.703   2.489   2.277
 1738SOL    HW1 6113   1.625   2.444   2.321
 1738SOL    HW2 6114   1.781   2.486   2.339
 1739SOL     OW 6115   4.214   1.807   5.205
 1739SOL    HW1 6116   4.145   1.839   5.270
 1739SOL    HW2 6117   4.174   1.737   5.146
 1740SOL     OW 6118   0.734   1.275   5.579
 1740SOL    HW1 6119   0.693   1.234   5.660
 1740SOL    HW2 6120   0.764   1.368   5.599
 1741SOL     OW 6121   1.413   6.821   2.819
 1741SOL    HW1 6122   1.501   6.816   2.772
 1741SOL    HW2 6123   1.403   6.910   2.863
 1742SOL     OW 6124   5.980   0.704   4.522
 1742SOL    HW1 6125   5.964   0.614   4.482
 1742SOL    HW2 6126   6.037   0.758   4.460
 1743SOL     OW 6127   4.216   0.897   1.075
 1743SOL    HW1 6128   4.239   0.936   0.986
 1743SOL    HW2 6129   4.201   0.798   1.064
 1744SOL     OW 6130   2.661   0.484   1.158
 1744SOL    HW1 6131   2.562   0.493   1.167
 1744SOL    HW2 6132   2.682   0.437   1.073
 1745SOL     OW 6133   6.817   2.383   3.795
 1745SOL    HW1 6134   6.780   2.415   3.883
 1745SOL    HW2 6135   6.888   2.446   3.765
 1746SOL     OW 6136   2.966   0.688   5.781
 1746SOL    HW1 6137   2.948   0.617   5.848
 1746SOL    HW2 6138   2.911   0.672   5.699
 1747SOL     OW 6139   3.766   0.513   1.463
 1747SOL    HW1 6140   3.727   0.577   1.397
 1747SOL    HW2 6141   3.822   0.563   1.529
 1748SOL     OW 6142   5.698   2.314   2.016
 1748SOL    HW1 6143   5.603   2.284   2.012
 1748SOL    HW2 6144   5.702   2.407   2.054
 1749SOL     OW 6145   4.174   6.705   6.349
 1749SOL    HW1 6146   4.085   6.699   6.303
 1749SOL    HW2 6147   4.170   6.656   6.436
 1750SOL     OW 6148   5.047   0.485   4.022
 1750SOL    HW1 6149   4.987   0.413   3.987
 1750SOL    HW2 6150   5.009   0.575   3.998
 1751SOL     OW 6151   1.817   5.599   3.688
 1751SOL    HW1 6152   1.791   5.693   3.666
 1751SOL    HW2 6153   1.821   5.545   3.604
 1752SOL     OW 6154   6.155   2.096   0.361
 1752SOL    HW1 6155   6.087   2.057   0.424
 1752SOL    HW2 6156   6.183   2.025   0.296
 1753SOL     OW 6157   2.239   0.287   2.149
 1753SOL    HW1 6158   2.165   0.255   2.207
 1753SOL    HW2 6159   2.295   0.353   2.200
 1754SOL     OW 6160   4.025   3.022   0.983
 1754SOL    HW1 6161   3.953   2.970   1.029
 1754SOL    HW2 6162   4.079   2.961   0.925
 1755SOL     OW 6163   5.390   3.836   0.607
 1755SOL    HW1 6164   5.435   3.837   0.696
 1755SOL    HW2 6165   5.324   3.912   0.602
 1756SOL     OW 6166   6.591   5.654   4.502
 1756SOL    HW1 6167   6.594   5.557   4.528
 1756SOL    HW2 6168   6.584   5.661   4.402
 1757SOL     OW 6169   3.002   6.712   4.512
 1757SOL    HW1 6170   2.923   6.735   4.456
 1757SOL    HW2 6171   3.050   6.634   4.472
 1758SOL     OW 6172   1.933   0.664   2.963
 1758SOL    HW1 6173   1.927   0.686   3.060
 1758SOL    HW2 6174   1.840   0.648   2.927
 1759SOL     OW 6175   0.955   5.648   6.515
 1759SOL    HW1 6176   0.884   5.582   6.539
 1759SOL    HW2 6177   1.000   5.619   6.430
 1760SOL     OW 6178   5.879   0.476   2.414
 1760SOL    HW1 6179   5.889   0.442   2.320
 1760SOL    HW2 6180   5.960   0.454   2.467
 1761SOL     OW 6181   6.652   2.601   1.179
 1761SOL    HW1 6182   6.676   2.698   1.185
 1761SOL    HW2 6183   6.669   2.557   1.267
 1762SOL     OW 6184   6.274   1.674   5.961
 1762SOL    HW1 6185   6.364   1.650   5.923
 1762SOL    HW2 6186   6.233   1.593   6.002
 1763SOL     OW 6187   2.058   4.366   4.193
 1763SOL    HW1 6188   2.046   4.406   4.102
 1763SOL    HW2 6189   2.133   4.300   4.191
 1764SOL     OW 6190   6.586   3.000   3.709
 1764SOL    HW1 6191   6.619   3.029   3.799
 1764SOL    HW2 6192   6.609   2.904   3.695
 1765SOL     OW 6193   2.956   2.811   6.368
 1765SOL    HW1 6194   2.886   2.883   6.370
 1765SOL    HW2 6195   3.019   2.829   6.292
 1766SOL     OW 6196   5.244   3.233   5.076
 1766SOL    HW1 6197   5.222   3.137   5.057
 1766SOL    HW2 6198   5.170   3.274   5.129
 1767SOL     OW 6199   5.915   3.459   2.450
 1767SOL    HW1 6200   5.883   3.366   2.431
 1767SOL    HW2 6201   5.852   3.503   2.514
 1768SOL     OW 6202   5.617   0.142   4.419
 1768SOL    HW1 6203   5.547   0.127   4.349
 1768SOL    HW2 6204   5.708   0.140   4.376
 1769SOL     OW 6205   4.539   1.343   2.224
 1769SOL    HW1 6206   4.543   1.432   2.179
 1769SOL    HW2 6207   4.466   1.288   2.183
 1770SOL     OW 6208   2.223   5.445   5.445
 1770SOL    HW1 6209   2.213   5.356   5.489
 1770SOL    HW2 6210   2.318   5.457   5.416
 1771SOL     OW 6211   5.060   5.894   6.509
 1771SOL    HW1 6212   5.138   5.846   6.468
 1771SOL    HW2 6213   5.014   5.948   6.440
 1772SOL     OW 6214   3.403   6.698   2.762
 1772SOL    HW1 6215   3.310   6.681   2.795
 1772SOL    HW2 6216   3.466   6.630   2.800
 1773SOL     OW 6217   1.164   5.127   6.710
 1773SOL    HW1 6218   1.160   5.223   6.738
 1773SOL    HW2 6219   1.073   5.086   6.719
 1774SOL     OW 6220   4.137   5.364   1.566
 1774SOL    HW1 6221   4.208   5.303   1.603
 1774SOL    HW2 6222   4.170   5.458   1.564
 1775SOL     OW 6223   0.707   4.176   2.354
 1775SOL    HW1 6224   0.793   4.128   2.333
 1775SOL    HW2 6225   0.630   4.124   2.317
 1776SOL     OW 6226   3.112   5.857   4.940
 1776SOL    HW1 6227   3.067   5.810   4.864
 1776SOL    HW2 6228   3.210   5.865   4.921
 1777SOL     OW 6229   4.486   5.874   0.574
 1777SOL    HW1 6230   4.417   5.868   0.647
 1777SOL    HW2 6231   4.504   5.783   0.538
 1778SOL     OW 6232   5.695   3.685   5.965
 1778SOL    HW1 6233   5.716   3.728   5.877
 1778SOL    HW2 6234   5.668   3.590   5.950
 1779SOL     OW 6235   3.352   6.464   5.102
 1779SOL    HW1 6236   3.376   6.373   5.068
 1779SOL    HW2 6237   3.307   6.456   5.191
 1780SOL     OW 6238   3.307   3.381   6.210
 1780SOL    HW1 6239   3.396   3.350   6.177
 1780SOL    HW2 6240   3.273   3.317   6.279
 1781SOL     OW 6241   3.391   5.645   3.053
 1781SOL    HW1 6242   3.431   5.648   3.145
 1781SOL    HW2 6243   3.444   5.704   2.992
 1782SOL     OW 6244   3.251   1.625   3.672
 1782SOL    HW1 6245   3.261   1.696   3.603
 1782SOL    HW2 6246   3.322   1.636   3.742
 1783SOL     OW 6247   1.959   5.990   6.745
 1783SOL    HW1 6248   1.912   6.054   6.805
 1783SOL    HW2 6249   1.950   5.897   6.781
 1784SOL     OW 6250   3.606   6.701   5.450
 1784SOL    HW1 6251   3.578   6.633   5.519
 1784SOL    HW2 6252   3.541   6.700   5.375
 1785SOL     OW 6253   6.698   4.223   2.469
 1785SOL    HW1 6254   6.610   4.222   2.517
 1785SOL    HW2 6255   6.692   4.162   2.390
 1786SOL     OW 6256   3.303   2.242   1.025
 1786SOL    HW1 6257   3.341   2.165   0.974
 1786SOL    HW2 6258   3.335   2.328   0.985
 1787SOL     OW 6259   3.336   0.820   6.194
 1787SOL    HW1 6260   3.321   0.875   6.111
 1787SOL    HW2 6261   3.301   0.869   6.273
 1788SOL     OW 6262   1.871   5.357   5.572
 1788SOL    HW1 6263   1.907   5.406   5.493
 1788SOL    HW2 6264   1.771   5.364   5.573
 1789SOL     OW 6265   6.660   1.769   0.055
 1789SOL    HW1 6266   6.628   1.815   0.138
 1789SOL    HW2 6267   6.760   1.768   0.054
 1790SOL     OW 6268   3.561   6.794   3.746
 1790SOL    HW1 6269   3.547   6.889   3.775
 1790SOL    HW2 6270   3.540   6.786   3.649
 1791SOL     OW 6271   6.727   6.677   2.746
 1791SOL    HW1 6272   6.690   6.714   2.661
 1791SOL    HW2 6273   6.653   6.635   2.799
 1792SOL     OW 6274   1.229   3.113   4.908
 1792SOL    HW1 6275   1.300   3.112   4.837
 1792SOL    HW2 6276   1.223   3.022   4.949
 1793SOL     OW 6277   6.682   6.896   3.841
 1793SOL    HW1 6278   6.738   6.936   3.769
 1793SOL    HW2 6279   6.709   6.934   3.930
 1794SOL     OW 6280   4.526   5.136   6.048
 1794SOL    HW1 6281   4.438   5.090   6.055
 1794SOL    HW2 6282   4.598   5.077   6.086
 1795SOL     OW 6283   0.753   2.818   0.744
 1795SOL    HW1 6284   0.838   2.767   0.754
 1795SOL    HW2 6285   0.676   2.755   0.746
 1796SOL     OW 6286   3.007   0.538   6.189
 1796SOL    HW1 6287   2.979   0.530   6.094
 1796SOL    HW2 6288   3.023   0.447   6.227
 1797SOL     OW 6289   1.208   6.638   0.437
 1797SOL    HW1 6290   1.178   6.685   0.354
 1797SOL    HW2 6291   1.295   6.593   0.420
 1798SOL     OW 6292   4.775   2.624   2.800
 1798SOL    HW1 6293   4.704   2.556   2.817
 1798SOL    HW2 6294   4.847   2.584   2.744
 1799SOL     OW 6295   1.269   2.098   6.680
 1799SOL    HW1 6296   1.299   2.188   6.649
 1799SOL    HW2 6297   1.253   2.100   6.779
 1800SOL     OW 6298   4.100   5.002   1.748
 1800SOL    HW1 6299   4.053   4.941   1.811
 1800SOL    HW2 6300   4.173   4.953   1.701
 1801SOL     OW 6301   6.632   6.598   1.920
 1801SOL    HW1 6302   6.687   6.516   1.935
 1801SOL    HW2 6303   6.591   6.594   1.829
 1802SOL     OW 6304   5.609   5.564   4.743
 1802SOL    HW1 6305   5.660   5.479   4.740
 1802SOL    HW2 6306   5.608   5.599   4.837
 1803SOL     OW 6307   0.188   6.053   0.691
 1803SOL    HW1 6308   0.194   5.966   0.739
 1803SOL    HW2 6309   0.183   6.037   0.593
 1804SOL     OW 6310   2.873   3.578   5.239
 1804SOL    HW1 6311   2.938   3.505   5.217
 1804SOL    HW2 6312   2.789   3.538   5.275
 1805SOL     OW 6313   4.872   3.144   6.148
 1805SOL    HW1 6314   4.775   3.165   6.147
 1805SOL    HW2 6315   4.886   3.051   6.113
 1806SOL     OW 6316   0.820   0.082   1.308
 1806SOL    HW1 6317   0.862   0.018   1.243
 1806SOL    HW2 6318   0.803   0.036   1.395
 1807SOL     OW 6319   6.192   1.519   4.939
 1807SOL    HW1 6320   6.265   1.563   4.990
 1807SOL    HW2 6321   6.228   1.438   4.892
 1808SOL     OW 6322   1.096   4.925   4.260
 1808SOL    HW1 6323   1.068   4.830   4.252
 1808SOL    HW2 6324   1.170   4.945   4.195
 1809SOL     OW 6325   3.423   1.565   5.856
 1809SOL    HW1 6326   3.354   1.627   5.893
 1809SOL    HW2 6327   3.485   1.615   5.797
 1810SOL     OW 6328   2.707   6.410   2.949
 1810SOL    HW1 6329   2.804   6.393   2.969
 1810SOL    HW2 6330   2.700   6.493   2.893
 1811SOL     OW 6331   5.963   5.525   3.316
 1811SOL    HW1 6332   5.893   5.578   3.363
 1811SOL    HW2 6333   6.002   5.458   3.380
 1812SOL     OW 6334   4.190   5.622   6.529
 1812SOL    HW1 6335   4.105   5.575   6.505
 1812SOL    HW2 6336   4.168   5.713   6.563
 1813SOL     OW 6337   6.395   4.914   6.857
 1813SOL    HW1 6338   6.316   4.937   6.800
 1813SOL    HW2 6339   6.471   4.974   6.835
 1814SOL     OW 6340   4.446   6.588   2.630
 1814SOL    HW1 6341   4.420   6.616   2.722
 1814SOL    HW2 6342   4.495   6.663   2.585
 1815SOL     OW 6343   0.104   0.151   3.308
 1815SOL    HW1 6344   0.021   0.158   3.254
 1815SOL    HW2 6345   0.181   0.188   3.256
 1816SOL     OW 6346   1.250   4.212   0.403
 1816SOL    HW1 6347   1.277   4.247   0.493
 1816SOL    HW2 6348   1.290   4.122   0.389
 1817SOL     OW 6349   2.160   5.596   2.186
 1817SOL    HW1 6350   2.217   5.592   2.268
 1817SOL    HW2 6351   2.183   5.519   2.126
 1818SOL     OW 6352   1.666   1.109   3.361
 1818SOL    HW1 6353   1.684   1.044   3.288
 1818SOL    HW2 6354   1.752   1.141   3.400
 1819SOL     OW 6355   1.618   4.815   1.537
 1819SOL    HW1 6356   1.669   4.860   1.463
 1819SOL    HW2 6357   1.626   4.868   1.621
 1820SOL     OW 6358   4.805   0.456   2.726
 1820SOL    HW1 6359   4.858   0.403   2.792
 1820SOL    HW2 6360   4.810   0.553   2.750
 1821SOL     OW 6361   2.955   2.157   2.595
 1821SOL    HW1 6362   2.971   2.224   2.667
 1821SOL    HW2 6363   2.857   2.144   2.582
 1822SOL     OW 6364   3.245   3.330   1.630
 1822SOL    HW1 6365   3.156   3.301   1.595
 1822SOL    HW2 6366   3.283   3.259   1.689
 1823SOL     OW 6367   4.180   6.617   2.506
 1823SOL    HW1 6368   4.268   6.601   2.551
 1823SOL    HW2 6369   4.170   6.715   2.487
 1824SOL     OW 6370   5.095   2.808   1.300
 1824SOL    HW1 6371   5.162   2.847   1.364
 1824SOL    HW2 6372   5.033   2.880   1.268
 1825SOL     OW 6373   1.365   0.661   1.856
 1825SOL    HW1 6374   1.312   0.583   1.890
 1825SOL    HW2 6375   1.332   0.745   1.899
 1826SOL     OW 6376   3.520   6.715   6.656
 1826SOL    HW1 6377   3.537   6.628   6.702
 1826SOL    HW2 6378   3.566   6.789   6.705
 1827SOL     OW 6379   0.237   6.259   1.886
 1827SOL    HW1 6380   0.255   6.196   1.961
 1827SOL    HW2 6381   0.241   6.353   1.920
 1828SOL     OW 6382   0.853   2.450   6.313
 1828SOL    HW1 6383   0.909   2.528   6.341
 1828SOL    HW2 6384   0.830   2.459   6.216
 1829SOL     OW 6385   5.343   5.680   2.637
 1829SOL    HW1 6386   5.325   5.772   2.600
 1829SOL    HW2 6387   5.281   5.663   2.714
 1830SOL     OW 6388   4.510   6.246   3.376
 1830SOL    HW1 6389   4.524   6.327   3.434
 1830SOL    HW2 6390   4.580   6.244   3.305
 1831SOL     OW 6391   4.862   6.648   2.170
 1831SOL    HW1 6392   4.872   6.719   2.100
 1831SOL    HW2 6393   4.938   6.655   2.235
 1832SOL     OW 6394   4.538   2.947   0.895
 1832SOL    HW1 6395   4.536   2.864   0.951
 1832SOL    HW2 6396   4.601   3.013   0.936
 1833SOL     OW 6397   5.248   1.026   5.090
 1833SOL    HW1 6398   5.196   1.051   5.172
 1833SOL    HW2 6399   5.201   1.062   5.009
 1834SOL     OW 6400   3.063   3.377   0.948
 1834SOL    HW1 6401   3.132   3.428   1.000
 1834SOL    HW2 6402   3.100   3.353   0.858
 1835SOL     OW 6403   1.639   5.260   0.774
 1835SOL    HW1 6404   1.600   5.246   0.865
 1835SOL    HW2 6405   1.650   5.172   0.728
 1836SOL     OW 6406   0.417   6.691   0.830
 1836SOL    HW1 6407   0.411   6.615   0.894
 1836SOL    HW2 6408   0.497   6.747   0.853
 1837SOL     OW 6409   1.047   2.133   4.732
 1837SOL    HW1 6410   0.991   2.142   4.650
 1837SOL    HW2 6411   1.118   2.204   4.732
 1838SOL     OW 6412   6.755   2.415   4.372
 1838SOL    HW1 6413   6.715   2.492   4.323
 1838SOL    HW2 6414   6.715   2.410   4.464
 1839SOL     OW 6415   6.955   2.475   5.473
 1839SOL    HW1 6416   0.002   2.545   5.451
 1839SOL    HW2 6417   7.001   2.390   5.496
 1840SOL     OW 6418   2.279   6.123   0.530
 1840SOL    HW1 6419   2.265   6.211   0.574
 1840SOL    HW2 6420   2.362   6.081   0.565
 1841SOL     OW 6421   2.139   2.915   3.170
 1841SOL    HW1 6422   2.055   2.866   3.195
 1841SOL    HW2 6423   2.164   2.978   3.243
 1842SOL     OW 6424   0.694   5.119   0.334
 1842SOL    HW1 6425   0.736   5.072   0.411
 1842SOL    HW2 6426   0.694   5.218   0.350
 1843SOL     OW 6427   2.788   1.829   4.826
 1843SOL    HW1 6428   2.756   1.834   4.920
 1843SOL    HW2 6429   2.857   1.757   4.817
 1844SOL     OW 6430   4.441   2.338   3.886
 1844SOL    HW1 6431   4.465   2.411   3.822
 1844SOL    HW2 6432   4.524   2.288   3.911
 1845SOL     OW 6433   4.534   0.429   0.266
 1845SOL    HW1 6434   4.550   0.493   0.341
 1845SOL    HW2 6435   4.450   0.377   0.283
 1846SOL     OW 6436   3.034   1.630   5.600
 1846SOL    HW1 6437   2.996   1.722   5.594
 1846SOL    HW2 6438   3.070   1.603   5.510
 1847SOL     OW 6439   0.203   0.699   0.821
 1847SOL    HW1 6440   0.284   0.721   0.766
 1847SOL    HW2 6441   0.129   0.669   0.761
 1848SOL     OW 6442   2.855   6.702   1.991
 1848SOL    HW1 6443   2.810   6.789   1.974
 1848SOL    HW2 6444   2.868   6.689   2.089
 1849SOL     OW 6445   3.273   1.571   6.268
 1849SOL    HW1 6446   3.191   1.527   6.306
 1849SOL    HW2 6447   3.301   1.645   6.329
 1850SOL     OW 6448   6.304   2.517   2.581
 1850SOL    HW1 6449   6.263   2.426   2.585
 1850SOL    HW2 6450   6.302   2.550   2.487
 1851SOL     OW 6451   0.152   2.793   2.813
 1851SOL    HW1 6452   0.252   2.785   2.807
 1851SOL    HW2 6453   0.117   2.721   2.873
 1852SOL     OW 6454   4.684   3.138   0.346
 1852SOL    HW1 6455   4.750   3.087   0.290
 1852SOL    HW2 6456   4.701   3.121   0.442
 1853SOL     OW 6457   0.898   4.645   0.831
 1853SOL    HW1 6458   0.945   4.587   0.897
 1853SOL    HW2 6459   0.965   4.693   0.775
 1854SOL     OW 6460   2.729   5.562   4.933
 1854SOL    HW1 6461   2.736   5.534   5.029
 1854SOL    HW2 6462   2.693   5.655   4.929
 1855SOL     OW 6463   5.287   4.924   0.846
 1855SOL    HW1 6464   5.218   4.858   0.818
 1855SOL    HW2 6465   5.316   4.979   0.767
 1856SOL     OW 6466   5.338   2.407   5.141
 1856SOL    HW1 6467   5.415   2.454   5.098
 1856SOL    HW2 6468   5.256   2.463   5.134
 1857SOL     OW 6469   4.257   0.836   3.504
 1857SOL    HW1 6470   4.208   0.762   3.551
 1857SOL    HW2 6471   4.286   0.804   3.414
 1858SOL     OW 6472   4.966   3.461   3.884
 1858SOL    HW1 6473   4.986   3.538   3.945
 1858SOL    HW2 6474   4.965   3.377   3.937
 1859SOL     OW 6475   4.878   2.017   3.057
 1859SOL    HW1 6476   4.886   2.110   3.020
 1859SOL    HW2 6477   4.880   2.021   3.157
 1860SOL     OW 6478   5.324   0.906   4.683
 1860SOL    HW1 6479   5.422   0.911   4.664
 1860SOL    HW2 6480   5.287   0.820   4.647
 1861SOL     OW 6481   5.075   6.446   2.992
 1861SOL    HW1 6482   5.113   6.369   2.941
 1861SOL    HW2 6483   5.011   6.496   2.934
 1862SOL     OW 6484   2.131   1.665   0.453
 1862SOL    HW1 6485   2.048   1.681   0.399
 1862SOL    HW2 6486   2.203   1.628   0.394
 1863SOL     OW 6487   3.178   2.916   1.185
 1863SOL    HW1 6488   3.212   2.921   1.091
 1863SOL    HW2 6489   3.159   2.820   1.208
 1864SOL     OW 6490   1.488   6.783   4.404
 1864SOL    HW1 6491   1.445   6.736   4.481
 1864SOL    HW2 6492   1.432   6.861   4.376
 1865SOL     OW 6493   4.762   2.505   6.392
 1865SOL    HW1 6494   4.671   2.542   6.378
 1865SOL    HW2 6495   4.767   2.413   6.353
 1866SOL     OW 6496   4.819   4.693   2.483
 1866SOL    HW1 6497   4.853   4.651   2.567
 1866SOL    HW2 6498   4.724   4.665   2.469
 1867SOL     OW 6499   0.846   4.179   6.995
 1867SOL    HW1 6500   0.858   4.082   7.017
 1867SOL    HW2 6501   0.832   4.231   0.059
 1868SOL     OW 6502   6.012   4.685   5.800
 1868SOL    HW1 6503   6.047   4.638   5.880
 1868SOL    HW2 6504   5.913   4.699   5.809
 1869SOL     OW 6505   6.433   0.839   5.267
 1869SOL    HW1 6506   6.437   0.878   5.359
 1869SOL    HW2 6507   6.353   0.875   5.219
 1870SOL     OW 6508   1.574   5.873   4.249
 1870SOL    HW1 6509   1.640   5.834   4.184
 1870SOL    HW2 6510   1.621   5.938   4.309
 1871SOL     OW 6511   1.934   0.394   0.988
 1871SOL    HW1 6512   1.871   0.432   1.056
 1871SOL    HW2 6513   1.954   0.299   1.011
 1872SOL     OW 6514   2.296   4.332   0.149
 1872SOL    HW1 6515   2.388   4.372   0.153
 1872SOL    HW2 6516   2.288   4.276   0.066
 1873SOL     OW 6517   4.944   1.549   6.581
 1873SOL    HW1 6518   4.851   1.581   6.596
 1873SOL    HW2 6519   4.943   1.474   6.514
 1874SOL     OW 6520   0.987   2.148   2.685
 1874SOL    HW1 6521   1.073   2.178   2.726
 1874SOL    HW2 6522   0.925   2.115   2.757
 1875SOL     OW 6523   1.276   6.458   6.566
 1875SOL    HW1 6524   1.207   6.505   6.510
 1875SOL    HW2 6525   1.265   6.359   6.557
 1876SOL     OW 6526   2.678   0.028   4.127
 1876SOL    HW1 6527   2.766   0.049   4.170
 1876SOL    HW2 6528   2.692   0.003   4.031
 1877SOL     OW 6529   0.432   0.167   3.363
 1877SOL    HW1 6530   0.400   0.108   3.289
 1877SOL    HW2 6531   0.404   0.129   3.451
 1878SOL     OW 6532   6.270   2.569   4.899
 1878SOL    HW1 6533   6.207   2.492   4.911
 1878SOL    HW2 6534   6.227   2.653   4.932
 1879SOL     OW 6535   1.420   3.645   5.465
 1879SOL    HW1 6536   1.490   3.669   5.398
 1879SOL    HW2 6537   1.336   3.695   5.445
 1880SOL     OW 6538   6.092   0.738   5.796
 1880SOL    HW1 6539   6.159   0.766   5.727
 1880SOL    HW2 6540   6.018   0.687   5.752
 1881SOL     OW 6541   6.425   2.268   0.642
 1881SOL    HW1 6542   6.383   2.344   0.691
 1881SOL    HW2 6543   6.525   2.281   0.639
 1882SOL     OW 6544   0.471   4.108   6.256
 1882SOL    HW1 6545   0.398   4.079   6.195
 1882SOL    HW2 6546   0.545   4.151   6.203
 1883SOL     OW 6547   0.193   2.329   3.780
 1883SOL    HW1 6548   0.182   2.332   3.880
 1883SOL    HW2 6549   0.272   2.273   3.757
 1884SOL     OW 6550   0.323   2.527   1.452
 1884SOL    HW1 6551   0.404   2.507   1.507
 1884SOL    HW2 6552   0.321   2.625   1.428
 1885SOL     OW 6553   2.212   1.820   5.307
 1885SOL    HW1 6554   2.184   1.742   5.251
 1885SOL    HW2 6555   2.154   1.898   5.286
 1886SOL     OW 6556   0.988   6.415   3.210
 1886SOL    HW1 6557   0.903   6.378   3.173
 1886SOL    HW2 6558   1.055   6.341   3.220
 1887SOL     OW 6559   1.381   5.900   6.769
 1887SOL    HW1 6560   1.458   5.914   6.831
 1887SOL    HW2 6561   1.410   5.844   6.691
 1888SOL     OW 6562   2.349   0.890   1.507
 1888SOL    HW1 6563   2.390   0.958   1.446
 1888SOL    HW2 6564   2.402   0.806   1.503
 1889SOL     OW 6565   0.983   3.165   3.477
 1889SOL    HW1 6566   1.038   3.124   3.550
 1889SOL    HW2 6567   1.030   3.153   3.390
 1890SOL     OW 6568   0.496   6.180   3.271
 1890SOL    HW1 6569   0.423   6.208   3.208
 1890SOL    HW2 6570   0.471   6.093   3.314
 1891SOL     OW 6571   4.034   3.731   2.962
 1891SOL    HW1 6572   4.019   3.747   3.059
 1891SOL    HW2 6573   4.018   3.816   2.911
 1892SOL     OW 6574   0.576   0.818   2.198
 1892SOL    HW1 6575   0.569   0.916   2.179
 1892SOL    HW2 6576   0.498   0.770   2.157
 1893SOL     OW 6577   3.337   3.269   3.677
 1893SOL    HW1 6578   3.416   3.326   3.655
 1893SOL    HW2 6579   3.279   3.259   3.597
 1894SOL     OW 6580   3.349   4.195   4.631
 1894SOL    HW1 6581   3.413   4.236   4.567
 1894SOL    HW2 6582   3.299   4.121   4.586
 1895SOL     OW 6583   2.932   6.453   6.977
 1895SOL    HW1 6584   2.925   6.515   6.899
 1895SOL    HW2 6585   2.844   6.450   0.005
 1896SOL     OW 6586   5.437   2.330   1.332
 1896SOL    HW1 6587   5.400   2.405   1.386
 1896SOL    HW2 6588   5.384   2.247   1.350
 1897SOL     OW 6589   1.831   5.043   3.887
 1897SOL    HW1 6590   1.783   5.114   3.938
 1897SOL    HW2 6591   1.929   5.055   3.898
 1898SOL     OW 6592   1.541   6.009   3.479
 1898SOL    HW1 6593   1.569   6.001   3.383
 1898SOL    HW2 6594   1.480   6.088   3.489
 1899SOL     OW 6595   0.198   0.341   2.214
 1899SOL    HW1 6596   0.127   0.278   2.181
 1899SOL    HW2 6597   0.187   0.354   2.313
 1900SOL     OW 6598   2.930   6.781   0.292
 1900SOL    HW1 6599   2.964   6.688   0.277
 1900SOL    HW2 6600   2.982   6.823   0.367
 1901SOL     OW 6601   2.678   3.819   1.231
 1901SOL    HW1 6602   2.647   3.827   1.326
 1901SOL    HW2 6603   2.710   3.725   1.215
 1902SOL     OW 6604   1.309   6.390   4.408
 1902SOL    HW1 6605   1.342   6.449   4.334
 1902SOL    HW2 6606   1.342   6.424   4.496
 1903SOL     OW 6607   1.494   2.452   4.579
 1903SOL    HW1 6608   1.558   2.494   4.515
 1903SOL    HW2 6609   1.492   2.504   4.664
 1904SOL     OW 6610   5.179   5.427   2.544
 1904SOL    HW1 6611   5.261   5.371   2.557
 1904SOL    HW2 6612   5.204   5.513   2.499
 1905SOL     OW 6613   6.696   0.263   3.852
 1905SOL    HW1 6614   6.689   0.350   3.803
 1905SOL    HW2 6615   6.640   0.267   3.935
 1906SOL     OW 6616   2.277   0.134   5.242
 1906SOL    HW1 6617   2.358   0.166   5.291
 1906SOL    HW2 6618   2.303   0.094   5.155
 1907SOL     OW 6619   5.604   2.451   0.372
 1907SOL    HW1 6620   5.571   2.465   0.465
 1907SOL    HW2 6621   5.682   2.512   0.354
 1908SOL     OW 6622   3.602   1.153   1.219
 1908SOL    HW1 6623   3.578   1.237   1.171
 1908SOL    HW2 6624   3.519   1.111   1.257
 1909SOL     OW 6625   6.799   4.491   5.003
 1909SOL    HW1 6626   6.753   4.432   4.936
 1909SOL    HW2 6627   6.804   4.584   4.966
 1910SOL     OW 6628   6.692   6.441   5.652
 1910SOL    HW1 6629   6.704   6.377   5.729
 1910SOL    HW2 6630   6.605   6.489   5.663
 1911SOL     OW 6631   6.648   4.918   4.104
 1911SOL    HW1 6632   6.616   4.833   4.146
 1911SOL    HW2 6633   6.677   4.981   4.175
 1912SOL     OW 6634   2.934   5.225   2.510
 1912SOL    HW1 6635   2.912   5.154   2.444
 1912SOL    HW2 6636   2.959   5.184   2.597
 1913SOL     OW 6637   2.740   4.497   5.555
 1913SOL    HW1 6638   2.676   4.551   5.610
 1913SOL    HW2 6639   2.765   4.548   5.473
 1914SOL     OW 6640   2.511   4.204   6.346
 1914SOL    HW1 6641   2.515   4.173   6.251
 1914SOL    HW2 6642   2.444   4.149   6.396
 1915SOL     OW 6643   4.493   2.195   6.150
 1915SOL    HW1 6644   4.398   2.220   6.164
 1915SOL    HW2 6645   4.501   2.137   6.068
 1916SOL     OW 6646   3.990   0.755   2.110
 1916SOL    HW1 6647   3.926   0.817   2.064
 1916SOL    HW2 6648   3.963   0.743   2.205
 1917SOL     OW 6649   2.456   3.902   1.672
 1917SOL    HW1 6650   2.492   3.994   1.687
 1917SOL    HW2 6651   2.376   3.906   1.613
 1918SOL     OW 6652   5.808   2.433   4.061
 1918SOL    HW1 6653   5.762   2.520   4.049
 1918SOL    HW2 6654   5.870   2.438   4.140
 1919SOL     OW 6655   0.738   1.737   1.003
 1919SOL    HW1 6656   0.739   1.835   1.024
 1919SOL    HW2 6657   0.708   1.686   1.084
 1920SOL     OW 6658   5.267   2.375   0.636
 1920SOL    HW1 6659   5.208   2.439   0.586
 1920SOL    HW2 6660   5.257   2.390   0.734
 1921SOL     OW 6661   1.899   2.671   0.287
 1921SOL    HW1 6662   1.875   2.595   0.227
 1921SOL    HW2 6663   1.955   2.737   0.237
 1922SOL     OW 6664   3.353   3.363   2.564
 1922SOL    HW1 6665   3.274   3.412   2.525
 1922SOL    HW2 6666   3.321   3.286   2.618
 1923SOL     OW 6667   4.011   0.300   5.330
 1923SOL    HW1 6668   4.066   0.323   5.411
 1923SOL    HW2 6669   3.999   0.382   5.274
 1924SOL     OW 6670   4.153   0.513   0.324
 1924SOL    HW1 6671   4.063   0.500   0.365
 1924SOL    HW2 6672   4.213   0.560   0.388
 1925SOL     OW 6673   1.464   4.496   1.000
 1925SOL    HW1 6674   1.372   4.532   0.989
 1925SOL    HW2 6675   1.491   4.502   1.096
 1926SOL     OW 6676   3.590   7.015   2.173
 1926SOL    HW1 6677   3.650   6.996   2.095
 1926SOL    HW2 6678   3.618   6.960   2.251
 1927SOL     OW 6679   2.389   5.292   1.605
 1927SOL    HW1 6680   2.384   5.224   1.532
 1927SOL    HW2 6681   2.379   5.246   1.694
 1928SOL     OW 6682   5.484   4.213   2.847
 1928SOL    HW1 6683   5.529   4.251   2.927
 1928SOL    HW2 6684   5.417   4.278   2.812
 1929SOL     OW 6685   3.219   6.895   2.850
 1929SOL    HW1 6686   3.225   6.906   2.949
 1929SOL    HW2 6687   3.250   6.978   2.805
 1930SOL     OW 6688   4.765   3.306   6.550
 1930SOL    HW1 6689   4.845   3.302   6.490
 1930SOL    HW2 6690   4.735   3.213   6.572
 1931SOL     OW 6691   0.384   1.825   4.283
 1931SOL    HW1 6692   0.350   1.913   4.249
 1931SOL    HW2 6693   0.430   1.776   4.209
 1932SOL     OW 6694   4.441   2.531   1.845
 1932SOL    HW1 6695   4.502   2.539   1.924
 1932SOL    HW2 6696   4.366   2.469   1.866
 1933SOL     OW 6697   1.375   1.454   1.346
 1933SOL    HW1 6698   1.451   1.436   1.284
 1933SOL    HW2 6699   1.384   1.547   1.384
 1934SOL     OW 6700   0.338   0.249   6.516
 1934SOL    HW1 6701   0.250   0.239   6.562
 1934SOL    HW2 6702   0.387   0.327   6.555
 1935SOL     OW 6703   6.621   5.326   3.937
 1935SOL    HW1 6704   6.678   5.345   3.858
 1935SOL    HW2 6705   6.667   5.357   4.020
 1936SOL     OW 6706   4.736   2.780   5.373
 1936SOL    HW1 6707   4.699   2.706   5.429
 1936SOL    HW2 6708   4.799   2.834   5.428
 1937SOL     OW 6709   5.611   5.305   6.632
 1937SOL    HW1 6710   5.557   5.363   6.692
 1937SOL    HW2 6711   5.704   5.341   6.625
 1938SOL     OW 6712   0.337   3.081   6.400
 1938SOL    HW1 6713   0.367   3.088   6.495
 1938SOL    HW2 6714   0.338   3.172   6.358
 1939SOL     OW 6715   1.002   0.296   4.712
 1939SOL    HW1 6716   1.052   0.380   4.691
 1939SOL    HW2 6717   1.056   0.241   4.777
 1940SOL     OW 6718   6.723   4.947   0.674
 1940SOL    HW1 6719   6.787   5.009   0.720
 1940SOL    HW2 6720   6.640   4.938   0.729
 1941SOL     OW 6721   6.208   1.939   4.041
 1941SOL    HW1 6722   6.184   1.929   3.944
 1941SOL    HW2 6723   6.263   2.022   4.053
 1942SOL     OW 6724   6.205   3.801   2.669
 1942SOL    HW1 6725   6.281   3.740   2.687
 1942SOL    HW2 6726   6.240   3.893   2.650
 1943SOL     OW 6727   0.865   1.586   2.852
 1943SOL    HW1 6728   0.944   1.598   2.913
 1943SOL    HW2 6729   0.789   1.641   2.886
 1944SOL     OW 6730   0.004   2.794   3.355
 1944SOL    HW1 6731   6.962   2.734   3.305
 1944SOL    HW2 6732   6.977   2.829   3.436
 1945SOL     OW 6733   4.557   1.249   1.913
 1945SOL    HW1 6734   4.612   1.231   1.832
 1945SOL    HW2 6735   4.581   1.338   1.951
 1946SOL     OW 6736   6.026   5.242   1.326
 1946SOL    HW1 6737   6.122   5.222   1.345
 1946SOL    HW2 6738   5.976   5.255   1.412
 1947SOL     OW 6739   5.967   4.853   3.564
 1947SOL    HW1 6740   6.019   4.796   3.627
 1947SOL    HW2 6741   5.872   4.860   3.594
 1948SOL     OW 6742   4.959   3.559   3.253
 1948SOL    HW1 6743   4.948   3.633   3.186
 1948SOL    HW2 6744   4.890   3.568   3.325
 1949SOL     OW 6745   4.112   4.488   0.113
 1949SOL    HW1 6746   4.043   4.416   0.117
 1949SOL    HW2 6747   4.124   4.518   0.019
 1950SOL     OW 6748   2.979   3.823   3.431
 1950SOL    HW1 6749   2.929   3.754   3.483
 1950SOL    HW2 6750   3.029   3.882   3.494
 1951SOL     OW 6751   6.253   5.276   5.476
 1951SOL    HW1 6752   6.280   5.305   5.568
 1951SOL    HW2 6753   6.195   5.196   5.481
 1952SOL     OW 6754   6.116   4.984   0.391
 1952SOL    HW1 6755   6.206   5.024   0.408
 1952SOL    HW2 6756   6.118   4.933   0.306
 1953SOL     OW 6757   0.735   0.969   6.751
 1953SOL    HW1 6758   0.649   0.970   6.801
 1953SOL    HW2 6759   0.793   0.895   6.786
 1954SOL     OW 6760   4.062   6.831   1.870
 1954SOL    HW1 6761   4.018   6.742   1.858
 1954SOL    HW2 6762   3.993   6.898   1.900
 1955SOL     OW 6763   0.021   2.196   3.251
 1955SOL    HW1 6764   0.081   2.233   3.322
 1955SOL    HW2 6765   7.007   2.106   3.279
 1956SOL     OW 6766   5.750   0.306   1.917
 1956SOL    HW1 6767   5.794   0.391   1.888
 1956SOL    HW2 6768   5.661   0.297   1.873
 1957SOL     OW 6769   5.584   2.027   4.411
 1957SOL    HW1 6770   5.672   2.064   4.441
 1957SOL    HW2 6771   5.579   2.029   4.311
 1958SOL     OW 6772   4.628   2.266   0.927
 1958SOL    HW1 6773   4.544   2.214   0.935
 1958SOL    HW2 6774   4.608   2.356   0.888
 1959SOL     OW 6775   0.387   0.677   4.810
 1959SOL    HW1 6776   0.469   0.734   4.808
 1959SOL    HW2 6777   0.318   0.720   4.868
 1960SOL     OW 6778   6.072   4.480   3.979
 1960SOL    HW1 6779   6.136   4.465   4.054
 1960SOL    HW2 6780   6.075   4.402   3.916
 1961SOL     OW 6781   0.015   3.850   4.184
 1961SOL    HW1 6782   7.000   3.938   4.153
 1961SOL    HW2 6783   0.032   3.854   4.282
 1962SOL     OW 6784   0.988   0.544   2.555
 1962SOL    HW1 6785   1.053   0.594   2.497
 1962SOL    HW2 6786   0.915   0.507   2.498
 1963SOL     OW 6787   0.416   2.848   0.993
 1963SOL    HW1 6788   0.363   2.931   1.012
 1963SOL    HW2 6789   0.441   2.804   1.080
 1964SOL     OW 6790   6.196   3.666   1.130
 1964SOL    HW1 6791   6.234   3.576   1.153
 1964SOL    HW2 6792   6.141   3.659   1.047
 1965SOL     OW 6793   6.749   4.541   3.972
 1965SOL    HW1 6794   6.688   4.602   3.923
 1965SOL    HW2 6795   6.731   4.446   3.944
 1966SOL     OW 6796   1.393   5.117   0.263
 1966SOL    HW1 6797   1.443   5.033   0.283
 1966SOL    HW2 6798   1.408   5.183   0.337
 1967SOL     OW 6799   6.326   3.382   3.832
 1967SOL    HW1 6800   6.275   3.434   3.901
 1967SOL    HW2 6801   6.274   3.379   3.747
 1968SOL     OW 6802   2.865   1.265   5.063
 1968SOL    HW1 6803   2.893   1.361   5.063
 1968SOL    HW2 6804   2.766   1.259   5.061
 1969SOL     OW 6805   2.751   6.725   6.900
 1969SOL    HW1 6806   2.842   6.767   6.893
 1969SOL    HW2 6807   2.686   6.792   6.936
 1970SOL     OW 6808   5.898   5.461   4.775
 1970SOL    HW1 6809   5.929   5.530   4.710
 1970SOL    HW2 6810   5.828   5.404   4.732
 1971SOL     OW 6811   1.790   5.704   4.958
 1971SOL    HW1 6812   1.732   5.778   4.993
 1971SOL    HW2 6813   1.867   5.690   5.020
 1972SOL     OW 6814   6.106   3.068   2.808
 1972SOL    HW1 6815   6.015   3.109   2.804
 1972SOL    HW2 6816   6.112   2.994   2.741
 1973SOL     OW 6817   2.497   2.978   0.230
 1973SOL    HW1 6818   2.452   2.911   0.290
 1973SOL    HW2 6819   2.460   3.069   0.249
 1974SOL     OW 6820   2.921   6.442   5.255
 1974SOL    HW1 6821   2.950   6.526   5.302
 1974SOL    HW2 6822   2.995   6.376   5.255
 1975SOL     OW 6823   1.916   2.950   3.576
 1975SOL    HW1 6824   1.820   2.920   3.581
 1975SOL    HW2 6825   1.974   2.871   3.557
 1976SOL     OW 6826   0.234   0.076   6.328
 1976SOL    HW1 6827   0.284   0.057   6.244
 1976SOL    HW2 6828   0.290   0.134   6.388
 1977SOL     OW 6829   2.211   4.292   5.664
 1977SOL    HW1 6830   2.285   4.251   5.611
 1977SOL    HW2 6831   2.249   4.348   5.737
 1978SOL     OW 6832   2.591   0.161   1.321
 1978SOL    HW1 6833   2.629   0.086   1.376
 1978SOL    HW2 6834   2.558   0.124   1.234
 1979SOL     OW 6835   0.012   4.879   6.271
 1979SOL    HW1 6836   0.072   4.939   6.325
 1979SOL    HW2 6837   0.031   4.784   6.294
 1980SOL     OW 6838   3.521   1.810   0.479
 1980SOL    HW1 6839   3.557   1.903   0.484
 1980SOL    HW2 6840   3.581   1.754   0.423
 1981SOL     OW 6841   3.044   2.206   2.854
 1981SOL    HW1 6842   3.080   2.131   2.800
 1981SOL    HW2 6843   3.116   2.274   2.868
 1982SOL     OW 6844   0.871   2.610   5.184
 1982SOL    HW1 6845   0.845   2.665   5.263
 1982SOL    HW2 6846   0.936   2.660   5.127
 1983SOL     OW 6847   0.028   0.586   2.373
 1983SOL    HW1 6848   0.043   0.683   2.392
 1983SOL    HW2 6849   0.047   0.568   2.276
 1984SOL     OW 6850   4.657   2.936   5.868
 1984SOL    HW1 6851   4.698   2.873   5.934
 1984SOL    HW2 6852   4.606   2.885   5.799
 1985SOL     OW 6853   6.343   3.684   2.341
 1985SOL    HW1 6854   6.249   3.713   2.356
 1985SOL    HW2 6855   6.378   3.639   2.423
 1986SOL     OW 6856   3.989   2.723   1.724
 1986SOL    HW1 6857   3.972   2.644   1.665
 1986SOL    HW2 6858   4.087   2.744   1.725
 1987SOL     OW 6859   2.924   1.200   1.258
 1987SOL    HW1 6860   2.885   1.224   1.347
 1987SOL    HW2 6861   2.870   1.242   1.185
 1988SOL     OW 6862   0.149   2.224   1.783
 1988SOL    HW1 6863   0.120   2.316   1.755
 1988SOL    HW2 6864   0.124   2.210   1.879
 1989SOL     OW 6865   2.600   4.981   4.633
 1989SOL    HW1 6866   2.697   4.957   4.644
 1989SOL    HW2 6867   2.587   5.029   4.547
 1990SOL     OW 6868   3.762   6.977   0.377
 1990SOL    HW1 6869   3.690   6.936   0.321
 1990SOL    HW2 6870   3.831   7.018   0.317
 1991SOL     OW 6871   2.679   5.092   0.919
 1991SOL    HW1 6872   2.708   5.000   0.891
 1991SOL    HW2 6873   2.649   5.090   1.014
 1992SOL     OW 6874   0.406   6.496   1.519
 1992SOL    HW1 6875   0.350   6.528   1.443
 1992SOL    HW2 6876   0.393   6.556   1.598
 1993SOL     OW 6877   2.497   2.609   3.394
 1993SOL    HW1 6878   2.455   2.674   3.330
 1993SOL    HW2 6879   2.494   2.647   3.487
 1994SOL     OW 6880   3.302   2.682   0.562
 1994SOL    HW1 6881   3.285   2.775   0.530
 1994SOL    HW2 6882   3.229   2.622   0.532
 1995SOL     OW 6883   5.910   1.807   3.977
 1995SOL    HW1 6884   5.930   1.756   4.061
 1995SOL    HW2 6885   5.886   1.901   4.000
 1996SOL     OW 6886   3.733   1.394   0.945
 1996SOL    HW1 6887   3.701   1.335   0.871
 1996SOL    HW2 6888   3.656   1.420   1.003
 1997SOL     OW 6889   3.954   0.184   4.211
 1997SOL    HW1 6890   3.940   0.281   4.228
 1997SOL    HW2 6891   3.875   0.133   4.244
 1998SOL     OW 6892   2.095   3.977   1.733
 1998SOL    HW1 6893   2.122   3.904   1.796
 1998SOL    HW2 6894   2.064   4.057   1.784
 1999SOL     OW 6895   1.546   0.123   0.103
 1999SOL    HW1 6896   1.545   0.026   0.077
 1999SOL    HW2 6897   1.602   0.135   0.185
 2000SOL     OW 6898   3.670   4.258   5.806
 2000SOL    HW1 6899   3.717   4.178   5.841
 2000SOL    HW2 6900   3.730   4.338   5.812
 2001SOL     OW 6901   1.909   2.094   0.661
 2001SOL    HW1 6902   1.814   2.106   0.633
 2001SOL    HW2 6903   1.930   1.996   0.665
 2002SOL     OW 6904   0.098   5.041   0.574
 2002SOL    HW1 6905   0.042   5.097   0.636
 2002SOL    HW2 6906   0.076   5.065   0.479
 2003SOL     OW 6907   6.574   4.990   2.925
 2003SOL    HW1 6908   6.569   5.082   2.887
 2003SOL    HW2 6909   6.545   4.924   2.855
 2004SOL     OW 6910   3.388   6.848   3.469
 2004SOL    HW1 6911   3.298   6.889   3.461
 2004SOL    HW2 6912   3.458   6.917   3.450
 2005SOL     OW 6913   1.594   6.292   0.303
 2005SOL    HW1 6914   1.671   6.230   0.316
 2005SOL    HW2 6915   1.609   6.348   0.222
 2006SOL     OW 6916   5.715   6.119   2.529
 2006SOL    HW1 6917   5.783   6.191   2.540
 2006SOL    HW2 6918   5.707   6.067   2.614
 2007SOL     OW 6919   5.481   4.762   6.776
 2007SOL    HW1 6920   5.407   4.698   6.794
 2007SOL    HW2 6921   5.543   4.764   6.853
 2008SOL     OW 6922   1.662   3.589   4.054
 2008SOL    HW1 6923   1.697   3.682   4.066
 2008SOL    HW2 6924   1.567   3.594   4.022
 2009SOL     OW 6925   6.158   0.169   2.907
 2009SOL    HW1 6926   6.195   0.078   2.885
 2009SOL    HW2 6927   6.064   0.159   2.939
 2010SOL     OW 6928   1.043   2.002   1.351
 2010SOL    HW1 6929   1.042   2.101   1.368
 2010SOL    HW2 6930   1.015   1.954   1.434
 2011SOL     OW 6931   1.005   6.651   5.619
 2011SOL    HW1 6932   0.999   6.751   5.610
 2011SOL    HW2 6933   0.993   6.626   5.715
 2012SOL     OW 6934   1.658   3.240   2.106
 2012SOL    HW1 6935   1.576   3.265   2.056
 2012SOL    HW2 6936   1.722   3.317   2.106
 2013SOL     OW 6937   0.791   3.451   2.256
 2013SOL    HW1 6938   0.886   3.429   2.276
 2013SOL    HW2 6939   0.739   3.458   2.341
 2014SOL     OW 6940   3.810   0.607   4.614
 2014SOL    HW1 6941   3.770   0.672   4.679
 2014SOL    HW2 6942   3.904   0.634   4.594
 2015SOL     OW 6943   4.436   0.671   2.114
 2015SOL    HW1 6944   4.528   0.676   2.153
 2015SOL    HW2 6945   4.390   0.589   2.146
 2016SOL     OW 6946   1.751   0.643   4.961
 2016SOL    HW1 6947   1.723   0.647   5.057
 2016SOL    HW2 6948   1.711   0.721   4.912
 2017SOL     OW 6949   3.847   6.315   3.261
 2017SOL    HW1 6950   3.786   6.248   3.219
 2017SOL    HW2 6951   3.924   6.332   3.200
 2018SOL     OW 6952   1.328   0.904   3.979
 2018SOL    HW1 6953   1.349   0.908   3.881
 2018SOL    HW2 6954   1.253   0.968   3.999
 2019SOL     OW 6955   5.865   5.402   6.349
 2019SOL    HW1 6956   5.837   5.306   6.349
 2019SOL    HW2 6957   5.819   5.450   6.424
 2020SOL     OW 6958   1.761   6.157   6.872
 2020SOL    HW1 6959   1.805   6.245   6.894
 2020SOL    HW2 6960   1.665   6.174   6.848
 2021SOL     OW 6961   6.897   5.828   4.360
 2021SOL    HW1 6962   6.940   5.749   4.403
 2021SOL    HW2 6963   6.869   5.805   4.267
 2022SOL     OW 6964   2.057   4.253   4.694
 2022SOL    HW1 6965   1.982   4.186   4.697
 2022SOL    HW2 6966   2.020   4.345   4.694
 2023SOL     OW 6967   6.657   6.706   0.518
 2023SOL    HW1 6968   6.671   6.623   0.464
 2023SOL    HW2 6969   6.671   6.686   0.615
 2024SOL     OW 6970   0.474   6.127   4.803
 2024SOL    HW1 6971   0.403   6.062   4.777
 2024SOL    HW2 6972   0.453   6.165   4.893
 2025SOL     OW 6973   1.570   6.406   4.231
 2025SOL    HW1 6974   1.601   6.320   4.191
 2025SOL    HW2 6975   1.609   6.416   4.323
 2026SOL     OW 6976   6.850   0.267   5.979
 2026SOL    HW1 6977   6.877   0.275   6.075
 2026SOL    HW2 6978   6.930   0.245   5.924
 2027SOL     OW 6979   6.643   5.964   1.941
 2027SOL    HW1 6980   6.638   5.873   1.981
 2027SOL    HW2 6981   6.591   6.029   1.998
 2028SOL     OW 6982   2.832   5.444   4.282
 2028SOL    HW1 6983   2.786   5.394   4.209
 2028SOL    HW2 6984   2.768   5.462   4.356
 2029SOL     OW 6985   6.574   2.519   6.694
 2029SOL    HW1 6986   6.641   2.556   6.629
 2029SOL    HW2 6987   6.622   2.485   6.775
 2030SOL     OW 6988   1.963   6.996   1.821
 2030SOL    HW1 6989   2.048   0.007   1.778
 2030SOL    HW2 6990   1.886   7.014   1.759
 2031SOL     OW 6991   6.984   6.120   4.356
 2031SOL    HW1 6992   6.976   6.022   4.373
 2031SOL    HW2 6993   7.007   6.134   4.259
 2032SOL     OW 6994   2.632   1.912   6.127
 2032SOL    HW1 6995   2.582   1.826   6.132
 2032SOL    HW2 6996   2.583   1.982   6.179
 2033SOL     OW 6997   2.611   2.100   0.984
 2033SOL    HW1 6998   2.650   2.056   0.903
 2033SOL    HW2 6999   2.572   2.030   1.044
 2034SOL     OW 7000   0.004   3.981   4.552
 2034SOL    HW1 7001   0.007   3.935   4.641
 2034SOL    HW2 7002   0.077   3.947   4.494
 2035SOL     OW 7003   5.374   0.105   2.750
 2035SOL    HW1 7004   5.315   0.185   2.739
 2035SOL    HW2 7005   5.449   0.110   2.684
 2036SOL     OW 7006   0.737   4.274   0.488
 2036SOL    HW1 7007   0.823   4.307   0.451
 2036SOL    HW2 7008   0.716   4.322   0.573
 2037SOL     OW 7009   0.737   2.074   6.571
 2037SOL    HW1 7010   0.648   2.082   6.616
 2037SOL    HW2 7011   0.742   1.987   6.521
 2038SOL     OW 7012   1.543   0.827   6.504
 2038SOL    HW1 7013   1.446   0.832   6.532
 2038SOL    HW2 7014   1.600   0.821   6.586
 2039SOL     OW 7015   5.516   6.328   2.926
 2039SOL    HW1 7016   5.606   6.300   2.959
 2039SOL    HW2 7017   5.494   6.276   2.843
 2040SOL     OW 7018   1.750   2.336   1.013
 2040SOL    HW1 7019   1.680   2.386   0.962
 2040SOL    HW2 7020   1.754   2.372   1.107
 2041SOL     OW 7021   2.426   0.814   6.891
 2041SOL    HW1 7022   2.412   0.716   6.882
 2041SOL    HW2 7023   2.400   0.860   6.806
 2042SOL     OW 7024   5.709   1.138   5.666
 2042SOL    HW1 7025   5.657   1.108   5.586
 2042SOL    HW2 7026   5.647   1.181   5.731
 2043SOL     OW 7027   0.634   3.931   1.208
 2043SOL    HW1 7028   0.656   3.847   1.159
 2043SOL    HW2 7029   0.624   3.911   1.306
 2044SOL     OW 7030   3.966   0.759   1.203
 2044SOL    HW1 7031   4.064   0.739   1.210
 2044SOL    HW2 7032   3.948   0.810   1.119
 2045SOL     OW 7033   1.304   6.592   4.946
 2045SOL    HW1 7034   1.285   6.547   5.034
 2045SOL    HW2 7035   1.329   6.523   4.878
 2046SOL     OW 7036   0.832   1.888   4.779
 2046SOL    HW1 7037   0.821   1.981   4.746
 2046SOL    HW2 7038   0.817   1.885   4.878
 2047SOL     OW 7039   0.411   1.108   0.717
 2047SOL    HW1 7040   0.490   1.143   0.668
 2047SOL    HW2 7041   0.352   1.058   0.654
 2048SOL     OW 7042   0.941   2.230   4.199
 2048SOL    HW1 7043   0.950   2.135   4.228
 2048SOL    HW2 7044   1.020   2.282   4.230
 2049SOL     OW 7045   4.567   1.890   4.865
 2049SOL    HW1 7046   4.573   1.990   4.874
 2049SOL    HW2 7047   4.564   1.849   4.956
 2050SOL     OW 7048   0.496   0.997   4.187
 2050SOL    HW1 7049   0.413   1.019   4.136
 2050SOL    HW2 7050   0.568   0.969   4.123
 2051SOL     OW 7051   3.011   6.882   6.888
 2051SOL    HW1 7052   3.087   6.822   6.912
 2051SOL    HW2 7053   3.024   6.917   6.795
 2052SOL     OW 7054   1.318   4.081   6.510
 2052SOL    HW1 7055   1.227   4.048   6.534
 2052SOL    HW2 7056   1.323   4.180   6.525
 2053SOL     OW 7057   0.046   6.035   3.129
 2053SOL    HW1 7058   0.014   6.130   3.132
 2053SOL    HW2 7059   0.049   6.004   3.034
 2054SOL     OW 7060   2.920   3.695   3.179
 2054SOL    HW1 7061   2.961   3.731   3.263
 2054SOL    HW2 7062   2.910   3.770   3.113
 2055SOL     OW 7063   3.371   2.549   5.647
 2055SOL    HW1 7064   3.447   2.559   5.712
 2055SOL    HW2 7065   3.302   2.487   5.685
 2056SOL     OW 7066   3.851   4.665   1.319
 2056SOL    HW1 7067   3.838   4.711   1.232
 2056SOL    HW2 7068   3.824   4.569   1.310
 2057SOL     OW 7069   4.929   2.836   4.533
 2057SOL    HW1 7070   4.844   2.817   4.582
 2057SOL    HW2 7071   5.005   2.842   4.597
 2058SOL     OW 7072   6.997   0.006   3.045
 2058SOL    HW1 7073   6.966   0.076   3.109
 2058SOL    HW2 7074   7.012   6.941   3.094
 2059SOL     OW 7075   1.005   0.819   5.217
 2059SOL    HW1 7076   0.917   0.776   5.238
 2059SOL    HW2 7077   1.076   0.780   5.276
 2060SOL     OW 7078   1.418   2.846   6.975
 2060SOL    HW1 7079   1.450   2.941   6.976
 2060SOL    HW2 7080   1.498   2.785   6.978
 2061SOL     OW 7081   1.950   2.543   2.374
 2061SOL    HW1 7082   2.039   2.503   2.351
 2061SOL    HW2 7083   1.948   2.639   2.345
 2062SOL     OW 7084   0.357   4.831   5.119
 2062SOL    HW1 7085   0.412   4.817   5.036
 2062SOL    HW2 7086   0.392   4.909   5.170
 2063SOL     OW 7087   1.190   1.514   4.741
 2063SOL    HW1 7088   1.098   1.541   4.712
 2063SOL    HW2 7089   1.194   1.513   4.841
 2064SOL     OW 7090   0.865   3.462   3.880
 2064SOL    HW1 7091   0.958   3.491   3.858
 2064SOL    HW2 7092   0.850   3.466   3.979
 2065SOL     OW 7093   4.086   3.781   5.504
 2065SOL    HW1 7094   4.163   3.768   5.566
 2065SOL    HW2 7095   4.062   3.694   5.461
 2066SOL     OW 7096   0.988   3.305   5.700
 2066SOL    HW1 7097   0.947   3.372   5.762
 2066SOL    HW2 7098   1.088   3.315   5.702
 2067SOL     OW 7099   6.397   5.257   1.504
 2067SOL    HW1 7100   6.437   5.220   1.588
 2067SOL    HW2 7101   6.402   5.357   1.506
 2068SOL     OW 7102   4.194   0.780   5.236
 2068SOL    HW1 7103   4.229   0.749   5.325
 2068SOL    HW2 7104   4.271   0.807   5.178
 2069SOL     OW 7105   0.175   1.357   3.727
 2069SOL    HW1 7106   0.274   1.364   3.744
 2069SOL    HW2 7107   0.151   1.416   3.650
 2070SOL     OW 7108   1.020   4.701   1.110
 2070SOL    HW1 7109   0.991   4.796   1.097
 2070SOL    HW2 7110   0.969   4.661   1.186
 2071SOL     OW 7111   0.100   1.751   5.622
 2071SOL    HW1 7112   0.132   1.738   5.528
 2071SOL    HW2 7113   0.000   1.760   5.622
 2072SOL     OW 7114   5.023   4.355   5.615
 2072SOL    HW1 7115   5.029   4.449   5.580
 2072SOL    HW2 7116   5.104   4.304   5.587
 2073SOL     OW 7117   2.718   5.356   6.864
 2073SOL    HW1 7118   2.716   5.455   6.846
 2073SOL    HW2 7119   2.808   5.331   6.899
 2074SOL     OW 7120   1.551   4.377   6.168
 2074SOL    HW1 7121   1.471   4.318   6.153
 2074SOL    HW2 7122   1.526   4.472   6.149
 2075SOL     OW 7123   6.260   2.807   1.272
 2075SOL    HW1 7124   6.163   2.782   1.266
 2075SOL    HW2 7125   6.314   2.725   1.292
 2076SOL     OW 7126   6.121   6.666   4.685
 2076SOL    HW1 7127   6.121   6.567   4.699
 2076SOL    HW2 7128   6.044   6.707   4.734
 2077SOL     OW 7129   6.273   4.820   1.271
 2077SOL    HW1 7130   6.332   4.744   1.298
 2077SOL    HW2 7131   6.201   4.787   1.209
 2078SOL     OW 7132   0.656   3.077   5.511
 2078SOL    HW1 7133   0.592   3.152   5.490
 2078SOL    HW2 7134   0.604   2.993   5.528
 2079SOL     OW 7135   5.122   1.060   2.461
 2079SOL    HW1 7136   5.170   1.006   2.392
 2079SOL    HW2 7137   5.056   1.121   2.415
 2080SOL     OW 7138   2.657   3.239   6.230
 2080SOL    HW1 7139   2.711   3.323   6.218
 2080SOL    HW2 7140   2.573   3.260   6.280
 2081SOL     OW 7141   6.134   5.624   2.192
 2081SOL    HW1 7142   6.058   5.646   2.252
 2081SOL    HW2 7143   6.164   5.706   2.144
 2082SOL     OW 7144   6.585   6.393   4.491
 2082SOL    HW1 7145   6.529   6.476   4.483
 2082SOL    HW2 7146   6.581   6.342   4.405
 2083SOL     OW 7147   0.330   6.751   3.722
 2083SOL    HW1 7148   0.237   6.754   3.760
 2083SOL    HW2 7149   0.373   6.664   3.745
 2084SOL     OW 7150   6.273   2.600   0.351
 2084SOL    HW1 7151   6.254   2.506   0.378
 2084SOL    HW2 7152   6.245   2.662   0.424
 2085SOL     OW 7153   5.818   5.646   1.057
 2085SOL    HW1 7154   5.745   5.591   1.016
 2085SOL    HW2 7155   5.878   5.587   1.110
 2086SOL     OW 7156   4.764   0.965   0.045
 2086SOL    HW1 7157   4.863   0.973   0.049
 2086SOL    HW2 7158   4.736   0.949   6.970
 2087SOL     OW 7159   3.924   1.444   6.772
 2087SOL    HW1 7160   3.956   1.531   6.809
 2087SOL    HW2 7161   3.989   1.371   6.794
 2088SOL     OW 7162   0.940   5.499   5.751
 2088SOL    HW1 7163   0.920   5.439   5.828
 2088SOL    HW2 7164   0.946   5.594   5.783
 2089SOL     OW 7165   2.408   3.158   6.988
 2089SOL    HW1 7166   2.498   3.186   0.001
 2089SOL    HW2 7167   2.411   3.148   6.889
 2090SOL     OW 7168   5.211   2.797   5.683
 2090SOL    HW1 7169   5.162   2.711   5.675
 2090SOL    HW2 7170   5.182   2.845   5.766
 2091SOL     OW 7171   5.365   6.481   1.284
 2091SOL    HW1 7172   5.328   6.500   1.193
 2091SOL    HW2 7173   5.310   6.528   1.353
 2092SOL     OW 7174   4.009   3.811   1.346
 2092SOL    HW1 7175   3.966   3.901   1.343
 2092SOL    HW2 7176   4.029   3.785   1.441
 2093SOL     OW 7177   4.409   1.283   1.316
 2093SOL    HW1 7178   4.320   1.302   1.275
 2093SOL    HW2 7179   4.442   1.194   1.283
 2094SOL     OW 7180   5.438   2.032   6.135
 2094SOL    HW1 7181   5.353   1.978   6.136
 2094SOL    HW2 7182   5.483   2.021   6.046
 2095SOL     OW 7183   5.156   5.903   4.148
 2095SOL    HW1 7184   5.185   5.858   4.063
 2095SOL    HW2 7185   5.186   5.849   4.226
 2096SOL     OW 7186   4.178   6.732   1.599
 2096SOL    HW1 7187   4.169   6.784   1.514
 2096SOL    HW2 7188   4.142   6.786   1.675
 2097SOL     OW 7189   0.849   5.904   6.096
 2097SOL    HW1 7190   0.853   5.936   6.191
 2097SOL    HW2 7191   0.758   5.918   6.059
 2098SOL     OW 7192   2.763   5.845   3.516
 2098SOL    HW1 7193   2.778   5.746   3.505
 2098SOL    HW2 7194   2.728   5.862   3.608
 2099SOL     OW 7195   4.684   1.612   6.617
 2099SOL    HW1 7196   4.644   1.655   6.537
 2099SOL    HW2 7197   4.617   1.607   6.691
 2100SOL     OW 7198   5.082   6.825   1.827
 2100SOL    HW1 7199   5.141   6.857   1.902
 2100SOL    HW2 7200   5.113   6.865   1.741
 2101SOL     OW 7201   0.538   0.557   2.784
 2101SOL    HW1 7202   0.608   0.576   2.853
 2101SOL    HW2 7203   0.526   0.458   2.776
 2102SOL     OW 7204   4.268   2.454   0.942
 2102SOL    HW1 7205   4.175   2.474   0.912
 2102SOL    HW2 7206   4.274   2.463   1.041
 2103SOL     OW 7207   2.195   6.424   0.236
 2103SOL    HW1 7208   2.159   6.456   0.323
 2103SOL    HW2 7209   2.120   6.391   0.179
 2104SOL     OW 7210   1.677   4.281   3.678
 2104SOL    HW1 7211   1.600   4.218   3.678
 2104SOL    HW2 7212   1.671   4.342   3.599
 2105SOL     OW 7213   5.109   6.093   4.981
 2105SOL    HW1 7214   5.206   6.100   5.002
 2105SOL    HW2 7215   5.095   6.099   4.883
 2106SOL     OW 7216   4.383   3.097   1.093
 2106SOL    HW1 7217   4.456   3.156   1.127
 2106SOL    HW2 7218   4.411   3.056   1.007
 2107SOL     OW 7219   5.338   4.675   5.030
 2107SOL    HW1 7220   5.322   4.716   5.119
 2107SOL    HW2 7221   5.436   4.671   5.012
 2108SOL     OW 7222   4.572   0.212   5.107
 2108SOL    HW1 7223   4.536   0.134   5.056
 2108SOL    HW2 7224   4.499   0.254   5.160
 2109SOL     OW 7225   2.758   6.248   1.881
 2109SOL    HW1 7226   2.839   6.299   1.909
 2109SOL    HW2 7227   2.681   6.311   1.870
 2110SOL     OW 7228   3.607   6.543   6.882
 2110SOL    HW1 7229   3.659   6.484   6.821
 2110SOL    HW2 7230   3.558   6.488   6.950
 2111SOL     OW 7231   1.367   2.452   5.806
 2111SOL    HW1 7232   1.298   2.405   5.751
 2111SOL    HW2 7233   1.400   2.532   5.757
 2112SOL     OW 7234   1.148   0.609   0.197
 2112SOL    HW1 7235   1.216   0.605   0.270
 2112SOL    HW2 7236   1.137   0.518   0.156
 2113SOL     OW 7237   6.885   1.014   4.598
 2113SOL    HW1 7238   6.806   1.045   4.545
 2113SOL    HW2 7239   6.854   0.957   4.674
 2114SOL     OW 7240   1.619   1.524   6.227
 2114SOL    HW1 7241   1.545   1.586   6.254
 2114SOL    HW2 7242   1.673   1.566   6.155
 2115SOL     OW 7243   6.351   6.130   3.136
 2115SOL    HW1 7244   6.289   6.184   3.078
 2115SOL    HW2 7245   6.417   6.191   3.180
 2116SOL     OW 7246   1.579   1.983   6.845
 2116SOL    HW1 7247   1.621   2.037   6.917
 2116SOL    HW2 7248   1.561   2.041   6.766
 2117SOL     OW 7249   6.315   1.576   2.559
 2117SOL    HW1 7250   6.329   1.512   2.634
 2117SOL    HW2 7251   6.402   1.593   2.512
 2118SOL     OW 7252   6.777   2.623   3.056
 2118SOL    HW1 7253   6.723   2.623   3.140
 2118SOL    HW2 7254   6.854   2.561   3.066
 2119SOL     OW 7255   1.309   1.396   0.664
 2119SOL    HW1 7256   1.358   1.319   0.704
 2119SOL    HW2 7257   1.246   1.364   0.594
 2120SOL     OW 7258   5.988   1.421   0.942
 2120SOL    HW1 7259   6.005   1.487   0.869
 2120SOL    HW2 7260   6.072   1.372   0.964
 2121SOL     OW 7261   1.782   0.647   6.733
 2121SOL    HW1 7262   1.739   0.582   6.670
 2121SOL    HW2 7263   1.875   0.616   6.754
 2122SOL     OW 7264   6.260   1.010   4.623
 2122SOL    HW1 7265   6.259   1.108   4.600
 2122SOL    HW2 7266   6.275   0.957   4.540
 2123SOL     OW 7267   1.441   5.186   2.778
 2123SOL    HW1 7268   1.451   5.118   2.850
 2123SOL    HW2 7269   1.530   5.227   2.758
 2124SOL     OW 7270   4.100   3.745   6.390
 2124SOL    HW1 7271   4.017   3.709   6.347
 2124SOL    HW2 7272   4.168   3.671   6.398
 2125SOL     OW 7273   1.669   6.049   4.422
 2125SOL    HW1 7274   1.736   6.119   4.443
 2125SOL    HW2 7275   1.598   6.049   4.492
 2126SOL     OW 7276   2.535   4.004   6.640
 2126SOL    HW1 7277   2.613   3.960   6.595
 2126SOL    HW2 7278   2.491   3.938   6.701
 2127SOL     OW 7279   0.915   2.541   4.475
 2127SOL    HW1 7280   1.011   2.568   4.472
 2127SOL    HW2 7281   0.867   2.581   4.397
 2128SOL     OW 7282   5.141   3.295   1.603
 2128SOL    HW1 7283   5.133   3.273   1.700
 2128SOL    HW2 7284   5.210   3.235   1.561
 2129SOL     OW 7285   5.591   4.195   4.377
 2129SOL    HW1 7286   5.497   4.217   4.403
 2129SOL    HW2 7287   5.648   4.277   4.387
 2130SOL     OW 7288   3.392   0.996   1.310
 2130SOL    HW1 7289   3.306   1.033   1.274
 2130SOL    HW2 7290   3.395   0.897   1.295
 2131SOL     OW 7291   5.265   0.457   5.232
 2131SOL    HW1 7292   5.272   0.469   5.133
 2131SOL    HW2 7293   5.193   0.517   5.268
 2132SOL     OW 7294   2.354   2.185   0.130
 2132SOL    HW1 7295   2.370   2.272   0.084
 2132SOL    HW2 7296   2.365   2.110   0.065
 2133SOL     OW 7297   3.206   2.419   1.605
 2133SOL    HW1 7298   3.260   2.350   1.653
 2133SOL    HW2 7299   3.117   2.381   1.581
 2134SOL     OW 7300   2.248   6.415   5.394
 2134SOL    HW1 7301   2.250   6.515   5.395
 2134SOL    HW2 7302   2.209   6.382   5.480
 2135SOL     OW 7303   0.839   6.454   4.307
 2135SOL    HW1 7304   0.905   6.516   4.348
 2135SOL    HW2 7305   0.775   6.422   4.377
 2136SOL     OW 7306   1.032   4.462   3.733
 2136SOL    HW1 7307   1.012   4.493   3.639
 2136SOL    HW2 7308   1.051   4.541   3.791
 2137SOL     OW 7309   1.238   1.226   4.628
 2137SOL    HW1 7310   1.170   1.277   4.680
 2137SOL    HW2 7311   1.325   1.227   4.676
 2138SOL     OW 7312   1.023   2.742   6.162
 2138SOL    HW1 7313   1.093   2.764   6.094
 2138SOL    HW2 7314   1.068   2.717   6.248
 2139SOL     OW 7315   2.217   0.895   4.389
 2139SOL    HW1 7316   2.143   0.903   4.455
 2139SOL    HW2 7317   2.303   0.877   4.437
 2140SOL     OW 7318   1.743   5.892   3.665
 2140SOL    HW1 7319   1.776   5.958   3.732
 2140SOL    HW2 7320   1.676   5.936   3.605
 2141SOL     OW 7321   6.883   1.384   0.254
 2141SOL    HW1 7322   6.863   1.286   0.249
 2141SOL    HW2 7323   6.846   1.429   0.173
 2142SOL     OW 7324   2.799   1.594   3.461
 2142SOL    HW1 7325   2.704   1.606   3.433
 2142SOL    HW2 7326   2.833   1.506   3.429
 2143SOL     OW 7327   3.917   6.260   6.506
 2143SOL    HW1 7328   3.934   6.207   6.589
 2143SOL    HW2 7329   3.833   6.314   6.518
 2144SOL     OW 7330   0.103   0.866   2.371
 2144SOL    HW1 7331   0.081   0.955   2.411
 2144SOL    HW2 7332   0.193   0.871   2.327
 2145SOL     OW 7333   4.049   5.669   3.063
 2145SOL    HW1 7334   4.094   5.579   3.056
 2145SOL    HW2 7335   4.074   5.711   3.151
 2146SOL     OW 7336   3.711   2.649   1.023
 2146SOL    HW1 7337   3.686   2.699   0.940
 2146SOL    HW2 7338   3.677   2.555   1.016
 2147SOL     OW 7339   6.997   0.866   5.231
 2147SOL    HW1 7340   0.031   0.947   5.210
 2147SOL    HW2 7341   6.901   0.892   5.241
 2148SOL     OW 7342   5.116   2.793   2.714
 2148SOL    HW1 7343   5.140   2.799   2.811
 2148SOL    HW2 7344   5.018   2.807   2.703
 2149SOL     OW 7345   3.583   0.725   3.007
 2149SOL    HW1 7346   3.665   0.775   3.034
 2149SOL    HW2 7347   3.587   0.704   2.910
 2150SOL     OW 7348   3.817   1.352   2.041
 2150SOL    HW1 7349   3.786   1.307   2.125
 2150SOL    HW2 7350   3.813   1.451   2.054
 2151SOL     OW 7351   3.668   2.953   5.852
 2151SOL    HW1 7352   3.645   2.927   5.758
 2151SOL    HW2 7353   3.606   3.025   5.882
 2152SOL     OW 7354   5.960   6.103   1.914
 2152SOL    HW1 7355   6.002   6.173   1.972
 2152SOL    HW2 7356   5.892   6.052   1.967
 2153SOL     OW 7357   4.827   2.456   2.432
 2153SOL    HW1 7358   4.879   2.483   2.513
 2153SOL    HW2 7359   4.856   2.511   2.353
 2154SOL     OW 7360   4.365   5.953   5.134
 2154SOL    HW1 7361   4.426   5.964   5.213
 2154SOL    HW2 7362   4.410   5.986   5.051
 2155SOL     OW 7363   5.819   4.076   6.515
 2155SOL    HW1 7364   5.905   4.102   6.471
 2155SOL    HW2 7365   5.752   4.052   6.445
 2156SOL     OW 7366   0.663   0.910   1.734
 2156SOL    HW1 7367   0.761   0.920   1.749
 2156SOL    HW2 7368   0.636   0.815   1.752
 2157SOL     OW 7369   0.129   0.969   4.581
 2157SOL    HW1 7370   0.032   0.985   4.567
 2157SOL    HW2 7371   0.145   0.873   4.601
 2158SOL     OW 7372   4.462   6.309   2.448
 2158SOL    HW1 7373   4.503   6.278   2.534
 2158SOL    HW2 7374   4.384   6.369   2.467
 2159SOL     OW 7375   1.731   6.646   5.112
 2159SOL    HW1 7376   1.679   6.720   5.155
 2159SOL    HW2 7377   1.829   6.661   5.129
 2160SOL     OW 7378   2.588   3.266   0.777
 2160SOL    HW1 7379   2.670   3.323   0.779
 2160SOL    HW2 7380   2.601   3.187   0.837
 2161SOL     OW 7381   4.739   1.790   3.791
 2161SOL    HW1 7382   4.728   1.875   3.741
 2161SOL    HW2 7383   4.827   1.790   3.839
 2162SOL     OW 7384   1.477   1.156   6.654
 2162SOL    HW1 7385   1.551   1.106   6.699
 2162SOL    HW2 7386   1.511   1.244   6.622
 2163SOL     OW 7387   2.900   2.144   0.709
 2163SOL    HW1 7388   2.857   2.234   0.716
 2163SOL    HW2 7389   2.965   2.144   0.633
 2164SOL     OW 7390   0.797   0.350   1.357
 2164SOL    HW1 7391   0.732   0.412   1.313
 2164SOL    HW2 7392   0.779   0.256   1.328
 2165SOL     OW 7393   2.987   6.867   1.605
 2165SOL    HW1 7394   3.024   6.809   1.677
 2165SOL    HW2 7395   2.906   6.915   1.640
 2166SOL     OW 7396   6.183   2.482   6.136
 2166SOL    HW1 7397   6.112   2.427   6.092
 2166SOL    HW2 7398   6.202   2.563   6.081
 2167SOL     OW 7399   2.664   0.335   1.774
 2167SOL    HW1 7400   2.688   0.245   1.737
 2167SOL    HW2 7401   2.566   0.352   1.763
 2168SOL     OW 7402   6.020   5.768   4.810
 2168SOL    HW1 7403   6.094   5.834   4.796
 2168SOL    HW2 7404   5.988   5.774   4.904
 2169SOL     OW 7405   5.960   1.964   5.070
 2169SOL    HW1 7406   6.022   1.918   5.134
 2169SOL    HW2 7407   5.885   2.008   5.121
 2170SOL     OW 7408   5.631   5.185   4.258
 2170SOL    HW1 7409   5.621   5.279   4.291
 2170SOL    HW2 7410   5.729   5.161   4.254
 2171SOL     OW 7411   6.475   2.900   0.519
 2171SOL    HW1 7412   6.515   2.815   0.487
 2171SOL    HW2 7413   6.476   2.967   0.445
 2172SOL     OW 7414   2.334   0.666   0.819
 2172SOL    HW1 7415   2.392   0.714   0.884
 2172SOL    HW2 7416   2.371   0.575   0.801
 2173SOL     OW 7417   5.143   1.879   4.963
 2173SOL    HW1 7418   5.194   1.843   4.885
 2173SOL    HW2 7419   5.059   1.826   4.976
 2174SOL     OW 7420   1.370   5.254   4.618
 2174SOL    HW1 7421   1.390   5.308   4.536
 2174SOL    HW2 7422   1.316   5.310   4.682
 2175SOL     OW 7423   1.929   6.410   5.338
 2175SOL    HW1 7424   2.014   6.357   5.341
 2175SOL    HW2 7425   1.947   6.500   5.299
 2176SOL     OW 7426   2.178   2.299   2.230
 2176SOL    HW1 7427   2.114   2.359   2.182
 2176SOL    HW2 7428   2.133   2.259   2.309
 2177SOL     OW 7429   6.849   0.835   2.316
 2177SOL    HW1 7430   6.837   0.847   2.218
 2177SOL    HW2 7431   6.947   0.841   2.338
 2178SOL     OW 7432   0.892   5.318   0.994
 2178SOL    HW1 7433   0.835   5.401   0.989
 2178SOL    HW2 7434   0.845   5.243   0.948
 2179SOL     OW 7435   1.277   4.629   4.146
 2179SOL    HW1 7436   1.274   4.559   4.075
 2179SOL    HW2 7437   1.372   4.645   4.174
 2180SOL     OW 7438   4.208   3.366   1.982
 2180SOL    HW1 7439   4.134   3.428   2.009
 2180SOL    HW2 7440   4.246   3.397   1.895
 2181SOL     OW 7441   4.449   6.344   0.665
 2181SOL    HW1 7442   4.475   6.412   0.597
 2181SOL    HW2 7443   4.352   6.354   0.687
 2182SOL     OW 7444   5.357   1.814   0.521
 2182SOL    HW1 7445   5.454   1.835   0.505
 2182SOL    HW2 7446   5.323   1.870   0.597
 2183SOL     OW 7447   2.462   2.688   0.861
 2183SOL    HW1 7448   2.483   2.599   0.821
 2183SOL    HW2 7449   2.425   2.748   0.790
 2184SOL     OW 7450   4.307   2.898   5.748
 2184SOL    HW1 7451   4.393   2.856   5.720
 2184SOL    HW2 7452   4.282   2.971   5.685
 2185SOL     OW 7453   1.197   0.717   1.317
 2185SOL    HW1 7454   1.296   0.725   1.324
 2185SOL    HW2 7455   1.171   0.709   1.221
 2186SOL     OW 7456   0.095   5.023   2.623
 2186SOL    HW1 7457   0.170   5.050   2.684
 2186SOL    HW2 7458   0.114   4.932   2.586
 2187SOL     OW 7459   0.358   1.568   6.394
 2187SOL    HW1 7460   0.401   1.615   6.317
 2187SOL    HW2 7461   0.348   1.471   6.371
 2188SOL     OW 7462   5.312   1.096   3.569
 2188SOL    HW1 7463   5.298   1.195   3.570
 2188SOL    HW2 7464   5.344   1.069   3.478
 2189SOL     OW 7465   2.943   0.220   6.913
 2189SOL    HW1 7466   2.991   0.237   6.999
 2189SOL    HW2 7467   2.996   0.258   6.837
 2190SOL     OW 7468   5.061   1.929   1.101
 2190SOL    HW1 7469   4.970   1.955   1.134
 2190SOL    HW2 7470   5.106   1.871   1.170
 2191SOL     OW 7471   2.974   1.689   6.934
 2191SOL    HW1 7472   2.886   1.664   6.893
 2191SOL    HW2 7473   3.049   1.652   6.878
 2192SOL     OW 7474   4.051   5.182   3.364
 2192SOL    HW1 7475   4.042   5.086   3.337
 2192SOL    HW2 7476   4.013   5.194   3.456
 2193SOL     OW 7477   6.930   5.216   5.805
 2193SOL    HW1 7478   6.983   5.136   5.833
 2193SOL    HW2 7479   6.857   5.233   5.872
 2194SOL     OW 7480   3.432   0.005   1.252
 2194SOL    HW1 7481   3.337   0.021   1.226
 2194SOL    HW2 7482   3.436   7.000   1.349
 2195SOL     OW 7483   1.179   4.816   2.423
 2195SOL    HW1 7484   1.274   4.796   2.400
 2195SOL    HW2 7485   1.161   4.913   2.408
 2196SOL     OW 7486   4.625   2.965   6.708
 2196SOL    HW1 7487   4.595   2.872   6.687
 2196SOL    HW2 7488   4.714   2.962   6.752
 2197SOL     OW 7489   4.318   4.127   0.049
 2197SOL    HW1 7490   4.237   4.074   0.074
 2197SOL    HW2 7491   4.372   4.075   7.003
 2198SOL     OW 7492   6.241   4.460   0.617
 2198SOL    HW1 7493   6.254   4.392   0.545
 2198SOL    HW2 7494   6.273   4.549   0.585
 2199SOL     OW 7495   4.460   0.274   2.105
 2199SOL    HW1 7496   4.499   0.333   2.034
 2199SOL    HW2 7497   4.361   0.291   2.111
 2200SOL     OW 7498   2.105   6.985   4.436
 2200SOL    HW1 7499   2.083   6.896   4.474
 2200SOL    HW2 7500   2.124   6.976   4.338
 2201SOL     OW 7501   4.767   4.039   3.022
 2201SOL    HW1 7502   4.763   4.080   3.113
 2201SOL    HW2 7503   4.817   4.099   2.960
 2202SOL     OW 7504   5.060   6.112   3.743
 2202SOL    HW1 7505   5.083   6.017   3.766
 2202SOL    HW2 7506   4.961   6.125   3.750
 2203SOL     OW 7507   3.658   2.076   2.565
 2203SOL    HW1 7508   3.608   2.049   2.482
 2203SOL    HW2 7509   3.617   2.159   2.602
 2204SOL     OW 7510   2.831   3.008   1.188
 2204SOL    HW1 7511   2.868   2.991   1.279
 2204SOL    HW2 7512   2.904   3.001   1.120
 2205SOL     OW 7513   2.075   0.829   1.206
 2205SOL    HW1 7514   2.088   0.746   1.153
 2205SOL    HW2 7515   2.009   0.889   1.159
 2206SOL     OW 7516   2.180   3.057   0.106
 2206SOL    HW1 7517   2.271   3.079   0.071
 2206SOL    HW2 7518   2.142   3.136   0.154
 2207SOL     OW 7519   0.462   4.450   4.439
 2207SOL    HW1 7520   0.488   4.543   4.465
 2207SOL    HW2 7521   0.433   4.399   4.520
 2208SOL     OW 7522   6.667   4.472   1.770
 2208SOL    HW1 7523   6.654   4.430   1.681
 2208SOL    HW2 7524   6.701   4.566   1.759
 2209SOL     OW 7525   1.303   6.753   1.416
 2209SOL    HW1 7526   1.304   6.801   1.328
 2209SOL    HW2 7527   1.325   6.657   1.401
 2210SOL     OW 7528   1.553   5.328   3.788
 2210SOL    HW1 7529   1.500   5.264   3.733
 2210SOL    HW2 7530   1.607   5.277   3.855
 2211SOL     OW 7531   0.375   1.422   5.469
 2211SOL    HW1 7532   0.323   1.373   5.399
 2211SOL    HW2 7533   0.327   1.415   5.557
 2212SOL     OW 7534   2.051   6.891   6.597
 2212SOL    HW1 7535   1.972   6.836   6.570
 2212SOL    HW2 7536   2.124   6.830   6.628
 2213SOL     OW 7537   3.474   1.153   3.218
 2213SOL    HW1 7538   3.441   1.198   3.301
 2213SOL    HW2 7539   3.400   1.150   3.150
 2214SOL     OW 7540   4.261   0.063   5.616
 2214SOL    HW1 7541   4.165   0.037   5.623
 2214SOL    HW2 7542   4.267   0.161   5.592
 2215SOL     OW 7543   5.676   2.637   5.156
 2215SOL    HW1 7544   5.617   2.608   5.231
 2215SOL    HW2 7545   5.740   2.563   5.134
 2216SOL     OW 7546   2.212   0.660   2.177
 2216SOL    HW1 7547   2.264   0.714   2.244
 2216SOL    HW2 7548   2.114   0.675   2.191
 2217SOL     OW 7549   4.170   1.009   1.833
 2217SOL    HW1 7550   4.079   1.046   1.847
 2217SOL    HW2 7551   4.238   1.068   1.877
 2218SOL     OW 7552   1.270   6.352   2.848
 2218SOL    HW1 7553   1.291   6.439   2.893
 2218SOL    HW2 7554   1.188   6.362   2.792
 2219SOL     OW 7555   1.177   1.957   2.879
 2219SOL    HW1 7556   1.267   1.939   2.918
 2219SOL    HW2 7557   1.158   1.890   2.807
 2220SOL     OW 7558   0.798   0.429   0.920
 2220SOL    HW1 7559   0.896   0.433   0.903
 2220SOL    HW2 7560   0.774   0.342   0.962
 2221SOL     OW 7561   0.705   1.518   6.906
 2221SOL    HW1 7562   0.770   1.444   6.890
 2221SOL    HW2 7563   0.747   1.588   6.964
 2222SOL     OW 7564   6.124   5.941   3.136
 2222SOL    HW1 7565   6.133   5.861   3.195
 2222SOL    HW2 7566   6.206   5.997   3.141
 2223SOL     OW 7567   6.138   5.838   1.523
 2223SOL    HW1 7568   6.178   5.795   1.442
 2223SOL    HW2 7569   6.088   5.920   1.495
 2224SOL     OW 7570   0.992   5.035   2.245
 2224SOL    HW1 7571   1.092   5.042   2.250
 2224SOL    HW2 7572   0.951   5.122   2.272
 2225SOL     OW 7573   0.458   4.541   1.182
 2225SOL    HW1 7574   0.457   4.615   1.249
 2225SOL    HW2 7575   0.397   4.565   1.106
 2226SOL     OW 7576   4.200   3.764   1.166
 2226SOL    HW1 7577   4.113   3.767   1.217
 2226SOL    HW2 7578   4.270   3.812   1.218
 2227SOL     OW 7579   0.389   2.858   4.479
 2227SOL    HW1 7580   0.360   2.937   4.425
 2227SOL    HW2 7581   0.309   2.807   4.510
 2228SOL     OW 7582   2.868   4.968   4.689
 2228SOL    HW1 7583   2.854   4.873   4.715
 2228SOL    HW2 7584   2.835   5.028   4.763
 2229SOL     OW 7585   5.470   0.099   3.020
 2229SOL    HW1 7586   5.401   0.065   3.084
 2229SOL    HW2 7587   5.439   0.081   2.926
 2230SOL     OW 7588   2.815   5.310   0.873
 2230SOL    HW1 7589   2.769   5.221   0.880
 2230SOL    HW2 7590   2.854   5.334   0.961
 2231SOL     OW 7591   2.362   5.605   0.960
 2231SOL    HW1 7592   2.303   5.658   0.900
 2231SOL    HW2 7593   2.400   5.527   0.910
 2232SOL     OW 7594   6.199   3.066   3.902
 2232SOL    HW1 7595   6.207   2.967   3.915
 2232SOL    HW2 7596   6.281   3.110   3.938
 2233SOL     OW 7597   2.947   2.180   6.373
 2233SOL    HW1 7598   3.017   2.111   6.390
 2233SOL    HW2 7599   2.916   2.217   6.461
 2234SOL     OW 7600   3.630   2.114   1.285
 2234SOL    HW1 7601   3.657   2.097   1.379
 2234SOL    HW2 7602   3.558   2.184   1.283
 2235SOL     OW 7603   2.328   1.265   1.225
 2235SOL    HW1 7604   2.381   1.298   1.147
 2235SOL    HW2 7605   2.295   1.172   1.206
 2236SOL     OW 7606   0.133   3.943   5.831
 2236SOL    HW1 7607   0.154   3.863   5.775
 2236SOL    HW2 7608   0.087   3.914   5.915
 2237SOL     OW 7609   6.308   3.106   4.230
 2237SOL    HW1 7610   6.225   3.095   4.285
 2237SOL    HW2 7611   6.287   3.159   4.148
 2238SOL     OW 7612   6.600   6.266   1.672
 2238SOL    HW1 7613   6.670   6.213   1.624
 2238SOL    HW2 7614   6.569   6.341   1.614
 2239SOL     OW 7615   5.176   5.621   2.839
 2239SOL    HW1 7616   5.092   5.579   2.802
 2239SOL    HW2 7617   5.160   5.650   2.933
 2240SOL     OW 7618   5.922   3.456   1.984
 2240SOL    HW1 7619   6.020   3.451   2.002
 2240SOL    HW2 7620   5.904   3.423   1.891
 2241SOL     OW 7621   0.855   0.092   2.441
 2241SOL    HW1 7622   0.916   0.126   2.370
 2241SOL    HW2 7623   0.774   0.052   2.398
 2242SOL     OW 7624   4.258   1.880   2.763
 2242SOL    HW1 7625   4.297   1.926   2.842
 2242SOL    HW2 7626   4.158   1.889   2.764
 2243SOL     OW 7627   2.925   6.151   5.496
 2243SOL    HW1 7628   2.979   6.233   5.517
 2243SOL    HW2 7629   2.828   6.175   5.493
 2244SOL     OW 7630   2.892   0.720   4.971
 2244SOL    HW1 7631   2.978   0.765   4.995
 2244SOL    HW2 7632   2.904   0.670   4.885
 2245SOL     OW 7633   0.010   2.205   2.022
 2245SOL    HW1 7634   6.963   2.277   2.039
 2245SOL    HW2 7635   0.053   2.178   2.108
 2246SOL     OW 7636   1.900   4.625   5.000
 2246SOL    HW1 7637   1.895   4.531   5.035
 2246SOL    HW2 7638   1.808   4.662   4.990
 2247SOL     OW 7639   2.173   1.600   5.129
 2247SOL    HW1 7640   2.121   1.613   5.045
 2247SOL    HW2 7641   2.271   1.610   5.109
 2248SOL     OW 7642   4.463   4.288   5.259
 2248SOL    HW1 7643   4.551   4.298   5.214
 2248SOL    HW2 7644   4.393   4.268   5.191
 2249SOL     OW 7645   3.948   5.583   4.659
 2249SOL    HW1 7646   3.899   5.509   4.705
 2249SOL    HW2 7647   3.991   5.642   4.728
 2250SOL     OW 7648   5.349   5.192   0.688
 2250SOL    HW1 7649   5.312   5.283   0.670
 2250SOL    HW2 7650   5.440   5.184   0.646
 2251SOL     OW 7651   0.183   0.564   5.964
 2251SOL    HW1 7652   0.174   0.658   5.929
 2251SOL    HW2 7653   0.122   0.552   6.042
 2252SOL     OW 7654   3.684   1.122   5.966
 2252SOL    HW1 7655   3.730   1.158   5.885
 2252SOL    HW2 7656   3.586   1.142   5.960
 2253SOL     OW 7657   1.402   2.610   6.137
 2253SOL    HW1 7658   1.373   2.688   6.192
 2253SOL    HW2 7659   1.407   2.637   6.041
 2254SOL     OW 7660   1.682   3.433   5.755
 2254SOL    HW1 7661   1.742   3.451   5.832
 2254SOL    HW2 7662   1.648   3.339   5.760
 2255SOL     OW 7663   5.359   3.455   0.517
 2255SOL    HW1 7664   5.370   3.493   0.609
 2255SOL    HW2 7665   5.411   3.509   0.451
 2256SOL     OW 7666   3.512   5.017   1.917
 2256SOL    HW1 7667   3.585   5.083   1.933
 2256SOL    HW2 7668   3.544   4.925   1.940
 2257SOL     OW 7669   2.085   3.797   3.988
 2257SOL    HW1 7670   2.167   3.853   3.974
 2257SOL    HW2 7671   2.099   3.738   4.068
 2258SOL     OW 7672   2.146   4.684   5.547
 2258SOL    HW1 7673   2.072   4.653   5.606
 2258SOL    HW2 7674   2.123   4.775   5.510
 2259SOL     OW 7675   6.734   3.124   6.344
 2259SOL    HW1 7676   6.747   3.108   6.442
 2259SOL    HW2 7677   6.703   3.218   6.329
 2260SOL     OW 7678   4.594   4.043   0.944
 2260SOL    HW1 7679   4.691   4.040   0.922
 2260SOL    HW2 7680   4.562   3.950   0.966
 2261SOL     OW 7681   3.607   6.357   4.887
 2261SOL    HW1 7682   3.693   6.306   4.885
 2261SOL    HW2 7683   3.538   6.305   4.835
 2262SOL     OW 7684   3.365   1.709   3.226
 2262SOL    HW1 7685   3.445   1.650   3.212
 2262SOL    HW2 7686   3.328   1.693   3.318
 2263SOL     OW 7687   0.100   4.487   5.371
 2263SOL    HW1 7688   0.059   4.497   5.461
 2263SOL    HW2 7689   0.045   4.425   5.315
 2264SOL     OW 7690   3.119   3.952   3.626
 2264SOL    HW1 7691   3.086   4.031   3.678
 2264SOL    HW2 7692   3.126   3.873   3.686
 2265SOL     OW 7693   0.656   0.108   2.899
 2265SOL    HW1 7694   0.591   0.063   2.960
 2265SOL    HW2 7695   0.714   0.170   2.952
 2266SOL     OW 7696   6.378   0.303   6.789
 2266SOL    HW1 7697   6.327   0.292   6.704
 2266SOL    HW2 7698   6.362   0.395   6.826
 2267SOL     OW 7699   5.399   1.619   5.434
 2267SOL    HW1 7700   5.309   1.657   5.415
 2267SOL    HW2 7701   5.467   1.666   5.376
 2268SOL     OW 7702   6.432   5.032   0.125
 2268SOL    HW1 7703   6.517   5.075   0.094
 2268SOL    HW2 7704   6.423   4.942   0.082
 2269SOL     OW 7705   0.609   5.916   3.581
 2269SOL    HW1 7706   0.663   5.965   3.513
 2269SOL    HW2 7707   0.518   5.896   3.543
 2270SOL     OW 7708   4.154   3.461   2.937
 2270SOL    HW1 7709   4.138   3.464   2.839
 2270SOL    HW2 7710   4.136   3.551   2.976
 2271SOL     OW 7711   0.697   4.026   2.648
 2271SOL    HW1 7712   0.630   4.038   2.574
 2271SOL    HW2 7713   0.718   3.929   2.658
 2272SOL     OW 7714   5.077   2.350   6.007
 2272SOL    HW1 7715   5.001   2.399   5.964
 2272SOL    HW2 7716   5.136   2.416   6.054
 2273SOL     OW 7717   0.855   0.556   3.819
 2273SOL    HW1 7718   0.911   0.623   3.868
 2273SOL    HW2 7719   0.898   0.466   3.825
 2274SOL     OW 7720   1.294   3.925   3.030
 2274SOL    HW1 7721   1.303   4.018   2.993
 2274SOL    HW2 7722   1.308   3.928   3.129
 2275SOL     OW 7723   4.588   6.586   3.309
 2275SOL    HW1 7724   4.656   6.642   3.263
 2275SOL    HW2 7725   4.629   6.541   3.388
 2276SOL     OW 7726   3.320   5.451   1.573
 2276SOL    HW1 7727   3.410   5.409   1.583
 2276SOL    HW2 7728   3.322   5.516   1.496
 2277SOL     OW 7729   3.602   3.644   1.143
 2277SOL    HW1 7730   3.568   3.552   1.127
 2277SOL    HW2 7731   3.645   3.649   1.233
 2278SOL     OW 7732   4.941   6.443   1.018
 2278SOL    HW1 7733   4.988   6.410   1.100
 2278SOL    HW2 7734   4.850   6.401   1.012
 2279SOL     OW 7735   5.394   4.035   5.079
 2279SOL    HW1 7736   5.446   4.082   5.008
 2279SOL    HW2 7737   5.423   3.939   5.084
 2280SOL     OW 7738   5.937   6.976   5.730
 2280SOL    HW1 7739   5.992   0.018   5.674
 2280SOL    HW2 7740   5.967   6.982   5.825
 2281SOL     OW 7741   3.559   2.555   0.256
 2281SOL    HW1 7742   3.570   2.484   0.326
 2281SOL    HW2 7743   3.480   2.534   0.198
 2282SOL     OW 7744   4.475   5.726   1.947
 2282SOL    HW1 7745   4.542   5.703   2.017
 2282SOL    HW2 7746   4.466   5.649   1.883
 2283SOL     OW 7747   0.322   3.897   1.932
 2283SOL    HW1 7748   0.372   3.821   1.975
 2283SOL    HW2 7749   0.226   3.893   1.960
 2284SOL     OW 7750   2.683   2.312   2.210
 2284SOL    HW1 7751   2.644   2.233   2.163
 2284SOL    HW2 7752   2.746   2.359   2.149
 2285SOL     OW 7753   1.836   3.655   6.592
 2285SOL    HW1 7754   1.752   3.602   6.578
 2285SOL    HW2 7755   1.857   3.706   6.509
 2286SOL     OW 7756   5.341   0.044   4.485
 2286SOL    HW1 7757   5.360   6.974   4.448
 2286SOL    HW2 7758   5.320   0.038   4.582
 2287SOL     OW 7759   2.346   2.357   1.240
 2287SOL    HW1 7760   2.248   2.341   1.233
 2287SOL    HW2 7761   2.376   2.338   1.334
 2288SOL     OW 7762   1.807   5.709   4.443
 2288SOL    HW1 7763   1.862   5.774   4.390
 2288SOL    HW2 7764   1.804   5.739   4.538
 2289SOL     OW 7765   4.435   1.492   0.286
 2289SOL    HW1 7766   4.436   1.407   0.233
 2289SOL    HW2 7767   4.346   1.537   0.276
 2290SOL     OW 7768   3.257   3.371   3.191
 2290SOL    HW1 7769   3.233   3.405   3.282
 2290SOL    HW2 7770   3.199   3.294   3.168
 2291SOL     OW 7771   1.202   3.112   6.583
 2291SOL    HW1 7772   1.122   3.171   6.580
 2291SOL    HW2 7773   1.247   3.110   6.493
 2292SOL     OW 7774   4.829   1.818   2.603
 2292SOL    HW1 7775   4.845   1.823   2.505
 2292SOL    HW2 7776   4.745   1.866   2.626
 2293SOL     OW 7777   0.650   0.807   0.313
 2293SOL    HW1 7778   0.672   0.853   0.227
 2293SOL    HW2 7779   0.715   0.733   0.329
 2294SOL     OW 7780   6.840   1.078   5.722
 2294SOL    HW1 7781   6.882   1.168   5.708
 2294SOL    HW2 7782   6.781   1.057   5.644
 2295SOL     OW 7783   6.252   6.085   0.860
 2295SOL    HW1 7784   6.195   6.009   0.828
 2295SOL    HW2 7785   6.347   6.057   0.863
 2296SOL     OW 7786   3.694   4.912   4.172
 2296SOL    HW1 7787   3.705   4.978   4.247
 2296SOL    HW2 7788   3.597   4.890   4.162
 2297SOL     OW 7789   5.284   4.020   5.452
 2297SOL    HW1 7790   5.213   3.952   5.469
 2297SOL    HW2 7791   5.371   3.973   5.435
 2298SOL     OW 7792   3.467   4.079   4.210
 2298SOL    HW1 7793   3.482   4.140   4.288
 2298SOL    HW2 7794   3.551   4.071   4.157
 2299SOL     OW 7795   5.519   2.865   4.142
 2299SOL    HW1 7796   5.512   2.866   4.042
 2299SOL    HW2 7797   5.477   2.948   4.179
 2300SOL     OW 7798   4.983   6.940   2.205
 2300SOL    HW1 7799   5.067   6.894   2.236
 2300SOL    HW2 7800   4.942   6.989   2.282
 2301SOL     OW 7801   3.892   3.051   5.152
 2301SOL    HW1 7802   3.924   2.959   5.174
 2301SOL    HW2 7803   3.865   3.098   5.236
 2302SOL     OW 7804   6.443   2.820   6.061
 2302SOL    HW1 7805   6.463   2.895   5.998
 2302SOL    HW2 7806   6.527   2.774   6.087
 2303SOL     OW 7807   2.931   2.688   0.117
 2303SOL    HW1 7808   3.025   2.719   0.119
 2303SOL    HW2 7809   2.909   2.655   0.025
 2304SOL     OW 7810   6.664   5.987   2.357
 2304SOL    HW1 7811   6.682   6.073   2.309
 2304SOL    HW2 7812   6.696   5.995   2.452
 2305SOL     OW 7813   2.994   0.344   4.920
 2305SOL    HW1 7814   2.967   0.251   4.897
 2305SOL    HW2 7815   2.964   0.406   4.847
 2306SOL     OW 7816   1.563   5.061   4.697
 2306SOL    HW1 7817   1.491   5.126   4.672
 2306SOL    HW2 7818   1.525   4.969   4.703
 2307SOL     OW 7819   6.367   3.135   5.487
 2307SOL    HW1 7820   6.274   3.114   5.456
 2307SOL    HW2 7821   6.363   3.210   5.554
 2308SOL     OW 7822   1.414   4.824   1.855
 2308SOL    HW1 7823   1.492   4.876   1.821
 2308SOL    HW2 7824   1.395   4.748   1.793
 2309SOL     OW 7825   1.996   0.334   4.913
 2309SOL    HW1 7826   1.925   0.293   4.856
 2309SOL    HW2 7827   1.962   0.345   5.006
 2310SOL     OW 7828   4.478   0.033   0.906
 2310SOL    HW1 7829   4.561   0.059   0.956
 2310SOL    HW2 7830   4.499   0.025   0.808
 2311SOL     OW 7831   2.323   5.086   1.156
 2311SOL    HW1 7832   2.406   5.037   1.129
 2311SOL    HW2 7833   2.304   5.159   1.089
 2312SOL     OW 7834   3.447   5.006   1.663
 2312SOL    HW1 7835   3.447   4.909   1.639
 2312SOL    HW2 7836   3.463   5.017   1.761
 2313SOL     OW 7837   5.225   5.598   1.000
 2313SOL    HW1 7838   5.207   5.512   0.953
 2313SOL    HW2 7839   5.307   5.641   0.962
 2314SOL     OW 7840   1.987   5.079   4.532
 2314SOL    HW1 7841   1.999   5.054   4.628
 2314SOL    HW2 7842   2.070   5.124   4.499
 2315SOL     OW 7843   4.511   2.611   6.365
 2315SOL    HW1 7844   4.451   2.667   6.309
 2315SOL    HW2 7845   4.471   2.520   6.377
 2316SOL     OW 7846   5.605   3.714   2.031
 2316SOL    HW1 7847   5.633   3.620   2.013
 2316SOL    HW2 7848   5.615   3.733   2.129
 2317SOL     OW 7849   0.320   6.071   3.063
 2317SOL    HW1 7850   0.252   6.003   3.090
 2317SOL    HW2 7851   0.276   6.143   3.010
 2318SOL     OW 7852   6.556   0.711   3.941
 2318SOL    HW1 7853   6.485   0.714   3.871
 2318SOL    HW2 7854   6.534   0.639   4.007
 2319SOL     OW 7855   0.992   5.491   2.563
 2319SOL    HW1 7856   0.923   5.553   2.527
 2319SOL    HW2 7857   0.959   5.449   2.648
 2320SOL     OW 7858   6.669   5.269   5.355
 2320SOL    HW1 7859   6.589   5.289   5.298
 2320SOL    HW2 7860   6.666   5.173   5.384
 2321SOL     OW 7861   3.836   4.893   4.812
 2321SOL    HW1 7862   3.839   4.895   4.912
 2321SOL    HW2 7863   3.742   4.875   4.783
 2322SOL     OW 7864   3.029   0.564   5.432
 2322SOL    HW1 7865   2.950   0.620   5.407
 2322SOL    HW2 7866   3.031   0.483   5.374
 2323SOL     OW 7867   5.335   3.740   2.053
 2323SOL    HW1 7868   5.432   3.733   2.030
 2323SOL    HW2 7869   5.281   3.744   1.969
 2324SOL     OW 7870   0.127   5.108   3.238
 2324SOL    HW1 7871   0.087   5.018   3.220
 2324SOL    HW2 7872   0.098   5.139   3.329
 2325SOL     OW 7873   0.590   2.580   0.635
 2325SOL    HW1 7874   0.605   2.484   0.659
 2325SOL    HW2 7875   0.634   2.599   0.547
 2326SOL     OW 7876   1.355   4.244   0.681
 2326SOL    HW1 7877   1.255   4.244   0.681
 2326SOL    HW2 7878   1.389   4.285   0.766
 2327SOL     OW 7879   5.462   1.805   3.873
 2327SOL    HW1 7880   5.510   1.863   3.806
 2327SOL    HW2 7881   5.529   1.748   3.921
 2328SOL     OW 7882   6.033   6.748   3.723
 2328SOL    HW1 7883   5.962   6.678   3.730
 2328SOL    HW2 7884   6.115   6.717   3.771
 2329SOL     OW 7885   6.782   5.671   3.428
 2329SOL    HW1 7886   6.845   5.700   3.501
 2329SOL    HW2 7887   6.695   5.720   3.439
 2330SOL     OW 7888   0.554   3.510   1.625
 2330SOL    HW1 7889   0.624   3.579   1.606
 2330SOL    HW2 7890   0.506   3.534   1.709
 2331SOL     OW 7891   1.021   5.011   6.040
 2331SOL    HW1 7892   0.924   5.000   6.020
 2331SOL    HW2 7893   1.065   4.921   6.041
 2332SOL     OW 7894   5.156   2.482   4.612
 2332SOL    HW1 7895   5.089   2.527   4.670
 2332SOL    HW2 7896   5.120   2.394   4.581
 2333SOL     OW 7897   2.517   4.667   3.708
 2333SOL    HW1 7898   2.534   4.695   3.613
 2333SOL    HW2 7899   2.448   4.595   3.709
 2334SOL     OW 7900   3.016   0.134   0.520
 2334SOL    HW1 7901   2.983   0.228   0.518
 2334SOL    HW2 7902   3.074   0.117   0.440
 2335SOL     OW 7903   4.597   5.274   4.141
 2335SOL    HW1 7904   4.584   5.368   4.173
 2335SOL    HW2 7905   4.534   5.213   4.189
 2336SOL     OW 7906   4.294   2.338   5.694
 2336SOL    HW1 7907   4.286   2.350   5.595
 2336SOL    HW2 7908   4.248   2.254   5.721
 2337SOL     OW 7909   6.118   0.469   4.102
 2337SOL    HW1 7910   6.112   0.390   4.162
 2337SOL    HW2 7911   6.087   0.445   4.010
 2338SOL     OW 7912   1.172   0.417   6.351
 2338SOL    HW1 7913   1.243   0.366   6.400
 2338SOL    HW2 7914   1.090   0.360   6.343
 2339SOL     OW 7915   4.389   4.936   6.307
 2339SOL    HW1 7916   4.395   5.036   6.313
 2339SOL    HW2 7917   4.481   4.897   6.306
 2340SOL     OW 7918   4.093   5.171   3.064
 2340SOL    HW1 7919   4.057   5.134   2.979
 2340SOL    HW2 7920   4.081   5.103   3.137
 2341SOL     OW 7921   5.801   4.962   6.110
 2341SOL    HW1 7922   5.759   5.028   6.048
 2341SOL    HW2 7923   5.864   5.010   6.171
 2342SOL     OW 7924   6.385   0.064   5.538
 2342SOL    HW1 7925   6.296   0.086   5.578
 2342SOL    HW2 7926   6.448   0.039   5.611
 2343SOL     OW 7927   0.948   7.011   0.686
 2343SOL    HW1 7928   0.936   6.929   0.630
 2343SOL    HW2 7929   0.908   0.069   0.639
 2344SOL     OW 7930   2.507   1.653   2.999
 2344SOL    HW1 7931   2.410   1.628   2.991
 2344SOL    HW2 7932   2.562   1.570   3.005
 2345SOL     OW 7933   1.222   1.418   3.434
 2345SOL    HW1 7934   1.252   1.503   3.390
 2345SOL    HW2 7935   1.300   1.356   3.442
 2346SOL     OW 7936   5.119   3.207   5.370
 2346SOL    HW1 7937   5.140   3.116   5.406
 2346SOL    HW2 7938   5.194   3.270   5.390
 2347SOL     OW 7939   1.314   3.743   0.929
 2347SOL    HW1 7940   1.297   3.780   0.838
 2347SOL    HW2 7941   1.334   3.646   0.923
 2348SOL     OW 7942   2.643   5.591   1.709
 2348SOL    HW1 7943   2.603   5.621   1.623
 2348SOL    HW2 7944   2.741   5.607   1.709
 2349SOL     OW 7945   4.225   4.684   6.273
 2349SOL    HW1 7946   4.144   4.696   6.331
 2349SOL    HW2 7947   4.287   4.761   6.287
 2350SOL     OW 7948   1.972   5.573   5.397
 2350SOL    HW1 7949   2.048   5.509   5.412
 2350SOL    HW2 7950   1.986   5.621   5.311
 2351SOL     OW 7951   2.407   5.465   2.916
 2351SOL    HW1 7952   2.418   5.442   3.012
 2351SOL    HW2 7953   2.313   5.448   2.888
 2352SOL     OW 7954   6.239   4.054   1.656
 2352SOL    HW1 7955   6.279   3.989   1.591
 2352SOL    HW2 7956   6.141   4.063   1.638
 2353SOL     OW 7957   2.741   3.913   6.480
 2353SOL    HW1 7958   2.761   3.817   6.461
 2353SOL    HW2 7959   2.780   3.971   6.408
 2354SOL     OW 7960   3.888   2.432   1.633
 2354SOL    HW1 7961   3.801   2.480   1.619
 2354SOL    HW2 7962   3.872   2.334   1.637
 2355SOL     OW 7963   6.805   1.361   1.475
 2355SOL    HW1 7964   6.785   1.438   1.414
 2355SOL    HW2 7965   6.878   1.387   1.538
 2356SOL     OW 7966   2.590   5.152   3.750
 2356SOL    HW1 7967   2.608   5.099   3.667
 2356SOL    HW2 7968   2.506   5.204   3.739
 2357SOL     OW 7969   6.857   4.499   1.085
 2357SOL    HW1 7970   6.812   4.436   1.149
 2357SOL    HW2 7971   6.882   4.449   1.002
 2358SOL     OW 7972   3.639   1.964   5.265
 2358SOL    HW1 7973   3.643   2.031   5.339
 2358SOL    HW2 7974   3.643   1.872   5.303
 2359SOL     OW 7975   1.601   1.896   5.911
 2359SOL    HW1 7976   1.566   1.812   5.871
 2359SOL    HW2 7977   1.693   1.915   5.876
 2360SOL     OW 7978   3.498   4.812   6.966
 2360SOL    HW1 7979   3.526   4.827   0.040
 2360SOL    HW2 7980   3.502   4.898   6.915
 2361SOL     OW 7981   3.844   5.641   1.738
 2361SOL    HW1 7982   3.771   5.581   1.769
 2361SOL    HW2 7983   3.932   5.606   1.771
 2362SOL     OW 7984   3.728   5.124   3.455
 2362SOL    HW1 7985   3.630   5.143   3.466
 2362SOL    HW2 7986   3.757   5.058   3.525
 2363SOL     OW 7987   1.898   4.021   0.331
 2363SOL    HW1 7988   1.826   4.087   0.356
 2363SOL    HW2 7989   1.987   4.060   0.352
 2364SOL     OW 7990   3.650   1.212   2.588
 2364SOL    HW1 7991   3.610   1.129   2.549
 2364SOL    HW2 7992   3.750   1.207   2.585
 2365SOL     OW 7993   4.887   4.485   3.330
 2365SOL    HW1 7994   4.872   4.524   3.239
 2365SOL    HW2 7995   4.944   4.403   3.322
 2366SOL     OW 7996   2.815   4.699   5.359
 2366SOL    HW1 7997   2.850   4.631   5.294
 2366SOL    HW2 7998   2.890   4.758   5.388
 2367SOL     OW 7999   5.834   5.231   5.943
 2367SOL    HW1 8000   5.928   5.198   5.947
 2367SOL    HW2 8001   5.830   5.324   5.979
 2368SOL     OW 8002   6.051   6.860   4.516
 2368SOL    HW1 8003   6.041   6.778   4.572
 2368SOL    HW2 8004   6.114   6.924   4.560
 2369SOL     OW 8005   3.498   1.861   4.224
 2369SOL    HW1 8006   3.545   1.840   4.310
 2369SOL    HW2 8007   3.405   1.892   4.245
 2370SOL     OW 8008   5.532   2.570   1.825
 2370SOL    HW1 8009   5.579   2.606   1.744
 2370SOL    HW2 8010   5.503   2.476   1.807
 2371SOL     OW 8011   0.861   6.101   2.403
 2371SOL    HW1 8012   0.933   6.037   2.432
 2371SOL    HW2 8013   0.902   6.180   2.358
 2372SOL     OW 8014   6.327   6.664   6.515
 2372SOL    HW1 8015   6.246   6.706   6.556
 2372SOL    HW2 8016   6.402   6.665   6.582
 2373SOL     OW 8017   6.566   5.111   6.749
 2373SOL    HW1 8018   6.638   5.180   6.753
 2373SOL    HW2 8019   6.479   5.155   6.723
 2374SOL     OW 8020   5.889   6.301   2.636
 2374SOL    HW1 8021   5.895   6.372   2.706
 2374SOL    HW2 8022   5.925   6.337   2.550
 2375SOL     OW 8023   1.618   0.446   4.446
 2375SOL    HW1 8024   1.643   0.488   4.533
 2375SOL    HW2 8025   1.542   0.383   4.460
 2376SOL     OW 8026   5.254   1.984   2.772
 2376SOL    HW1 8027   5.344   2.023   2.753
 2376SOL    HW2 8028   5.255   1.941   2.863
 2377SOL     OW 8029   4.759   4.044   5.821
 2377SOL    HW1 8030   4.846   4.025   5.867
 2377SOL    HW2 8031   4.766   4.017   5.725
 2378SOL     OW 8032   0.170   1.190   0.166
 2378SOL    HW1 8033   0.086   1.218   0.118
 2378SOL    HW2 8034   0.248   1.233   0.122
 2379SOL     OW 8035   6.679   5.501   2.480
 2379SOL    HW1 8036   6.641   5.408   2.484
 2379SOL    HW2 8037   6.652   5.551   2.562
 2380SOL     OW 8038   5.001   5.791   6.000
 2380SOL    HW1 8039   4.945   5.869   5.970
 2380SOL    HW2 8040   5.009   5.725   5.926
 2381SOL     OW 8041   2.305   4.869   4.544
 2381SOL    HW1 8042   2.318   4.772   4.565
 2381SOL    HW2 8043   2.361   4.924   4.606
 2382SOL     OW 8044   6.893   5.698   2.727
 2382SOL    HW1 8045   6.947   5.667   2.649
 2382SOL    HW2 8046   6.805   5.734   2.695
 2383SOL     OW 8047   5.005   4.637   5.736
 2383SOL    HW1 8048   5.105   4.630   5.735
 2383SOL    HW2 8049   4.973   4.666   5.646
 2384SOL     OW 8050   0.030   1.798   3.124
 2384SOL    HW1 8051   6.994   1.718   3.104
 2384SOL    HW2 8052   0.001   1.874   3.066
 2385SOL     OW 8053   0.576   1.260   0.916
 2385SOL    HW1 8054   0.583   1.160   0.913
 2385SOL    HW2 8055   0.505   1.290   0.852
 2386SOL     OW 8056   6.218   5.938   4.732
 2386SOL    HW1 8057   6.309   5.918   4.768
 2386SOL    HW2 8058   6.196   6.034   4.749
 2387SOL     OW 8059   0.733   1.496   3.894
 2387SOL    HW1 8060   0.774   1.407   3.872
 2387SOL    HW2 8061   0.790   1.569   3.856
 2388SOL     OW 8062   0.484   2.855   5.470
 2388SOL    HW1 8063   0.442   2.822   5.555
 2388SOL    HW2 8064   0.426   2.927   5.431
 2389SOL     OW 8065   4.068   4.821   3.619
 2389SOL    HW1 8066   4.103   4.812   3.525
 2389SOL    HW2 8067   4.116   4.895   3.666
 2390SOL     OW 8068   4.889   2.897   6.028
 2390SOL    HW1 8069   4.975   2.887   5.978
 2390SOL    HW2 8070   4.892   2.839   6.109
 2391SOL     OW 8071   3.328   4.033   6.025
 2391SOL    HW1 8072   3.312   4.130   6.011
 2391SOL    HW2 8073   3.322   3.984   5.938
 2392SOL     OW 8074   4.480   4.097   5.458
 2392SOL    HW1 8075   4.440   4.156   5.529
 2392SOL    HW2 8076   4.502   4.152   5.377
 2393SOL     OW 8077   4.329   4.409   1.217
 2393SOL    HW1 8078   4.339   4.483   1.151
 2393SOL    HW2 8079   4.396   4.336   1.197
 2394SOL     OW 8080   0.414   2.158   3.727
 2394SOL    HW1 8081   0.385   2.112   3.643
 2394SOL    HW2 8082   0.435   2.090   3.797
 2395SOL     OW 8083   1.177   2.565   4.421
 2395SOL    HW1 8084   1.253   2.507   4.392
 2395SOL    HW2 8085   1.205   2.661   4.418
 2396SOL     OW 8086   0.596   0.442   5.913
 2396SOL    HW1 8087   0.629   0.481   5.827
 2396SOL    HW2 8088   0.501   0.412   5.902
 2397SOL     OW 8089   0.019   3.798   4.787
 2397SOL    HW1 8090   0.071   3.877   4.819
 2397SOL    HW2 8091   0.075   3.716   4.794
 2398SOL     OW 8092   3.709   6.662   4.005
 2398SOL    HW1 8093   3.771   6.622   3.937
 2398SOL    HW2 8094   3.617   6.623   3.993
 2399SOL     OW 8095   3.336   2.075   3.399
 2399SOL    HW1 8096   3.421   2.082   3.450
 2399SOL    HW2 8097   3.269   2.140   3.436
 2400SOL     OW 8098   1.603   4.135   0.636
 2400SOL    HW1 8099   1.506   4.156   0.648
 2400SOL    HW2 8100   1.658   4.197   0.693
 2401SOL     OW 8101   1.331   0.259   6.497
 2401SOL    HW1 8102   1.265   0.201   6.544
 2401SOL    HW2 8103   1.415   0.264   6.551
 2402SOL     OW 8104   1.135   4.339   2.224
 2402SOL    HW1 8105   1.195   4.326   2.303
 2402SOL    HW2 8106   1.041   4.313   2.249
 2403SOL     OW 8107   3.871   3.739   4.387
 2403SOL    HW1 8108   3.793   3.676   4.383
 2403SOL    HW2 8109   3.956   3.688   4.370
 2404SOL     OW 8110   6.242   1.224   0.900
 2404SOL    HW1 8111   6.186   1.174   0.835
 2404SOL    HW2 8112   6.272   1.162   0.972
 2405SOL     OW 8113   1.612   3.355   0.680
 2405SOL    HW1 8114   1.706   3.378   0.654
 2405SOL    HW2 8115   1.579   3.420   0.748
 2406SOL     OW 8116   2.473   6.355   4.509
 2406SOL    HW1 8117   2.548   6.289   4.509
 2406SOL    HW2 8118   2.446   6.375   4.415
 2407SOL     OW 8119   2.660   1.115   3.070
 2407SOL    HW1 8120   2.591   1.079   3.133
 2407SOL    HW2 8121   2.746   1.066   3.084
 2408SOL     OW 8122   3.081   6.386   5.522
 2408SOL    HW1 8123   3.066   6.479   5.555
 2408SOL    HW2 8124   3.178   6.374   5.502
 2409SOL     OW 8125   1.092   3.427   0.315
 2409SOL    HW1 8126   1.132   3.345   0.355
 2409SOL    HW2 8127   1.134   3.444   0.225
 2410SOL     OW 8128   0.615   2.782   4.327
 2410SOL    HW1 8129   0.613   2.878   4.299
 2410SOL    HW2 8130   0.536   2.763   4.386
 2411SOL     OW 8131   3.153   2.120   0.023
 2411SOL    HW1 8132   3.088   2.045   0.038
 2411SOL    HW2 8133   3.226   2.115   0.092
 2412SOL     OW 8134   3.229   1.890   5.714
 2412SOL    HW1 8135   3.147   1.928   5.672
 2412SOL    HW2 8136   3.204   1.833   5.793
 2413SOL     OW 8137   0.156   3.165   0.319
 2413SOL    HW1 8138   0.095   3.178   0.397
 2413SOL    HW2 8139   0.247   3.139   0.351
 2414SOL     OW 8140   6.312   2.015   5.134
 2414SOL    HW1 8141   6.410   2.002   5.145
 2414SOL    HW2 8142   6.281   1.965   5.053
 2415SOL     OW 8143   2.706   4.967   6.544
 2415SOL    HW1 8144   2.805   4.971   6.533
 2415SOL    HW2 8145   2.671   5.059   6.564
 2416SOL     OW 8146   0.108   3.379   2.732
 2416SOL    HW1 8147   0.161   3.296   2.752
 2416SOL    HW2 8148   0.014   3.355   2.711
 2417SOL     OW 8149   3.063   2.675   1.692
 2417SOL    HW1 8150   3.101   2.621   1.617
 2417SOL    HW2 8151   3.034   2.614   1.766
 2418SOL     OW 8152   5.096   3.913   6.805
 2418SOL    HW1 8153   5.010   3.913   6.754
 2418SOL    HW2 8154   5.078   3.895   6.902
 2419SOL     OW 8155   2.772   0.562   3.530
 2419SOL    HW1 8156   2.721   0.614   3.462
 2419SOL    HW2 8157   2.707   0.513   3.589
 2420SOL     OW 8158   1.328   4.048   2.743
 2420SOL    HW1 8159   1.299   4.114   2.813
 2420SOL    HW2 8160   1.427   4.048   2.736
 2421SOL     OW 8161   3.136   6.959   3.301
 2421SOL    HW1 8162   3.165   0.034   3.296
 2421SOL    HW2 8163   3.187   6.906   3.233
 2422SOL     OW 8164   4.420   5.464   0.870
 2422SOL    HW1 8165   4.334   5.515   0.863
 2422SOL    HW2 8166   4.495   5.526   0.891
 2423SOL     OW 8167   2.196   5.760   2.719
 2423SOL    HW1 8168   2.276   5.728   2.669
 2423SOL    HW2 8169   2.225   5.827   2.788
 2424SOL     OW 8170   5.142   6.899   6.465
 2424SOL    HW1 8171   5.146   6.984   6.519
 2424SOL    HW2 8172   5.221   6.895   6.404
 2425SOL     OW 8173   4.941   5.734   4.507
 2425SOL    HW1 8174   4.869   5.671   4.537
 2425SOL    HW2 8175   4.899   5.820   4.477
 2426SOL     OW 8176   2.073   2.857   5.540
 2426SOL    HW1 8177   2.132   2.778   5.527
 2426SOL    HW2 8178   1.989   2.845   5.488
 2427SOL     OW 8179   5.774   0.726   0.444
 2427SOL    HW1 8180   5.769   0.823   0.467
 2427SOL    HW2 8181   5.809   0.675   0.522
 2428SOL     OW 8182   0.744   1.126   3.472
 2428SOL    HW1 8183   0.832   1.132   3.424
 2428SOL    HW2 8184   0.749   1.055   3.542
 2429SOL     OW 8185   5.375   4.800   1.363
 2429SOL    HW1 8186   5.314   4.801   1.443
 2429SOL    HW2 8187   5.436   4.721   1.369
 2430SOL     OW 8188   6.150   0.877   6.660
 2430SOL    HW1 8189   6.198   0.923   6.735
 2430SOL    HW2 8190   6.124   0.785   6.690
 2431SOL     OW 8191   0.613   3.283   1.870
 2431SOL    HW1 8192   0.518   3.276   1.841
 2431SOL    HW2 8193   0.670   3.220   1.817
 2432SOL     OW 8194   2.433   5.175   1.852
 2432SOL    HW1 8195   2.509   5.240   1.860
 2432SOL    HW2 8196   2.453   5.093   1.906
 2433SOL     OW 8197   7.020   4.004   5.512
 2433SOL    HW1 8198   0.044   3.936   5.454
 2433SOL    HW2 8199   6.963   4.064   5.456
 2434SOL     OW 8200   4.267   0.468   2.197
 2434SOL    HW1 8201   4.234   0.465   2.103
 2434SOL    HW2 8202   4.190   0.461   2.261
 2435SOL     OW 8203   6.220   0.087   6.916
 2435SOL    HW1 8204   6.275   0.168   6.895
 2435SOL    HW2 8205   6.161   0.066   6.838
 2436SOL     OW 8206   1.229   2.108   1.901
 2436SOL    HW1 8207   1.286   2.178   1.944
 2436SOL    HW2 8208   1.221   2.127   1.803
 2437SOL     OW 8209   6.901   4.174   3.222
 2437SOL    HW1 8210   6.931   4.253   3.169
 2437SOL    HW2 8211   6.914   4.091   3.168
 2438SOL     OW 8212   3.561   1.143   4.601
 2438SOL    HW1 8213   3.492   1.196   4.649
 2438SOL    HW2 8214   3.518   1.064   4.557
 2439SOL     OW 8215   1.375   6.018   1.429
 2439SOL    HW1 8216   1.306   6.074   1.475
 2439SOL    HW2 8217   1.376   5.926   1.468
 2440SOL     OW 8218   5.748   0.983   5.291
 2440SOL    HW1 8219   5.699   0.896   5.281
 2440SOL    HW2 8220   5.692   1.047   5.342
 2441SOL     OW 8221   6.357   0.435   0.176
 2441SOL    HW1 8222   6.434   0.398   0.125
 2441SOL    HW2 8223   6.286   0.366   0.185
 2442SOL     OW 8224   5.578   3.180   1.244
 2442SOL    HW1 8225   5.639   3.172   1.323
 2442SOL    HW2 8226   5.546   3.089   1.217
 2443SOL     OW 8227   1.256   3.097   2.241
 2443SOL    HW1 8228   1.186   3.139   2.299
 2443SOL    HW2 8229   1.346   3.133   2.267
 2444SOL     OW 8230   3.243   5.929   2.297
 2444SOL    HW1 8231   3.150   5.935   2.261
 2444SOL    HW2 8232   3.255   5.994   2.372
 2445SOL     OW 8233   0.534   2.695   1.735
 2445SOL    HW1 8234   0.629   2.694   1.766
 2445SOL    HW2 8235   0.499   2.601   1.733
 2446SOL     OW 8236   1.409   5.437   1.687
 2446SOL    HW1 8237   1.315   5.421   1.658
 2446SOL    HW2 8238   1.452   5.349   1.710
 2447SOL     OW 8239   2.262   6.867   6.936
 2447SOL    HW1 8240   2.309   6.883   0.002
 2447SOL    HW2 8241   2.232   6.955   6.898
 2448SOL     OW 8242   5.408   1.310   4.538
 2448SOL    HW1 8243   5.461   1.317   4.623
 2448SOL    HW2 8244   5.322   1.264   4.557
 2449SOL     OW 8245   1.457   4.168   1.952
 2449SOL    HW1 8246   1.443   4.079   1.909
 2449SOL    HW2 8247   1.429   4.163   2.048
 2450SOL     OW 8248   1.242   6.453   5.869
 2450SOL    HW1 8249   1.241   6.413   5.961
 2450SOL    HW2 8250   1.164   6.515   5.858
 2451SOL     OW 8251   0.894   6.078   5.166
 2451SOL    HW1 8252   0.842   6.131   5.099
 2451SOL    HW2 8253   0.833   6.018   5.217
 2452SOL     OW 8254   2.126   2.433   3.431
 2452SOL    HW1 8255   2.205   2.375   3.454
 2452SOL    HW2 8256   2.096   2.412   3.337
 2453SOL     OW 8257   0.373   0.918   5.977
 2453SOL    HW1 8258   0.331   0.883   6.061
 2453SOL    HW2 8259   0.465   0.882   5.967
 2454SOL     OW 8260   3.518   5.522   0.906
 2454SOL    HW1 8261   3.601   5.479   0.942
 2454SOL    HW2 8262   3.522   5.620   0.924
 2455SOL     OW 8263   4.153   2.483   0.549
 2455SOL    HW1 8264   4.226   2.540   0.587
 2455SOL    HW2 8265   4.136   2.406   0.610
 2456SOL     OW 8266   0.606   3.682   6.723
 2456SOL    HW1 8267   0.506   3.677   6.718
 2456SOL    HW2 8268   0.636   3.775   6.701
 2457SOL     OW 8269   4.855   2.172   4.738
 2457SOL    HW1 8270   4.933   2.218   4.780
 2457SOL    HW2 8271   4.777   2.174   4.801
 2458SOL     OW 8272   0.792   0.648   2.292
 2458SOL    HW1 8273   0.722   0.696   2.240
 2458SOL    HW2 8274   0.766   0.551   2.301
 2459SOL     OW 8275   2.686   0.255   0.103
 2459SOL    HW1 8276   2.641   0.169   0.127
 2459SOL    HW2 8277   2.778   0.236   0.069
 2460SOL     OW 8278   1.255   0.952   4.758
 2460SOL    HW1 8279   1.280   1.044   4.788
 2460SOL    HW2 8280   1.206   0.958   4.671
 2461SOL     OW 8281   4.513   6.881   3.675
 2461SOL    HW1 8282   4.572   6.884   3.756
 2461SOL    HW2 8283   4.459   6.798   3.676
 2462SOL     OW 8284   0.076   4.115   0.314
 2462SOL    HW1 8285   0.063   4.031   0.366
 2462SOL    HW2 8286   0.111   4.187   0.374
 2463SOL     OW 8287   0.235   0.487   0.258
 2463SOL    HW1 8288   0.212   0.418   0.190
 2463SOL    HW2 8289   0.161   0.496   0.324
 2464SOL     OW 8290   0.839   2.913   3.630
 2464SOL    HW1 8291   0.804   2.978   3.562
 2464SOL    HW2 8292   0.933   2.888   3.608
 2465SOL     OW 8293   0.238   6.517   5.928
 2465SOL    HW1 8294   0.225   6.554   6.021
 2465SOL    HW2 8295   0.336   6.506   5.910
 2466SOL     OW 8296   0.390   2.116   1.888
 2466SOL    HW1 8297   0.472   2.167   1.861
 2466SOL    HW2 8298   0.309   2.159   1.848
 2467SOL     OW 8299   6.005   2.164   5.286
 2467SOL    HW1 8300   6.008   2.218   5.370
 2467SOL    HW2 8301   5.912   2.132   5.270
 2468SOL     OW 8302   3.249   6.613   5.364
 2468SOL    HW1 8303   3.303   6.543   5.410
 2468SOL    HW2 8304   3.157   6.617   5.404
 2469SOL     OW 8305   3.639   2.116   5.907
 2469SOL    HW1 8306   3.581   2.198   5.903
 2469SOL    HW2 8307   3.582   2.036   5.923
 2470SOL     OW 8308   2.826   4.481   6.126
 2470SOL    HW1 8309   2.909   4.475   6.070
 2470SOL    HW2 8310   2.800   4.577   6.135
 2471SOL     OW 8311   2.851   5.986   2.267
 2471SOL    HW1 8312   2.836   5.893   2.301
 2471SOL    HW2 8313   2.864   5.983   2.167
 2472SOL     OW 8314   4.469   1.475   3.520
 2472SOL    HW1 8315   4.508   1.565   3.538
 2472SOL    HW2 8316   4.443   1.469   3.424
 2473SOL     OW 8317   0.673   4.156   5.001
 2473SOL    HW1 8318   0.724   4.071   4.992
 2473SOL    HW2 8319   0.702   4.220   4.930
 2474SOL     OW 8320   1.427   6.248   1.887
 2474SOL    HW1 8321   1.452   6.331   1.937
 2474SOL    HW2 8322   1.507   6.187   1.882
 2475SOL     OW 8323   5.265   1.027   1.248
 2475SOL    HW1 8324   5.176   1.073   1.245
 2475SOL    HW2 8325   5.280   0.977   1.163
 2476SOL     OW 8326   5.388   0.705   6.847
 2476SOL    HW1 8327   5.409   0.705   6.749
 2476SOL    HW2 8328   5.399   0.798   6.883
 2477SOL     OW 8329   3.781   0.135   3.466
 2477SOL    HW1 8330   3.842   0.078   3.411
 2477SOL    HW2 8331   3.785   0.106   3.562
 2478SOL     OW 8332   4.363   6.899   4.332
 2478SOL    HW1 8333   4.305   6.976   4.360
 2478SOL    HW2 8334   4.360   6.889   4.233
 2479SOL     OW 8335   5.986   3.120   6.966
 2479SOL    HW1 8336   5.957   3.190   0.011
 2479SOL    HW2 8337   5.915   3.050   6.957
 2480SOL     OW 8338   3.341   2.642   1.707
 2480SOL    HW1 8339   3.299   2.719   1.660
 2480SOL    HW2 8340   3.311   2.557   1.665
 2481SOL     OW 8341   3.395   0.263   1.095
 2481SOL    HW1 8342   3.310   0.292   1.050
 2481SOL    HW2 8343   3.441   0.195   1.038
 2482SOL     OW 8344   5.874   3.042   6.381
 2482SOL    HW1 8345   5.878   2.987   6.465
 2482SOL    HW2 8346   5.810   3.001   6.317
 2483SOL     OW 8347   1.095   2.505   0.546
 2483SOL    HW1 8348   1.098   2.440   0.470
 2483SOL    HW2 8349   1.044   2.586   0.519
 2484SOL     OW 8350   4.963   1.502   1.248
 2484SOL    HW1 8351   4.938   1.482   1.153
 2484SOL    HW2 8352   4.980   1.417   1.296
 2485SOL     OW 8353   6.375   2.203   5.965
 2485SOL    HW1 8354   6.356   2.106   5.951
 2485SOL    HW2 8355   6.351   2.228   6.059
 2486SOL     OW 8356   6.889   4.135   5.329
 2486SOL    HW1 8357   6.827   4.068   5.287
 2486SOL    HW2 8358   6.910   4.207   5.264
 2487SOL     OW 8359   4.909   5.768   6.967
 2487SOL    HW1 8360   4.937   5.737   0.037
 2487SOL    HW2 8361   4.988   5.765   6.905
 2488SOL     OW 8362   6.812   3.960   1.294
 2488SOL    HW1 8363   6.832   4.029   1.224
 2488SOL    HW2 8364   6.713   3.955   1.309
 2489SOL     OW 8365   0.296   6.458   4.256
 2489SOL    HW1 8366   0.210   6.469   4.306
 2489SOL    HW2 8367   0.362   6.526   4.287
 2490SOL     OW 8368   2.669   6.192   2.316
 2490SOL    HW1 8369   2.705   6.108   2.275
 2490SOL    HW2 8370   2.583   6.216   2.272
 2491SOL     OW 8371   3.686   4.768   1.537
 2491SOL    HW1 8372   3.686   4.710   1.456
 2491SOL    HW2 8373   3.645   4.857   1.515
 2492SOL     OW 8374   0.192   4.435   1.317
 2492SOL    HW1 8375   0.126   4.362   1.335
 2492SOL    HW2 8376   0.226   4.427   1.224
 2493SOL     OW 8377   6.513   6.585   1.681
 2493SOL    HW1 8378   6.434   6.571   1.622
 2493SOL    HW2 8379   6.597   6.574   1.628
 2494SOL     OW 8380   6.190   3.503   2.040
 2494SOL    HW1 8381   6.286   3.477   2.047
 2494SOL    HW2 8382   6.183   3.600   2.017
 2495SOL     OW 8383   6.260   5.113   4.366
 2495SOL    HW1 8384   6.331   5.083   4.429
 2495SOL    HW2 8385   6.293   5.105   4.272
 2496SOL     OW 8386   6.403   5.166   6.389
 2496SOL    HW1 8387   6.497   5.133   6.379
 2496SOL    HW2 8388   6.394   5.213   6.477
 2497SOL     OW 8389   0.264   0.114   1.997
 2497SOL    HW1 8390   0.294   0.200   2.040
 2497SOL    HW2 8391   0.173   0.091   2.030
 2498SOL     OW 8392   1.893   3.473   5.930
 2498SOL    HW1 8393   1.931   3.564   5.914
 2498SOL    HW2 8394   1.966   3.404   5.924
 2499SOL     OW 8395   0.102   3.170   1.671
 2499SOL    HW1 8396   0.156   3.200   1.749
 2499SOL    HW2 8397   0.125   3.226   1.591
 2500SOL     OW 8398   4.011   4.172   6.859
 2500SOL    HW1 8399   4.061   4.186   6.944
 2500SOL    HW2 8400   3.916   4.145   6.880
 2501SOL     OW 8401   5.952   5.880   0.309
 2501SOL    HW1 8402   5.950   5.780   0.305
 2501SOL    HW2 8403   5.991   5.916   0.224
 2502SOL     OW 8404   2.967   5.219   4.350
 2502SOL    HW1 8405   2.930   5.311   4.336
 2502SOL    HW2 8406   2.990   5.178   4.262
 2503SOL     OW 8407   2.403   6.490   5.755
 2503SOL    HW1 8408   2.349   6.444   5.685
 2503SOL    HW2 8409   2.405   6.434   5.838
 2504SOL     OW 8410   3.242   5.610   2.739
 2504SOL    HW1 8411   3.142   5.619   2.734
 2504SOL    HW2 8412   3.283   5.701   2.745
 2505SOL     OW 8413   0.014   5.621   2.974
 2505SOL    HW1 8414   0.077   5.545   2.959
 2505SOL    HW2 8415   6.984   5.640   2.890
 2506SOL     OW 8416   5.072   5.621   5.786
 2506SOL    HW1 8417   5.071   5.521   5.794
 2506SOL    HW2 8418   5.105   5.647   5.695
 2507SOL     OW 8419   6.897   3.530   0.274
 2507SOL    HW1 8420   6.976   3.482   0.237
 2507SOL    HW2 8421   6.844   3.467   0.331
 2508SOL     OW 8422   4.281   1.969   3.841
 2508SOL    HW1 8423   4.216   1.927   3.905
 2508SOL    HW2 8424   4.258   1.940   3.748
 2509SOL     OW 8425   0.135   3.685   5.619
 2509SOL    HW1 8426   0.216   3.735   5.589
 2509SOL    HW2 8427   0.057   3.710   5.561
 2510SOL     OW 8428   3.229   3.941   1.981
 2510SOL    HW1 8429   3.305   4.005   1.972
 2510SOL    HW2 8430   3.166   3.953   1.905
 2511SOL     OW 8431   2.036   0.698   5.121
 2511SOL    HW1 8432   2.124   0.657   5.143
 2511SOL    HW2 8433   2.049   0.790   5.084
 2512SOL     OW 8434   3.787   4.941   4.487
 2512SOL    HW1 8435   3.797   5.040   4.477
 2512SOL    HW2 8436   3.877   4.899   4.497
 2513SOL     OW 8437   2.185   6.084   6.128
 2513SOL    HW1 8438   2.282   6.084   6.103
 2513SOL    HW2 8439   2.166   6.003   6.184
 2514SOL     OW 8440   1.047   2.853   3.304
 2514SOL    HW1 8441   1.077   2.946   3.283
 2514SOL    HW2 8442   1.049   2.839   3.403
 2515SOL     OW 8443   1.623   1.529   1.668
 2515SOL    HW1 8444   1.723   1.527   1.674
 2515SOL    HW2 8445   1.586   1.594   1.734
 2516SOL     OW 8446   5.641   1.488   3.575
 2516SOL    HW1 8447   5.643   1.398   3.531
 2516SOL    HW2 8448   5.688   1.483   3.663
 2517SOL     OW 8449   1.379   1.122   4.391
 2517SOL    HW1 8450   1.364   1.158   4.299
 2517SOL    HW2 8451   1.344   1.186   4.459
 2518SOL     OW 8452   2.855   4.330   1.120
 2518SOL    HW1 8453   2.912   4.248   1.110
 2518SOL    HW2 8454   2.771   4.306   1.169
 2519SOL     OW 8455   1.855   1.454   0.801
 2519SOL    HW1 8456   1.907   1.421   0.880
 2519SOL    HW2 8457   1.824   1.547   0.819
 2520SOL     OW 8458   3.619   2.396   1.051
 2520SOL    HW1 8459   3.590   2.397   1.147
 2520SOL    HW2 8460   3.676   2.316   1.035
 2521SOL     OW 8461   4.900   1.569   5.361
 2521SOL    HW1 8462   4.849   1.590   5.278
 2521SOL    HW2 8463   4.913   1.653   5.414
 2522SOL     OW 8464   0.361   1.966   5.446
 2522SOL    HW1 8465   0.342   2.033   5.518
 2522SOL    HW2 8466   0.409   1.888   5.485
 2523SOL     OW 8467   1.577   4.768   0.107
 2523SOL    HW1 8468   1.548   4.818   0.188
 2523SOL    HW2 8469   1.507   4.701   0.082
 2524SOL     OW 8470   1.446   6.658   3.839
 2524SOL    HW1 8471   1.358   6.616   3.859
 2524SOL    HW2 8472   1.518   6.609   3.887
 2525SOL     OW 8473   6.862   2.128   4.022
 2525SOL    HW1 8474   6.903   2.153   3.934
 2525SOL    HW2 8475   6.762   2.134   4.014
 2526SOL     OW 8476   1.121   6.439   0.644
 2526SOL    HW1 8477   1.077   6.362   0.597
 2526SOL    HW2 8478   1.192   6.478   0.585
 2527SOL     OW 8479   5.363   5.450   6.460
 2527SOL    HW1 8480   5.332   5.371   6.406
 2527SOL    HW2 8481   5.373   5.423   6.555
 2528SOL     OW 8482   4.855   5.206   6.656
 2528SOL    HW1 8483   4.839   5.291   6.607
 2528SOL    HW2 8484   4.768   5.159   6.671
 2529SOL     OW 8485   0.431   6.980   6.117
 2529SOL    HW1 8486   0.490   0.004   6.184
 2529SOL    HW2 8487   0.483   6.958   6.035
 2530SOL     OW 8488   2.415   5.882   5.639
 2530SOL    HW1 8489   2.367   5.950   5.583
 2530SOL    HW2 8490   2.491   5.843   5.587
 2531SOL     OW 8491   6.367   5.379   6.197
 2531SOL    HW1 8492   6.332   5.302   6.250
 2531SOL    HW2 8493   6.292   5.426   6.152
 2532SOL     OW 8494   0.213   6.988   1.036
 2532SOL    HW1 8495   0.227   0.004   0.944
 2532SOL    HW2 8496   0.273   0.015   1.100
 2533SOL     OW 8497   5.498   0.660   3.035
 2533SOL    HW1 8498   5.411   0.621   3.007
 2533SOL    HW2 8499   5.544   0.700   2.955
 2534SOL     OW 8500   4.636   1.863   2.117
 2534SOL    HW1 8501   4.562   1.889   2.179
 2534SOL    HW2 8502   4.605   1.872   2.022
 2535SOL     OW 8503   3.590   2.764   6.321
 2535SOL    HW1 8504   3.546   2.782   6.409
 2535SOL    HW2 8505   3.618   2.668   6.318
 2536SOL     OW 8506   1.419   0.596   6.763
 2536SOL    HW1 8507   1.482   0.539   6.817
 2536SOL    HW2 8508   1.445   0.692   6.773
 2537SOL     OW 8509   4.173   1.250   0.313
 2537SOL    HW1 8510   4.111   1.323   0.283
 2537SOL    HW2 8511   4.119   1.174   0.350
 2538SOL     OW 8512   0.036   3.578   4.085
 2538SOL    HW1 8513   6.975   3.547   4.134
 2538SOL    HW2 8514   0.036   3.678   4.083
 2539SOL     OW 8515   5.329   1.450   4.861
 2539SOL    HW1 8516   5.246   1.445   4.805
 2539SOL    HW2 8517   5.385   1.369   4.844
 2540SOL     OW 8518   3.338   1.424   2.455
 2540SOL    HW1 8519   3.243   1.408   2.484
 2540SOL    HW2 8520   3.370   1.346   2.401
 2541SOL     OW 8521   3.725   6.055   5.199
 2541SOL    HW1 8522   3.802   6.096   5.248
 2541SOL    HW2 8523   3.715   5.959   5.226
 2542SOL     OW 8524   1.037   4.810   0.103
 2542SOL    HW1 8525   1.047   4.908   0.086
 2542SOL    HW2 8526   1.127   4.771   0.124
 2543SOL     OW 8527   1.470   1.663   4.445
 2543SOL    HW1 8528   1.543   1.683   4.379
 2543SOL    HW2 8529   1.417   1.747   4.462
 2544SOL     OW 8530   0.961   5.464   0.626
 2544SOL    HW1 8531   1.016   5.381   0.615
 2544SOL    HW2 8532   1.021   5.542   0.642
 2545SOL     OW 8533   1.965   5.987   3.265
 2545SOL    HW1 8534   1.885   5.979   3.205
 2545SOL    HW2 8535   1.980   6.084   3.286
 2546SOL     OW 8536   6.197   2.143   0.713
 2546SOL    HW1 8537   6.288   2.175   0.685
 2546SOL    HW2 8538   6.201   2.111   0.807
 2547SOL     OW 8539   0.169   3.923   5.127
 2547SOL    HW1 8540   0.188   3.962   5.037
 2547SOL    HW2 8541   0.070   3.910   5.138
 2548SOL     OW 8542   0.326   6.692   4.007
 2548SOL    HW1 8543   0.343   6.616   3.944
 2548SOL    HW2 8544   0.413   6.729   4.039
 2549SOL     OW 8545   0.488   1.031   1.580
 2549SOL    HW1 8546   0.570   0.984   1.613
 2549SOL    HW2 8547   0.494   1.044   1.481
 2550SOL     OW 8548   6.182   6.274   0.432
 2550SOL    HW1 8549   6.278   6.263   0.455
 2550SOL    HW2 8550   6.134   6.316   0.509
 2551SOL     OW 8551   1.806   4.150   6.608
 2551SOL    HW1 8552   1.763   4.060   6.611
 2551SOL    HW2 8553   1.752   4.211   6.551
 2552SOL     OW 8554   2.677   5.487   2.889
 2552SOL    HW1 8555   2.577   5.491   2.891
 2552SOL    HW2 8556   2.708   5.410   2.945
 2553SOL     OW 8557   3.884   3.579   6.334
 2553SOL    HW1 8558   3.935   3.493   6.330
 2553SOL    HW2 8559   3.796   3.568   6.287
 2554SOL     OW 8560   1.443   1.615   0.628
 2554SOL    HW1 8561   1.388   1.536   0.656
 2554SOL    HW2 8562   1.441   1.684   0.700
 2555SOL     OW 8563   5.632   2.419   5.966
 2555SOL    HW1 8564   5.694   2.425   6.045
 2555SOL    HW2 8565   5.550   2.369   5.993
 2556SOL     OW 8566   3.540   5.775   0.912
 2556SOL    HW1 8567   3.562   5.869   0.940
 2556SOL    HW2 8568   3.476   5.777   0.835
 2557SOL     OW 8569   1.800   4.005   6.319
 2557SOL    HW1 8570   1.779   4.079   6.384
 2557SOL    HW2 8571   1.837   4.044   6.235
 2558SOL     OW 8572   4.617   1.076   5.589
 2558SOL    HW1 8573   4.545   1.047   5.526
 2558SOL    HW2 8574   4.626   1.175   5.586
 2559SOL     OW 8575   0.313   4.588   5.182
 2559SOL    HW1 8576   0.224   4.555   5.153
 2559SOL    HW2 8577   0.320   4.686   5.164
 2560SOL     OW 8578   6.059   1.788   5.860
 2560SOL    HW1 8579   6.024   1.864   5.915
 2560SOL    HW2 8580   6.150   1.762   5.894
 2561SOL     OW 8581   2.825   5.545   4.640
 2561SOL    HW1 8582   2.886   5.470   4.614
 2561SOL    HW2 8583   2.772   5.518   4.720
 2562SOL     OW 8584   1.760   3.636   0.540
 2562SOL    HW1 8585   1.751   3.620   0.442
 2562SOL    HW2 8586   1.799   3.554   0.583
 2563SOL     OW 8587   2.380   1.337   0.114
 2563SOL    HW1 8588   2.302   1.381   0.070
 2563SOL    HW2 8589   2.418   1.398   0.183
 2564SOL     OW 8590   1.669   4.986   1.770
 2564SOL    HW1 8591   1.711   4.993   1.860
 2564SOL    HW2 8592   1.664   5.077   1.728
 2565SOL     OW 8593   1.483   0.604   1.583
 2565SOL    HW1 8594   1.466   0.612   1.681
 2565SOL    HW2 8595   1.577   0.575   1.567
 2566SOL     OW 8596   1.956   6.707   6.838
 2566SOL    HW1 8597   1.888   6.649   6.794
 2566SOL    HW2 8598   2.044   6.695   6.793
 2567SOL     OW 8599   1.639   6.418   0.692
 2567SOL    HW1 8600   1.698   6.346   0.654
 2567SOL    HW2 8601   1.643   6.415   0.792
 2568SOL     OW 8602   4.336   2.137   6.843
 2568SOL    HW1 8603   4.428   2.097   6.851
 2568SOL    HW2 8604   4.295   2.143   6.934
 2569SOL     OW 8605   3.458   0.344   3.656
 2569SOL    HW1 8606   3.448   0.431   3.704
 2569SOL    HW2 8607   3.528   0.352   3.585
 2570SOL     OW 8608   5.328   1.637   6.204
 2570SOL    HW1 8609   5.297   1.600   6.291
 2570SOL    HW2 8610   5.335   1.564   6.136
 2571SOL     OW 8611   1.448   5.034   3.767
 2571SOL    HW1 8612   1.510   5.007   3.694
 2571SOL    HW2 8613   1.357   5.053   3.730
 2572SOL     OW 8614   2.544   4.991   3.253
 2572SOL    HW1 8615   2.518   5.052   3.178
 2572SOL    HW2 8616   2.487   4.909   3.250
 2573SOL     OW 8617   0.490   0.731   1.452
 2573SOL    HW1 8618   0.530   0.814   1.412
 2573SOL    HW2 8619   0.391   0.744   1.462
 2574SOL     OW 8620   6.063   3.444   0.386
 2574SOL    HW1 8621   6.127   3.506   0.432
 2574SOL    HW2 8622   6.036   3.372   0.450
 2575SOL     OW 8623   6.837   5.398   6.534
 2575SOL    HW1 8624   6.765   5.419   6.467
 2575SOL    HW2 8625   6.882   5.483   6.561
 2576SOL     OW 8626   5.048   6.378   3.875
 2576SOL    HW1 8627   5.060   6.281   3.857
 2576SOL    HW2 8628   5.044   6.394   3.974
 2577SOL     OW 8629   2.699   4.616   2.309
 2577SOL    HW1 8630   2.781   4.565   2.337
 2577SOL    HW2 8631   2.710   4.649   2.215
 2578SOL     OW 8632   3.831   1.816   3.564
 2578SOL    HW1 8633   3.741   1.788   3.532
 2578SOL    HW2 8634   3.883   1.735   3.592
 2579SOL     OW 8635   0.534   6.859   3.541
 2579SOL    HW1 8636   0.566   6.764   3.539
 2579SOL    HW2 8637   0.435   6.860   3.559
 2580SOL     OW 8638   2.344   2.635   0.243
 2580SOL    HW1 8639   2.365   2.599   0.333
 2580SOL    HW2 8640   2.428   2.639   0.188
 2581SOL     OW 8641   2.965   0.032   5.362
 2581SOL    HW1 8642   2.916   7.001   5.291
 2581SOL    HW2 8643   2.955   7.005   5.450
 2582SOL     OW 8644   0.260   3.136   1.245
 2582SOL    HW1 8645   0.177   3.108   1.294
 2582SOL    HW2 8646   0.340   3.116   1.302
 2583SOL     OW 8647   6.135   6.746   1.260
 2583SOL    HW1 8648   6.124   6.647   1.250
 2583SOL    HW2 8649   6.086   6.793   1.187
 2584SOL     OW 8650   4.506   4.672   5.374
 2584SOL    HW1 8651   4.482   4.764   5.405
 2584SOL    HW2 8652   4.605   4.667   5.358
 2585SOL     OW 8653   3.307   4.768   6.776
 2585SOL    HW1 8654   3.332   4.686   6.723
 2585SOL    HW2 8655   3.375   4.783   6.848
 2586SOL     OW 8656   1.760   0.679   5.253
 2586SOL    HW1 8657   1.740   0.591   5.296
 2586SOL    HW2 8658   1.845   0.672   5.201
 2587SOL     OW 8659   6.590   1.674   3.417
 2587SOL    HW1 8660   6.567   1.672   3.514
 2587SOL    HW2 8661   6.619   1.582   3.388
 2588SOL     OW 8662   4.452   1.207   5.208
 2588SOL    HW1 8663   4.534   1.262   5.224
 2588SOL    HW2 8664   4.423   1.215   5.113
 2589SOL     OW 8665   1.541   6.725   0.342
 2589SOL    HW1 8666   1.602   6.788   0.390
 2589SOL    HW2 8667   1.487   6.776   0.275
 2590SOL     OW 8668   2.934   5.034   0.188
 2590SOL    HW1 8669   2.861   4.966   0.190
 2590SOL    HW2 8670   3.011   5.000   0.135
 2591SOL     OW 8671   5.610   5.516   4.001
 2591SOL    HW1 8672   5.678   5.547   4.067
 2591SOL    HW2 8673   5.569   5.596   3.955
 2592SOL     OW 8674   2.545   4.222   6.897
 2592SOL    HW1 8675   2.536   4.319   6.923
 2592SOL    HW2 8676   2.587   4.215   6.807
 2593SOL     OW 8677   3.133   4.219   0.506
 2593SOL    HW1 8678   3.233   4.226   0.512
 2593SOL    HW2 8679   3.093   4.252   0.592
 2594SOL     OW 8680   2.102   3.846   4.636
 2594SOL    HW1 8681   2.004   3.861   4.647
 2594SOL    HW2 8682   2.151   3.891   4.710
 2595SOL     OW 8683   1.560   0.490   3.464
 2595SOL    HW1 8684   1.564   0.468   3.561
 2595SOL    HW2 8685   1.510   0.418   3.416
 2596SOL     OW 8686   0.894   2.364   0.071
 2596SOL    HW1 8687   0.933   2.354   6.999
 2596SOL    HW2 8688   0.909   2.281   0.123
 2597SOL     OW 8689   6.962   6.229   6.420
 2597SOL    HW1 8690   6.923   6.163   6.484
 2597SOL    HW2 8691   6.921   6.319   6.435
 2598SOL     OW 8692   5.540   3.038   2.574
 2598SOL    HW1 8693   5.556   3.050   2.672
 2598SOL    HW2 8694   5.483   2.957   2.560
 2599SOL     OW 8695   2.407   6.565   2.100
 2599SOL    HW1 8696   2.382   6.638   2.036
 2599SOL    HW2 8697   2.401   6.600   2.194
 2600SOL     OW 8698   6.205   3.939   4.513
 2600SOL    HW1 8699   6.174   3.858   4.562
 2600SOL    HW2 8700   6.304   3.944   4.516
 2601SOL     OW 8701   0.341   2.251   3.288
 2601SOL    HW1 8702   0.357   2.152   3.292
 2601SOL    HW2 8703   0.260   2.273   3.343
 2602SOL     OW 8704   1.634   5.566   3.902
 2602SOL    HW1 8705   1.599   5.494   3.842
 2602SOL    HW2 8706   1.705   5.617   3.854
 2603SOL     OW 8707   3.292   0.566   2.868
 2603SOL    HW1 8708   3.250   0.594   2.954
 2603SOL    HW2 8709   3.244   0.487   2.831
 2604SOL     OW 8710   4.567   2.056   2.785
 2604SOL    HW1 8711   4.657   2.035   2.746
 2604SOL    HW2 8712   4.538   1.979   2.842
 2605SOL     OW 8713   1.541   3.544   2.011
 2605SOL    HW1 8714   1.564   3.475   1.942
 2605SOL    HW2 8715   1.511   3.628   1.966
 2606SOL     OW 8716   4.112   3.904   0.907
 2606SOL    HW1 8717   4.025   3.858   0.889
 2606SOL    HW2 8718   4.123   3.920   1.005
 2607SOL     OW 8719   3.030   1.790   1.055
 2607SOL    HW1 8720   3.094   1.717   1.079
 2607SOL    HW2 8721   3.038   1.864   1.122
 2608SOL     OW 8722   2.201   5.650   6.232
 2608SOL    HW1 8723   2.129   5.580   6.226
 2608SOL    HW2 8724   2.220   5.686   6.141
 2609SOL     OW 8725   0.117   0.898   1.228
 2609SOL    HW1 8726   0.149   0.989   1.202
 2609SOL    HW2 8727   0.158   0.830   1.167
 2610SOL     OW 8728   1.556   4.718   4.676
 2610SOL    HW1 8729   1.582   4.733   4.771
 2610SOL    HW2 8730   1.578   4.625   4.649
 2611SOL     OW 8731   5.839   0.116   6.522
 2611SOL    HW1 8732   5.753   0.135   6.570
 2611SOL    HW2 8733   5.877   0.201   6.487
 2612SOL     OW 8734   6.113   0.097   5.600
 2612SOL    HW1 8735   6.035   0.146   5.562
 2612SOL    HW2 8736   6.144   0.143   5.683
 2613SOL     OW 8737   1.135   5.989   0.174
 2613SOL    HW1 8738   1.120   5.963   0.269
 2613SOL    HW2 8739   1.233   6.005   0.159
 2614SOL     OW 8740   0.049   1.630   0.001
 2614SOL    HW1 8741   0.098   1.658   0.083
 2614SOL    HW2 8742   0.063   1.698   6.949
 2615SOL     OW 8743   1.090   3.084   0.761
 2615SOL    HW1 8744   1.125   3.174   0.736
 2615SOL    HW2 8745   0.991   3.081   0.744
 2616SOL     OW 8746   1.679   0.091   5.327
 2616SOL    HW1 8747   1.779   0.085   5.339
 2616SOL    HW2 8748   1.642   7.020   5.314
 2617SOL     OW 8749   5.382   0.187   1.282
 2617SOL    HW1 8750   5.481   0.203   1.285
 2617SOL    HW2 8751   5.339   0.231   1.361
 2618SOL     OW 8752   1.526   6.554   6.488
 2618SOL    HW1 8753   1.524   6.597   6.398
 2618SOL    HW2 8754   1.442   6.501   6.501
 2619SOL     OW 8755   4.527   1.103   2.486
 2619SOL    HW1 8756   4.604   1.051   2.523
 2619SOL    HW2 8757   4.557   1.195   2.461
 2620SOL     OW 8758   6.399   0.103   1.097
 2620SOL    HW1 8759   6.395   0.198   1.127
 2620SOL    HW2 8760   6.494   0.076   1.082
 2621SOL     OW 8761   1.971   6.259   1.860
 2621SOL    HW1 8762   1.965   6.213   1.771
 2621SOL    HW2 8763   1.941   6.196   1.932
 2622SOL     OW 8764   3.565   3.226   6.242
 2622SOL    HW1 8765   3.576   3.257   6.336
 2622SOL    HW2 8766   3.584   3.127   6.238
 2623SOL     OW 8767   0.698   6.751   3.167
 2623SOL    HW1 8768   0.756   6.690   3.222
 2623SOL    HW2 8769   0.704   6.844   3.203
 2624SOL     OW 8770   6.969   1.938   4.698
 2624SOL    HW1 8771   0.033   1.917   4.648
 2624SOL    HW2 8772   6.907   1.859   4.692
 2625SOL     OW 8773   1.751   5.328   6.226
 2625SOL    HW1 8774   1.653   5.350   6.227
 2625SOL    HW2 8775   1.764   5.231   6.207
 2626SOL     OW 8776   6.889   5.024   6.645
 2626SOL    HW1 8777   6.920   4.934   6.677
 2626SOL    HW2 8778   6.892   5.089   6.720
 2627SOL     OW 8779   1.982   6.719   5.458
 2627SOL    HW1 8780   1.896   6.759   5.491
 2627SOL    HW2 8781   2.041   6.698   5.535
 2628SOL     OW 8782   0.755   4.877   2.058
 2628SOL    HW1 8783   0.833   4.816   2.044
 2628SOL    HW2 8784   0.783   4.957   2.111
 2629SOL     OW 8785   3.204   3.817   3.267
 2629SOL    HW1 8786   3.130   3.803   3.332
 2629SOL    HW2 8787   3.182   3.894   3.207
 2630SOL     OW 8788   3.869   0.518   3.667
 2630SOL    HW1 8789   3.800   0.457   3.706
 2630SOL    HW2 8790   3.905   0.578   3.739
 2631SOL     OW 8791   6.181   0.689   0.269
 2631SOL    HW1 8792   6.259   0.726   0.320
 2631SOL    HW2 8793   6.132   0.624   0.327
 2632SOL     OW 8794   5.365   4.157   2.306
 2632SOL    HW1 8795   5.315   4.235   2.267
 2632SOL    HW2 8796   5.324   4.072   2.273
 2633SOL     OW 8797   0.056   2.959   5.839
 2633SOL    HW1 8798   7.013   3.010   5.897
 2633SOL    HW2 8799   0.060   3.001   5.748
 2634SOL     OW 8800   6.954   1.230   6.041
 2634SOL    HW1 8801   0.024   1.194   6.019
 2634SOL    HW2 8802   6.885   1.163   6.017
 2635SOL     OW 8803   5.439   5.036   3.584
 2635SOL    HW1 8804   5.514   5.086   3.542
 2635SOL    HW2 8805   5.352   5.068   3.546
 2636SOL     OW 8806   3.967   5.563   5.151
 2636SOL    HW1 8807   3.909   5.573   5.232
 2636SOL    HW2 8808   3.916   5.594   5.070
 2637SOL     OW 8809   0.723   1.887   3.585
 2637SOL    HW1 8810   0.671   1.956   3.535
 2637SOL    HW2 8811   0.697   1.796   3.554
 2638SOL     OW 8812   1.040   6.303   4.507
 2638SOL    HW1 8813   1.036   6.348   4.597
 2638SOL    HW2 8814   1.110   6.347   4.451
 2639SOL     OW 8815   4.146   4.610   5.391
 2639SOL    HW1 8816   4.137   4.703   5.356
 2639SOL    HW2 8817   4.066   4.556   5.363
 2640SOL     OW 8818   1.348   6.685   4.171
 2640SOL    HW1 8819   1.377   6.767   4.123
 2640SOL    HW2 8820   1.420   6.654   4.232
 2641SOL     OW 8821   5.619   3.111   6.546
 2641SOL    HW1 8822   5.695   3.106   6.482
 2641SOL    HW2 8823   5.557   3.034   6.532
 2642SOL     OW 8824   6.118   1.170   3.645
 2642SOL    HW1 8825   6.034   1.218   3.671
 2642SOL    HW2 8826   6.190   1.237   3.626
 2643SOL     OW 8827   2.314   4.835   3.810
 2643SOL    HW1 8828   2.395   4.807   3.758
 2643SOL    HW2 8829   2.283   4.758   3.866
 2644SOL     OW 8830   4.876   4.807   4.481
 2644SOL    HW1 8831   4.956   4.851   4.440
 2644SOL    HW2 8832   4.816   4.773   4.408
 2645SOL     OW 8833   5.192   5.495   3.141
 2645SOL    HW1 8834   5.203   5.592   3.120
 2645SOL    HW2 8835   5.248   5.472   3.221
 2646SOL     OW 8836   0.461   2.762   6.709
 2646SOL    HW1 8837   0.513   2.834   6.663
 2646SOL    HW2 8838   0.485   2.673   6.671
 2647SOL     OW 8839   5.100   0.738   1.480
 2647SOL    HW1 8840   5.072   0.685   1.560
 2647SOL    HW2 8841   5.167   0.686   1.427
 2648SOL     OW 8842   0.891   0.346   6.629
 2648SOL    HW1 8843   0.985   0.312   6.630
 2648SOL    HW2 8844   0.877   0.407   6.707
 2649SOL     OW 8845   5.015   2.162   2.158
 2649SOL    HW1 8846   4.991   2.068   2.131
 2649SOL    HW2 8847   4.935   2.206   2.200
 2650SOL     OW 8848   2.704   6.232   4.339
 2650SOL    HW1 8849   2.776   6.170   4.306
 2650SOL    HW2 8850   2.701   6.313   4.280
 2651SOL     OW 8851   4.069   2.196   4.237
 2651SOL    HW1 8852   4.031   2.274   4.187
 2651SOL    HW2 8853   4.150   2.162   4.190
 2652SOL     OW 8854   4.930   4.197   5.360
 2652SOL    HW1 8855   4.941   4.098   5.374
 2652SOL    HW2 8856   4.909   4.241   5.447
 2653SOL     OW 8857   2.328   5.469   0.430
 2653SOL    HW1 8858   2.232   5.442   0.433
 2653SOL    HW2 8859   2.385   5.389   0.410
 2654SOL     OW 8860   6.579   1.281   6.860
 2654SOL    HW1 8861   6.637   1.263   6.781
 2654SOL    HW2 8862   6.620   1.353   6.917
 2655SOL     OW 8863   4.623   6.031   2.415
 2655SOL    HW1 8864   4.585   6.112   2.460
 2655SOL    HW2 8865   4.600   5.949   2.468
 2656SOL     OW 8866   3.877   6.334   2.564
 2656SOL    HW1 8867   3.854   6.277   2.643
 2656SOL    HW2 8868   3.976   6.341   2.556
 2657SOL     OW 8869   0.363   4.151   0.525
 2657SOL    HW1 8870   0.357   4.119   0.431
 2657SOL    HW2 8871   0.364   4.073   0.588
 2658SOL     OW 8872   3.504   5.068   6.837
 2658SOL    HW1 8873   3.464   5.152   6.874
 2658SOL    HW2 8874   3.550   5.089   6.751
 2659SOL     OW 8875   0.419   2.139   4.818
 2659SOL    HW1 8876   0.359   2.127   4.739
 2659SOL    HW2 8877   0.385   2.214   4.875
 2660SOL     OW 8878   0.445   1.996   2.367
 2660SOL    HW1 8879   0.346   1.983   2.373
 2660SOL    HW2 8880   0.465   2.065   2.298
 2661SOL     OW 8881   2.008   1.370   1.009
 2661SOL    HW1 8882   2.011   1.401   1.104
 2661SOL    HW2 8883   2.054   1.281   1.002
 2662SOL     OW 8884   2.619   0.600   1.960
 2662SOL    HW1 8885   2.521   0.601   1.939
 2662SOL    HW2 8886   2.646   0.507   1.986
 2663SOL     OW 8887   4.149   6.128   0.513
 2663SOL    HW1 8888   4.130   6.185   0.593
 2663SOL    HW2 8889   4.150   6.032   0.541
 2664SOL     OW 8890   4.298   3.885   5.633
 2664SOL    HW1 8891   4.359   3.911   5.708
 2664SOL    HW2 8892   4.262   3.967   5.588
 2665SOL     OW 8893   1.848   3.940   4.605
 2665SOL    HW1 8894   1.797   3.856   4.585
 2665SOL    HW2 8895   1.878   3.982   4.519
 2666SOL     OW 8896   2.176   3.926   2.368
 2666SOL    HW1 8897   2.093   3.952   2.319
 2666SOL    HW2 8898   2.256   3.961   2.318
 2667SOL     OW 8899   6.890   3.215   4.799
 2667SOL    HW1 8900   6.905   3.209   4.898
 2667SOL    HW2 8901   6.896   3.124   4.759
 2668SOL     OW 8902   6.258   0.373   3.673
 2668SOL    HW1 8903   6.184   0.310   3.698
 2668SOL    HW2 8904   6.241   0.463   3.714
 2669SOL     OW 8905   2.399   0.546   6.849
 2669SOL    HW1 8906   2.396   0.511   6.755
 2669SOL    HW2 8907   2.445   0.479   6.908
 2670SOL     OW 8908   0.153   6.822   6.949
 2670SOL    HW1 8909   0.204   6.761   6.888
 2670SOL    HW2 8910   0.055   6.803   6.940
 2671SOL     OW 8911   5.107   4.462   6.117
 2671SOL    HW1 8912   5.031   4.397   6.110
 2671SOL    HW2 8913   5.176   4.426   6.179
 2672SOL     OW 8914   3.420   0.737   1.657
 2672SOL    HW1 8915   3.361   0.808   1.618
 2672SOL    HW2 8916   3.515   0.757   1.637
 2673SOL     OW 8917   4.047   0.355   2.688
 2673SOL    HW1 8918   4.130   0.334   2.637
 2673SOL    HW2 8919   3.975   0.383   2.624
 2674SOL     OW 8920   0.426   5.072   2.309
 2674SOL    HW1 8921   0.472   4.987   2.332
 2674SOL    HW2 8922   0.352   5.054   2.244
 2675SOL     OW 8923   5.627   0.366   4.024
 2675SOL    HW1 8924   5.581   0.448   3.989
 2675SOL    HW2 8925   5.690   0.393   4.098
 2676SOL     OW 8926   3.862   3.978   2.998
 2676SOL    HW1 8927   3.782   4.028   3.033
 2676SOL    HW2 8928   3.895   3.916   3.069
 2677SOL     OW 8929   2.508   4.904   1.089
 2677SOL    HW1 8930   2.488   4.839   1.016
 2677SOL    HW2 8931   2.557   4.858   1.162
 2678SOL     OW 8932   4.266   1.963   3.017
 2678SOL    HW1 8933   4.248   1.865   3.025
 2678SOL    HW2 8934   4.321   1.993   3.095
 2679SOL     OW 8935   2.145   3.827   3.287
 2679SOL    HW1 8936   2.167   3.925   3.286
 2679SOL    HW2 8937   2.063   3.811   3.232
 2680SOL     OW 8938   6.368   1.567   0.184
 2680SOL    HW1 8939   6.404   1.604   0.098
 2680SOL    HW2 8940   6.269   1.584   0.188
 2681SOL     OW 8941   2.050   1.711   4.875
 2681SOL    HW1 8942   2.142   1.749   4.880
 2681SOL    HW2 8943   1.984   1.784   4.855
 2682SOL     OW 8944   3.973   3.972   1.775
 2682SOL    HW1 8945   4.011   3.880   1.785
 2682SOL    HW2 8946   3.897   3.983   1.839
 2683SOL     OW 8947   2.496   4.630   1.982
 2683SOL    HW1 8948   2.583   4.652   2.027
 2683SOL    HW2 8949   2.445   4.566   2.039
 2684SOL     OW 8950   6.650   6.550   3.700
 2684SOL    HW1 8951   6.602   6.601   3.770
 2684SOL    HW2 8952   6.656   6.605   3.616
 2685SOL     OW 8953   1.274   5.687   5.682
 2685SOL    HW1 8954   1.372   5.703   5.674
 2685SOL    HW2 8955   1.243   5.629   5.607
 2686SOL     OW 8956   0.309   1.418   5.105
 2686SOL    HW1 8957   0.391   1.470   5.132
 2686SOL    HW2 8958   0.334   1.322   5.094
 2687SOL     OW 8959   4.215   2.006   1.508
 2687SOL    HW1 8960   4.287   1.978   1.571
 2687SOL    HW2 8961   4.197   1.932   1.443
 2688SOL     OW 8962   3.897   2.940   6.031
 2688SOL    HW1 8963   3.913   3.039   6.033
 2688SOL    HW2 8964   3.936   2.902   5.948
 2689SOL     OW 8965   1.298   4.130   3.258
 2689SOL    HW1 8966   1.235   4.207   3.256
 2689SOL    HW2 8967   1.392   4.163   3.252
 2690SOL     OW 8968   3.862   1.558   5.455
 2690SOL    HW1 8969   3.937   1.594   5.510
 2690SOL    HW2 8970   3.898   1.515   5.373
 2691SOL     OW 8971   6.472   3.969   4.491
 2691SOL    HW1 8972   6.472   3.906   4.414
 2691SOL    HW2 8973   6.513   4.056   4.463
 2692SOL     OW 8974   2.462   5.847   2.381
 2692SOL    HW1 8975   2.365   5.826   2.381
 2692SOL    HW2 8976   2.494   5.857   2.286
 2693SOL     OW 8977   1.780   5.647   2.516
 2693SOL    HW1 8978   1.787   5.550   2.493
 2693SOL    HW2 8979   1.825   5.663   2.604
 2694SOL     OW 8980   2.688   0.613   2.638
 2694SOL    HW1 8981   2.712   0.699   2.684
 2694SOL    HW2 8982   2.700   0.624   2.539
 2695SOL     OW 8983   0.172   5.772   3.163
 2695SOL    HW1 8984   0.121   5.723   3.092
 2695SOL    HW2 8985   0.115   5.845   3.200
 2696SOL     OW 8986   5.472   4.851   6.077
 2696SOL    HW1 8987   5.511   4.797   6.151
 2696SOL    HW2 8988   5.372   4.851   6.084
 2697SOL     OW 8989   4.307   2.528   6.783
 2697SOL    HW1 8990   4.316   2.592   6.860
 2697SOL    HW2 8991   4.355   2.443   6.805
 2698SOL     OW 8992   1.629   4.664   6.124
 2698SOL    HW1 8993   1.606   4.661   6.026
 2698SOL    HW2 8994   1.728   4.665   6.135
 2699SOL     OW 8995   2.767   6.264   1.597
 2699SOL    HW1 8996   2.810   6.233   1.681
 2699SOL    HW2 8997   2.779   6.363   1.588
 2700SOL     OW 8998   3.533   1.680   1.805
 2700SOL    HW1 8999   3.609   1.627   1.766
 2700SOL    HW2 9000   3.566   1.729   1.886
 2701SOL     OW 9001   5.334   2.939   4.842
 2701SOL    HW1 9002   5.362   3.035   4.839
 2701SOL    HW2 9003   5.349   2.903   4.934
 2702SOL     OW 9004   2.847   0.871   4.441
 2702SOL    HW1 9005   2.804   0.926   4.512
 2702SOL    HW2 9006   2.816   0.900   4.351
 2703SOL     OW 9007   2.035   6.759   2.656
 2703SOL    HW1 9008   2.100   6.775   2.731
 2703SOL    HW2 9009   1.999   6.847   2.625
 2704SOL     OW 9010   5.504   0.507   3.690
 2704SOL    HW1 9011   5.470   0.463   3.774
 2704SOL    HW2 9012   5.596   0.541   3.705
 2705SOL     OW 9013   0.199   0.780   5.813
 2705SOL    HW1 9014   0.194   0.853   5.745
 2705SOL    HW2 9015   0.253   0.813   5.892
 2706SOL     OW 9016   0.211   3.639   3.733
 2706SOL    HW1 9017   0.173   3.626   3.642
 2706SOL    HW2 9018   0.187   3.561   3.791
 2707SOL     OW 9019   4.230   1.074   3.183
 2707SOL    HW1 9020   4.251   1.101   3.089
 2707SOL    HW2 9021   4.301   1.011   3.216
 2708SOL     OW 9022   6.028   3.526   6.118
 2708SOL    HW1 9023   5.962   3.455   6.095
 2708SOL    HW2 9024   6.038   3.588   6.040
 2709SOL     OW 9025   4.990   1.580   5.702
 2709SOL    HW1 9026   5.054   1.509   5.732
 2709SOL    HW2 9027   5.040   1.663   5.679
 2710SOL     OW 9028   1.057   2.706   4.007
 2710SOL    HW1 9029   1.011   2.642   3.944
 2710SOL    HW2 9030   1.007   2.709   4.093
 2711SOL     OW 9031   3.318   1.132   1.541
 2711SOL    HW1 9032   3.229   1.088   1.530
 2711SOL    HW2 9033   3.387   1.081   1.489
 2712SOL     OW 9034   3.592   6.054   1.943
 2712SOL    HW1 9035   3.619   5.988   2.013
 2712SOL    HW2 9036   3.540   6.008   1.871
 2713SOL     OW 9037   3.868   4.951   5.835
 2713SOL    HW1 9038   3.887   4.940   5.933
 2713SOL    HW2 9039   3.805   5.028   5.822
 2714SOL     OW 9040   3.195   4.719   6.337
 2714SOL    HW1 9041   3.266   4.650   6.325
 2714SOL    HW2 9042   3.219   4.780   6.413
 2715SOL     OW 9043   4.157   1.046   6.927
 2715SOL    HW1 9044   4.124   0.952   6.938
 2715SOL    HW2 9045   4.105   1.108   6.985
 2716SOL     OW 9046   3.655   1.242   3.060
 2716SOL    HW1 9047   3.574   1.224   3.117
 2716SOL    HW2 9048   3.721   1.294   3.113
 2717SOL     OW 9049   0.735   1.025   2.349
 2717SOL    HW1 9050   0.707   0.935   2.383
 2717SOL    HW2 9051   0.808   1.062   2.407
 2718SOL     OW 9052   6.973   0.938   5.946
 2718SOL    HW1 9053   6.932   0.927   5.855
 2718SOL    HW2 9054   0.035   0.995   5.938
 2719SOL     OW 9055   1.759   4.461   2.447
 2719SOL    HW1 9056   1.665   4.445   2.479
 2719SOL    HW2 9057   1.758   4.484   2.350
 2720SOL     OW 9058   2.271   6.389   6.519
 2720SOL    HW1 9059   2.358   6.368   6.563
 2720SOL    HW2 9060   2.203   6.320   6.543
 2721SOL     OW 9061   3.113   6.099   2.106
 2721SOL    HW1 9062   3.041   6.166   2.124
 2721SOL    HW2 9063   3.202   6.145   2.109
 2722SOL     OW 9064   4.392   5.998   6.917
 2722SOL    HW1 9065   4.422   6.048   6.998
 2722SOL    HW2 9066   4.471   5.966   6.865
 2723SOL     OW 9067   3.483   6.450   6.382
 2723SOL    HW1 9068   3.496   6.549   6.376
 2723SOL    HW2 9069   3.431   6.419   6.302
 2724SOL     OW 9070   0.654   6.540   1.164
 2724SOL    HW1 9071   0.560   6.544   1.129
 2724SOL    HW2 9072   0.652   6.523   1.262
 2725SOL     OW 9073   6.264   3.620   5.112
 2725SOL    HW1 9074   6.219   3.706   5.138
 2725SOL    HW2 9075   6.228   3.545   5.167
 2726SOL     OW 9076   6.020   1.960   2.261
 2726SOL    HW1 9077   5.976   2.009   2.186
 2726SOL    HW2 9078   6.081   1.890   2.224
 2727SOL     OW 9079   1.230   5.069   3.983
 2727SOL    HW1 9080   1.313   5.087   3.930
 2727SOL    HW2 9081   1.180   5.155   3.998
 2728SOL     OW 9082   5.230   5.217   5.546
 2728SOL    HW1 9083   5.313   5.270   5.564
 2728SOL    HW2 9084   5.164   5.231   5.620
 2729SOL     OW 9085   5.451   0.119   6.318
 2729SOL    HW1 9086   5.545   0.132   6.285
 2729SOL    HW2 9087   5.439   0.024   6.346
 2730SOL     OW 9088   1.243   6.049   2.143
 2730SOL    HW1 9089   1.187   5.970   2.168
 2730SOL    HW2 9090   1.320   6.018   2.087
 2731SOL     OW 9091   3.465   4.158   3.910
 2731SOL    HW1 9092   3.562   4.139   3.924
 2731SOL    HW2 9093   3.416   4.145   3.996
 2732SOL     OW 9094   5.545   0.728   1.982
 2732SOL    HW1 9095   5.490   0.655   2.023
 2732SOL    HW2 9096   5.484   0.801   1.951
 2733SOL     OW 9097   1.181   6.701   6.694
 2733SOL    HW1 9098   1.189   6.752   6.608
 2733SOL    HW2 9099   1.240   6.620   6.690
 2734SOL     OW 9100   3.118   6.461   2.323
 2734SOL    HW1 9101   3.134   6.424   2.414
 2734SOL    HW2 9102   3.088   6.389   2.262
 2735SOL     OW 9103   0.568   1.699   2.129
 2735SOL    HW1 9104   0.495   1.747   2.079
 2735SOL    HW2 9105   0.621   1.764   2.183
 2736SOL     OW 9106   5.655   4.475   2.835
 2736SOL    HW1 9107   5.596   4.486   2.915
 2736SOL    HW2 9108   5.611   4.415   2.768
 2737SOL     OW 9109   2.557   0.760   5.083
 2737SOL    HW1 9110   2.643   0.809   5.096
 2737SOL    HW2 9111   2.573   0.661   5.087
 2738SOL     OW 9112   5.091   6.432   1.629
 2738SOL    HW1 9113   5.125   6.396   1.715
 2738SOL    HW2 9114   4.994   6.455   1.637
 2739SOL     OW 9115   6.546   5.721   1.682
 2739SOL    HW1 9116   6.580   5.662   1.755
 2739SOL    HW2 9117   6.621   5.740   1.618
 2740SOL     OW 9118   6.647   5.643   3.803
 2740SOL    HW1 9119   6.712   5.651   3.728
 2740SOL    HW2 9120   6.576   5.576   3.780
 2741SOL     OW 9121   1.196   1.321   5.855
 2741SOL    HW1 9122   1.107   1.286   5.826
 2741SOL    HW2 9123   1.222   1.397   5.796
 2742SOL     OW 9124   2.905   5.909   1.712
 2742SOL    HW1 9125   2.807   5.925   1.726
 2742SOL    HW2 9126   2.948   5.886   1.800
 2743SOL     OW 9127   5.577   3.365   2.582
 2743SOL    HW1 9128   5.594   3.445   2.525
 2743SOL    HW2 9129   5.594   3.282   2.529
 2744SOL     OW 9130   3.133   3.945   2.699
 2744SOL    HW1 9131   3.182   4.023   2.661
 2744SOL    HW2 9132   3.102   3.886   2.624
 2745SOL     OW 9133   0.693   6.495   0.448
 2745SOL    HW1 9134   0.660   6.584   0.419
 2745SOL    HW2 9135   0.764   6.506   0.517
 2746SOL     OW 9136   0.788   1.394   3.607
 2746SOL    HW1 9137   0.861   1.462   3.593
 2746SOL    HW2 9138   0.763   1.353   3.519
 2747SOL     OW 9139   3.992   5.490   0.588
 2747SOL    HW1 9140   3.982   5.538   0.675
 2747SOL    HW2 9141   4.069   5.426   0.594
 2748SOL     OW 9142   3.905   6.476   0.840
 2748SOL    HW1 9143   3.817   6.514   0.811
 2748SOL    HW2 9144   3.964   6.549   0.874
 2749SOL     OW 9145   3.556   3.021   0.091
 2749SOL    HW1 9146   3.572   2.956   0.165
 2749SOL    HW2 9147   3.460   3.015   0.062
 2750SOL     OW 9148   2.867   5.765   2.046
 2750SOL    HW1 9149   2.819   5.701   2.105
 2750SOL    HW2 9150   2.803   5.833   2.010
 2751SOL     OW 9151   6.075   4.140   1.032
 2751SOL    HW1 9152   6.127   4.214   0.990
 2751SOL    HW2 9153   6.038   4.081   0.960
 2752SOL     OW 9154   4.467   5.388   0.243
 2752SOL    HW1 9155   4.452   5.390   0.144
 2752SOL    HW2 9156   4.522   5.467   0.270
 2753SOL     OW 9157   6.375   5.968   5.414
 2753SOL    HW1 9158   6.426   5.999   5.494
 2753SOL    HW2 9159   6.349   5.872   5.426
 2754SOL     OW 9160   1.070   6.881   6.244
 2754SOL    HW1 9161   1.009   6.802   6.245
 2754SOL    HW2 9162   1.109   6.892   6.152
 2755SOL     OW 9163   2.742   0.328   2.696
 2755SOL    HW1 9164   2.834   0.295   2.715
 2755SOL    HW2 9165   2.741   0.428   2.695
 2756SOL     OW 9166   4.704   6.231   0.724
 2756SOL    HW1 9167   4.657   6.182   0.651
 2756SOL    HW2 9168   4.642   6.242   0.802
 2757SOL     OW 9169   0.315   5.394   1.394
 2757SOL    HW1 9170   0.332   5.437   1.306
 2757SOL    HW2 9171   0.396   5.405   1.452
 2758SOL     OW 9172   4.864   0.694   6.117
 2758SOL    HW1 9173   4.876   0.610   6.171
 2758SOL    HW2 9174   4.787   0.746   6.155
 2759SOL     OW 9175   5.360   5.450   4.688
 2759SOL    HW1 9176   5.444   5.502   4.677
 2759SOL    HW2 9177   5.281   5.512   4.679
 2760SOL     OW 9178   2.847   5.499   3.219
 2760SOL    HW1 9179   2.771   5.434   3.221
 2760SOL    HW2 9180   2.835   5.561   3.141
 2761SOL     OW 9181   2.121   5.729   3.186
 2761SOL    HW1 9182   2.217   5.747   3.207
 2761SOL    HW2 9183   2.067   5.813   3.197
 2762SOL     OW 9184   0.964   6.488   4.717
 2762SOL    HW1 9185   0.972   6.407   4.775
 2762SOL    HW2 9186   0.947   6.569   4.774
 2763SOL     OW 9187   5.530   1.766   1.929
 2763SOL    HW1 9188   5.565   1.730   1.843
 2763SOL    HW2 9189   5.471   1.845   1.910
 2764SOL     OW 9190   6.240   1.324   2.087
 2764SOL    HW1 9191   6.183   1.335   2.168
 2764SOL    HW2 9192   6.243   1.410   2.036
 2765SOL     OW 9193   5.637   1.636   1.708
 2765SOL    HW1 9194   5.657   1.538   1.695
 2765SOL    HW2 9195   5.719   1.689   1.686
 2766SOL     OW 9196   6.178   0.835   2.587
 2766SOL    HW1 9197   6.123   0.867   2.664
 2766SOL    HW2 9198   6.269   0.807   2.620
 2767SOL     OW 9199   5.597   4.708   6.272
 2767SOL    HW1 9200   5.622   4.737   6.364
 2767SOL    HW2 9201   5.680   4.689   6.219
 2768SOL     OW 9202   5.987   1.239   6.559
 2768SOL    HW1 9203   5.952   1.304   6.627
 2768SOL    HW2 9204   6.026   1.160   6.605
 2769SOL     OW 9205   0.860   3.871   1.404
 2769SOL    HW1 9206   0.912   3.865   1.489
 2769SOL    HW2 9207   0.921   3.856   1.326
 2770SOL     OW 9208   6.954   5.738   1.368
 2770SOL    HW1 9209   6.990   5.662   1.314
 2770SOL    HW2 9210   0.006   5.806   1.380
 2771SOL     OW 9211   4.981   1.119   1.724
 2771SOL    HW1 9212   4.988   1.104   1.625
 2771SOL    HW2 9213   4.953   1.034   1.769
 2772SOL     OW 9214   3.331   2.853   5.910
 2772SOL    HW1 9215   3.394   2.849   5.832
 2772SOL    HW2 9216   3.238   2.838   5.879
 2773SOL     OW 9217   3.589   3.736   6.315
 2773SOL    HW1 9218   3.607   3.638   6.308
 2773SOL    HW2 9219   3.669   3.782   6.355
 2774SOL     OW 9220   5.979   3.692   2.781
 2774SOL    HW1 9221   6.056   3.736   2.735
 2774SOL    HW2 9222   6.014   3.632   2.853
 2775SOL     OW 9223   0.214   6.145   1.625
 2775SOL    HW1 9224   0.210   6.188   1.716
 2775SOL    HW2 9225   0.266   6.204   1.563
 2776SOL     OW 9226   2.931   5.987   6.315
 2776SOL    HW1 9227   2.853   5.964   6.257
 2776SOL    HW2 9228   3.016   5.968   6.266
 2777SOL     OW 9229   3.382   1.309   2.745
 2777SOL    HW1 9230   3.401   1.399   2.785
 2777SOL    HW2 9231   3.456   1.284   2.682
 2778SOL     OW 9232   2.398   1.979   5.878
 2778SOL    HW1 9233   2.380   1.882   5.892
 2778SOL    HW2 9234   2.497   1.995   5.878
 2779SOL     OW 9235   6.099   1.162   6.818
 2779SOL    HW1 9236   6.187   1.181   6.773
 2779SOL    HW2 9237   6.086   1.063   6.824
 2780SOL     OW 9238   5.030   5.264   6.867
 2780SOL    HW1 9239   5.105   5.308   6.818
 2780SOL    HW2 9240   4.964   5.228   6.802
 2781SOL     OW 9241   5.157   4.425   0.567
 2781SOL    HW1 9242   5.112   4.511   0.545
 2781SOL    HW2 9243   5.201   4.389   0.485
 2782SOL     OW 9244   2.773   2.557   6.141
 2782SOL    HW1 9245   2.863   2.572   6.182
 2782SOL    HW2 9246   2.722   2.643   6.139
 2783SOL     OW 9247   0.380   4.777   5.412
 2783SOL    HW1 9248   0.468   4.754   5.454
 2783SOL    HW2 9249   0.381   4.752   5.315
 2784SOL     OW 9250   2.034   1.614   1.965
 2784SOL    HW1 9251   2.040   1.713   1.955
 2784SOL    HW2 9252   2.124   1.574   1.954
 2785SOL     OW 9253   6.385   1.082   1.127
 2785SOL    HW1 9254   6.452   1.154   1.141
 2785SOL    HW2 9255   6.390   1.016   1.201
 2786SOL     OW 9256   3.850   6.655   1.322
 2786SOL    HW1 9257   3.818   6.673   1.229
 2786SOL    HW2 9258   3.835   6.558   1.344
 2787SOL     OW 9259   2.554   2.707   6.034
 2787SOL    HW1 9260   2.464   2.709   6.078
 2787SOL    HW2 9261   2.542   2.693   5.936
 2788SOL     OW 9262   1.103   3.613   0.743
 2788SOL    HW1 9263   1.117   3.540   0.810
 2788SOL    HW2 9264   1.043   3.581   0.670
 2789SOL     OW 9265   0.593   2.191   4.174
 2789SOL    HW1 9266   0.689   2.217   4.164
 2789SOL    HW2 9267   0.580   2.145   4.261
 2790SOL     OW 9268   3.773   5.285   3.232
 2790SOL    HW1 9269   3.871   5.304   3.230
 2790SOL    HW2 9270   3.755   5.210   3.296
 2791SOL     OW 9271   1.590   2.977   4.241
 2791SOL    HW1 9272   1.531   2.988   4.161
 2791SOL    HW2 9273   1.547   3.019   4.321
 2792SOL     OW 9274   1.183   2.261   5.666
 2792SOL    HW1 9275   1.254   2.192   5.684
 2792SOL    HW2 9276   1.161   2.262   5.569
 2793SOL     OW 9277   4.944   1.111   3.119
 2793SOL    HW1 9278   4.887   1.048   3.172
 2793SOL    HW2 9279   4.973   1.187   3.177
 2794SOL     OW 9280   0.971   0.818   0.855
 2794SOL    HW1 9281   0.873   0.816   0.834
 2794SOL    HW2 9282   1.022   0.828   0.770
 2795SOL     OW 9283   2.670   4.194   1.536
 2795SOL    HW1 9284   2.622   4.243   1.463
 2795SOL    HW2 9285   2.618   4.201   1.621
 2796SOL     OW 9286   5.449   3.836   2.477
 2796SOL    HW1 9287   5.385   3.871   2.409
 2796SOL    HW2 9288   5.451   3.897   2.556
 2797SOL     OW 9289   4.576   4.540   5.050
 2797SOL    HW1 9290   4.477   4.554   5.059
 2797SOL    HW2 9291   4.594   4.447   5.018
 2798SOL     OW 9292   1.014   3.814   4.455
 2798SOL    HW1 9293   1.108   3.819   4.489
 2798SOL    HW2 9294   0.992   3.898   4.406
 2799SOL     OW 9295   6.406   4.756   5.905
 2799SOL    HW1 9296   6.484   4.783   5.962
 2799SOL    HW2 9297   6.341   4.703   5.960
 2800SOL     OW 9298   3.123   3.990   6.837
 2800SOL    HW1 9299   3.148   4.024   6.747
 2800SOL    HW2 9300   3.104   4.068   6.898
 2801SOL     OW 9301   5.287   5.717   2.194
 2801SOL    HW1 9302   5.206   5.734   2.250
 2801SOL    HW2 9303   5.264   5.733   2.098
 2802SOL     OW 9304   4.685   1.430   6.299
 2802SOL    HW1 9305   4.783   1.410   6.307
 2802SOL    HW2 9306   4.637   1.395   6.379
 2803SOL     OW 9307   2.817   6.305   6.643
 2803SOL    HW1 9308   2.887   6.366   6.679
 2803SOL    HW2 9309   2.740   6.359   6.607
 2804SOL     OW 9310   6.892   4.548   3.377
 2804SOL    HW1 9311   6.924   4.454   3.392
 2804SOL    HW2 9312   6.807   4.562   3.428
 2805SOL     OW 9313   5.553   3.534   6.855
 2805SOL    HW1 9314   5.545   3.462   6.786
 2805SOL    HW2 9315   5.483   3.603   6.838
 2806SOL     OW 9316   6.204   5.603   3.750
 2806SOL    HW1 9317   6.244   5.536   3.812
 2806SOL    HW2 9318   6.269   5.625   3.678
 2807SOL     OW 9319   4.653   5.315   3.468
 2807SOL    HW1 9320   4.736   5.281   3.423
 2807SOL    HW2 9321   4.665   5.310   3.567
 2808SOL     OW 9322   5.301   0.297   4.320
 2808SOL    HW1 9323   5.296   0.232   4.396
 2808SOL    HW2 9324   5.209   0.313   4.284
 2809SOL     OW 9325   5.379   2.830   0.580
 2809SOL    HW1 9326   5.472   2.823   0.546
 2809SOL    HW2 9327   5.318   2.776   0.523
 2810SOL     OW 9328   2.161   6.962   5.401
 2810SOL    HW1 9329   2.076   6.995   5.441
 2810SOL    HW2 9330   2.191   0.004   5.330
 2811SOL     OW 9331   0.004   1.131   3.726
 2811SOL    HW1 9332   0.054   1.217   3.720
 2811SOL    HW2 9333   7.007   1.096   3.634
 2812SOL     OW 9334   4.932   3.802   2.304
 2812SOL    HW1 9335   4.973   3.717   2.270
 2812SOL    HW2 9336   4.915   3.793   2.402
 2813SOL     OW 9337   5.792   1.126   6.418
 2813SOL    HW1 9338   5.763   1.200   6.357
 2813SOL    HW2 9339   5.867   1.159   6.476
 2814SOL     OW 9340   4.722   3.991   5.217
 2814SOL    HW1 9341   4.715   3.943   5.304
 2814SOL    HW2 9342   4.677   4.080   5.224
 2815SOL     OW 9343   0.187   0.840   4.907
 2815SOL    HW1 9344   0.091   0.848   4.878
 2815SOL    HW2 9345   0.233   0.927   4.892
 2816SOL     OW 9346   5.668   6.885   3.286
 2816SOL    HW1 9347   5.723   6.969   3.297
 2816SOL    HW2 9348   5.726   6.806   3.304
 2817SOL     OW 9349   0.935   2.181   1.758
 2817SOL    HW1 9350   0.954   2.271   1.718
 2817SOL    HW2 9351   0.998   2.114   1.721
 2818SOL     OW 9352   0.036   4.672   4.960
 2818SOL    HW1 9353   6.969   4.622   4.965
 2818SOL    HW2 9354   0.027   4.758   5.010
 2819SOL     OW 9355   6.853   3.008   0.929
 2819SOL    HW1 9356   6.950   3.000   0.905
 2819SOL    HW2 9357   6.838   3.090   0.984
 2820SOL     OW 9358   6.550   3.365   4.222
 2820SOL    HW1 9359   6.615   3.325   4.287
 2820SOL    HW2 9360   6.466   3.390   4.270
 2821SOL     OW 9361   1.249   4.123   4.533
 2821SOL    HW1 9362   1.259   4.190   4.459
 2821SOL    HW2 9363   1.340   4.091   4.561
 2822SOL     OW 9364   4.514   1.534   6.857
 2822SOL    HW1 9365   4.528   1.608   6.923
 2822SOL    HW2 9366   4.587   1.466   6.867
 2823SOL     OW 9367   1.694   6.671   3.425
 2823SOL    HW1 9368   1.641   6.738   3.371
 2823SOL    HW2 9369   1.644   6.584   3.427
 2824SOL     OW 9370   3.167   1.512   5.060
 2824SOL    HW1 9371   3.151   1.413   5.066
 2824SOL    HW2 9372   3.181   1.537   4.964
 2825SOL     OW 9373   6.353   5.791   1.114
 2825SOL    HW1 9374   6.345   5.863   1.182
 2825SOL    HW2 9375   6.396   5.828   1.031
 2826SOL     OW 9376   4.843   1.894   4.310
 2826SOL    HW1 9377   4.811   1.924   4.220
 2826SOL    HW2 9378   4.807   1.956   4.380
 2827SOL     OW 9379   5.653   0.643   5.587
 2827SOL    HW1 9380   5.591   0.564   5.597
 2827SOL    HW2 9381   5.641   0.684   5.497
 2828SOL     OW 9382   3.653   1.714   5.358
 2828SOL    HW1 9383   3.568   1.673   5.391
 2828SOL    HW2 9384   3.731   1.671   5.404
 2829SOL     OW 9385   2.177   6.602   6.680
 2829SOL    HW1 9386   2.207   6.539   6.752
 2829SOL    HW2 9387   2.214   6.573   6.592
 2830SOL     OW 9388   3.619   3.918   0.051
 2830SOL    HW1 9389   3.520   3.909   0.046
 2830SOL    HW2 9390   3.659   3.834   0.087
 2831SOL     OW 9391   5.911   6.023   4.636
 2831SOL    HW1 9392   6.006   5.994   4.648
 2831SOL    HW2 9393   5.868   6.032   4.726
 2832SOL     OW 9394   0.373   1.044   2.021
 2832SOL    HW1 9395   0.471   1.039   2.006
 2832SOL    HW2 9396   0.326   1.065   1.935
 2833SOL     OW 9397   6.246   2.875   2.154
 2833SOL    HW1 9398   6.320   2.942   2.142
 2833SOL    HW2 9399   6.169   2.900   2.096
 2834SOL     OW 9400   3.601   1.153   5.363
 2834SOL    HW1 9401   3.520   1.182   5.311
 2834SOL    HW2 9402   3.623   1.223   5.431
 2835SOL     OW 9403   0.130   6.300   2.536
 2835SOL    HW1 9404   0.032   6.285   2.522
 2835SOL    HW2 9405   0.171   6.334   2.452
 2836SOL     OW 9406   6.859   0.812   1.180
 2836SOL    HW1 9407   6.841   0.714   1.181
 2836SOL    HW2 9408   6.953   0.828   1.213
 2837SOL     OW 9409   5.261   3.780   3.784
 2837SOL    HW1 9410   5.258   3.684   3.757
 2837SOL    HW2 9411   5.186   3.830   3.739
 2838SOL     OW 9412   3.464   5.133   2.576
 2838SOL    HW1 9413   3.475   5.037   2.551
 2838SOL    HW2 9414   3.553   5.171   2.600
 2839SOL     OW 9415   5.338   2.046   1.397
 2839SOL    HW1 9416   5.260   2.018   1.453
 2839SOL    HW2 9417   5.413   2.076   1.456
 2840SOL     OW 9418   6.699   1.635   5.280
 2840SOL    HW1 9419   6.661   1.600   5.194
 2840SOL    HW2 9420   6.797   1.618   5.283
 2841SOL     OW 9421   0.678   6.515   1.448
 2841SOL    HW1 9422   0.581   6.496   1.463
 2841SOL    HW2 9423   0.733   6.452   1.503
 2842SOL     OW 9424   6.974   3.748   2.640
 2842SOL    HW1 9425   0.049   3.720   2.636
 2842SOL    HW2 9426   6.946   3.783   2.551
 2843SOL     OW 9427   4.234   1.276   4.678
 2843SOL    HW1 9428   4.156   1.324   4.639
 2843SOL    HW2 9429   4.313   1.286   4.617
 2844SOL     OW 9430   6.876   4.296   6.174
 2844SOL    HW1 9431   6.863   4.203   6.137
 2844SOL    HW2 9432   6.966   4.302   6.217
 2845SOL     OW 9433   0.381   4.609   5.844
 2845SOL    HW1 9434   0.342   4.584   5.756
 2845SOL    HW2 9435   0.421   4.700   5.839
 2846SOL     OW 9436   5.144   1.816   6.433
 2846SOL    HW1 9437   5.216   1.770   6.485
 2846SOL    HW2 9438   5.142   1.913   6.457
 2847SOL     OW 9439   5.770   4.404   4.414
 2847SOL    HW1 9440   5.851   4.364   4.371
 2847SOL    HW2 9441   5.768   4.502   4.398
 2848SOL     OW 9442   0.856   5.605   4.494
 2848SOL    HW1 9443   0.948   5.570   4.476
 2848SOL    HW2 9444   0.814   5.551   4.568
 2849SOL     OW 9445   2.872   2.330   1.308
 2849SOL    HW1 9446   2.938   2.292   1.373
 2849SOL    HW2 9447   2.886   2.288   1.218
 2850SOL     OW 9448   3.535   0.755   0.126
 2850SOL    HW1 9449   3.516   0.720   0.218
 2850SOL    HW2 9450   3.634   0.764   0.114
 2851SOL     OW 9451   1.330   4.216   6.111
 2851SOL    HW1 9452   1.331   4.127   6.156
 2851SOL    HW2 9453   1.239   4.235   6.075
 2852SOL     OW 9454   0.110   3.284   6.669
 2852SOL    HW1 9455   0.169   3.248   6.597
 2852SOL    HW2 9456   0.165   3.303   6.750
 2853SOL     OW 9457   3.671   3.451   0.831
 2853SOL    HW1 9458   3.738   3.465   0.905
 2853SOL    HW2 9459   3.579   3.444   0.870
 2854SOL     OW 9460   2.288   1.273   3.597
 2854SOL    HW1 9461   2.206   1.280   3.540
 2854SOL    HW2 9462   2.369   1.293   3.541
 2855SOL     OW 9463   2.541   0.965   4.787
 2855SOL    HW1 9464   2.506   1.047   4.833
 2855SOL    HW2 9465   2.553   0.891   4.853
 2856SOL     OW 9466   2.152   2.692   5.167
 2856SOL    HW1 9467   2.169   2.790   5.182
 2856SOL    HW2 9468   2.203   2.640   5.235
 2857SOL     OW 9469   3.138   3.387   1.893
 2857SOL    HW1 9470   3.059   3.331   1.916
 2857SOL    HW2 9471   3.171   3.362   1.802
 2858SOL     OW 9472   0.227   3.644   2.691
 2858SOL    HW1 9473   0.326   3.656   2.702
 2858SOL    HW2 9474   0.202   3.551   2.716
 2859SOL     OW 9475   5.862   6.999   0.719
 2859SOL    HW1 9476   5.808   0.022   0.647
 2859SOL    HW2 9477   5.942   6.954   0.679
 2860SOL     OW 9478   4.102   1.524   2.225
 2860SOL    HW1 9479   4.172   1.529   2.154
 2860SOL    HW2 9480   4.136   1.468   2.301
 2861SOL     OW 9481   3.696   5.668   5.982
 2861SOL    HW1 9482   3.598   5.656   5.994
 2861SOL    HW2 9483   3.745   5.590   6.022
 2862SOL     OW 9484   5.700   1.417   4.264
 2862SOL    HW1 9485   5.650   1.491   4.308
 2862SOL    HW2 9486   5.645   1.378   4.190
 2863SOL     OW 9487   6.758   2.177   6.706
 2863SOL    HW1 9488   6.842   2.128   6.683
 2863SOL    HW2 9489   6.736   2.241   6.633
 2864SOL     OW 9490   3.431   1.543   0.291
 2864SOL    HW1 9491   3.430   1.443   0.297
 2864SOL    HW2 9492   3.502   1.578   0.352
 2865SOL     OW 9493   4.657   4.257   5.084
 2865SOL    HW1 9494   4.741   4.295   5.125
 2865SOL    HW2 9495   4.671   4.243   4.986
 2866SOL     OW 9496   0.416   6.558   6.579
 2866SOL    HW1 9497   0.478   6.481   6.585
 2866SOL    HW2 9498   0.332   6.530   6.532
 2867SOL     OW 9499   6.466   4.116   3.910
 2867SOL    HW1 9500   6.475   4.031   3.962
 2867SOL    HW2 9501   6.534   4.117   3.836
 2868SOL     OW 9502   1.707   3.854   5.603
 2868SOL    HW1 9503   1.753   3.930   5.559
 2868SOL    HW2 9504   1.611   3.851   5.573
 2869SOL     OW 9505   6.060   1.158   2.481
 2869SOL    HW1 9506   6.048   1.066   2.443
 2869SOL    HW2 9507   6.055   1.226   2.408
 2870SOL     OW 9508   5.641   2.290   2.599
 2870SOL    HW1 9509   5.720   2.238   2.632
 2870SOL    HW2 9510   5.669   2.346   2.521
 2871SOL     OW 9511   1.395   1.918   6.516
 2871SOL    HW1 9512   1.325   1.972   6.563
 2871SOL    HW2 9513   1.403   1.949   6.422
 2872SOL     OW 9514   2.416   0.229   3.752
 2872SOL    HW1 9515   2.418   0.145   3.698
 2872SOL    HW2 9516   2.375   0.303   3.698
 2873SOL     OW 9517   0.569   5.316   1.545
 2873SOL    HW1 9518   0.606   5.361   1.626
 2873SOL    HW2 9519   0.515   5.236   1.574
 2874SOL     OW 9520   5.931   2.475   2.682
 2874SOL    HW1 9521   5.949   2.474   2.583
 2874SOL    HW2 9522   5.909   2.383   2.713
 2875SOL     OW 9523   3.276   4.880   6.529
 2875SOL    HW1 9524   3.358   4.937   6.527
 2875SOL    HW2 9525   3.270   4.833   6.618
 2876SOL     OW 9526   0.092   1.011   1.524
 2876SOL    HW1 9527   0.004   0.985   1.484
 2876SOL    HW2 9528   0.131   1.087   1.472
 2877SOL     OW 9529   2.822   3.015   5.700
 2877SOL    HW1 9530   2.800   3.100   5.747
 2877SOL    HW2 9531   2.806   2.938   5.762
 2878SOL     OW 9532   2.799   4.673   5.816
 2878SOL    HW1 9533   2.879   4.636   5.770
 2878SOL    HW2 9534   2.827   4.729   5.894
 2879SOL     OW 9535   5.164   3.989   0.641
 2879SOL    HW1 9536   5.090   4.057   0.637
 2879SOL    HW2 9537   5.232   4.019   0.707
 2880SOL     OW 9538   1.326   6.465   1.433
 2880SOL    HW1 9539   1.352   6.369   1.441
 2880SOL    HW2 9540   1.228   6.471   1.415
 2881SOL     OW 9541   6.827   6.658   0.793
 2881SOL    HW1 9542   6.901   6.642   0.728
 2881SOL    HW2 9543   6.810   6.575   0.845
 2882SOL     OW 9544   0.226   3.088   3.276
 2882SOL    HW1 9545   0.240   3.005   3.222
 2882SOL    HW2 9546   0.251   3.070   3.371
 2883SOL     OW 9547   3.722   6.869   2.381
 2883SOL    HW1 9548   3.822   6.868   2.381
 2883SOL    HW2 9549   3.688   6.844   2.472
 2884SOL     OW 9550   0.893   6.035   3.051
 2884SOL    HW1 9551   0.835   5.977   3.107
 2884SOL    HW2 9552   0.986   6.036   3.088
 2885SOL     OW 9553   0.714   2.684   3.336
 2885SOL    HW1 9554   0.632   2.628   3.323
 2885SOL    HW2 9555   0.759   2.657   3.421
 2886SOL     OW 9556   2.573   2.140   6.291
 2886SOL    HW1 9557   2.481   2.162   6.324
 2886SOL    HW2 9558   2.607   2.215   6.234
 2887SOL     OW 9559   1.385   0.646   5.191
 2887SOL    HW1 9560   1.438   0.730   5.180
 2887SOL    HW2 9561   1.317   0.639   5.118
 2888SOL     OW 9562   6.152   5.037   6.675
 2888SOL    HW1 9563   6.218   5.112   6.664
 2888SOL    HW2 9564   6.109   5.045   6.765
 2889SOL     OW 9565   0.396   0.021   1.569
 2889SOL    HW1 9566   0.449   0.093   1.613
 2889SOL    HW2 9567   0.300   0.047   1.566
 2890SOL     OW 9568   4.091   0.344   1.764
 2890SOL    HW1 9569   4.156   0.386   1.700
 2890SOL    HW2 9570   4.080   0.403   1.844
 2891SOL     OW 9571   2.740   4.695   3.882
 2891SOL    HW1 9572   2.710   4.688   3.977
 2891SOL    HW2 9573   2.662   4.680   3.821
 2892SOL     OW 9574   4.640   3.798   6.348
 2892SOL    HW1 9575   4.735   3.786   6.376
 2892SOL    HW2 9576   4.606   3.715   6.304
 2893SOL     OW 9577   2.588   0.228   5.154
 2893SOL    HW1 9578   2.687   0.241   5.149
 2893SOL    HW2 9579   2.546   0.310   5.192
 2894SOL     OW 9580   4.054   2.969   0.199
 2894SOL    HW1 9581   4.097   2.889   0.240
 2894SOL    HW2 9582   4.016   3.027   0.271
 2895SOL     OW 9583   3.678   3.476   6.201
 2895SOL    HW1 9584   3.725   3.469   6.112
 2895SOL    HW2 9585   3.637   3.388   6.224
 2896SOL     OW 9586   2.790   4.845   0.921
 2896SOL    HW1 9587   2.886   4.864   0.943
 2896SOL    HW2 9588   2.761   4.762   0.968
 2897SOL     OW 9589   1.917   5.977   4.070
 2897SOL    HW1 9590   1.855   5.900   4.082
 2897SOL    HW2 9591   2.011   5.946   4.083
 2898SOL     OW 9592   3.345   5.443   1.910
 2898SOL    HW1 9593   3.294   5.373   1.960
 2898SOL    HW2 9594   3.309   5.533   1.934
 2899SOL     OW 9595   6.909   6.808   0.429
 2899SOL    HW1 9596   6.820   6.763   0.435
 2899SOL    HW2 9597   6.903   6.900   0.467
 2900SOL     OW 9598   1.608   5.442   5.660
 2900SOL    HW1 9599   1.623   5.531   5.617
 2900SOL    HW2 9600   1.591   5.455   5.758
 2901SOL     OW 9601   2.664   0.814   1.748
 2901SOL    HW1 9602   2.679   0.715   1.750
 2901SOL    HW2 9603   2.598   0.839   1.819
 2902SOL     OW 9604   5.621   5.932   0.877
 2902SOL    HW1 9605   5.716   5.941   0.849
 2902SOL    HW2 9606   5.582   6.023   0.893
 2903SOL     OW 9607   1.896   1.453   1.699
 2903SOL    HW1 9608   1.982   1.500   1.677
 2903SOL    HW2 9609   1.898   1.361   1.660
 2904SOL     OW 9610   1.998   2.575   4.979
 2904SOL    HW1 9611   2.044   2.631   5.048
 2904SOL    HW2 9612   1.974   2.486   5.017
 2905SOL     OW 9613   2.019   2.430   2.028
 2905SOL    HW1 9614   2.041   2.526   2.010
 2905SOL    HW2 9615   1.987   2.387   1.944
 2906SOL     OW 9616   6.006   5.297   2.357
 2906SOL    HW1 9617   5.990   5.327   2.452
 2906SOL    HW2 9618   5.960   5.361   2.295
 2907SOL     OW 9619   6.554   1.298   3.939
 2907SOL    HW1 9620   6.525   1.241   3.863
 2907SOL    HW2 9621   6.528   1.256   4.026
 2908SOL     OW 9622   3.691   5.927   4.394
 2908SOL    HW1 9623   3.628   5.868   4.344
 2908SOL    HW2 9624   3.667   5.927   4.491
 2909SOL     OW 9625   1.193   5.725   4.603
 2909SOL    HW1 9626   1.291   5.729   4.581
 2909SOL    HW2 9627   1.149   5.810   4.576
 2910SOL     OW 9628   4.823   6.163   6.528
 2910SOL    HW1 9629   4.742   6.168   6.587
 2910SOL    HW2 9630   4.904   6.143   6.583
 2911SOL     OW 9631   1.818   4.210   3.127
 2911SOL    HW1 9632   1.903   4.256   3.100
 2911SOL    HW2 9633   1.840   4.126   3.176
 2912SOL     OW 9634   2.166   6.354   0.605
 2912SOL    HW1 9635   2.238   6.400   0.656
 2912SOL    HW2 9636   2.120   6.419   0.545
 2913SOL     OW 9637   1.668   3.671   2.857
 2913SOL    HW1 9638   1.673   3.687   2.956
 2913SOL    HW2 9639   1.710   3.749   2.809
 2914SOL     OW 9640   5.592   5.650   5.850
 2914SOL    HW1 9641   5.621   5.744   5.863
 2914SOL    HW2 9642   5.596   5.626   5.752
 2915SOL     OW 9643   4.591   1.301   3.695
 2915SOL    HW1 9644   4.538   1.327   3.615
 2915SOL    HW2 9645   4.679   1.263   3.666
 2916SOL     OW 9646   5.234   5.634   4.964
 2916SOL    HW1 9647   5.268   5.540   4.964
 2916SOL    HW2 9648   5.302   5.695   5.005
 2917SOL     OW 9649   4.705   0.393   2.235
 2917SOL    HW1 9650   4.619   0.352   2.203
 2917SOL    HW2 9651   4.695   0.492   2.239
 2918SOL     OW 9652   0.200   3.915   3.777
 2918SOL    HW1 9653   0.176   3.818   3.781
 2918SOL    HW2 9654   0.225   3.939   3.683
 2919SOL     OW 9655   6.253   5.602   0.312
 2919SOL    HW1 9656   6.279   5.524   0.254
 2919SOL    HW2 9657   6.154   5.597   0.330
 2920SOL     OW 9658   4.168   2.302   3.306
 2920SOL    HW1 9659   4.153   2.351   3.220
 2920SOL    HW2 9660   4.079   2.281   3.347
 2921SOL     OW 9661   6.997   0.425   1.884
 2921SOL    HW1 9662   0.071   0.392   1.878
 2921SOL    HW2 9663   6.937   0.350   1.911
 2922SOL     OW 9664   4.226   6.694   5.712
 2922SOL    HW1 9665   4.153   6.632   5.683
 2922SOL    HW2 9666   4.254   6.752   5.636
 2923SOL     OW 9667   6.200   4.769   2.002
 2923SOL    HW1 9668   6.113   4.776   2.052
 2923SOL    HW2 9669   6.182   4.769   1.904
 2924SOL     OW 9670   0.052   1.393   5.017
 2924SOL    HW1 9671   0.015   1.481   5.043
 2924SOL    HW2 9672   0.152   1.394   5.028
 2925SOL     OW 9673   5.565   3.639   1.552
 2925SOL    HW1 9674   5.596   3.597   1.638
 2925SOL    HW2 9675   5.475   3.602   1.528
 2926SOL     OW 9676   0.453   1.349   4.760
 2926SOL    HW1 9677   0.428   1.252   4.758
 2926SOL    HW2 9678   0.495   1.374   4.673
 2927SOL     OW 9679   0.652   2.589   1.991
 2927SOL    HW1 9680   0.740   2.631   2.011
 2927SOL    HW2 9681   0.583   2.661   1.981
 2928SOL     OW 9682   5.991   6.663   0.657
 2928SOL    HW1 9683   6.070   6.604   0.675
 2928SOL    HW2 9684   6.021   6.747   0.612
 2929SOL     OW 9685   0.540   6.766   5.927
 2929SOL    HW1 9686   0.494   6.736   6.011
 2929SOL    HW2 9687   0.472   6.780   5.855
 2930SOL     OW 9688   3.695   6.603   4.830
 2930SOL    HW1 9689   3.694   6.505   4.851
 2930SOL    HW2 9690   3.782   6.626   4.788
 2931SOL     OW 9691   4.249   6.427   5.895
 2931SOL    HW1 9692   4.279   6.516   5.860
 2931SOL    HW2 9693   4.257   6.427   5.995
 2932SOL     OW 9694   1.389   4.362   1.355
 2932SOL    HW1 9695   1.349   4.277   1.388
 2932SOL    HW2 9696   1.324   4.437   1.366
 2933SOL     OW 9697   5.175   1.993   3.340
 2933SOL    HW1 9698   5.218   1.912   3.380
 2933SOL    HW2 9699   5.186   1.991   3.241
 2934SOL     OW 9700   2.740   1.112   0.203
 2934SOL    HW1 9701   2.653   1.115   0.253
 2934SOL    HW2 9702   2.747   1.026   0.154
 2935SOL     OW 9703   5.962   2.493   1.317
 2935SOL    HW1 9704   6.020   2.436   1.260
 2935SOL    HW2 9705   5.869   2.455   1.319
 2936SOL     OW 9706   4.819   5.808   0.340
 2936SOL    HW1 9707   4.808   5.713   0.309
 2936SOL    HW2 9708   4.820   5.810   0.440
 2937SOL     OW 9709   3.144   4.617   6.945
 2937SOL    HW1 9710   3.195   4.688   6.896
 2937SOL    HW2 9711   3.102   4.657   0.007
 2938SOL     OW 9712   4.401   5.280   5.044
 2938SOL    HW1 9713   4.351   5.206   4.999
 2938SOL    HW2 9714   4.354   5.367   5.028
 2939SOL     OW 9715   0.115   6.498   5.572
 2939SOL    HW1 9716   0.183   6.497   5.498
 2939SOL    HW2 9717   0.054   6.576   5.560
 2940SOL     OW 9718   5.066   6.749   4.790
 2940SOL    HW1 9719   5.108   6.658   4.789
 2940SOL    HW2 9720   5.011   6.762   4.708
 2941SOL     OW 9721   2.083   2.071   5.520
 2941SOL    HW1 9722   2.108   1.974   5.516
 2941SOL    HW2 9723   1.984   2.081   5.515
 2942SOL     OW 9724   3.096   6.613   3.028
 2942SOL    HW1 9725   3.040   6.693   3.047
 2942SOL    HW2 9726   3.093   6.592   2.930
 2943SOL     OW 9727   6.309   3.790   3.379
 2943SOL    HW1 9728   6.268   3.872   3.337
 2943SOL    HW2 9729   6.384   3.758   3.323
 2944SOL     OW 9730   4.219   5.755   5.810
 2944SOL    HW1 9731   4.198   5.719   5.901
 2944SOL    HW2 9732   4.235   5.679   5.747
 2945SOL     OW 9733   3.040   3.180   3.156
 2945SOL    HW1 9734   2.979   3.259   3.161
 2945SOL    HW2 9735   3.043   3.134   3.245
 2946SOL     OW 9736   6.854   6.025   6.615
 2946SOL    HW1 9737   6.763   5.982   6.620
 2946SOL    HW2 9738   6.911   5.991   6.689
 2947SOL     OW 9739   6.534   4.477   0.553
 2947SOL    HW1 9740   6.573   4.514   0.637
 2947SOL    HW2 9741   6.568   4.530   0.474
 2948SOL     OW 9742   5.737   3.987   4.612
 2948SOL    HW1 9743   5.671   4.062   4.602
 2948SOL    HW2 9744   5.808   3.997   4.542
 2949SOL     OW 9745   1.435   6.462   0.461
 2949SOL    HW1 9746   1.497   6.452   0.383
 2949SOL    HW2 9747   1.486   6.449   0.546
 2950SOL     OW 9748   5.095   3.511   4.233
 2950SOL    HW1 9749   5.164   3.467   4.176
 2950SOL    HW2 9750   5.044   3.578   4.177
 2951SOL     OW 9751   0.583   1.827   1.429
 2951SOL    HW1 9752   0.571   1.788   1.520
 2951SOL    HW2 9753   0.670   1.796   1.391
 2952SOL     OW 9754   1.993   4.104   2.256
 2952SOL    HW1 9755   1.955   4.143   2.340
 2952SOL    HW2 9756   1.919   4.072   2.198
 2953SOL     OW 9757   4.697   2.425   1.966
 2953SOL    HW1 9758   4.707   2.506   2.024
 2953SOL    HW2 9759   4.653   2.352   2.018
 2954SOL     OW 9760   6.336   6.308   2.476
 2954SOL    HW1 9761   6.294   6.270   2.393
 2954SOL    HW2 9762   6.358   6.233   2.539
 2955SOL     OW 9763   0.816   3.078   0.683
 2955SOL    HW1 9764   0.773   2.989   0.699
 2955SOL    HW2 9765   0.771   3.124   0.607
 2956SOL     OW 9766   6.898   5.358   2.778
 2956SOL    HW1 9767   6.994   5.388   2.776
 2956SOL    HW2 9768   6.882   5.305   2.862
 2957SOL     OW 9769   1.144   3.477   2.144
 2957SOL    HW1 9770   1.102   3.410   2.206
 2957SOL    HW2 9771   1.084   3.492   2.066
 2958SOL     OW 9772   1.794   4.571   5.881
 2958SOL    HW1 9773   1.849   4.559   5.798
 2958SOL    HW2 9774   1.844   4.628   5.946
 2959SOL     OW 9775   4.440   5.431   6.945
 2959SOL    HW1 9776   4.466   5.445   6.850
 2959SOL    HW2 9777   4.450   5.334   6.969
 2960SOL     OW 9778   1.576   1.775   0.208
 2960SOL    HW1 9779   1.533   1.861   0.181
 2960SOL    HW2 9780   1.512   1.722   0.263
 2961SOL     OW 9781   6.026   3.635   3.762
 2961SOL    HW1 9782   5.937   3.667   3.728
 2961SOL    HW2 9783   6.045   3.543   3.728
 2962SOL     OW 9784   4.734   0.716   3.010
 2962SOL    HW1 9785   4.683   0.629   3.008
 2962SOL    HW2 9786   4.704   0.770   3.088
 2963SOL     OW 9787   2.304   1.843   4.854
 2963SOL    HW1 9788   2.338   1.864   4.946
 2963SOL    HW2 9789   2.344   1.907   4.788
 2964SOL     OW 9790   3.347   6.197   0.486
 2964SOL    HW1 9791   3.310   6.226   0.574
 2964SOL    HW2 9792   3.321   6.102   0.468
 2965SOL     OW 9793   0.341   2.094   6.153
 2965SOL    HW1 9794   0.325   2.083   6.251
 2965SOL    HW2 9795   0.407   2.026   6.122
 2966SOL     OW 9796   4.577   4.410   3.985
 2966SOL    HW1 9797   4.640   4.460   4.045
 2966SOL    HW2 9798   4.483   4.424   4.015
 2967SOL     OW 9799   6.185   2.787   3.994
 2967SOL    HW1 9800   6.220   2.741   3.913
 2967SOL    HW2 9801   6.092   2.820   3.976
 2968SOL     OW 9802   0.640   4.264   3.802
 2968SOL    HW1 9803   0.569   4.260   3.873
 2968SOL    HW2 9804   0.656   4.173   3.765
 2969SOL     OW 9805   4.918   1.875   4.735
 2969SOL    HW1 9806   4.890   1.970   4.724
 2969SOL    HW2 9807   4.998   1.857   4.677
 2970SOL     OW 9808   0.795   4.245   6.319
 2970SOL    HW1 9809   0.891   4.221   6.333
 2970SOL    HW2 9810   0.772   4.236   6.222
 2971SOL     OW 9811   5.101   2.186   2.686
 2971SOL    HW1 9812   5.164   2.230   2.621
 2971SOL    HW2 9813   5.152   2.119   2.741
 2972SOL     OW 9814   6.805   3.558   5.236
 2972SOL    HW1 9815   6.717   3.598   5.213
 2972SOL    HW2 9816   6.810   3.544   5.335
 2973SOL     OW 9817   5.276   6.252   3.613
 2973SOL    HW1 9818   5.241   6.342   3.586
 2973SOL    HW2 9819   5.205   6.204   3.665
 2974SOL     OW 9820   6.873   4.009   2.528
 2974SOL    HW1 9821   6.791   4.019   2.584
 2974SOL    HW2 9822   6.891   4.095   2.480
 2975SOL     OW 9823   0.083   0.724   5.493
 2975SOL    HW1 9824   0.067   0.766   5.403
 2975SOL    HW2 9825   0.147   0.781   5.545
 2976SOL     OW 9826   3.496   0.394   2.419
 2976SOL    HW1 9827   3.506   0.352   2.329
 2976SOL    HW2 9828   3.546   0.341   2.486
 2977SOL     OW 9829   3.352   6.304   3.923
 2977SOL    HW1 9830   3.253   6.298   3.912
 2977SOL    HW2 9831   3.393   6.215   3.906
 2978SOL     OW 9832   4.955   4.943   0.247
 2978SOL    HW1 9833   5.012   5.007   0.194
 2978SOL    HW2 9834   4.874   4.919   0.194
 2979SOL     OW 9835   3.901   0.363   3.228
 2979SOL    HW1 9836   3.926   0.267   3.245
 2979SOL    HW2 9837   3.937   0.392   3.140
 2980SOL     OW 9838   0.360   5.958   4.307
 2980SOL    HW1 9839   0.353   5.916   4.217
 2980SOL    HW2 9840   0.410   6.044   4.301
 2981SOL     OW 9841   2.197   0.976   5.613
 2981SOL    HW1 9842   2.115   1.031   5.628
 2981SOL    HW2 9843   2.205   0.907   5.685
 2982SOL     OW 9844   5.043   6.450   2.316
 2982SOL    HW1 9845   4.983   6.442   2.236
 2982SOL    HW2 9846   5.123   6.391   2.304
 2983SOL     OW 9847   6.476   0.667   3.623
 2983SOL    HW1 9848   6.481   0.633   3.530
 2983SOL    HW2 9849   6.541   0.617   3.680
 2984SOL     OW 9850   5.760   5.761   1.591
 2984SOL    HW1 9851   5.730   5.668   1.570
 2984SOL    HW2 9852   5.806   5.762   1.680
 2985SOL     OW 9853   6.084   2.470   2.902
 2985SOL    HW1 9854   6.046   2.478   2.810
 2985SOL    HW2 9855   6.174   2.427   2.897
 2986SOL     OW 9856   1.728   3.618   4.982
 2986SOL    HW1 9857   1.801   3.564   5.024
 2986SOL    HW2 9858   1.640   3.595   5.024
 2987SOL     OW 9859   4.129   2.225   4.513
 2987SOL    HW1 9860   4.070   2.221   4.433
 2987SOL    HW2 9861   4.167   2.134   4.531
 2988SOL     OW 9862   0.869   0.420   1.618
 2988SOL    HW1 9863   0.832   0.417   1.526
 2988SOL    HW2 9864   0.963   0.455   1.616
 2989SOL     OW 9865   6.858   4.921   1.225
 2989SOL    HW1 9866   6.837   4.999   1.284
 2989SOL    HW2 9867   6.792   4.848   1.241
 2990SOL     OW 9868   4.025   1.237   1.626
 2990SOL    HW1 9869   4.017   1.225   1.527
 2990SOL    HW2 9870   4.121   1.228   1.653
 2991SOL     OW 9871   6.758   3.709   0.476
 2991SOL    HW1 9872   6.780   3.670   0.387
 2991SOL    HW2 9873   6.730   3.804   0.465
 2992SOL     OW 9874   3.259   5.327   6.603
 2992SOL    HW1 9875   3.330   5.341   6.534
 2992SOL    HW2 9876   3.174   5.370   6.573
 2993SOL     OW 9877   1.518   5.403   1.447
 2993SOL    HW1 9878   1.448   5.409   1.519
 2993SOL    HW2 9879   1.475   5.414   1.358
 2994SOL     OW 9880   5.033   6.731   6.989
 2994SOL    HW1 9881   5.058   6.822   0.001
 2994SOL    HW2 9882   5.115   6.677   6.972
 2995SOL     OW 9883   1.813   1.243   6.349
 2995SOL    HW1 9884   1.780   1.161   6.302
 2995SOL    HW2 9885   1.899   1.223   6.396
 2996SOL     OW 9886   4.128   5.300   6.287
 2996SOL    HW1 9887   4.219   5.303   6.329
 2996SOL    HW2 9888   4.131   5.243   6.205
 2997SOL     OW 9889   5.796   6.608   0.460
 2997SOL    HW1 9890   5.853   6.639   0.385
 2997SOL    HW2 9891   5.837   6.634   0.547
 2998SOL     OW 9892   6.603   5.904   4.619
 2998SOL    HW1 9893   6.602   5.810   4.585
 2998SOL    HW2 9894   6.541   5.960   4.562
 2999SOL     OW 9895   3.035   0.167   3.596
 2999SOL    HW1 9896   2.978   0.124   3.527
 2999SOL    HW2 9897   3.131   0.160   3.569
 3000SOL     OW 9898   1.062   2.833   5.315
 3000SOL    HW1 9899   1.016   2.886   5.386
 3000SOL    HW2 9900   1.033   2.867   5.225
 3001SOL     OW 9901   4.977   0.149   5.607
 3001SOL    HW1 9902   4.889   0.131   5.564
 3001SOL    HW2 9903   4.974   0.120   5.703
 3002SOL     OW 9904   3.610   0.367   6.145
 3002SOL    HW1 9905   3.607   0.465   6.123
 3002SOL    HW2 9906   3.608   0.355   6.245
 3003SOL     OW 9907   2.691   6.689   6.088
 3003SOL    HW1 9908   2.620   6.679   6.018
 3003SOL    HW2 9909   2.781   6.696   6.044
 3004SOL     OW 9910   5.848   2.830   4.517
 3004SOL    HW1 9911   5.871   2.743   4.473
 3004SOL    HW2 9912   5.754   2.855   4.495
 3005SOL     OW 9913   4.435   2.772   1.293
 3005SOL    HW1 9914   4.372   2.782   1.216
 3005SOL    HW2 9915   4.426   2.680   1.332
 3006SOL     OW 9916   5.742   0.649   1.551
 3006SOL    HW1 9917   5.744   0.745   1.578
 3006SOL    HW2 9918   5.745   0.642   1.452
 3007SOL     OW 9919   5.897   5.110   3.258
 3007SOL    HW1 9920   5.818   5.168   3.238
 3007SOL    HW2 9921   5.869   5.014   3.260
 3008SOL     OW 9922   3.366   6.248   6.204
 3008SOL    HW1 9923   3.406   6.182   6.140
 3008SOL    HW2 9924   3.266   6.242   6.200
 3009SOL     OW 9925   1.401   7.016   3.049
 3009SOL    HW1 9926   1.304   6.992   3.049
 3009SOL    HW2 9927   1.413   0.087   3.086
 3010SOL     OW 9928   3.581   5.945   2.676
 3010SOL    HW1 9929   3.663   5.991   2.640
 3010SOL    HW2 9930   3.541   6.001   2.749
 3011SOL     OW 9931   5.315   0.116   0.303
 3011SOL    HW1 9932   5.294   0.057   0.381
 3011SOL    HW2 9933   5.368   0.065   0.236
 3012SOL     OW 9934   0.524   3.928   3.285
 3012SOL    HW1 9935   0.479   3.863   3.346
 3012SOL    HW2 9936   0.460   3.999   3.258
 3013SOL     OW 9937   6.224   5.087   2.526
 3013SOL    HW1 9938   6.129   5.059   2.539
 3013SOL    HW2 9939   6.266   5.104   2.615
 3014SOL     OW 9940   4.611   0.685   4.649
 3014SOL    HW1 9941   4.631   0.592   4.680
 3014SOL    HW2 9942   4.658   0.702   4.562
 3015SOL     OW 9943   3.141   2.262   0.544
 3015SOL    HW1 9944   3.147   2.178   0.598
 3015SOL    HW2 9945   3.234   2.294   0.523
 3016SOL     OW 9946   3.678   6.559   3.278
 3016SOL    HW1 9947   3.713   6.465   3.283
 3016SOL    HW2 9948   3.591   6.564   3.327
 3017SOL     OW 9949   0.177   6.032   1.118
 3017SOL    HW1 9950   0.202   5.971   1.194
 3017SOL    HW2 9951   0.261   6.070   1.077
 3018SOL     OW 9952   3.971   6.155   6.750
 3018SOL    HW1 9953   4.015   6.079   6.798
 3018SOL    HW2 9954   3.900   6.194   6.808
 3019SOL     OW 9955   4.060   6.880   1.359
 3019SOL    HW1 9956   4.002   6.799   1.369
 3019SOL    HW2 9957   4.003   6.957   1.331
 3020SOL     OW 9958   2.378   2.998   1.013
 3020SOL    HW1 9959   2.385   2.903   0.983
 3020SOL    HW2 9960   2.314   3.004   1.090
 3021SOL     OW 9961   2.168   2.098   6.859
 3021SOL    HW1 9962   2.200   2.180   6.812
 3021SOL    HW2 9963   2.243   2.033   6.868
 3022SOL     OW 9964   5.117   0.153   2.947
 3022SOL    HW1 9965   5.092   0.135   3.042
 3022SOL    HW2 9966   5.201   0.102   2.925
 3023SOL     OW 9967   5.080   6.051   2.201
 3023SOL    HW1 9968   4.993   6.006   2.180
 3023SOL    HW2 9969   5.064   6.126   2.265
 3024SOL     OW 9970   3.299   7.008   6.778
 3024SOL    HW1 9971   3.379   7.010   6.719
 3024SOL    HW2 9972   3.217   6.990   6.722
 3025SOL     OW 9973   2.290   2.615   1.382
 3025SOL    HW1 9974   2.359   2.545   1.402
 3025SOL    HW2 9975   2.335   2.697   1.347
 3026SOL     OW 9976   1.943   4.139   0.679
 3026SOL    HW1 9977   1.874   4.200   0.717
 3026SOL    HW2 9978   1.906   4.045   0.676
 3027SOL     OW 9979   1.593   2.012   3.349
 3027SOL    HW1 9980   1.596   2.033   3.251
 3027SOL    HW2 9981   1.500   2.028   3.383
 3028SOL     OW 9982   1.416   6.623   5.765
 3028SOL    HW1 9983   1.370   6.549   5.814
 3028SOL    HW2 9984   1.451   6.589   5.678
 3029SOL     OW 9985   5.425   5.794   5.065
 3029SOL    HW1 9986   5.429   5.843   5.152
 3029SOL    HW2 9987   5.494   5.831   5.003
 3030SOL     OW 9988   1.830   2.227   5.583
 3030SOL    HW1 9989   1.758   2.262   5.643
 3030SOL    HW2 9990   1.823   2.270   5.493
 3031SOL     OW 9991   0.379   4.860   6.225
 3031SOL    HW1 9992   0.429   4.916   6.291
 3031SOL    HW2 9993   0.288   4.899   6.209
 3032SOL     OW 9994   5.106   0.396   5.587
 3032SOL    HW1 9995   5.088   0.447   5.671
 3032SOL    HW2 9996   5.062   0.306   5.593
 3033SOL     OW 9997   6.275   3.725   6.467
 3033SOL    HW1 9998   6.333   3.736   6.548
 3033SOL    HW2 9999   6.329   3.741   6.385
 3034SOL     OW10000   2.928   6.638   4.784
 3034SOL    HW110001   2.982   6.664   4.703
 3034SOL    HW210002   2.860   6.569   4.758
 3035SOL     OW10003   5.763   1.006   6.888
 3035SOL    HW110004   5.766   1.095   6.934
 3035SOL    HW210005   5.787   0.934   6.954
 3036SOL     OW10006   0.952   4.396   0.137
 3036SOL    HW110007   0.955   4.487   0.178
 3036SOL    HW210008   1.029   4.385   0.074
 3037SOL     OW10009   6.570   6.835   5.164
 3037SOL    HW110010   6.603   6.910   5.221
 3037SOL    HW210011   6.647   6.776   5.138
 3038SOL     OW10012   5.250   6.691   5.979
 3038SOL    HW110013   5.310   6.740   6.042
 3038SOL    HW210014   5.157   6.688   6.016
 3039SOL     OW10015   1.149   4.533   1.328
 3039SOL    HW110016   1.156   4.633   1.324
 3039SOL    HW210017   1.118   4.506   1.419
 3040SOL     OW10018   2.760   3.210   6.985
 3040SOL    HW110019   2.725   3.118   7.003
 3040SOL    HW210020   2.784   3.255   0.051
 3041SOL     OW10021   2.099   2.228   6.159
 3041SOL    HW110022   2.011   2.270   6.140
 3041SOL    HW210023   2.120   2.161   6.088
 3042SOL     OW10024   4.555   0.490   1.900
 3042SOL    HW110025   4.653   0.497   1.914
 3042SOL    HW210026   4.519   0.580   1.874
 3043SOL     OW10027   0.735   5.628   0.712
 3043SOL    HW110028   0.784   5.712   0.690
 3043SOL    HW210029   0.797   5.550   0.705
 3044SOL     OW10030   3.379   4.529   6.248
 3044SOL    HW110031   3.478   4.514   6.254
 3044SOL    HW210032   3.337   4.454   6.197
 3045SOL     OW10033   5.533   2.314   3.074
 3045SOL    HW110034   5.545   2.334   2.977
 3045SOL    HW210035   5.491   2.224   3.085
 3046SOL     OW10036   1.879   2.654   6.056
 3046SOL    HW110037   1.955   2.600   6.019
 3046SOL    HW210038   1.914   2.719   6.123
 3047SOL     OW10039   6.512   5.276   2.536
 3047SOL    HW110040   6.470   5.351   2.588
 3047SOL    HW210041   6.442   5.233   2.479
 3048SOL     OW10042   3.141   2.953   1.724
 3048SOL    HW110043   3.239   2.954   1.704
 3048SOL    HW210044   3.107   2.859   1.721
 3049SOL     OW10045   0.441   0.437   2.106
 3049SOL    HW110046   0.434   0.537   2.106
 3049SOL    HW210047   0.351   0.397   2.126
 3050SOL     OW10048   4.613   5.918   3.989
 3050SOL    HW110049   4.676   5.993   4.009
 3050SOL    HW210050   4.644   5.870   3.907
 3051SOL     OW10051   2.532   4.634   6.894
 3051SOL    HW110052   2.581   4.721   6.903
 3051SOL    HW210053   2.501   4.623   6.799
 3052SOL     OW10054   4.566   6.832   3.128
 3052SOL    HW110055   4.592   6.846   3.224
 3052SOL    HW210056   4.645   6.803   3.075
 3053SOL     OW10057   5.798   6.701   0.108
 3053SOL    HW110058   5.761   6.611   0.084
 3053SOL    HW210059   5.893   6.692   0.137
 3054SOL     OW10060   0.930   2.990   6.854
 3054SOL    HW110061   0.957   3.022   6.945
 3054SOL    HW210062   0.959   2.895   6.842
 3055SOL     OW10063   5.628   6.439   3.447
 3055SOL    HW110064   5.539   6.476   3.420
 3055SOL    HW210065   5.624   6.412   3.543
 3056SOL     OW10066   6.904   0.718   0.888
 3056SOL    HW110067   6.947   0.801   0.924
 3056SOL    HW210068   6.950   0.692   0.803
 3057SOL     OW10069   6.085   5.252   2.882
 3057SOL    HW110070   6.009   5.257   2.817
 3057SOL    HW210071   6.076   5.325   2.949
 3058SOL     OW10072   6.514   5.221   1.753
 3058SOL    HW110073   6.598   5.274   1.747
 3058SOL    HW210074   6.460   5.251   1.832
 3059SOL     OW10075   2.011   2.270   4.506
 3059SOL    HW110076   2.032   2.173   4.507
 3059SOL    HW210077   2.091   2.323   4.536
 3060SOL     OW10078   6.592   6.391   1.310
 3060SOL    HW110079   6.494   6.379   1.325
 3060SOL    HW210080   6.631   6.443   1.385
 3061SOL     OW10081   0.319   0.439   6.257
 3061SOL    HW110082   0.389   0.487   6.309
 3061SOL    HW210083   0.325   0.341   6.276
 3062SOL     OW10084   3.323   6.489   0.594
 3062SOL    HW110085   3.416   6.455   0.609
 3062SOL    HW210086   3.259   6.432   0.645
 3063SOL     OW10087   1.665   4.938   1.027
 3063SOL    HW110088   1.672   4.907   0.932
 3063SOL    HW210089   1.699   5.032   1.034
 3064SOL     OW10090   6.219   4.260   3.435
 3064SOL    HW110091   6.295   4.209   3.477
 3064SOL    HW210092   6.148   4.276   3.503
 3065SOL     OW10093   1.655   1.155   0.023
 3065SOL    HW110094   1.655   1.056   0.042
 3065SOL    HW210095   1.571   1.195   0.059
 3066SOL     OW10096   6.041   4.754   1.560
 3066SOL    HW110097   6.005   4.763   1.467
 3066SOL    HW210098   5.972   4.787   1.625
 3067SOL     OW10099   5.070   0.061   4.381
 3067SOL    HW110100   5.167   0.044   4.400
 3067SOL    HW210101   5.025   0.092   4.465
 3068SOL     OW10102   5.879   4.692   0.861
 3068SOL    HW110103   5.940   4.761   0.824
 3068SOL    HW210104   5.927   4.604   0.865
 3069SOL     OW10105   0.585   6.131   2.421
 3069SOL    HW110106   0.547   6.197   2.485
 3069SOL    HW210107   0.683   6.120   2.438
 3070SOL     OW10108   3.723   1.093   3.928
 3070SOL    HW110109   3.789   1.135   3.867
 3070SOL    HW210110   3.696   1.003   3.892
 3071SOL     OW10111   5.143   6.967   3.535
 3071SOL    HW110112   5.077   6.959   3.609
 3071SOL    HW210113   5.197   0.030   3.547
 3072SOL     OW10114   0.494   0.167   2.252
 3072SOL    HW110115   0.496   0.265   2.229
 3072SOL    HW210116   0.414   0.148   2.309
 3073SOL     OW10117   1.107   3.660   5.166
 3073SOL    HW110118   1.132   3.709   5.083
 3073SOL    HW210119   1.096   3.563   5.146
 3074SOL     OW10120   4.616   2.843   6.159
 3074SOL    HW110121   4.665   2.756   6.151
 3074SOL    HW210122   4.518   2.827   6.145
 3075SOL     OW10123   1.580   5.757   1.276
 3075SOL    HW110124   1.601   5.760   1.373
 3075SOL    HW210125   1.613   5.841   1.232
 3076SOL     OW10126   6.545   0.512   5.019
 3076SOL    HW110127   6.512   0.484   5.109
 3076SOL    HW210128   6.643   0.528   5.023
 3077SOL     OW10129   4.938   4.974   3.932
 3077SOL    HW110130   4.937   5.037   4.010
 3077SOL    HW210131   5.033   4.951   3.910
 3078SOL     OW10132   1.501   3.936   1.813
 3078SOL    HW110133   1.598   3.915   1.822
 3078SOL    HW210134   1.478   3.944   1.716
 3079SOL     OW10135   0.122   2.003   5.016
 3079SOL    HW110136   0.086   2.008   5.109
 3079SOL    HW210137   0.048   2.019   4.950
 3080SOL     OW10138   6.321   4.744   0.539
 3080SOL    HW110139   6.418   4.728   0.559
 3080SOL    HW210140   6.296   4.836   0.570
 3081SOL     OW10141   0.203   5.148   5.365
 3081SOL    HW110142   0.198   5.075   5.433
 3081SOL    HW210143   0.111   5.173   5.335
 3082SOL     OW10144   2.968   6.988   2.616
 3082SOL    HW110145   2.914   7.001   2.533
 3082SOL    HW210146   3.062   6.966   2.592
 3083SOL     OW10147   3.287   0.144   1.808
 3083SOL    HW110148   3.197   0.125   1.847
 3083SOL    HW210149   3.355   0.083   1.847
 3084SOL     OW10150   5.325   5.876   4.625
 3084SOL    HW110151   5.414   5.884   4.670
 3084SOL    HW210152   5.281   5.790   4.652
 3085SOL     OW10153   0.757   5.629   2.510
 3085SOL    HW110154   0.687   5.558   2.516
 3085SOL    HW210155   0.737   5.690   2.433
 3086SOL     OW10156   4.352   1.117   3.487
 3086SOL    HW110157   4.331   1.209   3.452
 3086SOL    HW210158   4.268   1.065   3.496
 3087SOL     OW10159   6.716   3.875   2.835
 3087SOL    HW110160   6.701   3.868   2.934
 3087SOL    HW210161   6.774   3.799   2.804
 3088SOL     OW10162   2.807   4.765   6.084
 3088SOL    HW110163   2.761   4.832   6.026
 3088SOL    HW210164   2.861   4.813   6.153
 3089SOL     OW10165   1.753   2.814   0.448
 3089SOL    HW110166   1.693   2.880   0.404
 3089SOL    HW210167   1.804   2.763   0.379
 3090SOL     OW10168   1.298   1.890   1.325
 3090SOL    HW110169   1.205   1.915   1.353
 3090SOL    HW210170   1.328   1.811   1.378
 3091SOL     OW10171   3.066   6.832   0.540
 3091SOL    HW110172   3.067   6.735   0.514
 3091SOL    HW210173   3.158   6.869   0.533
 3092SOL     OW10174   5.635   6.804   1.107
 3092SOL    HW110175   5.697   6.876   1.075
 3092SOL    HW210176   5.544   6.843   1.124
 3093SOL     OW10177   5.092   5.287   5.034
 3093SOL    HW110178   5.123   5.192   5.034
 3093SOL    HW210179   5.166   5.347   5.003
 3094SOL     OW10180   2.753   5.903   6.075
 3094SOL    HW110181   2.798   5.834   6.019
 3094SOL    HW210182   2.796   5.992   6.058
 3095SOL     OW10183   2.916   4.900   5.047
 3095SOL    HW110184   2.884   4.806   5.039
 3095SOL    HW210185   2.999   4.912   4.992
 3096SOL     OW10186   0.646   0.857   5.927
 3096SOL    HW110187   0.711   0.809   5.868
 3096SOL    HW210188   0.695   0.910   5.995
 3097SOL     OW10189   1.267   3.145   6.977
 3097SOL    HW110190   1.189   3.093   7.012
 3097SOL    HW210191   1.292   3.216   0.022
 3098SOL     OW10192   2.759   2.380   0.681
 3098SOL    HW110193   2.765   2.388   0.582
 3098SOL    HW210194   2.663   2.380   0.709
 3099SOL     OW10195   0.554   5.431   5.584
 3099SOL    HW110196   0.622   5.504   5.581
 3099SOL    HW210197   0.475   5.456   5.528
 3100SOL     OW10198   0.195   6.993   6.681
 3100SOL    HW110199   0.155   0.055   6.642
 3100SOL    HW210200   0.175   6.989   6.779
 3101SOL     OW10201   4.505   0.064   0.104
 3101SOL    HW110202   4.471   7.016   0.169
 3101SOL    HW210203   4.578   0.117   0.147
 3102SOL     OW10204   1.984   4.359   1.181
 3102SOL    HW110205   1.945   4.426   1.118
 3102SOL    HW210206   2.057   4.309   1.135
 3103SOL     OW10207   4.038   2.947   1.876
 3103SOL    HW110208   3.983   2.899   1.944
 3103SOL    HW210209   4.033   2.898   1.789
 3104SOL     OW10210   6.421   6.018   4.427
 3104SOL    HW110211   6.382   6.109   4.423
 3104SOL    HW210212   6.503   6.014   4.370
 3105SOL     OW10213   5.932   6.156   4.364
 3105SOL    HW110214   5.940   6.256   4.358
 3105SOL    HW210215   5.929   6.129   4.460
 3106SOL     OW10216   7.001   2.534   3.703
 3106SOL    HW110217   0.015   2.627   3.693
 3106SOL    HW210218   0.051   2.477   3.745
 3107SOL     OW10219   2.873   0.609   3.830
 3107SOL    HW110220   2.913   0.518   3.842
 3107SOL    HW210221   2.926   0.660   3.762
 3108SOL     OW10222   2.956   1.241   3.258
 3108SOL    HW110223   2.904   1.162   3.225
 3108SOL    HW210224   2.952   1.315   3.190
 3109SOL     OW10225   4.533   5.725   2.922
 3109SOL    HW110226   4.547   5.708   3.019
 3109SOL    HW210227   4.536   5.639   2.872
 3110SOL     OW10228   0.983   2.915   2.633
 3110SOL    HW110229   0.948   2.832   2.676
 3110SOL    HW210230   1.026   2.891   2.545
 3111SOL     OW10231   0.191   5.427   3.822
 3111SOL    HW110232   0.283   5.454   3.794
 3111SOL    HW210233   0.194   5.336   3.863
 3112SOL     OW10234   4.478   4.261   6.257
 3112SOL    HW110235   4.569   4.222   6.245
 3112SOL    HW210236   4.415   4.219   6.193
 3113SOL     OW10237   2.792   6.578   3.770
 3113SOL    HW110238   2.801   6.622   3.681
 3113SOL    HW210239   2.697   6.582   3.800
 3114SOL     OW10240   6.470   5.211   0.671
 3114SOL    HW110241   6.404   5.276   0.709
 3114SOL    HW210242   6.477   5.131   0.731
 3115SOL     OW10243   2.902   3.683   1.050
 3115SOL    HW110244   2.983   3.742   1.054
 3115SOL    HW210245   2.902   3.622   1.129
 3116SOL     OW10246   6.536   2.617   0.429
 3116SOL    HW110247   6.440   2.600   0.406
 3116SOL    HW210248   6.551   2.595   0.526
 3117SOL     OW10249   3.963   3.231   5.427
 3117SOL    HW110250   3.911   3.189   5.501
 3117SOL    HW210251   3.946   3.330   5.426
 3118SOL     OW10252   6.525   3.997   1.236
 3118SOL    HW110253   6.433   4.012   1.199
 3118SOL    HW210254   6.526   3.912   1.287
 3119SOL     OW10255   2.016   4.094   5.550
 3119SOL    HW110256   2.045   3.998   5.543
 3119SOL    HW210257   2.093   4.151   5.577
 3120SOL     OW10258   2.943   5.459   5.170
 3120SOL    HW110259   3.002   5.540   5.167
 3120SOL    HW210260   2.958   5.403   5.088
 3121SOL     OW10261   6.208   0.152   2.473
 3121SOL    HW110262   6.289   0.194   2.433
 3121SOL    HW210263   6.209   0.054   2.454
 3122SOL     OW10264   3.132   5.445   0.028
 3122SOL    HW110265   3.126   5.522   6.984
 3122SOL    HW210266   3.062   5.377   0.006
 3123SOL     OW10267   3.130   6.397   3.622
 3123SOL    HW110268   3.117   6.332   3.547
 3123SOL    HW210269   3.227   6.402   3.645
 3124SOL     OW10270   3.949   1.074   5.538
 3124SOL    HW110271   4.037   1.027   5.537
 3124SOL    HW210272   3.918   1.089   5.444
 3125SOL     OW10273   0.100   1.887   5.841
 3125SOL    HW110274   0.107   1.832   5.758
 3125SOL    HW210275   0.003   1.906   5.859
 3126SOL     OW10276   4.910   6.237   0.136
 3126SOL    HW110277   5.003   6.228   0.173
 3126SOL    HW210278   4.895   6.331   0.106
 3127SOL     OW10279   0.797   1.592   4.188
 3127SOL    HW110280   0.707   1.598   4.145
 3127SOL    HW210281   0.848   1.676   4.171
 3128SOL     OW10282   1.996   1.328   1.322
 3128SOL    HW110283   2.088   1.294   1.345
 3128SOL    HW210284   1.942   1.336   1.405
 3129SOL     OW10285   0.161   3.555   4.867
 3129SOL    HW110286   0.259   3.539   4.850
 3129SOL    HW210287   0.132   3.502   4.946
 3130SOL     OW10288   1.907   4.885   2.372
 3130SOL    HW110289   1.970   4.814   2.341
 3130SOL    HW210290   1.951   4.939   2.444
 3131SOL     OW10291   6.935   3.710   3.176
 3131SOL    HW110292   6.914   3.770   3.100
 3131SOL    HW210293   7.003   3.642   3.148
 3132SOL     OW10294   5.791   5.982   5.784
 3132SOL    HW110295   5.827   6.049   5.719
 3132SOL    HW210296   5.707   6.018   5.825
 3133SOL     OW10297   2.861   1.941   3.135
 3133SOL    HW110298   2.925   2.016   3.118
 3133SOL    HW210299   2.909   1.854   3.126
 3134SOL     OW10300   4.935   3.135   2.120
 3134SOL    HW110301   4.987   3.064   2.168
 3134SOL    HW210302   4.862   3.093   2.067
 3135SOL     OW10303   3.350   1.887   3.030
 3135SOL    HW110304   3.380   1.977   3.062
 3135SOL    HW210305   3.356   1.822   3.106
 3136SOL     OW10306   5.476   6.075   5.596
 3136SOL    HW110307   5.490   6.013   5.672
 3136SOL    HW210308   5.495   6.028   5.510
 3137SOL     OW10309   5.567   2.001   3.712
 3137SOL    HW110310   5.486   2.054   3.735
 3137SOL    HW210311   5.576   1.994   3.613
 3138SOL     OW10312   5.661   1.094   4.972
 3138SOL    HW110313   5.679   1.008   4.924
 3138SOL    HW210314   5.624   1.075   5.063
 3139SOL     OW10315   5.012   5.924   5.473
 3139SOL    HW110316   5.010   5.944   5.571
 3139SOL    HW210317   5.075   5.988   5.427
 3140SOL     OW10318   6.352   6.046   6.693
 3140SOL    HW110319   6.399   5.991   6.762
 3140SOL    HW210320   6.253   6.046   6.711
 3141SOL     OW10321   1.055   5.427   0.286
 3141SOL    HW110322   0.964   5.439   0.246
 3141SOL    HW210323   1.047   5.378   0.373
 3142SOL     OW10324   4.497   6.380   6.515
 3142SOL    HW110325   4.518   6.300   6.571
 3142SOL    HW210326   4.398   6.385   6.501
 3143SOL     OW10327   6.301   1.478   0.848
 3143SOL    HW110328   6.351   1.515   0.926
 3143SOL    HW210329   6.287   1.380   0.861
 3144SOL     OW10330   1.990   3.114   6.598
 3144SOL    HW110331   1.941   3.076   6.677
 3144SOL    HW210332   2.007   3.211   6.613
 3145SOL     OW10333   3.317   6.021   3.182
 3145SOL    HW110334   3.254   5.957   3.225
 3145SOL    HW210335   3.410   5.986   3.189
 3146SOL     OW10336   1.272   0.241   3.130
 3146SOL    HW110337   1.225   0.215   3.046
 3146SOL    HW210338   1.205   0.278   3.195
 3147SOL     OW10339   4.943   4.186   0.353
 3147SOL    HW110340   4.980   4.108   0.303
 3147SOL    HW210341   4.893   4.152   0.434
 3148SOL     OW10342   2.999   5.348   4.635
 3148SOL    HW110343   3.075   5.404   4.667
 3148SOL    HW210344   3.034   5.262   4.598
 3149SOL     OW10345   3.414   0.264   5.970
 3149SOL    HW110346   3.423   0.350   6.019
 3149SOL    HW210347   3.488   0.202   5.998
 3150SOL     OW10348   5.474   6.933   4.835
 3150SOL    HW110349   5.401   6.990   4.799
 3150SOL    HW210350   5.465   6.926   4.935
 3151SOL     OW10351   4.521   1.306   5.895
 3151SOL    HW110352   4.534   1.264   5.985
 3151SOL    HW210353   4.425   1.303   5.870
 3152SOL     OW10354   1.597   5.746   0.917
 3152SOL    HW110355   1.503   5.780   0.921
 3152SOL    HW210356   1.602   5.669   0.852
 3153SOL     OW10357   6.986   4.532   2.166
 3153SOL    HW110358   6.897   4.512   2.207
 3153SOL    HW210359   0.039   4.495   2.224
 3154SOL     OW10360   5.989   2.329   6.024
 3154SOL    HW110361   5.988   2.239   5.981
 3154SOL    HW210362   5.914   2.336   6.089
 3155SOL     OW10363   5.619   5.480   0.983
 3155SOL    HW110364   5.576   5.497   0.894
 3155SOL    HW210365   5.563   5.416   1.035
 3156SOL     OW10366   3.507   3.793   3.736
 3156SOL    HW110367   3.586   3.852   3.757
 3156SOL    HW210368   3.491   3.794   3.637
 3157SOL     OW10369   2.050   3.653   4.460
 3157SOL    HW110370   2.074   3.567   4.504
 3157SOL    HW210371   2.088   3.729   4.513
 3158SOL     OW10372   5.076   6.507   0.632
 3158SOL    HW110373   5.107   6.417   0.663
 3158SOL    HW210374   5.022   6.496   0.548
 3159SOL     OW10375   5.258   5.124   0.425
 3159SOL    HW110376   5.296   5.122   0.517
 3159SOL    HW210377   5.242   5.219   0.398
 3160SOL     OW10378   5.577   3.991   6.876
 3160SOL    HW110379   5.553   3.975   6.972
 3160SOL    HW210380   5.616   3.907   6.837
 3161SOL     OW10381   0.959   2.052   3.087
 3161SOL    HW110382   1.021   1.997   3.031
 3161SOL    HW210383   0.876   2.072   3.036
 3162SOL     OW10384   0.453   6.104   6.394
 3162SOL    HW110385   0.367   6.121   6.443
 3162SOL    HW210386   0.444   6.134   6.299
 3163SOL     OW10387   2.912   3.634   5.950
 3163SOL    HW110388   2.892   3.722   5.993
 3163SOL    HW210389   2.980   3.647   5.878
 3164SOL     OW10390   5.409   5.536   0.043
 3164SOL    HW110391   5.445   5.501   0.130
 3164SOL    HW210392   5.395   5.634   0.050
 3165SOL     OW10393   6.932   1.691   1.544
 3165SOL    HW110394   6.991   1.635   1.487
 3165SOL    HW210395   6.937   1.786   1.513
 3166SOL     OW10396   5.295   3.156   6.081
 3166SOL    HW110397   5.329   3.118   6.167
 3166SOL    HW210398   5.366   3.211   6.037
 3167SOL     OW10399   1.248   5.004   1.969
 3167SOL    HW110400   1.156   4.972   1.946
 3167SOL    HW210401   1.316   4.944   1.927
 3168SOL     OW10402   5.762   3.492   1.220
 3168SOL    HW110403   5.688   3.557   1.238
 3168SOL    HW210404   5.818   3.525   1.144
 3169SOL     OW10405   1.543   2.164   5.744
 3169SOL    HW110406   1.537   2.104   5.823
 3169SOL    HW210407   1.514   2.256   5.770
 3170SOL     OW10408   4.294   0.858   6.667
 3170SOL    HW110409   4.229   0.801   6.616
 3170SOL    HW210410   4.334   0.803   6.741
 3171SOL     OW10411   6.014   6.699   3.209
 3171SOL    HW110412   6.048   6.790   3.187
 3171SOL    HW210413   6.086   6.647   3.255
 3172SOL     OW10414   6.078   0.360   5.165
 3172SOL    HW110415   6.153   0.298   5.190
 3172SOL    HW210416   6.014   0.313   5.104
 3173SOL     OW10417   2.145   0.708   1.447
 3173SOL    HW110418   2.154   0.707   1.347
 3173SOL    HW210419   2.215   0.767   1.486
 3174SOL     OW10420   2.127   2.987   6.136
 3174SOL    HW110421   2.075   2.934   6.204
 3174SOL    HW210422   2.220   3.001   6.169
 3175SOL     OW10423   0.617   6.755   0.398
 3175SOL    HW110424   0.541   6.762   0.464
 3175SOL    HW210425   0.580   6.750   0.306
 3176SOL     OW10426   0.600   5.011   6.983
 3176SOL    HW110427   0.680   5.072   6.982
 3176SOL    HW210428   0.584   4.978   0.056
 3177SOL     OW10429   6.120   6.810   5.905
 3177SOL    HW110430   6.102   6.906   5.924
 3177SOL    HW210431   6.134   6.797   5.806
 3178SOL     OW10432   1.240   3.190   1.608
 3178SOL    HW110433   1.249   3.127   1.686
 3178SOL    HW210434   1.197   3.275   1.639
 3179SOL     OW10435   2.206   1.471   3.063
 3179SOL    HW110436   2.121   1.422   3.049
 3179SOL    HW210437   2.205   1.557   3.011
 3180SOL     OW10438   5.998   0.649   6.237
 3180SOL    HW110439   6.003   0.747   6.255
 3180SOL    HW210440   5.903   0.619   6.244
 3181SOL     OW10441   0.476   1.405   3.069
 3181SOL    HW110442   0.423   1.380   3.150
 3181SOL    HW210443   0.431   1.369   2.987
 3182SOL     OW10444   1.542   4.432   5.518
 3182SOL    HW110445   1.618   4.386   5.473
 3182SOL    HW210446   1.465   4.439   5.454
 3183SOL     OW10447   3.775   3.738   1.649
 3183SOL    HW110448   3.871   3.717   1.635
 3183SOL    HW210449   3.746   3.706   1.739
 3184SOL     OW10450   2.353   1.479   2.590
 3184SOL    HW110451   2.405   1.416   2.648
 3184SOL    HW210452   2.258   1.448   2.584
 3185SOL     OW10453   6.998   6.495   5.827
 3185SOL    HW110454   0.050   6.528   5.887
 3185SOL    HW210455   0.012   6.487   5.733
 3186SOL     OW10456   2.984   0.569   1.922
 3186SOL    HW110457   2.932   0.630   1.861
 3186SOL    HW210458   3.081   0.593   1.919
 3187SOL     OW10459   3.121   4.215   0.024
 3187SOL    HW110460   3.048   4.231   6.978
 3187SOL    HW210461   3.168   4.301   0.043
 3188SOL     OW10462   4.005   6.410   3.470
 3188SOL    HW110463   3.932   6.390   3.404
 3188SOL    HW210464   4.056   6.326   3.490
 3189SOL     OW10465   1.383   6.775   2.214
 3189SOL    HW110466   1.398   6.681   2.185
 3189SOL    HW210467   1.285   6.795   2.216
 3190SOL     OW10468   0.558   6.397   2.035
 3190SOL    HW110469   0.561   6.301   2.063
 3190SOL    HW210470   0.555   6.456   2.117
 3191SOL     OW10471   3.680   0.999   1.001
 3191SOL    HW110472   3.611   0.927   0.989
 3191SOL    HW210473   3.662   1.049   1.086
 3192SOL     OW10474   6.994   3.109   3.126
 3192SOL    HW110475   0.040   3.082   3.195
 3192SOL    HW210476   6.915   3.047   3.128
 3193SOL     OW10477   4.429   3.800   6.504
 3193SOL    HW110478   4.512   3.817   6.450
 3193SOL    HW210479   4.395   3.708   6.483
 3194SOL     OW10480   0.502   3.464   5.828
 3194SOL    HW110481   0.453   3.496   5.747
 3194SOL    HW210482   0.438   3.444   5.901
 3195SOL     OW10483   0.670   3.662   3.415
 3195SOL    HW110484   0.575   3.694   3.417
 3195SOL    HW210485   0.689   3.606   3.495
 3196SOL     OW10486   0.038   6.859   5.750
 3196SOL    HW110487   6.995   6.804   5.696
 3196SOL    HW210488   0.049   6.949   5.708
 3197SOL     OW10489   1.178   4.236   4.288
 3197SOL    HW110490   1.195   4.230   4.190
 3197SOL    HW210491   1.099   4.296   4.304
 3198SOL     OW10492   7.017   1.290   6.993
 3198SOL    HW110493   7.000   1.377   0.020
 3198SOL    HW210494   7.010   1.304   6.895
 3199SOL     OW10495   3.904   1.741   2.464
 3199SOL    HW110496   3.976   1.679   2.435
 3199SOL    HW210497   3.930   1.836   2.444
 3200SOL     OW10498   6.842   2.392   1.493
 3200SOL    HW110499   6.929   2.427   1.459
 3200SOL    HW210500   6.825   2.429   1.584
 3201SOL     OW10501   4.924   4.298   2.936
 3201SOL    HW110502   4.904   4.345   2.850
 3201SOL    HW210503   5.005   4.337   2.978
 3202SOL     OW10504   2.236   5.477   1.287
 3202SOL    HW110505   2.194   5.561   1.252
 3202SOL    HW210506   2.210   5.463   1.382
 3203SOL     OW10507   6.268   0.297   1.628
 3203SOL    HW110508   6.206   0.347   1.689
 3203SOL    HW210509   6.344   0.356   1.602
 3204SOL     OW10510   6.309   5.492   1.826
 3204SOL    HW110511   6.364   5.573   1.848
 3204SOL    HW210512   6.325   5.422   1.895
 3205SOL     OW10513   1.258   3.974   3.499
 3205SOL    HW110514   1.273   4.038   3.424
 3205SOL    HW210515   1.208   3.894   3.466
 3206SOL     OW10516   1.171   7.005   0.109
 3206SOL    HW110517   1.206   0.076   0.130
 3206SOL    HW210518   1.091   6.986   0.166
 3207SOL     OW10519   0.339   0.843   3.853
 3207SOL    HW110520   0.313   0.917   3.915
 3207SOL    HW210521   0.297   0.758   3.885
 3208SOL     OW10522   5.846   6.719   5.067
 3208SOL    HW110523   5.757   6.758   5.092
 3208SOL    HW210524   5.906   6.720   5.146
 3209SOL     OW10525   2.146   0.513   3.151
 3209SOL    HW110526   2.214   0.441   3.166
 3209SOL    HW210527   2.099   0.533   3.237
 3210SOL     OW10528   0.112   4.675   2.809
 3210SOL    HW110529   0.106   4.727   2.894
 3210SOL    HW210530   0.039   4.606   2.807
 3211SOL     OW10531   1.420   4.105   2.220
 3211SOL    HW110532   1.371   4.028   2.263
 3211SOL    HW210533   1.406   4.188   2.274
 3212SOL     OW10534   4.865   2.503   5.955
 3212SOL    HW110535   4.801   2.429   5.974
 3212SOL    HW210536   4.854   2.534   5.861
 3213SOL     OW10537   5.830   6.173   1.690
 3213SOL    HW110538   5.903   6.221   1.641
 3213SOL    HW210539   5.865   6.141   1.778
 3214SOL     OW10540   3.918   5.026   6.329
 3214SOL    HW110541   3.977   5.013   6.408
 3214SOL    HW210542   3.869   5.113   6.337
 3215SOL     OW10543   6.286   0.935   6.907
 3215SOL    HW110544   6.227   0.880   6.965
 3215SOL    HW210545   6.381   0.910   6.924
 3216SOL     OW10546   5.613   6.722   4.740
 3216SOL    HW110547   5.626   6.737   4.643
 3216SOL    HW210548   5.567   6.801   4.781
 3217SOL     OW10549   0.096   3.598   1.333
 3217SOL    HW110550   0.195   3.587   1.344
 3217SOL    HW210551   0.050   3.579   1.420
 3218SOL     OW10552   2.757   0.599   2.367
 3218SOL    HW110553   2.682   0.534   2.352
 3218SOL    HW210554   2.754   0.669   2.296
 3219SOL     OW10555   6.831   6.965   4.079
 3219SOL    HW110556   6.846   7.012   4.166
 3219SOL    HW210557   6.906   6.902   4.062
 3220SOL     OW10558   6.100   3.140   5.374
 3220SOL    HW110559   6.063   3.232   5.387
 3220SOL    HW210560   6.144   3.134   5.285
 3221SOL     OW10561   3.895   0.134   2.909
 3221SOL    HW110562   3.956   0.212   2.916
 3221SOL    HW210563   3.882   0.095   3.001
 3222SOL     OW10564   5.676   3.473   3.122
 3222SOL    HW110565   5.717   3.452   3.033
 3222SOL    HW210566   5.577   3.457   3.118
 3223SOL     OW10567   2.233   4.976   5.204
 3223SOL    HW110568   2.281   5.031   5.273
 3223SOL    HW210569   2.272   4.884   5.202
 3224SOL     OW10570   4.434   5.743   0.243
 3224SOL    HW110571   4.504   5.693   0.193
 3224SOL    HW210572   4.451   5.735   0.341
 3225SOL     OW10573   2.414   2.756   1.164
 3225SOL    HW110574   2.468   2.838   1.149
 3225SOL    HW210575   2.465   2.676   1.134
 3226SOL     OW10576   0.652   0.540   4.153
 3226SOL    HW110577   0.709   0.465   4.119
 3226SOL    HW210578   0.620   0.518   4.245
 3227SOL     OW10579   2.607   0.902   5.489
 3227SOL    HW110580   2.625   0.907   5.587
 3227SOL    HW210581   2.570   0.990   5.458
 3228SOL     OW10582   4.782   3.132   4.883
 3228SOL    HW110583   4.827   3.181   4.958
 3228SOL    HW210584   4.684   3.155   4.883
 3229SOL     OW10585   3.838   2.189   5.057
 3229SOL    HW110586   3.879   2.100   5.077
 3229SOL    HW210587   3.847   2.209   4.959
 3230SOL     OW10588   0.831   0.711   3.460
 3230SOL    HW110589   0.904   0.654   3.496
 3230SOL    HW210590   0.815   0.789   3.521
 3231SOL     OW10591   6.054   5.307   0.968
 3231SOL    HW110592   6.057   5.212   0.998
 3231SOL    HW210593   5.964   5.326   0.928
 3232SOL     OW10594   2.057   4.738   3.524
 3232SOL    HW110595   2.104   4.761   3.439
 3232SOL    HW210596   2.010   4.819   3.559
 3233SOL     OW10597   0.862   4.139   1.251
 3233SOL    HW110598   0.896   4.216   1.197
 3233SOL    HW210599   0.794   4.088   1.197
 3234SOL     OW10600   6.969   1.403   4.528
 3234SOL    HW110601   0.004   1.417   4.609
 3234SOL    HW210602   6.896   1.471   4.525
 3235SOL     OW10603   5.679   0.302   2.967
 3235SOL    HW110604   5.739   0.284   3.045
 3235SOL    HW210605   5.631   0.218   2.942
 3236SOL     OW10606   0.489   2.848   2.290
 3236SOL    HW110607   0.584   2.836   2.319
 3236SOL    HW210608   0.481   2.827   2.193
 3237SOL     OW10609   3.290   6.521   4.401
 3237SOL    HW110610   3.237   6.574   4.334
 3237SOL    HW210611   3.335   6.445   4.354
 3238SOL     OW10612   6.552   6.759   6.662
 3238SOL    HW110613   6.585   6.683   6.719
 3238SOL    HW210614   6.516   6.831   6.721
 3239SOL     OW10615   0.542   6.447   5.931
 3239SOL    HW110616   0.585   6.506   5.863
 3239SOL    HW210617   0.542   6.493   6.020
 3240SOL     OW10618   0.541   0.857   4.707
 3240SOL    HW110619   0.635   0.857   4.744
 3240SOL    HW210620   0.544   0.875   4.609
 3241SOL     OW10621   4.868   1.394   4.935
 3241SOL    HW110622   4.938   1.419   4.867
 3241SOL    HW210623   4.786   1.363   4.888
 3242SOL     OW10624   2.941   6.493   0.545
 3242SOL    HW110625   2.900   6.448   0.624
 3242SOL    HW210626   2.875   6.498   0.470
 3243SOL     OW10627   3.051   5.787   0.610
 3243SOL    HW110628   3.015   5.701   0.645
 3243SOL    HW210629   3.066   5.781   0.512
 3244SOL     OW10630   2.533   6.302   6.024
 3244SOL    HW110631   2.491   6.219   6.061
 3244SOL    HW210632   2.579   6.352   6.098
 3245SOL     OW10633   3.207   2.112   5.997
 3245SOL    HW110634   3.297   2.108   6.040
 3245SOL    HW210635   3.147   2.171   6.051
 3246SOL     OW10636   5.096   6.669   3.754
 3246SOL    HW110637   5.195   6.662   3.738
 3246SOL    HW210638   5.057   6.577   3.757
 3247SOL     OW10639   0.157   1.684   4.518
 3247SOL    HW110640   0.251   1.715   4.499
 3247SOL    HW210641   0.155   1.635   4.605
 3248SOL     OW10642   6.143   4.234   2.023
 3248SOL    HW110643   6.164   4.313   1.966
 3248SOL    HW210644   6.044   4.226   2.034
 3249SOL     OW10645   2.884   4.288   5.295
 3249SOL    HW110646   2.863   4.369   5.240
 3249SOL    HW210647   2.800   4.254   5.338
 3250SOL     OW10648   4.109   5.969   1.787
 3250SOL    HW110649   4.019   5.966   1.742
 3250SOL    HW210650   4.098   6.002   1.881
 3251SOL     OW10651   3.171   1.098   3.461
 3251SOL    HW110652   3.113   1.119   3.539
 3251SOL    HW210653   3.160   1.167   3.390
 3252SOL     OW10654   3.067   2.144   3.424
 3252SOL    HW110655   3.066   2.100   3.334
 3252SOL    HW210656   2.998   2.215   3.427
 3253SOL     OW10657   4.673   3.584   0.965
 3253SOL    HW110658   4.645   3.534   0.883
 3253SOL    HW210659   4.606   3.654   0.986
 3254SOL     OW10660   5.281   4.909   2.612
 3254SOL    HW110661   5.219   4.955   2.675
 3254SOL    HW210662   5.244   4.913   2.519
 3255SOL     OW10663   4.402   4.654   0.619
 3255SOL    HW110664   4.332   4.713   0.580
 3255SOL    HW210665   4.372   4.558   0.613
 3256SOL     OW10666   6.379   6.477   5.854
 3256SOL    HW110667   6.330   6.474   5.767
 3256SOL    HW210668   6.324   6.524   5.922
 3257SOL     OW10669   2.411   1.985   1.122
 3257SOL    HW110670   2.325   2.014   1.166
 3257SOL    HW210671   2.401   1.891   1.088
 3258SOL     OW10672   5.642   6.580   1.533
 3258SOL    HW110673   5.731   6.624   1.545
 3258SOL    HW210674   5.637   6.540   1.442
 3259SOL     OW10675   5.775   6.533   3.186
 3259SOL    HW110676   5.854   6.588   3.213
 3259SOL    HW210677   5.710   6.528   3.262
 3260SOL     OW10678   1.410   3.128   0.272
 3260SOL    HW110679   1.347   3.052   0.253
 3260SOL    HW210680   1.404   3.195   0.198
 3261SOL     OW10681   4.413   0.374   3.554
 3261SOL    HW110682   4.330   0.380   3.500
 3261SOL    HW210683   4.443   0.278   3.559
 3262SOL     OW10684   3.637   1.401   3.723
 3262SOL    HW110685   3.726   1.368   3.754
 3262SOL    HW210686   3.620   1.492   3.762
 3263SOL     OW10687   3.218   5.513   2.184
 3263SOL    HW110688   3.188   5.473   2.271
 3263SOL    HW210689   3.280   5.590   2.203
 3264SOL     OW10690   4.974   4.682   5.993
 3264SOL    HW110691   5.025   4.608   6.038
 3264SOL    HW210692   4.970   4.664   5.895
 3265SOL     OW10693   4.480   0.789   6.441
 3265SOL    HW110694   4.407   0.775   6.509
 3265SOL    HW210695   4.488   0.707   6.384
 3266SOL     OW10696   0.699   1.507   6.232
 3266SOL    HW110697   0.614   1.541   6.192
 3266SOL    HW210698   0.705   1.408   6.218
 3267SOL     OW10699   4.712   2.481   1.112
 3267SOL    HW110700   4.768   2.538   1.172
 3267SOL    HW210701   4.764   2.400   1.085
 3268SOL     OW10702   1.299   4.544   6.607
 3268SOL    HW110703   1.214   4.513   6.565
 3268SOL    HW210704   1.369   4.473   6.597
 3269SOL     OW10705   4.892   3.392   0.471
 3269SOL    HW110706   4.855   3.395   0.378
 3269SOL    HW210707   4.895   3.484   0.509
 3270SOL     OW10708   0.512   5.753   4.661
 3270SOL    HW110709   0.505   5.653   4.671
 3270SOL    HW210710   0.531   5.775   4.565
 3271SOL     OW10711   5.899   1.802   0.996
 3271SOL    HW110712   5.860   1.887   0.960
 3271SOL    HW210713   5.999   1.809   0.998
 3272SOL     OW10714   5.137   6.752   0.489
 3272SOL    HW110715   5.056   6.734   0.545
 3272SOL    HW210716   5.195   6.671   0.486
 3273SOL     OW10717   0.124   6.955   2.840
 3273SOL    HW110718   0.055   6.976   2.909
 3273SOL    HW210719   0.203   6.911   2.885
 3274SOL     OW10720   3.588   1.694   6.847
 3274SOL    HW110721   3.492   1.710   6.825
 3274SOL    HW210722   3.619   1.609   6.805
 3275SOL     OW10723   3.769   0.758   6.854
 3275SOL    HW110724   3.718   0.672   6.854
 3275SOL    HW210725   3.745   0.811   6.773
 3276SOL     OW10726   2.778   6.520   0.350
 3276SOL    HW110727   2.767   6.457   0.272
 3276SOL    HW210728   2.721   6.601   0.335
 3277SOL     OW10729   0.215   6.266   5.734
 3277SOL    HW110730   0.303   6.231   5.702
 3277SOL    HW210731   0.217   6.366   5.736
 3278SOL     OW10732   1.706   1.238   0.662
 3278SOL    HW110733   1.670   1.287   0.583
 3278SOL    HW210734   1.769   1.297   0.712
 3279SOL     OW10735   1.854   6.817   1.091
 3279SOL    HW110736   1.946   6.839   1.060
 3279SOL    HW210737   1.803   6.902   1.108
 3280SOL     OW10738   1.792   5.433   5.069
 3280SOL    HW110739   1.778   5.528   5.042
 3280SOL    HW210740   1.778   5.374   4.990
 3281SOL     OW10741   2.560   6.087   0.332
 3281SOL    HW110742   2.530   6.070   0.426
 3281SOL    HW210743   2.495   6.148   0.287
 3282SOL     OW10744   2.193   5.808   2.418
 3282SOL    HW110745   2.121   5.814   2.349
 3282SOL    HW210746   2.151   5.799   2.509
 3283SOL     OW10747   1.999   0.094   3.705
 3283SOL    HW110748   1.923   0.157   3.725
 3283SOL    HW210749   2.023   0.101   3.608
 3284SOL     OW10750   0.407   4.145   5.905
 3284SOL    HW110751   0.405   4.233   5.953
 3284SOL    HW210752   0.491   4.139   5.851
 3285SOL     OW10753   6.922   2.177   4.786
 3285SOL    HW110754   6.932   2.085   4.749
 3285SOL    HW210755   6.963   2.243   4.724
 3286SOL     OW10756   3.737   4.744   5.486
 3286SOL    HW110757   3.681   4.822   5.514
 3286SOL    HW210758   3.812   4.732   5.552
 3287SOL     OW10759   0.520   5.120   1.800
 3287SOL    HW110760   0.450   5.054   1.828
 3287SOL    HW210761   0.531   5.190   1.870
 3288SOL     OW10762   1.556   6.518   0.099
 3288SOL    HW110763   1.473   6.570   0.119
 3288SOL    HW210764   1.627   6.581   0.066
 3289SOL     OW10765   1.107   5.502   4.480
 3289SOL    HW110766   1.129   5.585   4.531
 3289SOL    HW210767   1.191   5.457   4.451
 3290SOL     OW10768   6.767   5.741   2.205
 3290SOL    HW110769   6.795   5.777   2.294
 3290SOL    HW210770   6.670   5.759   2.190
 3291SOL     OW10771   2.015   0.324   1.941
 3291SOL    HW110772   1.938   0.271   1.977
 3291SOL    HW210773   2.080   0.342   2.015
 3292SOL     OW10774   0.745   5.622   5.580
 3292SOL    HW110775   0.810   5.566   5.631
 3292SOL    HW210776   0.795   5.689   5.525
 3293SOL     OW10777   6.482   0.166   3.175
 3293SOL    HW110778   6.426   0.096   3.129
 3293SOL    HW210779   6.560   0.122   3.220
 3294SOL     OW10780   0.994   0.252   7.009
 3294SOL    HW110781   0.969   0.328   6.949
 3294SOL    HW210782   0.966   0.166   6.967
 3295SOL     OW10783   1.337   2.340   6.257
 3295SOL    HW110784   1.259   2.338   6.194
 3295SOL    HW210785   1.410   2.397   6.218
 3296SOL     OW10786   0.893   6.630   1.966
 3296SOL    HW110787   0.933   6.721   1.982
 3296SOL    HW210788   0.911   6.571   2.044
 3297SOL     OW10789   2.949   1.999   5.902
 3297SOL    HW110790   2.880   2.066   5.929
 3297SOL    HW210791   3.036   2.022   5.944
 3298SOL     OW10792   5.928   3.593   3.257
 3298SOL    HW110793   5.907   3.691   3.245
 3298SOL    HW210794   5.847   3.547   3.294
 3299SOL     OW10795   0.736   0.706   4.904
 3299SOL    HW110796   0.729   0.609   4.882
 3299SOL    HW210797   0.806   0.749   4.846
 3300SOL     OW10798   6.610   0.130   4.535
 3300SOL    HW110799   6.650   0.215   4.500
 3300SOL    HW210800   6.510   0.136   4.530
 3301SOL     OW10801   0.681   4.028   3.066
 3301SOL    HW110802   0.600   3.996   3.114
 3301SOL    HW210803   0.761   4.017   3.125
 3302SOL     OW10804   0.835   5.051   4.264
 3302SOL    HW110805   0.930   5.021   4.260
 3302SOL    HW210806   0.818   5.118   4.191
 3303SOL     OW10807   3.106   3.769   3.845
 3303SOL    HW110808   3.037   3.704   3.813
 3303SOL    HW210809   3.103   3.775   3.944
 3304SOL     OW10810   1.167   6.927   3.323
 3304SOL    HW110811   1.230   6.850   3.335
 3304SOL    HW210812   1.075   6.900   3.351
 3305SOL     OW10813   1.247   1.055   1.773
 3305SOL    HW110814   1.279   1.103   1.692
 3305SOL    HW210815   1.165   1.099   1.808
 3306SOL     OW10816   0.991   3.199   2.626
 3306SOL    HW110817   1.004   3.101   2.641
 3306SOL    HW210818   0.914   3.231   2.682
 3307SOL     OW10819   0.752   6.499   0.867
 3307SOL    HW110820   0.721   6.507   0.962
 3307SOL    HW210821   0.685   6.447   0.815
 3308SOL     OW10822   5.451   6.140   0.878
 3308SOL    HW110823   5.375   6.129   0.814
 3308SOL    HW210824   5.417   6.132   0.972
 3309SOL     OW10825   1.339   5.619   2.263
 3309SOL    HW110826   1.285   5.538   2.287
 3309SOL    HW210827   1.312   5.695   2.321
 3310SOL     OW10828   1.245   0.130   2.032
 3310SOL    HW110829   1.272   0.051   1.976
 3310SOL    HW210830   1.146   0.142   2.028
 3311SOL     OW10831   3.591   6.319   0.922
 3311SOL    HW110832   3.604   6.383   0.846
 3311SOL    HW210833   3.680   6.284   0.951
 3312SOL     OW10834   2.129   3.405   6.662
 3312SOL    HW110835   2.166   3.361   6.744
 3312SOL    HW210836   2.126   3.504   6.676
 3313SOL     OW10837   6.550   6.201   5.101
 3313SOL    HW110838   6.634   6.163   5.060
 3313SOL    HW210839   6.567   6.223   5.197
 3314SOL     OW10840   0.523   3.415   6.627
 3314SOL    HW110841   0.490   3.500   6.669
 3314SOL    HW210842   0.447   3.352   6.614
 3315SOL     OW10843   6.846   3.607   2.840
 3315SOL    HW110844   6.898   3.639   2.760
 3315SOL    HW210845   6.895   3.531   2.883
 3316SOL     OW10846   4.655   0.882   0.767
 3316SOL    HW110847   4.615   0.799   0.805
 3316SOL    HW210848   4.707   0.859   0.685
 3317SOL     OW10849   4.797   2.513   1.730
 3317SOL    HW110850   4.730   2.495   1.803
 3317SOL    HW210851   4.888   2.484   1.760
 3318SOL     OW10852   2.067   5.206   5.313
 3318SOL    HW110853   2.095   5.123   5.263
 3318SOL    HW210854   2.124   5.216   5.394
 3319SOL     OW10855   0.067   6.314   6.186
 3319SOL    HW110856   0.024   6.297   6.097
 3319SOL    HW210857   0.009   6.275   6.258
 3320SOL     OW10858   0.374   1.926   5.747
 3320SOL    HW110859   0.393   2.015   5.789
 3320SOL    HW210860   0.282   1.897   5.772
 3321SOL     OW10861   3.238   3.505   4.059
 3321SOL    HW110862   3.321   3.502   4.003
 3321SOL    HW210863   3.173   3.436   4.027
 3322SOL     OW10864   4.932   2.461   0.878
 3322SOL    HW110865   4.883   2.381   0.844
 3322SOL    HW210866   5.028   2.437   0.894
 3323SOL     OW10867   2.731   4.918   6.807
 3323SOL    HW110868   2.729   4.968   6.720
 3323SOL    HW210869   2.782   4.833   6.795
 3324SOL     OW10870   0.295   3.147   0.961
 3324SOL    HW110871   0.230   3.099   0.903
 3324SOL    HW210872   0.259   3.153   1.054
 3325SOL     OW10873   1.877   3.196   0.423
 3325SOL    HW110874   1.794   3.182   0.369
 3325SOL    HW210875   1.954   3.214   0.362
 3326SOL     OW10876   6.362   0.897   1.932
 3326SOL    HW110877   6.308   0.853   1.861
 3326SOL    HW210878   6.373   0.995   1.910
 3327SOL     OW10879   3.191   6.778   1.887
 3327SOL    HW110880   3.172   6.683   1.863
 3327SOL    HW210881   3.113   6.817   1.936
 3328SOL     OW10882   4.484   0.741   3.234
 3328SOL    HW110883   4.516   0.704   3.321
 3328SOL    HW210884   4.507   0.839   3.229
 3329SOL     OW10885   5.755   0.849   5.957
 3329SOL    HW110886   5.672   0.892   5.923
 3329SOL    HW210887   5.784   0.894   6.042
 3330SOL     OW10888   6.391   5.615   3.376
 3330SOL    HW110889   6.325   5.549   3.414
 3330SOL    HW210890   6.461   5.565   3.325
 3331SOL     OW10891   1.818   3.412   2.809
 3331SOL    HW110892   1.754   3.478   2.847
 3331SOL    HW210893   1.812   3.413   2.709
 3332SOL     OW10894   3.613   4.869   0.853
 3332SOL    HW110895   3.527   4.920   0.844
 3332SOL    HW210896   3.645   4.841   0.763
 3333SOL     OW10897   2.410   3.030   1.461
 3333SOL    HW110898   2.430   3.125   1.438
 3333SOL    HW210899   2.482   2.994   1.520
 3334SOL     OW10900   2.436   1.936   1.771
 3334SOL    HW110901   2.376   1.946   1.850
 3334SOL    HW210902   2.461   2.027   1.736
 3335SOL     OW10903   3.600   4.067   5.337
 3335SOL    HW110904   3.537   4.144   5.336
 3335SOL    HW210905   3.611   4.034   5.430
 3336SOL     OW10906   4.546   5.533   4.512
 3336SOL    HW110907   4.501   5.446   4.534
 3336SOL    HW210908   4.622   5.548   4.575
 3337SOL     OW10909   3.177   3.183   2.360
 3337SOL    HW110910   3.195   3.130   2.442
 3337SOL    HW210911   3.079   3.182   2.340
 3338SOL     OW10912   2.753   2.760   1.706
 3338SOL    HW110913   2.766   2.698   1.628
 3338SOL    HW210914   2.842   2.786   1.743
 3339SOL     OW10915   1.692   0.429   6.570
 3339SOL    HW110916   1.762   0.368   6.533
 3339SOL    HW210917   1.619   0.375   6.612
 3340SOL     OW10918   3.980   0.977   4.733
 3340SOL    HW110919   3.908   0.908   4.739
 3340SOL    HW210920   3.959   1.041   4.659
 3341SOL     OW10921   0.974   4.295   2.561
 3341SOL    HW110922   1.014   4.214   2.604
 3341SOL    HW210923   0.940   4.271   2.470
 3342SOL     OW10924   6.519   0.540   2.463
 3342SOL    HW110925   6.588   0.574   2.399
 3342SOL    HW210926   6.562   0.476   2.527
 3343SOL     OW10927   4.475   5.118   0.237
 3343SOL    HW110928   4.471   5.217   0.242
 3343SOL    HW210929   4.504   5.091   0.145
 3344SOL     OW10930   0.304   3.220   2.089
 3344SOL    HW110931   0.252   3.286   2.142
 3344SOL    HW210932   0.375   3.179   2.146
 3345SOL     OW10933   5.665   5.398   0.085
 3345SOL    HW110934   5.619   5.412   0.172
 3345SOL    HW210935   5.670   5.485   0.036
 3346SOL     OW10936   1.883   1.324   0.034
 3346SOL    HW110937   1.824   1.243   0.024
 3346SOL    HW210938   1.899   1.365   6.964
 3347SOL     OW10939   0.334   3.457   5.621
 3347SOL    HW110940   0.241   3.478   5.649
 3347SOL    HW210941   0.363   3.523   5.551
 3348SOL     OW10942   3.363   4.311   5.993
 3348SOL    HW110943   3.298   4.339   5.922
 3348SOL    HW210944   3.450   4.357   5.979
 3349SOL     OW10945   1.908   5.681   3.033
 3349SOL    HW110946   1.990   5.681   3.091
 3349SOL    HW210947   1.854   5.599   3.052
 3350SOL     OW10948   1.583   5.132   4.245
 3350SOL    HW110949   1.525   5.051   4.256
 3350SOL    HW210950   1.645   5.139   4.323
 3351SOL     OW10951   5.687   1.101   1.722
 3351SOL    HW110952   5.674   1.142   1.812
 3351SOL    HW210953   5.603   1.053   1.695
 3352SOL     OW10954   5.895   1.441   6.816
 3352SOL    HW110955   5.978   1.479   6.775
 3352SOL    HW210956   5.919   1.383   6.894
 3353SOL     OW10957   3.918   0.138   0.232
 3353SOL    HW110958   3.850   0.185   0.176
 3353SOL    HW210959   3.985   0.204   0.266
 3354SOL     OW10960   3.066   3.934   6.227
 3354SOL    HW110961   3.118   3.849   6.239
 3354SOL    HW210962   3.011   3.928   6.143
 3355SOL     OW10963   1.506   0.261   5.079
 3355SOL    HW110964   1.559   0.177   5.092
 3355SOL    HW210965   1.499   0.310   5.165
 3356SOL     OW10966   1.615   0.568   6.047
 3356SOL    HW110967   1.637   0.574   6.144
 3356SOL    HW210968   1.579   0.655   6.014
 3357SOL     OW10969   3.492   2.897   2.494
 3357SOL    HW110970   3.408   2.891   2.548
 3357SOL    HW210971   3.469   2.908   2.397
 3358SOL     OW10972   6.903   0.827   1.785
 3358SOL    HW110973   6.983   0.780   1.746
 3358SOL    HW210974   6.913   0.926   1.773
 3359SOL     OW10975   0.701   6.735   4.822
 3359SOL    HW110976   0.673   6.653   4.872
 3359SOL    HW210977   0.659   6.734   4.731
 3360SOL     OW10978   2.356   4.420   4.347
 3360SOL    HW110979   2.312   4.447   4.262
 3360SOL    HW210980   2.298   4.355   4.395
 3361SOL     OW10981   6.565   0.107   5.779
 3361SOL    HW110982   6.606   0.018   5.760
 3361SOL    HW210983   6.614   0.178   5.728
 3362SOL     OW10984   3.574   0.402   4.163
 3362SOL    HW110985   3.478   0.430   4.167
 3362SOL    HW210986   3.622   0.437   4.244
 3363SOL     OW10987   5.965   3.938   0.095
 3363SOL    HW110988   5.892   3.886   0.138
 3363SOL    HW210989   5.929   4.026   0.063
 3364SOL     OW10990   1.609   4.009   3.425
 3364SOL    HW110991   1.629   3.915   3.455
 3364SOL    HW210992   1.554   4.055   3.495
 3365SOL     OW10993   1.443   3.791   3.302
 3365SOL    HW110994   1.365   3.800   3.363
 3365SOL    HW210995   1.521   3.842   3.340
 3366SOL     OW10996   5.632   3.388   4.880
 3366SOL    HW110997   5.673   3.409   4.969
 3366SOL    HW210998   5.688   3.427   4.807
 3367SOL     OW10999   2.924   3.530   4.187
 3367SOL    HW111000   2.894   3.440   4.216
 3367SOL    HW211001   2.918   3.594   4.264
 3368SOL     OW11002   2.314   0.331   2.441
 3368SOL    HW111003   2.294   0.242   2.401
 3368SOL    HW211004   2.228   0.377   2.463
 3369SOL     OW11005   5.130   2.404   1.335
 3369SOL    HW111006   5.182   2.488   1.347
 3369SOL    HW211007   5.137   2.348   1.418
 3370SOL     OW11008   0.708   5.959   2.775
 3370SOL    HW111009   0.795   5.953   2.824
 3370SOL    HW211010   0.724   5.951   2.677
 3371SOL     OW11011   2.354   2.415   1.894
 3371SOL    HW111012   2.420   2.488   1.874
 3371SOL    HW211013   2.263   2.442   1.863
 3372SOL     OW11014   6.397   4.003   2.963
 3372SOL    HW111015   6.497   4.005   2.972
 3372SOL    HW211016   6.361   3.919   3.003
 3373SOL     OW11017   0.248   3.608   1.707
 3373SOL    HW111018   0.200   3.673   1.648
 3373SOL    HW211019   0.236   3.635   1.803
 3374SOL     OW11020   0.556   6.799   4.113
 3374SOL    HW111021   0.579   6.896   4.115
 3374SOL    HW211022   0.640   6.745   4.114
 3375SOL     OW11023   0.331   5.764   5.792
 3375SOL    HW111024   0.316   5.787   5.696
 3375SOL    HW211025   0.274   5.822   5.850
 3376SOL     OW11026   3.409   2.899   4.213
 3376SOL    HW111027   3.356   2.976   4.248
 3376SOL    HW211028   3.371   2.868   4.126
 3377SOL     OW11029   6.688   5.064   4.358
 3377SOL    HW111030   6.611   5.014   4.395
 3377SOL    HW211031   6.658   5.155   4.327
 3378SOL     OW11032   1.948   6.507   0.919
 3378SOL    HW111033   1.883   6.574   0.954
 3378SOL    HW211034   1.911   6.415   0.932
 3379SOL     OW11035   6.246   3.831   3.951
 3379SOL    HW111036   6.230   3.809   3.855
 3379SOL    HW211037   6.344   3.820   3.971
 3380SOL     OW11038   2.531   4.469   0.458
 3380SOL    HW111039   2.437   4.490   0.486
 3380SOL    HW211040   2.590   4.466   0.539
 3381SOL     OW11041   2.392   3.539   5.627
 3381SOL    HW111042   2.392   3.454   5.573
 3381SOL    HW211043   2.298   3.559   5.656
 3382SOL     OW11044   6.461   3.690   0.064
 3382SOL    HW111045   6.378   3.679   0.117
 3382SOL    HW211046   6.438   3.722   6.992
 3383SOL     OW11047   4.127   5.141   0.435
 3383SOL    HW111048   4.029   5.126   0.445
 3383SOL    HW211049   4.152   5.138   0.338
 3384SOL     OW11050   2.719   3.365   6.540
 3384SOL    HW111051   2.722   3.458   6.576
 3384SOL    HW211052   2.635   3.352   6.487
 3385SOL     OW11053   6.487   2.410   4.210
 3385SOL    HW111054   6.405   2.434   4.157
 3385SOL    HW211055   6.520   2.320   4.181
 3386SOL     OW11056   0.153   6.033   4.959
 3386SOL    HW111057   0.209   5.979   4.896
 3386SOL    HW211058   0.163   6.130   4.938
 3387SOL     OW11059   6.187   1.248   2.888
 3387SOL    HW111060   6.225   1.160   2.858
 3387SOL    HW211061   6.105   1.269   2.836
 3388SOL     OW11062   0.052   3.817   1.153
 3388SOL    HW111063   6.975   3.839   1.155
 3388SOL    HW211064   0.077   3.765   1.235
 3389SOL     OW11065   5.609   5.839   6.461
 3389SOL    HW111066   5.594   5.750   6.418
 3389SOL    HW211067   5.562   5.910   6.409
 3390SOL     OW11068   2.970   5.265   6.368
 3390SOL    HW111069   2.889   5.229   6.320
 3390SOL    HW211070   3.043   5.197   6.364
 3391SOL     OW11071   5.691   4.282   4.126
 3391SOL    HW111072   5.747   4.225   4.066
 3391SOL    HW211073   5.657   4.227   4.202
 3392SOL     OW11074   4.667   6.709   5.799
 3392SOL    HW111075   4.764   6.689   5.808
 3392SOL    HW211076   4.630   6.735   5.888
 3393SOL     OW11077   3.835   6.223   0.892
 3393SOL    HW111078   3.844   6.185   0.800
 3393SOL    HW211079   3.863   6.319   0.892
 3394SOL     OW11080   2.496   5.552   1.220
 3394SOL    HW111081   2.399   5.531   1.234
 3394SOL    HW211082   2.512   5.571   1.123
 3395SOL     OW11083   2.224   6.619   3.247
 3395SOL    HW111084   2.188   6.568   3.169
 3395SOL    HW211085   2.148   6.659   3.298
 3396SOL     OW11086   4.347   0.363   4.332
 3396SOL    HW111087   4.293   0.324   4.258
 3396SOL    HW211088   4.327   0.461   4.339
 3397SOL     OW11089   2.381   5.621   6.592
 3397SOL    HW111090   2.389   5.636   6.494
 3397SOL    HW211091   2.366   5.524   6.610
 3398SOL     OW11092   6.647   1.955   5.199
 3398SOL    HW111093   6.717   1.989   5.136
 3398SOL    HW211094   6.659   1.856   5.212
 3399SOL     OW11095   6.397   6.053   2.141
 3399SOL    HW111096   6.419   5.961   2.175
 3399SOL    HW211097   6.477   6.112   2.151
 3400SOL     OW11098   4.171   3.117   5.577
 3400SOL    HW111099   4.102   3.183   5.607
 3400SOL    HW211100   4.138   3.070   5.495
 3401SOL     OW11101   6.922   3.844   5.122
 3401SOL    HW111102   6.838   3.897   5.126
 3401SOL    HW211103   6.910   3.765   5.061
 3402SOL     OW11104   6.735   3.715   0.987
 3402SOL    HW111105   6.722   3.660   0.904
 3402SOL    HW211106   6.777   3.802   0.962
 3403SOL     OW11107   5.554   0.175   6.583
 3403SOL    HW111108   5.502   0.168   6.499
 3403SOL    HW211109   5.509   0.123   6.656
 3404SOL     OW11110   5.364   4.367   4.400
 3404SOL    HW111111   5.368   4.415   4.487
 3404SOL    HW211112   5.271   4.332   4.385
 3405SOL     OW11113   4.729   6.053   0.221
 3405SOL    HW111114   4.797   6.116   0.183
 3405SOL    HW211115   4.775   5.972   0.255
 3406SOL     OW11116   3.082   5.760   1.320
 3406SOL    HW111117   3.003   5.704   1.347
 3406SOL    HW211118   3.112   5.816   1.397
 3407SOL     OW11119   1.066   4.212   6.329
 3407SOL    HW111120   1.076   4.293   6.387
 3407SOL    HW211121   1.099   4.232   6.237
 3408SOL     OW11122   4.634   0.379   3.770
 3408SOL    HW111123   4.547   0.362   3.724
 3408SOL    HW211124   4.690   0.440   3.713
 3409SOL     OW11125   4.012   0.726   0.509
 3409SOL    HW111126   4.090   0.788   0.522
 3409SOL    HW211127   4.014   0.655   0.579
 3410SOL     OW11128   6.617   0.406   3.123
 3410SOL    HW111129   6.557   0.327   3.115
 3410SOL    HW211130   6.680   0.407   3.045
 3411SOL     OW11131   6.532   3.241   5.922
 3411SOL    HW111132   6.490   3.270   6.009
 3411SOL    HW211133   6.617   3.292   5.908
 3412SOL     OW11134   5.628   3.502   2.364
 3412SOL    HW111135   5.640   3.601   2.363
 3412SOL    HW211136   5.617   3.469   2.270
 3413SOL     OW11137   6.425   1.497   0.597
 3413SOL    HW111138   6.525   1.488   0.594
 3413SOL    HW211139   6.395   1.501   0.693
 3414SOL     OW11140   3.382   3.532   1.522
 3414SOL    HW111141   3.367   3.625   1.555
 3414SOL    HW211142   3.336   3.467   1.583
 3415SOL     OW11143   2.320   1.705   5.885
 3415SOL    HW111144   2.246   1.702   5.819
 3415SOL    HW211145   2.394   1.644   5.855
 3416SOL     OW11146   6.838   6.872   6.795
 3416SOL    HW111147   6.805   6.898   6.704
 3416SOL    HW211148   6.873   6.952   6.842
 3417SOL     OW11149   6.356   6.737   3.319
 3417SOL    HW111150   6.376   6.809   3.252
 3417SOL    HW211151   6.297   6.773   3.391
 3418SOL     OW11152   4.234   5.387   0.407
 3418SOL    HW111153   4.180   5.303   0.407
 3418SOL    HW211154   4.316   5.374   0.352
 3419SOL     OW11155   2.382   5.247   5.742
 3419SOL    HW111156   2.469   5.267   5.698
 3419SOL    HW211157   2.396   5.236   5.840
 3420SOL     OW11158   4.550   1.949   1.883
 3420SOL    HW111159   4.526   1.861   1.842
 3420SOL    HW211160   4.555   2.019   1.812
 3421SOL     OW11161   0.529   1.947   4.968
 3421SOL    HW111162   0.622   1.970   4.997
 3421SOL    HW211163   0.492   2.022   4.913
 3422SOL     OW11164   2.610   6.695   0.962
 3422SOL    HW111165   2.529   6.638   0.954
 3422SOL    HW211166   2.607   6.745   1.049
 3423SOL     OW11167   2.295   4.707   5.778
 3423SOL    HW111168   2.250   4.678   5.693
 3423SOL    HW211169   2.393   4.719   5.761
 3424SOL     OW11170   5.363   1.121   1.950
 3424SOL    HW111171   5.336   1.030   1.919
 3424SOL    HW211172   5.428   1.161   1.885
 3425SOL     OW11173   6.683   3.454   6.367
 3425SOL    HW111174   6.584   3.448   6.376
 3425SOL    HW211175   6.726   3.427   6.454
 3426SOL     OW11176   6.322   3.766   6.810
 3426SOL    HW111177   6.288   3.841   6.867
 3426SOL    HW211178   6.246   3.711   6.778
 3427SOL     OW11179   1.103   2.382   0.315
 3427SOL    HW111180   1.119   2.295   0.361
 3427SOL    HW211181   1.038   2.369   0.240
 3428SOL     OW11182   4.319   6.756   4.897
 3428SOL    HW111183   4.307   6.774   4.800
 3428SOL    HW211184   4.313   6.657   4.914
 3429SOL     OW11185   4.653   6.624   0.512
 3429SOL    HW111186   4.682   6.559   0.582
 3429SOL    HW211187   4.579   6.585   0.458
 3430SOL     OW11188   2.848   3.897   6.041
 3430SOL    HW111189   2.753   3.880   6.068
 3430SOL    HW211190   2.859   3.994   6.018
 3431SOL     OW11191   0.841   4.431   2.846
 3431SOL    HW111192   0.903   4.393   2.777
 3431SOL    HW211193   0.755   4.380   2.846
 3432SOL     OW11194   0.424   4.994   0.416
 3432SOL    HW111195   0.482   5.059   0.367
 3432SOL    HW211196   0.406   4.915   0.358
 3433SOL     OW11197   2.105   1.090   6.918
 3433SOL    HW111198   2.192   1.135   6.897
 3433SOL    HW211199   2.039   1.110   6.847
 3434SOL     OW11200   3.624   2.508   1.668
 3434SOL    HW111201   3.542   2.560   1.687
 3434SOL    HW211202   3.642   2.444   1.743
 3435SOL     OW11203   1.514   2.026   1.715
 3435SOL    HW111204   1.441   1.959   1.706
 3435SOL    HW211205   1.498   2.102   1.653
 3436SOL     OW11206   3.495   0.018   6.600
 3436SOL    HW111207   3.444   0.036   6.516
 3436SOL    HW211208   3.590   7.019   6.577
 3437SOL     OW11209   1.132   0.209   6.689
 3437SOL    HW111210   1.096   0.116   6.696
 3437SOL    HW211211   1.209   0.220   6.752
 3438SOL     OW11212   2.431   3.923   0.896
 3438SOL    HW111213   2.370   3.996   0.867
 3438SOL    HW211214   2.525   3.945   0.869
 3439SOL     OW11215   2.864   5.921   1.050
 3439SOL    HW111216   2.866   5.944   1.147
 3439SOL    HW211217   2.836   5.826   1.038
 3440SOL     OW11218   3.707   3.725   5.443
 3440SOL    HW111219   3.709   3.762   5.350
 3440SOL    HW211220   3.630   3.763   5.493
 3441SOL     OW11221   6.428   5.147   5.677
 3441SOL    HW111222   6.367   5.221   5.704
 3441SOL    HW211223   6.389   5.059   5.704
 3442SOL     OW11224   1.855   3.249   1.445
 3442SOL    HW111225   1.770   3.280   1.403
 3442SOL    HW211226   1.851   3.266   1.544
 3443SOL     OW11227   0.161   5.849   1.902
 3443SOL    HW111228   0.074   5.812   1.934
 3443SOL    HW211229   0.191   5.799   1.821
 3444SOL     OW11230   6.688   3.961   5.216
 3444SOL    HW111231   6.635   4.041   5.187
 3444SOL    HW211232   6.627   3.895   5.260
 3445SOL     OW11233   6.180   4.562   4.591
 3445SOL    HW111234   6.130   4.563   4.677
 3445SOL    HW211235   6.125   4.604   4.519
 3446SOL     OW11236   4.413   1.004   1.258
 3446SOL    HW111237   4.352   0.981   1.182
 3446SOL    HW211238   4.429   0.923   1.315
 3447SOL     OW11239   5.681   0.908   6.267
 3447SOL    HW111240   5.756   0.952   6.315
 3447SOL    HW211241   5.641   0.973   6.202
 3448SOL     OW11242   1.391   4.420   5.302
 3448SOL    HW111243   1.452   4.347   5.271
 3448SOL    HW211244   1.386   4.492   5.233
 3449SOL     OW11245   0.580   4.541   5.225
 3449SOL    HW111246   0.642   4.618   5.241
 3449SOL    HW211247   0.487   4.575   5.215
 3450SOL     OW11248   2.466   0.381   1.434
 3450SOL    HW111249   2.524   0.308   1.398
 3450SOL    HW211250   2.377   0.379   1.388
 3451SOL     OW11251   1.615   2.094   1.013
 3451SOL    HW111252   1.657   2.184   1.003
 3451SOL    HW211253   1.515   2.104   1.019
 3452SOL     OW11254   4.769   1.189   5.129
 3452SOL    HW111255   4.786   1.094   5.104
 3452SOL    HW211256   4.795   1.249   5.053
 3453SOL     OW11257   3.968   6.426   6.980
 3453SOL    HW111258   3.893   6.388   6.927
 3453SOL    HW211259   4.017   6.353   0.007
 3454SOL     OW11260   0.478   3.032   1.401
 3454SOL    HW111261   0.450   2.990   1.487
 3454SOL    HW211262   0.523   3.120   1.420
 3455SOL     OW11263   0.540   3.641   6.075
 3455SOL    HW111264   0.579   3.587   6.000
 3455SOL    HW211265   0.592   3.624   6.158
 3456SOL     OW11266   5.102   5.802   3.349
 3456SOL    HW111267   5.123   5.723   3.406
 3456SOL    HW211268   5.113   5.886   3.403
 3457SOL     OW11269   3.523   4.232   6.469
 3457SOL    HW111270   3.480   4.202   6.554
 3457SOL    HW211271   3.461   4.213   6.393
 3458SOL     OW11272   3.923   1.324   2.678
 3458SOL    HW111273   3.996   1.373   2.726
 3458SOL    HW211274   3.852   1.389   2.650
 3459SOL     OW11275   5.689   5.646   2.209
 3459SOL    HW111276   5.615   5.634   2.276
 3459SOL    HW211277   5.776   5.657   2.258
 3460SOL     OW11278   3.755   1.822   4.856
 3460SOL    HW111279   3.769   1.760   4.933
 3460SOL    HW211280   3.661   1.812   4.822
 3461SOL     OW11281   5.450   5.201   4.673
 3461SOL    HW111282   5.433   5.150   4.589
 3461SOL    HW211283   5.381   5.273   4.683
 3462SOL     OW11284   0.815   3.611   6.438
 3462SOL    HW111285   0.910   3.638   6.456
 3462SOL    HW211286   0.754   3.661   6.499
 3463SOL     OW11287   5.790   4.194   0.023
 3463SOL    HW111288   5.803   4.293   0.017
 3463SOL    HW211289   5.774   4.156   6.952
 3464SOL     OW11290   0.121   4.502   3.923
 3464SOL    HW111291   0.056   4.571   3.955
 3464SOL    HW211292   0.175   4.541   3.848
 3465SOL     OW11293   0.795   2.051   2.852
 3465SOL    HW111294   0.779   1.964   2.899
 3465SOL    HW211295   0.730   2.062   2.777
 3466SOL     OW11296   0.367   3.170   4.795
 3466SOL    HW111297   0.273   3.141   4.776
 3466SOL    HW211298   0.430   3.099   4.764
 3467SOL     OW11299   1.836   2.266   6.023
 3467SOL    HW111300   1.809   2.195   6.087
 3467SOL    HW211301   1.760   2.330   6.009
 3468SOL     OW11302   4.143   5.889   2.206
 3468SOL    HW111303   4.104   5.963   2.150
 3468SOL    HW211304   4.141   5.804   2.154
 3469SOL     OW11305   5.556   3.663   1.271
 3469SOL    HW111306   5.573   3.656   1.369
 3469SOL    HW211307   5.471   3.714   1.255
 3470SOL     OW11308   0.230   5.800   0.817
 3470SOL    HW111309   0.163   5.819   0.889
 3470SOL    HW211310   0.198   5.724   0.761
 3471SOL     OW11311   4.415   0.394   4.821
 3471SOL    HW111312   4.509   0.423   4.802
 3471SOL    HW211313   4.368   0.375   4.735
 3472SOL     OW11314   4.042   1.248   4.993
 3472SOL    HW111315   4.082   1.160   5.017
 3472SOL    HW211316   3.949   1.254   5.030
 3473SOL     OW11317   4.258   6.645   4.283
 3473SOL    HW111318   4.297   6.734   4.307
 3473SOL    HW211319   4.176   6.658   4.227
 3474SOL     OW11320   5.148   4.295   1.023
 3474SOL    HW111321   5.214   4.304   0.949
 3474SOL    HW211322   5.152   4.376   1.082
 3475SOL     OW11323   1.584   6.143   4.693
 3475SOL    HW111324   1.568   6.132   4.791
 3475SOL    HW211325   1.500   6.119   4.643
 3476SOL     OW11326   4.868   1.808   5.032
 3476SOL    HW111327   4.805   1.740   5.069
 3476SOL    HW211328   4.848   1.823   4.935
 3477SOL     OW11329   4.262   5.633   1.610
 3477SOL    HW111330   4.344   5.604   1.659
 3477SOL    HW211331   4.288   5.700   1.540
 3478SOL     OW11332   4.171   4.572   6.848
 3478SOL    HW111333   4.234   4.642   6.813
 3478SOL    HW211334   4.102   4.552   6.779
 3479SOL     OW11335   1.538   0.316   1.549
 3479SOL    HW111336   1.475   0.370   1.605
 3479SOL    HW211337   1.486   0.253   1.492
 3480SOL     OW11338   1.033   0.126   4.204
 3480SOL    HW111339   1.046   0.065   4.125
 3480SOL    HW211340   0.935   0.143   4.216
 3481SOL     OW11341   2.377   6.535   6.881
 3481SOL    HW111342   2.417   6.445   6.895
 3481SOL    HW211343   2.326   6.562   6.962
 3482SOL     OW11344   0.882   2.353   1.550
 3482SOL    HW111345   0.789   2.377   1.521
 3482SOL    HW211346   0.929   2.305   1.475
 3483SOL     OW11347   4.378   1.850   1.094
 3483SOL    HW111348   4.442   1.783   1.056
 3483SOL    HW211349   4.370   1.927   1.032
 3484SOL     OW11350   3.347   2.900   3.662
 3484SOL    HW111351   3.388   2.989   3.640
 3484SOL    HW211352   3.322   2.853   3.578
 3485SOL     OW11353   6.673   1.554   4.452
 3485SOL    HW111354   6.633   1.643   4.471
 3485SOL    HW211355   6.613   1.504   4.388
 3486SOL     OW11356   5.139   1.128   2.740
 3486SOL    HW111357   5.160   1.113   2.644
 3486SOL    HW211358   5.219   1.103   2.796
 3487SOL     OW11359   0.610   0.930   0.556
 3487SOL    HW111360   0.589   0.892   0.466
 3487SOL    HW211361   0.623   1.029   0.548
 3488SOL     OW11362   6.176   3.535   3.986
 3488SOL    HW111363   6.103   3.467   3.993
 3488SOL    HW211364   6.141   3.616   3.938
 3489SOL     OW11365   1.995   5.956   0.520
 3489SOL    HW111366   2.065   6.015   0.560
 3489SOL    HW211367   2.030   5.917   0.434
 3490SOL     OW11368   4.826   2.716   0.945
 3490SOL    HW111369   4.843   2.617   0.938
 3490SOL    HW211370   4.772   2.734   1.027
 3491SOL     OW11371   0.722   2.789   5.384
 3491SOL    HW111372   0.633   2.814   5.423
 3491SOL    HW211373   0.775   2.740   5.453
 3492SOL     OW11374   5.476   5.201   0.012
 3492SOL    HW111375   5.402   5.267   0.029
 3492SOL    HW211376   5.559   5.250   7.006
 3493SOL     OW11377   0.119   4.911   1.566
 3493SOL    HW111378   0.145   4.915   1.470
 3493SOL    HW211379   0.110   4.816   1.595
 3494SOL     OW11380   2.950   6.454   1.316
 3494SOL    HW111381   2.852   6.458   1.299
 3494SOL    HW211382   2.991   6.385   1.255
 3495SOL     OW11383   5.787   4.490   0.351
 3495SOL    HW111384   5.729   4.409   0.341
 3495SOL    HW211385   5.788   4.541   0.265
 3496SOL     OW11386   0.471   4.684   0.800
 3496SOL    HW111387   0.400   4.630   0.847
 3496SOL    HW211388   0.427   4.750   0.739
 3497SOL     OW11389   4.407   6.470   4.091
 3497SOL    HW111390   4.376   6.527   4.167
 3497SOL    HW211391   4.328   6.434   4.041
 3498SOL     OW11392   1.352   1.774   1.086
 3498SOL    HW111393   1.312   1.815   1.169
 3498SOL    HW211394   1.433   1.722   1.111
 3499SOL     OW11395   6.666   3.671   4.468
 3499SOL    HW111396   6.617   3.742   4.417
 3499SOL    HW211397   6.709   3.712   4.549
 3500SOL     OW11398   6.610   3.373   0.874
 3500SOL    HW111399   6.535   3.313   0.846
 3500SOL    HW211400   6.597   3.400   0.970
 3501SOL     OW11401   0.912   4.259   4.142
 3501SOL    HW111402   0.946   4.353   4.143
 3501SOL    HW211403   0.947   4.212   4.061
 3502SOL     OW11404   1.534   4.486   1.815
 3502SOL    HW111405   1.516   4.395   1.777
 3502SOL    HW211406   1.480   4.499   1.898
 3503SOL     OW11407   3.401   6.426   3.654
 3503SOL    HW111408   3.488   6.427   3.704
 3503SOL    HW211409   3.405   6.493   3.580
 3504SOL     OW11410   2.079   2.979   2.654
 3504SOL    HW111411   2.119   2.919   2.585
 3504SOL    HW211412   2.108   2.950   2.745
 3505SOL     OW11413   4.211   6.360   5.202
 3505SOL    HW111414   4.311   6.360   5.205
 3505SOL    HW211415   4.178   6.265   5.195
 3506SOL     OW11416   5.496   4.986   2.136
 3506SOL    HW111417   5.424   5.005   2.070
 3506SOL    HW211418   5.476   4.901   2.184
 3507SOL     OW11419   0.483   0.447   6.623
 3507SOL    HW111420   0.551   0.519   6.608
 3507SOL    HW211421   0.408   0.483   6.679
 3508SOL     OW11422   5.983   3.764   6.730
 3508SOL    HW111423   5.956   3.727   6.641
 3508SOL    HW211424   5.920   3.729   6.801
 3509SOL     OW11425   6.326   0.679   0.683
 3509SOL    HW111426   6.324   0.723   0.773
 3509SOL    HW211427   6.305   0.582   0.692
 3510SOL     OW11428   2.277   2.509   2.399
 3510SOL    HW111429   2.312   2.483   2.489
 3510SOL    HW211430   2.308   2.444   2.330
 3511SOL     OW11431   0.411   0.596   5.636
 3511SOL    HW111432   0.430   0.589   5.734
 3511SOL    HW211433   0.355   0.677   5.619
 3512SOL     OW11434   3.216   2.895   0.863
 3512SOL    HW111435   3.159   2.971   0.892
 3512SOL    HW211436   3.266   2.921   0.780
 3513SOL     OW11437   5.252   4.529   1.131
 3513SOL    HW111438   5.293   4.582   1.057
 3513SOL    HW211439   5.313   4.528   1.210
 3514SOL     OW11440   1.673   6.888   1.678
 3514SOL    HW111441   1.597   6.891   1.613
 3514SOL    HW211442   1.715   6.797   1.675
 3515SOL     OW11443   3.767   6.028   3.146
 3515SOL    HW111444   3.804   5.952   3.092
 3515SOL    HW211445   3.833   6.054   3.216
 3516SOL     OW11446   2.683   0.950   0.705
 3516SOL    HW111447   2.698   0.960   0.606
 3516SOL    HW211448   2.757   0.994   0.754
 3517SOL     OW11449   0.926   0.319   6.296
 3517SOL    HW111450   0.846   0.376   6.278
 3517SOL    HW211451   0.898   0.229   6.328
 3518SOL     OW11452   4.556   3.436   5.715
 3518SOL    HW111453   4.610   3.406   5.637
 3518SOL    HW211454   4.616   3.449   5.794
 3519SOL     OW11455   3.001   6.262   0.379
 3519SOL    HW111456   3.045   6.214   0.454
 3519SOL    HW211457   2.969   6.351   0.411
 3520SOL     OW11458   3.791   5.134   0.731
 3520SOL    HW111459   3.840   5.200   0.787
 3520SOL    HW211460   3.735   5.075   0.790
 3521SOL     OW11461   5.835   1.629   6.091
 3521SOL    HW111462   5.771   1.687   6.142
 3521SOL    HW211463   5.882   1.569   6.155
 3522SOL     OW11464   2.817   6.529   1.595
 3522SOL    HW111465   2.898   6.570   1.553
 3522SOL    HW211466   2.770   6.597   1.651
 3523SOL     OW11467   2.273   4.512   5.354
 3523SOL    HW111468   2.280   4.577   5.278
 3523SOL    HW211469   2.233   4.557   5.434
 3524SOL     OW11470   2.361   0.370   1.693
 3524SOL    HW111471   2.277   0.420   1.670
 3524SOL    HW211472   2.424   0.375   1.616
 3525SOL     OW11473   2.083   3.566   2.929
 3525SOL    HW111474   2.104   3.562   2.831
 3525SOL    HW211475   2.019   3.492   2.952
 3526SOL     OW11476   3.299   0.126   3.551
 3526SOL    HW111477   3.310   0.116   3.452
 3526SOL    HW211478   3.346   0.209   3.582
 3527SOL     OW11479   5.679   2.712   5.972
 3527SOL    HW111480   5.650   2.616   5.962
 3527SOL    HW211481   5.762   2.716   6.027
 3528SOL     OW11482   1.077   6.691   4.279
 3528SOL    HW111483   1.164   6.720   4.240
 3528SOL    HW211484   1.017   6.770   4.289
 3529SOL     OW11485   3.504   5.914   6.829
 3529SOL    HW111486   3.430   5.847   6.838
 3529SOL    HW211487   3.592   5.869   6.846
 3530SOL     OW11488   1.439   5.911   2.904
 3530SOL    HW111489   1.389   5.949   2.826
 3530SOL    HW211490   1.509   5.848   2.871
 3531SOL     OW11491   5.007   4.706   6.601
 3531SOL    HW111492   5.092   4.759   6.595
 3531SOL    HW211493   5.028   4.610   6.618
 3532SOL     OW11494   2.032   6.532   0.448
 3532SOL    HW111495   1.944   6.529   0.402
 3532SOL    HW211496   2.050   6.625   0.480
 3533SOL     OW11497   1.103   1.424   3.851
 3533SOL    HW111498   1.053   1.396   3.934
 3533SOL    HW211499   1.080   1.519   3.829
 3534SOL     OW11500   5.116   0.182   5.306
 3534SOL    HW111501   5.116   0.275   5.269
 3534SOL    HW211502   5.049   0.175   5.380
 3535SOL     OW11503   4.237   6.209   6.767
 3535SOL    HW111504   4.292   6.141   6.816
 3535SOL    HW211505   4.141   6.179   6.765
 3536SOL     OW11506   0.929   4.092   2.807
 3536SOL    HW111507   0.840   4.070   2.767
 3536SOL    HW211508   0.922   4.087   2.907
 3537SOL     OW11509   2.741   3.967   0.927
 3537SOL    HW111510   2.713   3.971   1.023
 3537SOL    HW211511   2.827   4.016   0.916
 3538SOL     OW11512   3.673   0.862   3.810
 3538SOL    HW111513   3.577   0.890   3.816
 3538SOL    HW211514   3.693   0.830   3.717
 3539SOL     OW11515   5.238   6.432   6.704
 3539SOL    HW111516   5.194   6.512   6.664
 3539SOL    HW211517   5.200   6.349   6.663
 3540SOL     OW11518   2.474   4.177   6.049
 3540SOL    HW111519   2.382   4.204   6.075
 3540SOL    HW211520   2.497   4.217   5.961
 3541SOL     OW11521   1.992   2.830   1.582
 3541SOL    HW111522   1.978   2.734   1.607
 3541SOL    HW211523   2.015   2.836   1.485
 3542SOL     OW11524   6.296   1.472   6.859
 3542SOL    HW111525   6.331   1.391   6.811
 3542SOL    HW211526   6.367   1.542   6.862
 3543SOL     OW11527   0.475   2.471   4.068
 3543SOL    HW111528   0.533   2.550   4.046
 3543SOL    HW211529   0.533   2.396   4.100
 3544SOL     OW11530   3.190   3.684   6.897
 3544SOL    HW111531   3.209   3.589   6.871
 3544SOL    HW211532   3.166   3.736   6.815
 3545SOL     OW11533   3.685   6.576   0.751
 3545SOL    HW111534   3.626   6.506   0.710
 3545SOL    HW211535   3.732   6.627   0.679
 3546SOL     OW11536   6.585   4.436   2.136
 3546SOL    HW111537   6.594   4.362   2.068
 3546SOL    HW211538   6.667   4.440   2.193
 3547SOL     OW11539   1.494   4.020   4.632
 3547SOL    HW111540   1.503   3.926   4.662
 3547SOL    HW211541   1.476   4.079   4.710
 3548SOL     OW11542   5.528   0.474   6.052
 3548SOL    HW111543   5.579   0.526   5.983
 3548SOL    HW211544   5.551   0.508   6.143
 3549SOL     OW11545   2.835   6.886   6.642
 3549SOL    HW111546   2.812   6.937   6.725
 3549SOL    HW211547   2.781   6.803   6.637
 3550SOL     OW11548   4.841   0.978   5.352
 3550SOL    HW111549   4.774   1.036   5.398
 3550SOL    HW211550   4.880   1.028   5.274
 3551SOL     OW11551   5.327   1.952   4.545
 3551SOL    HW111552   5.423   1.976   4.536
 3551SOL    HW211553   5.278   2.026   4.590
 3552SOL     OW11554   6.230   6.860   3.523
 3552SOL    HW111555   6.174   6.826   3.598
 3552SOL    HW211556   6.195   6.948   3.492
 3553SOL     OW11557   5.812   5.999   6.859
 3553SOL    HW111558   5.788   6.032   6.767
 3553SOL    HW211559   5.749   6.038   6.926
 3554SOL     OW11560   5.233   4.567   6.834
 3554SOL    HW111561   5.182   4.575   6.920
 3554SOL    HW211562   5.237   4.471   6.807
 3555SOL     OW11563   3.008   2.296   5.334
 3555SOL    HW111564   2.954   2.247   5.265
 3555SOL    HW211565   3.086   2.340   5.290
 3556SOL     OW11566   5.865   1.021   0.481
 3556SOL    HW111567   5.862   1.034   0.382
 3556SOL    HW211568   5.921   1.094   0.522
 3557SOL     OW11569   5.783   6.935   1.479
 3557SOL    HW111570   5.698   6.986   1.495
 3557SOL    HW211571   5.861   6.996   1.491
 3558SOL     OW11572   3.916   5.333   2.248
 3558SOL    HW111573   3.828   5.326   2.202
 3558SOL    HW211574   3.927   5.425   2.286
 3559SOL     OW11575   4.708   6.813   6.381
 3559SOL    HW111576   4.677   6.731   6.430
 3559SOL    HW211577   4.634   6.847   6.323
 3560SOL     OW11578   0.920   5.330   4.326
 3560SOL    HW111579   0.957   5.411   4.372
 3560SOL    HW211580   0.991   5.260   4.318
 3561SOL     OW11581   4.416   3.587   5.318
 3561SOL    HW111582   4.382   3.497   5.346
 3561SOL    HW211583   4.463   3.579   5.231
 3562SOL     OW11584   2.995   1.903   0.088
 3562SOL    HW111585   2.987   1.829   0.020
 3562SOL    HW211586   3.034   1.867   0.172
 3563SOL     OW11587   6.420   2.496   5.865
 3563SOL    HW111588   6.408   2.400   5.839
 3563SOL    HW211589   6.337   2.547   5.844
 3564SOL     OW11590   6.059   3.706   2.300
 3564SOL    HW111591   6.103   3.673   2.217
 3564SOL    HW211592   6.001   3.634   2.339
 3565SOL     OW11593   4.601   5.725   5.966
 3565SOL    HW111594   4.505   5.712   5.941
 3565SOL    HW211595   4.647   5.637   5.969
 3566SOL     OW11596   1.099   0.550   4.624
 3566SOL    HW111597   1.058   0.586   4.540
 3566SOL    HW211598   1.086   0.615   4.698
 3567SOL     OW11599   6.865   3.343   6.582
 3567SOL    HW111600   6.960   3.326   6.609
 3567SOL    HW211601   6.804   3.292   6.643
 3568SOL     OW11602   6.067   3.888   6.308
 3568SOL    HW111603   6.045   3.797   6.343
 3568SOL    HW211604   6.008   3.908   6.229
 3569SOL     OW11605   0.946   0.175   3.677
 3569SOL    HW111606   0.963   0.160   3.774
 3569SOL    HW211607   0.848   0.162   3.658
 3570SOL     OW11608   5.417   1.250   3.898
 3570SOL    HW111609   5.398   1.295   3.986
 3570SOL    HW211610   5.377   1.304   3.824
 3571SOL     OW11611   6.743   0.017   5.283
 3571SOL    HW111612   6.669   0.078   5.256
 3571SOL    HW211613   6.802   0.062   5.349
 3572SOL     OW11614   6.421   6.510   5.309
 3572SOL    HW111615   6.403   6.503   5.211
 3572SOL    HW211616   6.396   6.601   5.341
 3573SOL     OW11617   0.704   2.252   2.319
 3573SOL    HW111618   0.638   2.193   2.271
 3573SOL    HW211619   0.793   2.207   2.320
 3574SOL     OW11620   6.227   3.920   0.050
 3574SOL    HW111621   6.258   4.006   0.007
 3574SOL    HW211622   6.133   3.931   0.080
 3575SOL     OW11623   6.360   5.748   1.875
 3575SOL    HW111624   6.287   5.811   1.902
 3575SOL    HW211625   6.414   5.789   1.801
 3576SOL     OW11626   0.561   1.634   6.698
 3576SOL    HW111627   0.620   1.677   6.630
 3576SOL    HW211628   0.616   1.596   6.772
 3577SOL     OW11629   2.213   3.360   6.941
 3577SOL    HW111630   2.287   3.295   6.961
 3577SOL    HW211631   2.223   3.441   6.998
 3578SOL     OW11632   3.409   4.742   1.634
 3578SOL    HW111633   3.485   4.709   1.690
 3578SOL    HW211634   3.357   4.665   1.598
 3579SOL     OW11635   1.174   4.060   5.364
 3579SOL    HW111636   1.159   3.967   5.397
 3579SOL    HW211637   1.216   4.057   5.273
 3580SOL     OW11638   6.594   2.492   1.438
 3580SOL    HW111639   6.673   2.460   1.491
 3580SOL    HW211640   6.525   2.420   1.435
 3581SOL     OW11641   6.046   0.920   3.155
 3581SOL    HW111642   6.082   0.827   3.153
 3581SOL    HW211643   6.058   0.959   3.247
 3582SOL     OW11644   6.956   0.503   5.531
 3582SOL    HW111645   7.006   0.432   5.579
 3582SOL    HW211646   7.008   0.589   5.535
 3583SOL     OW11647   2.462   5.113   0.724
 3583SOL    HW111648   2.441   5.036   0.664
 3583SOL    HW211649   2.535   5.087   0.788
 3584SOL     OW11650   5.571   6.806   5.775
 3584SOL    HW111651   5.474   6.831   5.768
 3584SOL    HW211652   5.613   6.815   5.684
 3585SOL     OW11653   2.706   5.246   4.158
 3585SOL    HW111654   2.616   5.283   4.181
 3585SOL    HW211655   2.703   5.146   4.161
 3586SOL     OW11656   0.859   1.960   6.113
 3586SOL    HW111657   0.924   1.992   6.044
 3586SOL    HW211658   0.830   1.867   6.090
 3587SOL     OW11659   3.797   0.359   6.994
 3587SOL    HW111660   3.749   0.429   6.942
 3587SOL    HW211661   3.895   0.379   6.996
 3588SOL     OW11662   2.072   1.275   5.214
 3588SOL    HW111663   2.062   1.364   5.170
 3588SOL    HW211664   1.982   1.232   5.224
 3589SOL     OW11665   2.856   0.268   5.137
 3589SOL    HW111666   2.918   0.294   5.063
 3589SOL    HW211667   2.908   0.248   5.219
 3590SOL     OW11668   1.227   5.311   0.120
 3590SOL    HW111669   1.291   5.237   0.144
 3590SOL    HW211670   1.167   5.329   0.198
 3591SOL     OW11671   5.207   2.032   5.676
 3591SOL    HW111672   5.221   2.005   5.771
 3591SOL    HW211673   5.163   2.122   5.673
 3592SOL     OW11674   5.110   2.390   2.059
 3592SOL    HW111675   5.205   2.402   2.032
 3592SOL    HW211676   5.100   2.307   2.113
 3593SOL     OW11677   0.729   4.864   3.607
 3593SOL    HW111678   0.635   4.879   3.579
 3593SOL    HW211679   0.730   4.825   3.699
 3594SOL     OW11680   3.927   1.162   4.518
 3594SOL    HW111681   3.876   1.078   4.498
 3594SOL    HW211682   3.964   1.200   4.433
 3595SOL     OW11683   2.178   6.281   5.607
 3595SOL    HW111684   2.085   6.289   5.643
 3595SOL    HW211685   2.183   6.206   5.542
 3596SOL     OW11686   0.359   3.417   3.502
 3596SOL    HW111687   0.263   3.442   3.514
 3596SOL    HW211688   0.377   3.403   3.404
 3597SOL     OW11689   3.578   6.196   3.227
 3597SOL    HW111690   3.626   6.114   3.196
 3597SOL    HW211691   3.516   6.172   3.302
 3598SOL     OW11692   1.572   0.578   0.758
 3598SOL    HW111693   1.479   0.614   0.759
 3598SOL    HW211694   1.637   0.652   0.739
 3599SOL     OW11695   6.889   1.695   4.069
 3599SOL    HW111696   6.872   1.612   4.122
 3599SOL    HW211697   6.961   1.679   4.002
 3600SOL     OW11698   6.349   0.729   1.522
 3600SOL    HW111699   6.408   0.790   1.468
 3600SOL    HW211700   6.261   0.720   1.476
 3601SOL     OW11701   6.295   3.651   5.603
 3601SOL    HW111702   6.265   3.646   5.698
 3601SOL    HW211703   6.221   3.685   5.546
 3602SOL     OW11704   2.111   2.110   0.489
 3602SOL    HW111705   2.164   2.194   0.477
 3602SOL    HW211706   2.039   2.126   0.556
 3603SOL     OW11707   4.072   4.871   4.465
 3603SOL    HW111708   4.054   4.884   4.367
 3603SOL    HW211709   4.163   4.908   4.487
 3604SOL     OW11710   0.405   3.523   3.143
 3604SOL    HW111711   0.380   3.434   3.181
 3604SOL    HW211712   0.504   3.535   3.150
 3605SOL     OW11713   6.465   2.876   6.592
 3605SOL    HW111714   6.409   2.793   6.593
 3605SOL    HW211715   6.408   2.955   6.569
 3606SOL     OW11716   1.613   4.371   4.273
 3606SOL    HW111717   1.637   4.304   4.343
 3606SOL    HW211718   1.589   4.324   4.188
 3607SOL     OW11719   4.825   6.731   0.233
 3607SOL    HW111720   4.905   6.792   0.232
 3607SOL    HW211721   4.746   6.781   0.269
 3608SOL     OW11722   0.603   2.525   2.298
 3608SOL    HW111723   0.636   2.440   2.340
 3608SOL    HW211724   0.625   2.525   2.201
 3609SOL     OW11725   6.340   0.135   5.264
 3609SOL    HW111726   6.353   0.102   5.357
 3609SOL    HW211727   6.293   0.066   5.210
 3610SOL     OW11728   2.102   5.940   5.011
 3610SOL    HW111729   2.014   5.980   5.038
 3610SOL    HW211730   2.123   5.966   4.917
 3611SOL     OW11731   3.953   5.197   5.102
 3611SOL    HW111732   4.032   5.200   5.041
 3611SOL    HW211733   3.973   5.247   5.186
 3612SOL     OW11734   1.461   7.008   1.495
 3612SOL    HW111735   1.405   6.928   1.474
 3612SOL    HW211736   1.418   0.070   1.459
 3613SOL     OW11737   5.511   5.492   6.793
 3613SOL    HW111738   5.479   5.522   6.883
 3613SOL    HW211739   5.562   5.566   6.749
 3614SOL     OW11740   4.057   3.524   3.821
 3614SOL    HW111741   4.103   3.553   3.737
 3614SOL    HW211742   4.037   3.426   3.817
 3615SOL     OW11743   6.585   6.087   6.077
 3615SOL    HW111744   6.644   6.164   6.101
 3615SOL    HW211745   6.503   6.121   6.032
 3616SOL     OW11746   6.264   0.435   4.751
 3616SOL    HW111747   6.200   0.512   4.754
 3616SOL    HW211748   6.356   0.469   4.771
 3617SOL     OW11749   6.605   1.095   0.214
 3617SOL    HW111750   6.554   1.053   0.140
 3617SOL    HW211751   6.576   1.191   0.225
 3618SOL     OW11752   2.740   0.964   5.882
 3618SOL    HW111753   2.713   1.006   5.969
 3618SOL    HW211754   2.682   0.885   5.864
 3619SOL     OW11755   5.035   2.975   4.158
 3619SOL    HW111756   5.107   3.003   4.222
 3619SOL    HW211757   4.946   2.997   4.196
 3620SOL     OW11758   6.258   1.277   4.855
 3620SOL    HW111759   6.323   1.219   4.903
 3620SOL    HW211760   6.275   1.273   4.757
 3621SOL     OW11761   1.927   3.083   5.985
 3621SOL    HW111762   2.010   3.066   6.038
 3621SOL    HW211763   1.948   3.080   5.887
 3622SOL     OW11764   0.229   2.744   0.815
 3622SOL    HW111765   0.300   2.790   0.868
 3622SOL    HW211766   0.269   2.669   0.763
 3623SOL     OW11767   6.973   5.584   4.453
 3623SOL    HW111768   6.953   5.501   4.504
 3623SOL    HW211769   0.052   5.597   4.447
 3624SOL     OW11770   1.897   0.793   1.518
 3624SOL    HW111771   1.818   0.778   1.458
 3624SOL    HW211772   1.970   0.730   1.492
 3625SOL     OW11773   0.341   3.064   4.327
 3625SOL    HW111774   0.373   3.045   4.234
 3625SOL    HW211775   0.357   3.160   4.349
 3626SOL     OW11776   2.588   3.780   5.313
 3626SOL    HW111777   2.534   3.861   5.290
 3626SOL    HW211778   2.537   3.698   5.288
 3627SOL     OW11779   2.933   3.543   3.870
 3627SOL    HW111780   2.938   3.544   3.970
 3627SOL    HW211781   2.983   3.464   3.834
 3628SOL     OW11782   3.413   5.315   2.372
 3628SOL    HW111783   3.450   5.257   2.444
 3628SOL    HW211784   3.333   5.365   2.406
 3629SOL     OW11785   6.121   2.336   4.992
 3629SOL    HW111786   6.057   2.411   5.004
 3629SOL    HW211787   6.166   2.316   5.080
 3630SOL     OW11788   5.915   1.611   4.582
 3630SOL    HW111789   5.842   1.610   4.651
 3630SOL    HW211790   5.932   1.517   4.551
 3631SOL     OW11791   2.034   1.077   4.181
 3631SOL    HW111792   1.958   1.013   4.187
 3631SOL    HW211793   2.112   1.031   4.137
 3632SOL     OW11794   4.385   0.432   6.753
 3632SOL    HW111795   4.392   0.526   6.786
 3632SOL    HW211796   4.474   0.401   6.721
 3633SOL     OW11797   2.319   2.885   5.930
 3633SOL    HW111798   2.375   2.952   5.978
 3633SOL    HW211799   2.228   2.881   5.971
 3634SOL     OW11800   2.011   5.673   5.101
 3634SOL    HW111801   2.065   5.742   5.052
 3634SOL    HW211802   2.071   5.598   5.130
 3635SOL     OW11803   2.594   1.280   5.037
 3635SOL    HW111804   2.524   1.259   4.969
 3635SOL    HW211805   2.565   1.246   5.126
 3636SOL     OW11806   1.372   5.534   6.447
 3636SOL    HW111807   1.364   5.488   6.359
 3636SOL    HW211808   1.386   5.467   6.520
 3637SOL     OW11809   5.516   1.239   2.186
 3637SOL    HW111810   5.512   1.334   2.217
 3637SOL    HW211811   5.520   1.237   2.086
 3638SOL     OW11812   6.159   5.339   4.487
 3638SOL    HW111813   6.068   5.362   4.453
 3638SOL    HW211814   6.185   5.248   4.455
 3639SOL     OW11815   2.092   4.922   0.229
 3639SOL    HW111816   2.183   4.907   0.266
 3639SOL    HW211817   2.093   4.911   0.130
 3640SOL     OW11818   3.501   5.789   1.355
 3640SOL    HW111819   3.591   5.761   1.388
 3640SOL    HW211820   3.433   5.720   1.380
 3641SOL     OW11821   2.745   0.513   5.087
 3641SOL    HW111822   2.790   0.425   5.099
 3641SOL    HW211823   2.801   0.571   5.028
 3642SOL     OW11824   5.863   0.014   3.405
 3642SOL    HW111825   5.956   0.052   3.403
 3642SOL    HW211826   5.859   6.959   3.471
 3643SOL     OW11827   2.585   4.615   5.119
 3643SOL    HW111828   2.684   4.615   5.104
 3643SOL    HW211829   2.559   4.535   5.173
 3644SOL     OW11830   0.187   1.191   0.864
 3644SOL    HW111831   0.209   1.179   0.961
 3644SOL    HW211832   0.271   1.194   0.811
 3645SOL     OW11833   3.373   0.432   3.118
 3645SOL    HW111834   3.349   0.485   3.037
 3645SOL    HW211835   3.470   0.407   3.114
 3646SOL     OW11836   0.047   4.864   4.747
 3646SOL    HW111837   7.009   4.847   4.668
 3646SOL    HW211838   0.032   4.792   4.815
 3647SOL     OW11839   2.641   3.048   0.978
 3647SOL    HW111840   2.703   3.030   1.054
 3647SOL    HW211841   2.547   3.028   1.005
 3648SOL     OW11842   2.946   6.120   2.887
 3648SOL    HW111843   2.955   6.183   2.965
 3648SOL    HW211844   2.926   6.172   2.805
 3649SOL     OW11845   3.130   3.815   1.581
 3649SOL    HW111846   3.211   3.788   1.633
 3649SOL    HW211847   3.103   3.908   1.608
 3650SOL     OW11848   6.950   0.049   1.742
 3650SOL    HW111849   6.951   6.972   1.762
 3650SOL    HW211850   6.863   0.074   1.700
 3651SOL     OW11851   1.900   5.818   2.328
 3651SOL    HW111852   1.852   5.756   2.389
 3651SOL    HW211853   1.841   5.840   2.249
 3652SOL     OW11854   4.499   5.482   3.349
 3652SOL    HW111855   4.566   5.411   3.368
 3652SOL    HW211856   4.407   5.446   3.363
 3653SOL     OW11857   0.234   2.791   4.028
 3653SOL    HW111858   0.236   2.755   4.121
 3653SOL    HW211859   0.248   2.717   3.963
 3654SOL     OW11860   1.859   6.645   1.292
 3654SOL    HW111861   1.793   6.573   1.271
 3654SOL    HW211862   1.840   6.725   1.236
 3655SOL     OW11863   1.471   0.245   4.292
 3655SOL    HW111864   1.400   0.285   4.234
 3655SOL    HW211865   1.544   0.209   4.235
 3656SOL     OW11866   2.588   2.086   2.069
 3656SOL    HW111867   2.540   2.022   2.009
 3656SOL    HW211868   2.678   2.048   2.092
 3657SOL     OW11869   3.604   6.069   1.350
 3657SOL    HW111870   3.693   6.047   1.390
 3657SOL    HW211871   3.556   5.985   1.325
 3658SOL     OW11872   1.489   5.398   6.139
 3658SOL    HW111873   1.525   5.370   6.049
 3658SOL    HW211874   1.490   5.498   6.145
 3659SOL     OW11875   1.624   4.478   6.764
 3659SOL    HW111876   1.599   4.450   6.857
 3659SOL    HW211877   1.723   4.471   6.753
 3660SOL     OW11878   4.713   5.696   1.580
 3660SOL    HW111879   4.809   5.725   1.586
 3660SOL    HW211880   4.680   5.709   1.487
 3661SOL     OW11881   4.649   1.265   0.631
 3661SOL    HW111882   4.742   1.302   0.624
 3661SOL    HW211883   4.639   1.217   0.718
 3662SOL     OW11884   3.321   6.828   5.657
 3662SOL    HW111885   3.339   6.909   5.713
 3662SOL    HW211886   3.329   6.852   5.561
 3663SOL     OW11887   0.995   3.281   6.502
 3663SOL    HW111888   0.928   3.324   6.563
 3663SOL    HW211889   0.953   3.265   6.413
 3664SOL     OW11890   4.089   1.434   0.707
 3664SOL    HW111891   3.999   1.414   0.670
 3664SOL    HW211892   4.158   1.379   0.659
 3665SOL     OW11893   1.161   6.901   5.995
 3665SOL    HW111894   1.157   7.000   5.983
 3665SOL    HW211895   1.098   6.856   5.931
 3666SOL     OW11896   0.792   5.188   4.002
 3666SOL    HW111897   0.744   5.275   4.007
 3666SOL    HW211898   0.744   5.127   3.939
 3667SOL     OW11899   6.563   1.987   6.797
 3667SOL    HW111900   6.628   2.039   6.742
 3667SOL    HW211901   6.599   1.895   6.814
 3668SOL     OW11902   1.130   6.318   2.078
 3668SOL    HW111903   1.196   6.371   2.026
 3668SOL    HW211904   1.166   6.226   2.094
 3669SOL     OW11905   6.545   3.071   2.958
 3669SOL    HW111906   6.587   3.141   3.016
 3669SOL    HW211907   6.587   3.075   2.867
 3670SOL     OW11908   1.700   5.717   5.589
 3670SOL    HW111909   1.686   5.805   5.635
 3670SOL    HW211910   1.777   5.725   5.526
 3671SOL     OW11911   0.683   0.901   2.988
 3671SOL    HW111912   0.695   0.802   2.997
 3671SOL    HW211913   0.750   0.948   3.045
 3672SOL     OW11914   0.192   0.697   1.081
 3672SOL    HW111915   0.178   0.692   0.982
 3672SOL    HW211916   0.133   0.629   1.126
 3673SOL     OW11917   5.239   0.452   6.782
 3673SOL    HW111918   5.224   0.486   6.690
 3673SOL    HW211919   5.334   0.472   6.810
 3674SOL     OW11920   1.073   6.504   1.397
 3674SOL    HW111921   1.003   6.449   1.352
 3674SOL    HW211922   1.031   6.559   1.469
 3675SOL     OW11923   1.679   2.091   5.244
 3675SOL    HW111924   1.733   2.010   5.266
 3675SOL    HW211925   1.736   2.173   5.253
 3676SOL     OW11926   2.131   5.378   3.404
 3676SOL    HW111927   2.034   5.364   3.425
 3676SOL    HW211928   2.140   5.422   3.315
 3677SOL     OW11929   6.371   6.842   4.680
 3677SOL    HW111930   6.331   6.932   4.660
 3677SOL    HW211931   6.298   6.775   4.696
 3678SOL     OW11932   1.009   1.698   3.825
 3678SOL    HW111933   1.008   1.739   3.734
 3678SOL    HW211934   1.033   1.769   3.892
 3679SOL     OW11935   0.331   0.722   1.739
 3679SOL    HW111936   0.422   0.689   1.716
 3679SOL    HW211937   0.331   0.822   1.741
 3680SOL     OW11938   6.786   3.595   4.227
 3680SOL    HW111939   6.751   3.603   4.320
 3680SOL    HW211940   6.719   3.548   4.170
 3681SOL     OW11941   0.016   6.129   5.594
 3681SOL    HW111942   0.033   6.036   5.627
 3681SOL    HW211943   0.090   6.189   5.626
 3682SOL     OW11944   0.494   1.666   6.126
 3682SOL    HW111945   0.551   1.745   6.104
 3682SOL    HW211946   0.400   1.696   6.143
 3683SOL     OW11947   5.319   6.450   4.472
 3683SOL    HW111948   5.309   6.454   4.572
 3683SOL    HW211949   5.256   6.514   4.429
 3684SOL     OW11950   1.264   3.302   0.731
 3684SOL    HW111951   1.305   3.392   0.713
 3684SOL    HW211952   1.331   3.244   0.777
 3685SOL     OW11953   6.785   6.737   6.538
 3685SOL    HW111954   6.694   6.742   6.578
 3685SOL    HW211955   6.778   6.726   6.439
 3686SOL     OW11956   6.180   4.355   1.468
 3686SOL    HW111957   6.139   4.318   1.551
 3686SOL    HW211958   6.271   4.316   1.456
 3687SOL     OW11959   3.207   0.760   0.323
 3687SOL    HW111960   3.183   0.857   0.317
 3687SOL    HW211961   3.132   0.704   0.288
 3688SOL     OW11962   0.741   3.661   0.315
 3688SOL    HW111963   0.684   3.743   0.318
 3688SOL    HW211964   0.799   3.664   0.233
 3689SOL     OW11965   2.442   0.742   3.525
 3689SOL    HW111966   2.352   0.756   3.568
 3689SOL    HW211967   2.494   0.828   3.529
 3690SOL     OW11968   6.118   6.932   5.364
 3690SOL    HW111969   6.132   6.993   5.442
 3690SOL    HW211970   6.030   6.953   5.321
 3691SOL     OW11971   3.671   2.701   6.864
 3691SOL    HW111972   3.712   2.739   6.947
 3691SOL    HW211973   3.739   2.700   6.791
 3692SOL     OW11974   1.756   0.205   5.679
 3692SOL    HW111975   1.737   0.302   5.661
 3692SOL    HW211976   1.717   0.180   5.767
 3693SOL     OW11977   2.630   2.063   2.843
 3693SOL    HW111978   2.621   2.005   2.924
 3693SOL    HW211979   2.630   2.159   2.870
 3694SOL     OW11980   1.761   5.931   3.048
 3694SOL    HW111981   1.707   5.936   2.965
 3694SOL    HW211982   1.824   5.853   3.043
 3695SOL     OW11983   2.020   2.172   2.416
 3695SOL    HW111984   1.950   2.122   2.365
 3695SOL    HW211985   1.997   2.171   2.514
 3696SOL     OW11986   3.438   6.600   5.781
 3696SOL    HW111987   3.401   6.523   5.833
 3696SOL    HW211988   3.364   6.647   5.733
 3697SOL     OW11989   6.103   0.212   4.251
 3697SOL    HW111990   6.037   0.152   4.208
 3697SOL    HW211991   6.074   0.234   4.344
 3698SOL     OW11992   2.926   0.167   5.853
 3698SOL    HW111993   3.009   0.209   5.891
 3698SOL    HW211994   2.950   0.116   5.770
 3699SOL     OW11995   0.527   3.796   2.334
 3699SOL    HW111996   0.490   3.841   2.415
 3699SOL    HW211997   0.553   3.702   2.358
 3700SOL     OW11998   0.194   6.809   4.230
 3700SOL    HW111999   0.214   6.771   4.140
 3700SOL    HW212000   0.276   6.801   4.288
 3701SOL     OW12001   6.172   0.628   3.723
 3701SOL    HW112002   6.152   0.722   3.751
 3701SOL    HW212003   6.192   0.626   3.625
 3702SOL     OW12004   3.313   0.914   0.050
 3702SOL    HW112005   3.382   0.849   0.081
 3702SOL    HW212006   3.328   1.002   0.094
 3703SOL     OW12007   4.356   4.742   6.536
 3703SOL    HW112008   4.450   4.724   6.507
 3703SOL    HW212009   4.317   4.815   6.480
 3704SOL     OW12010   2.079   0.374   2.575
 3704SOL    HW112011   1.980   0.356   2.573
 3704SOL    HW212012   2.125   0.299   2.622
 3705SOL     OW12013   5.605   0.985   4.077
 3705SOL    HW112014   5.578   0.969   4.172
 3705SOL    HW212015   5.556   1.065   4.042
 3706SOL     OW12016   1.971   2.416   3.680
 3706SOL    HW112017   2.023   2.466   3.610
 3706SOL    HW212018   2.003   2.321   3.683
 3707SOL     OW12019   4.429   2.562   5.237
 3707SOL    HW112020   4.469   2.547   5.147
 3707SOL    HW212021   4.330   2.565   5.230
 3708SOL     OW12022   5.965   0.283   6.217
 3708SOL    HW112023   6.060   0.270   6.187
 3708SOL    HW212024   5.914   0.331   6.146
 3709SOL     OW12025   4.149   0.751   6.454
 3709SOL    HW112026   4.157   0.844   6.416
 3709SOL    HW212027   4.080   0.700   6.401
 3710SOL     OW12028   0.417   5.064   0.800
 3710SOL    HW112029   0.422   5.008   0.882
 3710SOL    HW212030   0.364   5.017   0.730
 3711SOL     OW12031   6.591   4.962   2.580
 3711SOL    HW112032   6.530   4.953   2.659
 3711SOL    HW212033   6.603   4.873   2.536
 3712SOL     OW12034   2.320   0.023   0.877
 3712SOL    HW112035   2.333   6.960   0.823
 3712SOL    HW212036   2.276   0.093   0.820
 3713SOL     OW12037   3.828   5.572   5.389
 3713SOL    HW112038   3.872   5.644   5.442
 3713SOL    HW212039   3.739   5.551   5.429
 3714SOL     OW12040   3.506   0.405   4.961
 3714SOL    HW112041   3.572   0.480   4.969
 3714SOL    HW212042   3.413   0.441   4.970
 3715SOL     OW12043   5.871   3.739   5.092
 3715SOL    HW112044   5.883   3.646   5.126
 3715SOL    HW212045   5.931   3.754   5.013
 3716SOL     OW12046   0.180   0.833   4.074
 3716SOL    HW112047   0.158   0.896   4.148
 3716SOL    HW212048   0.178   0.739   4.108
 3717SOL     OW12049   5.648   0.055   0.561
 3717SOL    HW112050   5.636   6.986   0.518
 3717SOL    HW212051   5.568   0.076   0.617
 3718SOL     OW12052   0.989   5.622   6.971
 3718SOL    HW112053   0.962   5.570   6.890
 3718SOL    HW212054   1.087   5.640   6.968
 3719SOL     OW12055   3.372   5.091   5.804
 3719SOL    HW112056   3.463   5.127   5.783
 3719SOL    HW212057   3.332   5.051   5.722
 3720SOL     OW12058   6.682   2.041   5.695
 3720SOL    HW112059   6.722   2.054   5.604
 3720SOL    HW212060   6.601   1.983   5.689
 3721SOL     OW12061   5.135   3.718   0.746
 3721SOL    HW112062   5.099   3.746   0.835
 3721SOL    HW212063   5.210   3.780   0.721
 3722SOL     OW12064   6.379   5.869   2.408
 3722SOL    HW112065   6.465   5.920   2.419
 3722SOL    HW212066   6.400   5.775   2.380
 3723SOL     OW12067   4.600   1.122   0.884
 3723SOL    HW112068   4.525   1.182   0.855
 3723SOL    HW212069   4.591   1.033   0.839
 3724SOL     OW12070   1.187   5.556   5.989
 3724SOL    HW112071   1.269   5.596   6.031
 3724SOL    HW212072   1.130   5.628   5.952
 3725SOL     OW12073   0.195   6.441   0.483
 3725SOL    HW112074   0.190   6.397   0.393
 3725SOL    HW212075   0.212   6.539   0.470
 3726SOL     OW12076   5.964   3.471   1.711
 3726SOL    HW112077   6.010   3.383   1.718
 3726SOL    HW212078   5.917   3.478   1.623
 3727SOL     OW12079   2.154   3.245   5.362
 3727SOL    HW112080   2.202   3.167   5.321
 3727SOL    HW212081   2.149   3.319   5.295
 3728SOL     OW12082   1.527   3.552   6.807
 3728SOL    HW112083   1.449   3.490   6.801
 3728SOL    HW212084   1.560   3.573   6.715
 3729SOL     OW12085   0.555   2.425   3.298
 3729SOL    HW112086   0.517   2.454   3.385
 3729SOL    HW212087   0.498   2.354   3.258
 3730SOL     OW12088   2.842   0.785   0.428
 3730SOL    HW112089   2.751   0.815   0.456
 3730SOL    HW212090   2.854   0.801   0.330
 3731SOL     OW12091   3.864   6.573   0.140
 3731SOL    HW112092   3.907   6.520   0.067
 3731SOL    HW212093   3.825   6.657   0.102
 3732SOL     OW12094   2.244   3.813   5.260
 3732SOL    HW112095   2.177   3.809   5.186
 3732SOL    HW212096   2.314   3.880   5.237
 3733SOL     OW12097   2.311   3.607   1.284
 3733SOL    HW112098   2.403   3.569   1.288
 3733SOL    HW212099   2.291   3.640   1.192
 3734SOL     OW12100   5.342   0.492   2.492
 3734SOL    HW112101   5.373   0.581   2.528
 3734SOL    HW212102   5.287   0.507   2.410
 3735SOL     OW12103   3.463   1.350   2.160
 3735SOL    HW112104   3.375   1.366   2.115
 3735SOL    HW212105   3.500   1.438   2.193
 3736SOL     OW12106   5.660   1.852   0.066
 3736SOL    HW112107   5.593   1.808   0.005
 3736SOL    HW212108   5.717   1.781   0.107
 3737SOL     OW12109   4.604   6.502   3.569
 3737SOL    HW112110   4.673   6.460   3.627
 3737SOL    HW212111   4.524   6.527   3.624
 3738SOL     OW12112   6.882   6.967   3.677
 3738SOL    HW112113   6.957   6.946   3.739
 3738SOL    HW212114   6.907   0.024   3.619
 3739SOL     OW12115   0.626   4.399   2.515
 3739SOL    HW112116   0.668   4.322   2.467
 3739SOL    HW212117   0.540   4.369   2.557
 3740SOL     OW12118   5.389   0.787   0.401
 3740SOL    HW112119   5.426   0.700   0.368
 3740SOL    HW212120   5.367   0.846   0.323
 3741SOL     OW12121   4.163   2.537   6.371
 3741SOL    HW112122   4.071   2.578   6.366
 3741SOL    HW212123   4.183   2.511   6.466
 3742SOL     OW12124   3.696   3.115   5.530
 3742SOL    HW112125   3.621   3.065   5.574
 3742SOL    HW212126   3.660   3.163   5.449
 3743SOL     OW12127   0.079   5.572   6.423
 3743SOL    HW112128   0.058   5.522   6.340
 3743SOL    HW212129   0.145   5.644   6.402
 3744SOL     OW12130   0.048   5.946   2.875
 3744SOL    HW112131   0.074   5.856   2.840
 3744SOL    HW212132   0.085   6.017   2.816
 3745SOL     OW12133   4.369   5.738   2.319
 3745SOL    HW112134   4.342   5.779   2.406
 3745SOL    HW212135   4.326   5.788   2.244
 3746SOL     OW12136   4.268   1.817   2.459
 3746SOL    HW112137   4.365   1.841   2.456
 3746SOL    HW212138   4.237   1.817   2.554
 3747SOL     OW12139   2.852   6.958   0.084
 3747SOL    HW112140   2.911   6.941   0.006
 3747SOL    HW212141   2.867   6.888   0.154
 3748SOL     OW12142   5.537   1.140   2.592
 3748SOL    HW112143   5.605   1.134   2.666
 3748SOL    HW212144   5.481   1.221   2.606
 3749SOL     OW12145   1.195   0.092   5.376
 3749SOL    HW112146   1.157   0.093   5.469
 3749SOL    HW212147   1.269   0.159   5.370
 3750SOL     OW12148   0.208   4.205   0.096
 3750SOL    HW112149   0.182   4.196   7.020
 3750SOL    HW212150   0.173   4.128   0.148
 3751SOL     OW12151   1.217   3.627   2.398
 3751SOL    HW112152   1.161   3.569   2.458
 3751SOL    HW212153   1.230   3.582   2.310
 3752SOL     OW12154   5.781   0.269   6.832
 3752SOL    HW112155   5.835   0.219   6.900
 3752SOL    HW212156   5.787   0.367   6.850
 3753SOL     OW12157   6.303   0.040   3.845
 3753SOL    HW112158   6.282   7.005   3.925
 3753SOL    HW212159   6.401   0.037   3.826
 3754SOL     OW12160   2.810   1.618   0.977
 3754SOL    HW112161   2.759   1.599   1.061
 3754SOL    HW212162   2.885   1.681   0.997
 3755SOL     OW12163   3.003   4.850   3.960
 3755SOL    HW112164   3.029   4.853   4.057
 3755SOL    HW212165   2.931   4.782   3.947
 3756SOL     OW12166   2.665   6.537   0.058
 3756SOL    HW112167   2.579   6.563   0.101
 3756SOL    HW212168   2.694   6.608   7.015
 3757SOL     OW12169   6.895   4.658   1.730
 3757SOL    HW112170   6.995   4.659   1.724
 3757SOL    HW212171   6.867   4.696   1.818
 3758SOL     OW12172   2.064   7.001   4.127
 3758SOL    HW112173   2.134   0.024   4.070
 3758SOL    HW212174   2.018   0.050   4.182
 3759SOL     OW12175   5.197   0.322   4.650
 3759SOL    HW112176   5.115   0.369   4.620
 3759SOL    HW212177   5.274   0.386   4.652
 3760SOL     OW12178   0.315   0.939   3.285
 3760SOL    HW112179   0.300   0.958   3.187
 3760SOL    HW212180   0.398   0.986   3.316
 3761SOL     OW12181   5.103   1.042   4.321
 3761SOL    HW112182   5.082   1.130   4.279
 3761SOL    HW212183   5.155   0.986   4.256
 3762SOL     OW12184   6.857   2.563   3.471
 3762SOL    HW112185   6.823   2.470   3.459
 3762SOL    HW212186   6.904   2.571   3.559
 3763SOL     OW12187   0.690   4.507   0.681
 3763SOL    HW112188   0.621   4.579   0.682
 3763SOL    HW212189   0.760   4.526   0.750
 3764SOL     OW12190   2.325   0.685   2.911
 3764SOL    HW112191   2.367   0.738   2.838
 3764SOL    HW212192   2.391   0.669   2.984
 3765SOL     OW12193   5.225   3.071   2.717
 3765SOL    HW112194   5.221   3.139   2.645
 3765SOL    HW212195   5.161   2.997   2.698
 3766SOL     OW12196   1.019   3.839   2.960
 3766SOL    HW112197   0.993   3.902   3.034
 3766SOL    HW212198   1.114   3.856   2.935
 3767SOL     OW12199   1.257   5.116   5.913
 3767SOL    HW112200   1.189   5.055   5.954
 3767SOL    HW212201   1.311   5.065   5.846
 3768SOL     OW12202   0.623   6.664   2.907
 3768SOL    HW112203   0.608   6.734   2.837
 3768SOL    HW212204   0.635   6.708   2.996
 3769SOL     OW12205   5.595   5.115   4.871
 3769SOL    HW112206   5.627   5.189   4.930
 3769SOL    HW212207   5.534   5.152   4.801
 3770SOL     OW12208   1.832   1.066   1.346
 3770SOL    HW112209   1.891   1.021   1.279
 3770SOL    HW212210   1.886   1.091   1.426
 3771SOL     OW12211   6.674   5.097   6.375
 3771SOL    HW112212   6.713   5.078   6.285
 3771SOL    HW212213   6.682   5.015   6.433
 3772SOL     OW12214   1.659   6.359   0.984
 3772SOL    HW112215   1.587   6.292   1.002
 3772SOL    HW212216   1.736   6.313   0.938
 3773SOL     OW12217   5.378   5.043   6.832
 3773SOL    HW112218   5.414   5.105   6.902
 3773SOL    HW212219   5.441   4.966   6.819
 3774SOL     OW12220   6.780   5.051   1.918
 3774SOL    HW112221   6.810   5.116   1.849
 3774SOL    HW212222   6.852   5.039   1.987
 3775SOL     OW12223   4.885   4.863   5.023
 3775SOL    HW112224   4.792   4.871   5.059
 3775SOL    HW212225   4.880   4.842   4.925
 3776SOL     OW12226   3.677   2.703   6.007
 3776SOL    HW112227   3.691   2.790   5.960
 3776SOL    HW212228   3.765   2.659   6.024
 3777SOL     OW12229   2.678   5.780   4.187
 3777SOL    HW112230   2.697   5.757   4.282
 3777SOL    HW212231   2.734   5.723   4.127
 3778SOL     OW12232   3.555   5.509   6.238
 3778SOL    HW112233   3.490   5.556   6.177
 3778SOL    HW212234   3.600   5.577   6.296
 3779SOL     OW12235   6.941   4.488   0.036
 3779SOL    HW112236   0.011   4.531   0.046
 3779SOL    HW212237   6.875   4.538   0.091
 3780SOL     OW12238   5.205   4.085   1.385
 3780SOL    HW112239   5.204   4.127   1.475
 3780SOL    HW212240   5.119   4.106   1.338
 3781SOL     OW12241   2.744   6.454   4.699
 3781SOL    HW112242   2.664   6.448   4.639
 3781SOL    HW212243   2.812   6.386   4.670
 3782SOL     OW12244   4.759   5.624   1.098
 3782SOL    HW112245   4.768   5.525   1.107
 3782SOL    HW212246   4.846   5.663   1.067
 3783SOL     OW12247   5.202   5.746   4.374
 3783SOL    HW112248   5.294   5.732   4.411
 3783SOL    HW212249   5.134   5.720   4.442
 3784SOL     OW12250   6.326   1.915   4.446
 3784SOL    HW112251   6.278   1.896   4.532
 3784SOL    HW212252   6.329   2.014   4.432
 3785SOL     OW12253   2.007   3.160   4.152
 3785SOL    HW112254   1.954   3.217   4.088
 3785SOL    HW212255   1.944   3.108   4.209
 3786SOL     OW12256   2.492   2.500   4.712
 3786SOL    HW112257   2.553   2.429   4.747
 3786SOL    HW212258   2.488   2.575   4.777
 3787SOL     OW12259   4.385   6.905   4.042
 3787SOL    HW112260   4.475   6.898   4.000
 3787SOL    HW212261   4.326   6.832   4.006
 3788SOL     OW12262   5.882   3.074   5.029
 3788SOL    HW112263   5.899   3.066   4.931
 3788SOL    HW212264   5.795   3.031   5.052
 3789SOL     OW12265   2.058   3.369   2.386
 3789SOL    HW112266   2.106   3.457   2.392
 3789SOL    HW212267   2.060   3.337   2.291
 3790SOL     OW12268   0.427   6.769   1.593
 3790SOL    HW112269   0.425   6.868   1.587
 3790SOL    HW212270   0.514   6.739   1.634
 3791SOL     OW12271   5.351   1.189   5.688
 3791SOL    HW112272   5.278   1.257   5.696
 3791SOL    HW212273   5.335   1.133   5.607
 3792SOL     OW12274   6.740   0.517   4.636
 3792SOL    HW112275   6.837   0.535   4.649
 3792SOL    HW212276   6.688   0.561   4.710
 3793SOL     OW12277   4.774   4.951   0.689
 3793SOL    HW112278   4.774   4.955   0.589
 3793SOL    HW212279   4.732   4.866   0.719
 3794SOL     OW12280   0.372   4.048   6.533
 3794SOL    HW112281   0.434   4.067   6.457
 3794SOL    HW212282   0.279   4.035   6.498
 3795SOL     OW12283   2.400   5.871   1.074
 3795SOL    HW112284   2.377   5.784   1.032
 3795SOL    HW212285   2.484   5.861   1.127
 3796SOL     OW12286   5.025   1.128   6.920
 3796SOL    HW112287   5.049   1.152   7.014
 3796SOL    HW212288   4.987   1.209   6.874
 3797SOL     OW12289   1.031   4.652   2.250
 3797SOL    HW112290   1.093   4.704   2.308
 3797SOL    HW212291   1.064   4.558   2.243
 3798SOL     OW12292   1.240   5.907   3.638
 3798SOL    HW112293   1.312   5.962   3.595
 3798SOL    HW212294   1.279   5.854   3.713
 3799SOL     OW12295   6.726   0.955   3.224
 3799SOL    HW112296   6.702   0.969   3.129
 3799SOL    HW212297   6.679   1.023   3.281
 3800SOL     OW12298   4.829   2.282   2.923
 3800SOL    HW112299   4.758   2.352   2.928
 3800SOL    HW212300   4.804   2.214   2.854
 3801SOL     OW12301   5.742   1.372   1.637
 3801SOL    HW112302   5.815   1.376   1.569
 3801SOL    HW212303   5.711   1.277   1.646
 3802SOL     OW12304   6.429   2.672   2.138
 3802SOL    HW112305   6.447   2.667   2.040
 3802SOL    HW212306   6.353   2.733   2.155
 3803SOL     OW12307   3.285   3.131   4.334
 3803SOL    HW112308   3.361   3.152   4.396
 3803SOL    HW212309   3.209   3.193   4.352
 3804SOL     OW12310   4.415   5.607   3.589
 3804SOL    HW112311   4.416   5.706   3.605
 3804SOL    HW212312   4.456   5.588   3.500
 3805SOL     OW12313   2.609   2.579   0.123
 3805SOL    HW112314   2.644   2.622   0.039
 3805SOL    HW212315   2.651   2.623   0.202
 3806SOL     OW12316   2.856   4.806   1.481
 3806SOL    HW112317   2.897   4.895   1.497
 3806SOL    HW212318   2.871   4.747   1.560
 3807SOL     OW12319   2.075   4.622   4.793
 3807SOL    HW112320   2.005   4.649   4.859
 3807SOL    HW212321   2.030   4.595   4.707
 3808SOL     OW12322   2.920   0.077   6.447
 3808SOL    HW112323   2.890   7.015   6.496
 3808SOL    HW212324   2.873   0.082   6.359
 3809SOL     OW12325   5.131   2.041   1.616
 3809SOL    HW112326   5.044   2.062   1.569
 3809SOL    HW212327   5.112   1.991   1.700
 3810SOL     OW12328   5.750   2.569   2.104
 3810SOL    HW112329   5.849   2.555   2.096
 3810SOL    HW212330   5.730   2.667   2.104
 3811SOL     OW12331   0.335   5.512   5.413
 3811SOL    HW112332   0.357   5.491   5.317
 3811SOL    HW212333   0.252   5.464   5.439
 3812SOL     OW12334   4.802   6.048   1.037
 3812SOL    HW112335   4.766   6.017   1.124
 3812SOL    HW212336   4.897   6.018   1.028
 3813SOL     OW12337   6.034   4.307   6.853
 3813SOL    HW112338   6.017   4.331   6.757
 3813SOL    HW212339   6.031   4.390   6.909
 3814SOL     OW12340   6.823   0.571   5.011
 3814SOL    HW112341   6.841   0.584   5.108
 3814SOL    HW212342   6.857   0.481   4.983
 3815SOL     OW12343   6.203   3.695   5.883
 3815SOL    HW112344   6.286   3.716   5.935
 3815SOL    HW212345   6.134   3.765   5.901
 3816SOL     OW12346   0.223   6.008   0.384
 3816SOL    HW112347   0.305   6.037   0.335
 3816SOL    HW212348   0.234   5.914   0.416
 3817SOL     OW12349   4.828   3.940   1.891
 3817SOL    HW112350   4.792   3.847   1.884
 3817SOL    HW212351   4.783   3.999   1.824
 3818SOL     OW12352   5.778   6.189   2.966
 3818SOL    HW112353   5.805   6.279   2.932
 3818SOL    HW212354   5.848   6.155   3.029
 3819SOL     OW12355   6.329   4.746   3.845
 3819SOL    HW112356   6.313   4.685   3.922
 3819SOL    HW212357   6.427   4.751   3.826
 3820SOL     OW12358   3.453   6.685   4.975
 3820SOL    HW112359   3.525   6.657   4.912
 3820SOL    HW212360   3.395   6.606   4.998
 3821SOL     OW12361   2.211   0.157   6.981
 3821SOL    HW112362   2.175   0.235   0.013
 3821SOL    HW212363   2.171   0.158   6.889
 3822SOL     OW12364   4.847   7.012   1.748
 3822SOL    HW112365   4.874   0.027   1.837
 3822SOL    HW212366   4.865   6.913   1.745
 3823SOL     OW12367   5.211   5.770   6.972
 3823SOL    HW112368   5.188   5.748   6.877
 3823SOL    HW212369   5.138   5.738   0.012
 3824SOL     OW12370   2.714   2.743   0.344
 3824SOL    HW112371   2.783   2.762   0.275
 3824SOL    HW212372   2.714   2.815   0.413
 3825SOL     OW12373   0.921   3.834   5.589
 3825SOL    HW112374   0.853   3.760   5.588
 3825SOL    HW212375   0.878   3.919   5.558
 3826SOL     OW12376   5.733   4.182   3.725
 3826SOL    HW112377   5.683   4.263   3.693
 3826SOL    HW212378   5.826   4.209   3.751
 3827SOL     OW12379   0.894   1.444   1.290
 3827SOL    HW112380   0.864   1.399   1.206
 3827SOL    HW212381   0.994   1.442   1.295
 3828SOL     OW12382   3.123   3.778   4.162
 3828SOL    HW112383   3.039   3.784   4.217
 3828SOL    HW212384   3.134   3.685   4.128
 3829SOL     OW12385   0.813   3.888   2.182
 3829SOL    HW112386   0.852   3.864   2.271
 3829SOL    HW212387   0.716   3.909   2.193
 3830SOL     OW12388   6.328   0.879   4.402
 3830SOL    HW112389   6.359   0.941   4.330
 3830SOL    HW212390   6.407   0.848   4.455
 3831SOL     OW12391   4.795   2.015   3.646
 3831SOL    HW112392   4.880   1.961   3.649
 3831SOL    HW212393   4.775   2.040   3.551
 3832SOL     OW12394   5.745   0.636   3.726
 3832SOL    HW112395   5.788   0.616   3.814
 3832SOL    HW212396   5.806   0.693   3.671
 3833SOL     OW12397   1.299   1.516   5.674
 3833SOL    HW112398   1.212   1.563   5.659
 3833SOL    HW212399   1.346   1.503   5.586
 3834SOL     OW12400   4.763   4.090   0.602
 3834SOL    HW112401   4.807   4.033   0.672
 3834SOL    HW212402   4.683   4.042   0.566
 3835SOL     OW12403   3.880   5.312   4.761
 3835SOL    HW112404   3.939   5.289   4.839
 3835SOL    HW212405   3.784   5.303   4.788
 3836SOL     OW12406   0.628   6.555   5.692
 3836SOL    HW112407   0.594   6.648   5.710
 3836SOL    HW212408   0.637   6.542   5.593
 3837SOL     OW12409   4.381   4.941   5.403
 3837SOL    HW112410   4.416   4.996   5.327
 3837SOL    HW212411   4.281   4.933   5.395
 3838SOL     OW12412   0.591   1.354   4.215
 3838SOL    HW112413   0.682   1.393   4.227
 3838SOL    HW212414   0.596   1.279   4.149
 3839SOL     OW12415   3.834   0.423   4.009
 3839SOL    HW112416   3.745   0.462   4.033
 3839SOL    HW212417   3.827   0.378   3.920
 3840SOL     OW12418   2.462   1.349   6.620
 3840SOL    HW112419   2.389   1.404   6.660
 3840SOL    HW212420   2.512   1.403   6.552
 3841SOL     OW12421   5.753   4.793   3.989
 3841SOL    HW112422   5.775   4.699   4.014
 3841SOL    HW212423   5.738   4.799   3.890
 3842SOL     OW12424   1.619   3.286   5.286
 3842SOL    HW112425   1.636   3.231   5.368
 3842SOL    HW212426   1.706   3.321   5.251
 3843SOL     OW12427   5.382   2.534   6.952
 3843SOL    HW112428   5.425   2.530   6.862
 3843SOL    HW212429   5.284   2.552   6.942
 3844SOL     OW12430   1.286   6.864   0.590
 3844SOL    HW112431   1.260   6.808   0.511
 3844SOL    HW212432   1.314   6.804   0.665
 3845SOL     OW12433   2.206   5.757   0.760
 3845SOL    HW112434   2.134   5.714   0.706
 3845SOL    HW212435   2.292   5.755   0.708
 3846SOL     OW12436   0.899   2.780   3.061
 3846SOL    HW112437   0.834   2.706   3.072
 3846SOL    HW212438   0.942   2.801   3.149
 3847SOL     OW12439   0.052   1.840   6.819
 3847SOL    HW112440   0.024   1.909   6.752
 3847SOL    HW212441   0.139   1.799   6.791
 3848SOL     OW12442   5.687   3.782   2.327
 3848SOL    HW112443   5.623   3.808   2.398
 3848SOL    HW212444   5.771   3.835   2.336
 3849SOL     OW12445   6.642   5.218   7.018
 3849SOL    HW112446   6.685   5.216   0.088
 3849SOL    HW212447   6.706   5.255   6.951
 3850SOL     OW12448   2.786   2.627   1.464
 3850SOL    HW112449   2.694   2.591   1.450
 3850SOL    HW212450   2.835   2.628   1.377
 3851SOL     OW12451   0.417   6.363   2.732
 3851SOL    HW112452   0.416   6.394   2.637
 3851SOL    HW212453   0.501   6.311   2.750
 3852SOL     OW12454   2.885   6.384   6.036
 3852SOL    HW112455   2.824   6.339   5.970
 3852SOL    HW212456   2.830   6.422   6.110
 3853SOL     OW12457   2.440   0.521   3.370
 3853SOL    HW112458   2.444   0.606   3.422
 3853SOL    HW212459   2.386   0.454   3.420
 3854SOL     OW12460   1.903   2.441   2.630
 3854SOL    HW112461   1.927   2.469   2.537
 3854SOL    HW212462   1.911   2.342   2.638
 3855SOL     OW12463   4.219   0.026   0.290
 3855SOL    HW112464   4.230   6.950   0.269
 3855SOL    HW212465   4.197   0.037   0.387
 3856SOL     OW12466   0.517   2.056   6.702
 3856SOL    HW112467   0.454   2.043   6.626
 3856SOL    HW212468   0.476   2.120   6.768
 3857SOL     OW12469   2.292   0.829   5.416
 3857SOL    HW112470   2.343   0.886   5.352
 3857SOL    HW212471   2.265   0.884   5.495
 3858SOL     OW12472   4.372   0.323   5.256
 3858SOL    HW112473   4.442   0.318   5.327
 3858SOL    HW212474   4.284   0.345   5.299
 3859SOL     OW12475   5.984   0.127   1.829
 3859SOL    HW112476   5.972   0.028   1.827
 3859SOL    HW212477   5.916   0.167   1.890
 3860SOL     OW12478   1.045   7.013   3.969
 3860SOL    HW112479   1.127   6.973   3.929
 3860SOL    HW212480   0.970   6.947   3.966
 3861SOL     OW12481   3.815   5.928   1.748
 3861SOL    HW112482   3.716   5.936   1.734
 3861SOL    HW212483   3.837   5.835   1.776
 3862SOL     OW12484   1.355   0.311   3.700
 3862SOL    HW112485   1.373   0.370   3.778
 3862SOL    HW212486   1.401   0.223   3.713
 3863SOL     OW12487   4.137   0.365   0.709
 3863SOL    HW112488   4.120   0.458   0.741
 3863SOL    HW212489   4.137   0.303   0.787
 3864SOL     OW12490   2.412   0.043   4.415
 3864SOL    HW112491   2.335   0.076   4.471
 3864SOL    HW212492   2.498   0.071   4.458
 3865SOL     OW12493   3.878   0.682   0.274
 3865SOL    HW112494   3.910   0.751   0.209
 3865SOL    HW212495   3.924   0.694   0.362
 3866SOL     OW12496   2.732   2.845   6.649
 3866SOL    HW112497   2.720   2.797   6.562
 3866SOL    HW212498   2.697   2.938   6.642
 3867SOL     OW12499   0.790   3.670   1.965
 3867SOL    HW112500   0.820   3.724   2.044
 3867SOL    HW212501   0.706   3.622   1.988
 3868SOL     OW12502   4.412   1.052   6.974
 3868SOL    HW112503   4.314   1.054   6.953
 3868SOL    HW212504   4.465   1.057   6.889
 3869SOL     OW12505   6.569   3.189   3.522
 3869SOL    HW112506   6.486   3.244   3.511
 3869SOL    HW212507   6.557   3.126   3.599
 3870SOL     OW12508   6.949   0.162   3.917
 3870SOL    HW112509   6.869   0.194   3.867
 3870SOL    HW212510   6.919   0.112   3.999
 3871SOL     OW12511   3.089   5.586   4.192
 3871SOL    HW112512   3.006   5.550   4.236
 3871SOL    HW212513   3.146   5.630   4.261
 3872SOL     OW12514   3.658   3.599   4.920
 3872SOL    HW112515   3.708   3.667   4.866
 3872SOL    HW212516   3.561   3.623   4.924
 3873SOL     OW12517   4.683   2.233   0.370
 3873SOL    HW112518   4.653   2.294   0.444
 3873SOL    HW212519   4.748   2.166   0.406
 3874SOL     OW12520   3.040   0.574   0.234
 3874SOL    HW112521   3.093   0.494   0.208
 3874SOL    HW212522   2.955   0.577   0.182
 3875SOL     OW12523   1.580   2.535   5.619
 3875SOL    HW112524   1.575   2.537   5.519
 3875SOL    HW212525   1.635   2.613   5.651
 3876SOL     OW12526   4.164   5.519   1.015
 3876SOL    HW112527   4.111   5.598   0.984
 3876SOL    HW212528   4.116   5.435   0.991
 3877SOL     OW12529   6.928   2.383   0.509
 3877SOL    HW112530   6.946   2.289   0.481
 3877SOL    HW212531   6.863   2.425   0.445
 3878SOL     OW12532   3.994   6.867   3.837
 3878SOL    HW112533   3.954   6.784   3.877
 3878SOL    HW212534   4.055   6.910   3.904
 3879SOL     OW12535   5.089   5.125   0.065
 3879SOL    HW112536   5.181   5.085   0.067
 3879SOL    HW212537   5.069   5.158   6.993
 3880SOL     OW12538   4.897   4.237   4.244
 3880SOL    HW112539   4.995   4.258   4.241
 3880SOL    HW212540   4.864   4.247   4.338
 3881SOL     OW12541   1.028   3.903   0.323
 3881SOL    HW112542   0.996   3.915   0.229
 3881SOL    HW212543   1.095   3.829   0.326
 3882SOL     OW12544   0.966   1.606   0.869
 3882SOL    HW112545   1.011   1.695   0.860
 3882SOL    HW212546   0.877   1.619   0.914
 3883SOL     OW12547   4.611   6.042   3.632
 3883SOL    HW112548   4.591   6.113   3.565
 3883SOL    HW212549   4.660   5.966   3.588
 3884SOL     OW12550   0.984   5.419   2.879
 3884SOL    HW112551   0.929   5.355   2.932
 3884SOL    HW212552   1.073   5.379   2.859
 3885SOL     OW12553   5.375   6.289   2.571
 3885SOL    HW112554   5.320   6.285   2.487
 3885SOL    HW212555   5.428   6.374   2.572
 3886SOL     OW12556   3.919   6.749   6.224
 3886SOL    HW112557   3.852   6.678   6.247
 3886SOL    HW212558   3.874   6.838   6.222
 3887SOL     OW12559   0.139   6.597   1.727
 3887SOL    HW112560   0.201   6.553   1.792
 3887SOL    HW212561   0.087   6.668   1.775
 3888SOL     OW12562   5.769   6.077   4.872
 3888SOL    HW112563   5.782   6.161   4.924
 3888SOL    HW212564   5.707   6.016   4.923
 3889SOL     OW12565   6.003   3.638   6.384
 3889SOL    HW112566   6.101   3.625   6.400
 3889SOL    HW212567   5.977   3.592   6.299
 3890SOL     OW12568   5.237   3.252   4.639
 3890SOL    HW112569   5.141   3.266   4.665
 3890SOL    HW212570   5.292   3.239   4.722
 3891SOL     OW12571   5.749   4.882   3.722
 3891SOL    HW112572   5.650   4.868   3.714
 3891SOL    HW212573   5.767   4.976   3.753
 3892SOL     OW12574   0.029   2.552   1.397
 3892SOL    HW112575   6.988   2.628   1.417
 3892SOL    HW212576   0.124   2.584   1.400
 3893SOL     OW12577   4.576   3.189   1.236
 3893SOL    HW112578   4.504   3.257   1.226
 3893SOL    HW212579   4.615   3.195   1.328
 3894SOL     OW12580   4.638   0.402   6.607
 3894SOL    HW112581   4.674   0.457   6.683
 3894SOL    HW212582   4.712   0.349   6.566
 3895SOL     OW12583   1.555   0.104   4.613
 3895SOL    HW112584   1.570   0.099   4.514
 3895SOL    HW212585   1.604   0.029   4.657
 3896SOL     OW12586   1.208   1.173   6.638
 3896SOL    HW112587   1.299   1.132   6.626
 3896SOL    HW212588   1.196   1.198   6.734
 3897SOL     OW12589   4.507   5.540   1.710
 3897SOL    HW112590   4.594   5.579   1.680
 3897SOL    HW212591   4.515   5.441   1.716
 3898SOL     OW12592   4.063   2.832   6.218
 3898SOL    HW112593   4.050   2.857   6.314
 3898SOL    HW212594   3.992   2.876   6.162
 3899SOL     OW12595   4.571   6.789   6.037
 3899SOL    HW112596   4.581   6.884   6.010
 3899SOL    HW212597   4.477   6.772   6.068
 3900SOL     OW12598   5.289   3.713   2.891
 3900SOL    HW112599   5.310   3.788   2.954
 3900SOL    HW212600   5.374   3.681   2.848
 3901SOL     OW12601   2.885   0.455   6.634
 3901SOL    HW112602   2.927   0.522   6.573
 3901SOL    HW212603   2.955   0.389   6.663
 3902SOL     OW12604   6.177   3.456   2.507
 3902SOL    HW112605   6.078   3.452   2.491
 3902SOL    HW212606   6.201   3.548   2.539
 3903SOL     OW12607   3.621   5.371   6.692
 3903SOL    HW112608   3.544   5.356   6.753
 3903SOL    HW212609   3.706   5.374   6.746
 3904SOL     OW12610   1.409   0.332   6.984
 3904SOL    HW112611   1.445   0.257   0.019
 3904SOL    HW212612   1.485   0.382   6.943
 3905SOL     OW12613   0.174   5.926   5.940
 3905SOL    HW112614   0.108   5.930   6.015
 3905SOL    HW212615   0.125   5.924   5.853
 3906SOL     OW12616   5.569   6.311   5.648
 3906SOL    HW112617   5.549   6.215   5.632
 3906SOL    HW212618   5.611   6.322   5.738
 3907SOL     OW12619   6.059   1.943   3.788
 3907SOL    HW112620   6.007   1.873   3.836
 3907SOL    HW212621   6.042   1.936   3.690
 3908SOL     OW12622   0.885   2.172   6.298
 3908SOL    HW112623   0.859   2.268   6.309
 3908SOL    HW212624   0.835   2.133   6.220
 3909SOL     OW12625   5.264   5.312   4.361
 3909SOL    HW112626   5.182   5.345   4.314
 3909SOL    HW212627   5.239   5.237   4.423
 3910SOL     OW12628   3.354   3.857   2.926
 3910SOL    HW112629   3.295   3.901   2.994
 3910SOL    HW212630   3.316   3.871   2.835
 3911SOL     OW12631   5.676   1.379   5.118
 3911SOL    HW112632   5.686   1.309   5.047
 3911SOL    HW212633   5.594   1.360   5.173
 3912SOL     OW12634   5.505   2.079   5.347
 3912SOL    HW112635   5.418   2.031   5.349
 3912SOL    HW212636   5.489   2.177   5.339
 3913SOL     OW12637   1.608   6.762   6.955
 3913SOL    HW112638   1.581   6.751   6.859
 3913SOL    HW212639   1.527   6.783   7.010
 3914SOL     OW12640   3.517   6.725   6.375
 3914SOL    HW112641   3.512   6.818   6.338
 3914SOL    HW212642   3.521   6.729   6.475
 3915SOL     OW12643   5.194   5.275   1.395
 3915SOL    HW112644   5.230   5.269   1.488
 3915SOL    HW212645   5.264   5.242   1.330
 3916SOL     OW12646   0.985   0.092   2.706
 3916SOL    HW112647   0.913   0.096   2.637
 3916SOL    HW212648   1.039   0.009   2.693
 3917SOL     OW12649   1.873   0.207   6.909
 3917SOL    HW112650   1.860   0.115   6.945
 3917SOL    HW212651   1.929   0.203   6.826
 3918SOL     OW12652   5.425   4.241   1.652
 3918SOL    HW112653   5.334   4.209   1.679
 3918SOL    HW212654   5.495   4.191   1.704
 3919SOL     OW12655   3.780   0.048   0.624
 3919SOL    HW112656   3.802   0.032   0.528
 3919SOL    HW212657   3.701   0.109   0.631
 3920SOL     OW12658   2.005   2.698   6.969
 3920SOL    HW112659   2.055   2.613   6.951
 3920SOL    HW212660   2.046   2.745   0.027
 3921SOL     OW12661   1.212   4.116   1.341
 3921SOL    HW112662   1.153   4.170   1.281
 3921SOL    HW212663   1.158   4.042   1.381
 3922SOL     OW12664   0.568   3.933   1.734
 3922SOL    HW112665   0.514   3.880   1.799
 3922SOL    HW212666   0.606   4.013   1.780
 3923SOL     OW12667   0.805   0.708   0.570
 3923SOL    HW112668   0.901   0.727   0.591
 3923SOL    HW212669   0.757   0.794   0.553
 3924SOL     OW12670   6.312   4.968   4.795
 3924SOL    HW112671   6.300   5.056   4.749
 3924SOL    HW212672   6.227   4.943   4.842
 3925SOL     OW12673   1.541   5.105   2.106
 3925SOL    HW112674   1.472   5.122   2.036
 3925SOL    HW212675   1.632   5.107   2.064
 3926SOL     OW12676   4.623   4.383   2.268
 3926SOL    HW112677   4.553   4.362   2.200
 3926SOL    HW212678   4.708   4.335   2.245
 3927SOL     OW12679   0.518   3.124   6.103
 3927SOL    HW112680   0.517   3.028   6.131
 3927SOL    HW212681   0.428   3.149   6.068
 3928SOL     OW12682   5.035   6.118   6.675
 3928SOL    HW112683   5.068   6.044   6.617
 3928SOL    HW212684   4.999   6.079   6.760
 3929SOL     OW12685   0.697   0.878   5.097
 3929SOL    HW112686   0.679   0.817   5.174
 3929SOL    HW212687   0.704   0.825   5.013
 3930SOL     OW12688   2.315   1.915   3.101
 3930SOL    HW112689   2.300   1.922   3.200
 3930SOL    HW212690   2.412   1.924   3.081
 3931SOL     OW12691   6.317   1.520   1.727
 3931SOL    HW112692   6.411   1.499   1.701
 3931SOL    HW212693   6.262   1.437   1.723
 3932SOL     OW12694   0.664   2.651   3.926
 3932SOL    HW112695   0.688   2.720   3.994
 3932SOL    HW212696   0.746   2.620   3.879
 3933SOL     OW12697   1.618   0.255   6.204
 3933SOL    HW112698   1.532   0.269   6.155
 3933SOL    HW212699   1.662   0.343   6.221
 3934SOL     OW12700   6.162   6.857   6.300
 3934SOL    HW112701   6.180   6.776   6.245
 3934SOL    HW212702   6.137   6.831   6.393
 3935SOL     OW12703   4.097   0.613   0.789
 3935SOL    HW112704   4.134   0.705   0.800
 3935SOL    HW212705   4.004   0.610   0.826
 3936SOL     OW12706   6.288   5.768   4.365
 3936SOL    HW112707   6.326   5.820   4.288
 3936SOL    HW212708   6.270   5.830   4.442
 3937SOL     OW12709   0.035   1.396   2.669
 3937SOL    HW112710   6.967   1.386   2.622
 3937SOL    HW212711   0.109   1.393   2.602
 3938SOL     OW12712   6.943   1.103   3.138
 3938SOL    HW112713   6.909   1.030   3.198
 3938SOL    HW212714   6.926   1.079   3.043
 3939SOL     OW12715   3.258   1.556   1.895
 3939SOL    HW112716   3.205   1.481   1.933
 3939SOL    HW212717   3.317   1.595   1.966
 3940SOL     OW12718   3.482   3.385   1.133
 3940SOL    HW112719   3.444   3.343   1.215
 3940SOL    HW212720   3.441   3.341   1.052
 3941SOL     OW12721   3.991   4.641   6.484
 3941SOL    HW112722   3.932   4.661   6.562
 3941SOL    HW212723   4.067   4.584   6.515
 3942SOL     OW12724   6.307   6.887   0.052
 3942SOL    HW112725   6.240   6.929   7.011
 3942SOL    HW212726   6.367   6.826   0.000
 3943SOL     OW12727   0.849   3.190   4.536
 3943SOL    HW112728   0.753   3.210   4.519
 3943SOL    HW212729   0.880   3.119   4.472
 3944SOL     OW12730   4.742   2.307   4.280
 3944SOL    HW112731   4.747   2.241   4.354
 3944SOL    HW212732   4.819   2.293   4.218
 3945SOL     OW12733   0.043   1.744   1.048
 3945SOL    HW112734   0.101   1.809   1.096
 3945SOL    HW212735   0.079   1.651   1.061
 3946SOL     OW12736   4.843   4.773   3.391
 3946SOL    HW112737   4.904   4.694   3.393
 3946SOL    HW212738   4.833   4.809   3.484
 3947SOL     OW12739   4.652   6.079   0.510
 3947SOL    HW112740   4.599   5.995   0.519
 3947SOL    HW212741   4.690   6.084   0.417
 3948SOL     OW12742   6.608   4.367   1.532
 3948SOL    HW112743   6.525   4.321   1.500
 3948SOL    HW212744   6.687   4.334   1.480
 3949SOL     OW12745   4.235   5.864   2.998
 3949SOL    HW112746   4.178   5.782   3.004
 3949SOL    HW212747   4.237   5.897   2.904
 3950SOL     OW12748   1.843   5.494   1.386
 3950SOL    HW112749   1.744   5.483   1.396
 3950SOL    HW212750   1.878   5.549   1.462
 3951SOL     OW12751   4.847   0.836   1.434
 3951SOL    HW112752   4.935   0.796   1.457
 3951SOL    HW212753   4.792   0.845   1.517
 3952SOL     OW12754   0.111   2.995   0.786
 3952SOL    HW112755   0.128   2.896   0.787
 3952SOL    HW212756   0.130   3.030   0.694
 3953SOL     OW12757   4.067   3.722   2.053
 3953SOL    HW112758   4.036   3.642   2.001
 3953SOL    HW212759   4.114   3.692   2.136
 3954SOL     OW12760   4.120   4.889   5.394
 3954SOL    HW112761   4.089   4.953   5.464
 3954SOL    HW212762   4.058   4.892   5.316
 3955SOL     OW12763   3.407   1.219   5.913
 3955SOL    HW112764   3.388   1.267   5.827
 3955SOL    HW212765   3.364   1.129   5.910
 3956SOL     OW12766   1.217   0.933   2.436
 3956SOL    HW112767   1.279   0.873   2.386
 3956SOL    HW212768   1.196   1.013   2.380
 3957SOL     OW12769   3.700   6.979   4.664
 3957SOL    HW112770   3.767   6.925   4.715
 3957SOL    HW212771   3.609   6.965   4.704
 3958SOL     OW12772   6.055   1.880   4.245
 3958SOL    HW112773   6.072   1.946   4.318
 3958SOL    HW212774   6.115   1.900   4.167
 3959SOL     OW12775   4.912   5.295   0.606
 3959SOL    HW112776   4.825   5.262   0.571
 3959SOL    HW212777   4.977   5.219   0.611
 3960SOL     OW12778   5.333   2.147   5.031
 3960SOL    HW112779   5.251   2.108   5.074
 3960SOL    HW212780   5.330   2.247   5.038
 3961SOL     OW12781   5.291   0.467   3.215
 3961SOL    HW112782   5.358   0.529   3.257
 3961SOL    HW212783   5.220   0.444   3.282
 3962SOL     OW12784   0.578   5.276   6.190
 3962SOL    HW112785   0.501   5.271   6.126
 3962SOL    HW212786   0.628   5.361   6.176
 3963SOL     OW12787   4.911   6.381   2.070
 3963SOL    HW112788   4.910   6.464   2.013
 3963SOL    HW212789   4.818   6.345   2.078
 3964SOL     OW12790   4.860   3.775   3.080
 3964SOL    HW112791   4.812   3.857   3.049
 3964SOL    HW212792   4.937   3.801   3.138
 3965SOL     OW12793   5.469   3.281   4.295
 3965SOL    HW112794   5.400   3.344   4.332
 3965SOL    HW212795   5.456   3.191   4.336
 3966SOL     OW12796   3.492   5.327   6.438
 3966SOL    HW112797   3.506   5.399   6.369
 3966SOL    HW212798   3.558   5.339   6.512
 3967SOL     OW12799   1.710   4.599   2.215
 3967SOL    HW112800   1.693   4.679   2.272
 3967SOL    HW212801   1.716   4.627   2.119
 3968SOL     OW12802   4.300   0.607   0.559
 3968SOL    HW112803   4.281   0.570   0.650
 3968SOL    HW212804   4.398   0.608   0.543
 3969SOL     OW12805   1.894   5.527   2.178
 3969SOL    HW112806   1.833   5.590   2.227
 3969SOL    HW212807   1.988   5.560   2.184
 3970SOL     OW12808   5.802   5.995   2.281
 3970SOL    HW112809   5.758   6.061   2.342
 3970SOL    HW212810   5.897   5.981   2.309
 3971SOL     OW12811   2.766   6.104   3.976
 3971SOL    HW112812   2.804   6.089   4.067
 3971SOL    HW212813   2.725   6.195   3.972
 3972SOL     OW12814   1.319   3.681   7.006
 3972SOL    HW112815   1.372   3.676   6.922
 3972SOL    HW212816   1.380   3.691   0.064
 3973SOL     OW12817   0.964   5.783   1.011
 3973SOL    HW112818   1.044   5.727   1.036
 3973SOL    HW212819   0.994   5.866   0.966
 3974SOL     OW12820   1.828   0.899   5.772
 3974SOL    HW112821   1.733   0.894   5.801
 3974SOL    HW212822   1.849   0.825   5.709
 3975SOL     OW12823   4.897   2.090   6.198
 3975SOL    HW112824   4.966   2.145   6.245
 3975SOL    HW212825   4.902   2.107   6.099
 3976SOL     OW12826   1.680   6.273   2.446
 3976SOL    HW112827   1.585   6.303   2.458
 3976SOL    HW212828   1.729   6.282   2.533
 3977SOL     OW12829   0.858   4.095   6.711
 3977SOL    HW112830   0.832   4.150   6.790
 3977SOL    HW212831   0.783   4.033   6.687
 3978SOL     OW12832   6.879   5.154   3.744
 3978SOL    HW112833   6.795   5.191   3.704
 3978SOL    HW212834   6.884   5.181   3.840
 3979SOL     OW12835   3.465   1.151   6.364
 3979SOL    HW112836   3.433   1.209   6.288
 3979SOL    HW212837   3.536   1.089   6.330
 3980SOL     OW12838   6.197   6.384   6.240
 3980SOL    HW112839   6.175   6.434   6.157
 3980SOL    HW212840   6.275   6.427   6.286
 3981SOL     OW12841   5.339   6.401   0.446
 3981SOL    HW112842   5.352   6.468   0.520
 3981SOL    HW212843   5.405   6.418   0.374
 3982SOL     OW12844   2.027   0.194   2.261
 3982SOL    HW112845   2.046   0.137   2.341
 3982SOL    HW212846   1.972   0.141   2.196
 3983SOL     OW12847   4.307   5.392   3.856
 3983SOL    HW112848   4.332   5.317   3.916
 3983SOL    HW212849   4.298   5.476   3.910
 3984SOL     OW12850   5.576   1.658   2.440
 3984SOL    HW112851   5.610   1.658   2.534
 3984SOL    HW212852   5.601   1.745   2.397
 3985SOL     OW12853   3.062   5.491   6.488
 3985SOL    HW112854   3.000   5.518   6.562
 3985SOL    HW212855   3.025   5.412   6.440
 3986SOL     OW12856   4.915   1.906   2.072
 3986SOL    HW112857   4.819   1.912   2.099
 3986SOL    HW212858   4.967   1.855   2.141
 3987SOL     OW12859   3.413   4.933   4.784
 3987SOL    HW112860   3.432   4.907   4.690
 3987SOL    HW212861   3.351   5.012   4.785
 3988SOL     OW12862   4.578   5.356   0.625
 3988SOL    HW112863   4.541   5.263   0.618
 3988SOL    HW212864   4.588   5.380   0.722
 3989SOL     OW12865   6.018   2.496   0.009
 3989SOL    HW112866   6.003   2.452   0.098
 3989SOL    HW212867   6.085   2.443   6.978
 3990SOL     OW12868   4.943   2.739   1.678
 3990SOL    HW112869   4.938   2.754   1.777
 3990SOL    HW212870   4.866   2.682   1.649
 3991SOL     OW12871   0.452   1.015   3.069
 3991SOL    HW112872   0.490   1.037   3.159
 3991SOL    HW212873   0.525   0.984   3.009
 3992SOL     OW12874   3.409   2.074   0.774
 3992SOL    HW112875   3.332   2.039   0.720
 3992SOL    HW212876   3.446   2.155   0.730
 3993SOL     OW12877   1.072   3.312   2.361
 3993SOL    HW112878   1.166   3.340   2.376
 3993SOL    HW212879   1.041   3.256   2.438
 3994SOL     OW12880   2.820   6.857   5.164
 3994SOL    HW112881   2.825   6.881   5.067
 3994SOL    HW212882   2.757   6.781   5.177
 3995SOL     OW12883   1.470   2.687   5.191
 3995SOL    HW112884   1.439   2.593   5.178
 3995SOL    HW212885   1.401   2.749   5.153
 3996SOL     OW12886   0.548   6.484   4.817
 3996SOL    HW112887   0.448   6.494   4.815
 3996SOL    HW212888   0.583   6.488   4.723
 3997SOL     OW12889   5.531   0.918   4.329
 3997SOL    HW112890   5.545   0.829   4.373
 3997SOL    HW212891   5.562   0.990   4.391
 3998SOL     OW12892   3.788   2.088   3.683
 3998SOL    HW112893   3.856   2.113   3.751
 3998SOL    HW212894   3.795   1.990   3.663
 3999SOL     OW12895   6.293   2.173   4.368
 3999SOL    HW112896   6.361   2.213   4.431
 3999SOL    HW212897   6.201   2.200   4.397
 4000SOL     OW12898   3.791   6.898   3.608
 4000SOL    HW112899   3.874   6.873   3.659
 4000SOL    HW212900   3.711   6.887   3.667
 4001SOL     OW12901   1.645   1.886   3.603
 4001SOL    HW112902   1.622   1.919   3.511
 4001SOL    HW212903   1.741   1.907   3.623
 4002SOL     OW12904   2.013   3.666   1.999
 4002SOL    HW112905   2.074   3.744   1.990
 4002SOL    HW212906   2.059   3.583   1.968
 4003SOL     OW12907   3.505   0.315   4.669
 4003SOL    HW112908   3.411   0.318   4.633
 4003SOL    HW212909   3.501   0.322   4.769
 4004SOL     OW12910   6.549   1.899   4.824
 4004SOL    HW112911   6.451   1.900   4.840
 4004SOL    HW212912   6.569   1.949   4.740
 4005SOL     OW12913   5.363   5.549   5.962
 4005SOL    HW112914   5.419   5.623   5.927
 4005SOL    HW212915   5.414   5.498   6.032
 4006SOL     OW12916   3.948   5.563   2.398
 4006SOL    HW112917   3.970   5.522   2.487
 4006SOL    HW212918   4.015   5.635   2.378
 4007SOL     OW12919   6.812   2.425   6.845
 4007SOL    HW112920   6.798   2.353   6.777
 4007SOL    HW212921   6.868   2.498   6.806
 4008SOL     OW12922   2.839   2.328   4.503
 4008SOL    HW112923   2.905   2.400   4.523
 4008SOL    HW212924   2.776   2.359   4.432
 4009SOL     OW12925   3.879   3.626   2.769
 4009SOL    HW112926   3.912   3.639   2.863
 4009SOL    HW212927   3.954   3.593   2.712
 4010SOL     OW12928   1.880   3.392   0.611
 4010SOL    HW112929   1.953   3.396   0.680
 4010SOL    HW212930   1.898   3.316   0.549
 4011SOL     OW12931   1.762   2.529   1.904
 4011SOL    HW112932   1.770   2.464   1.980
 4011SOL    HW212933   1.788   2.620   1.935
 4012SOL     OW12934   6.651   4.206   3.291
 4012SOL    HW112935   6.746   4.182   3.269
 4012SOL    HW212936   6.610   4.134   3.346
 4013SOL     OW12937   4.713   2.708   3.554
 4013SOL    HW112938   4.780   2.648   3.597
 4013SOL    HW212939   4.624   2.698   3.599
 4014SOL     OW12940   5.280   5.985   2.978
 4014SOL    HW112941   5.203   6.044   2.999
 4014SOL    HW212942   5.299   5.988   2.880
 4015SOL     OW12943   5.014   3.832   6.051
 4015SOL    HW112944   5.045   3.919   6.012
 4015SOL    HW212945   4.962   3.849   6.134
 4016SOL     OW12946   3.105   6.258   6.173
 4016SOL    HW112947   3.029   6.317   6.144
 4016SOL    HW212948   3.089   6.165   6.139
 4017SOL     OW12949   6.439   5.864   6.876
 4017SOL    HW112950   6.469   5.875   6.971
 4017SOL    HW212951   6.366   5.795   6.872
 4018SOL     OW12952   3.800   5.600   1.253
 4018SOL    HW112953   3.865   5.541   1.301
 4018SOL    HW212954   3.769   5.554   1.170
 4019SOL     OW12955   5.031   5.384   3.532
 4019SOL    HW112956   5.130   5.385   3.534
 4019SOL    HW212957   4.996   5.330   3.608
 4020SOL     OW12958   5.480   2.168   5.698
 4020SOL    HW112959   5.426   2.140   5.619
 4020SOL    HW212960   5.539   2.092   5.727
 4021SOL     OW12961   3.195   4.404   5.791
 4021SOL    HW112962   3.158   4.496   5.776
 4021SOL    HW212963   3.241   4.373   5.708
 4022SOL     OW12964   4.903   0.263   1.005
 4022SOL    HW112965   4.967   0.281   0.930
 4022SOL    HW212966   4.953   0.265   1.092
 4023SOL     OW12967   6.410   0.686   6.020
 4023SOL    HW112968   6.418   0.695   6.119
 4023SOL    HW212969   6.320   0.648   5.997
 4024SOL     OW12970   3.885   5.210   3.869
 4024SOL    HW112971   3.955   5.219   3.798
 4024SOL    HW212972   3.864   5.300   3.907
 4025SOL     OW12973   1.063   4.834   3.493
 4025SOL    HW112974   0.990   4.899   3.515
 4025SOL    HW212975   1.121   4.872   3.420
 4026SOL     OW12976   5.628   6.464   4.335
 4026SOL    HW112977   5.722   6.433   4.325
 4026SOL    HW212978   5.567   6.384   4.341
 4027SOL     OW12979   3.923   5.300   1.787
 4027SOL    HW112980   3.981   5.281   1.867
 4027SOL    HW212981   3.981   5.319   1.708
 4028SOL     OW12982   2.619   0.378   3.843
 4028SOL    HW112983   2.552   0.309   3.816
 4028SOL    HW212984   2.711   0.344   3.827
 4029SOL     OW12985   1.921   4.346   5.056
 4029SOL    HW112986   1.908   4.248   5.038
 4029SOL    HW212987   1.987   4.358   5.130
 4030SOL     OW12988   0.058   1.911   5.292
 4030SOL    HW112989   0.147   1.904   5.336
 4030SOL    HW212990   0.012   1.822   5.295
 4031SOL     OW12991   4.175   5.599   4.293
 4031SOL    HW112992   4.154   5.689   4.333
 4031SOL    HW212993   4.228   5.545   4.358
 4032SOL     OW12994   4.884   0.057   4.911
 4032SOL    HW112995   4.880   0.008   4.998
 4032SOL    HW212996   4.827   0.010   4.844
 4033SOL     OW12997   2.832   3.852   5.193
 4033SOL    HW112998   2.859   3.756   5.203
 4033SOL    HW212999   2.742   3.866   5.234
 4034SOL     OW13000   6.535   2.325   3.777
 4034SOL    HW113001   6.633   2.328   3.756
 4034SOL    HW213002   6.493   2.249   3.728
 4035SOL     OW13003   0.313   5.353   0.621
 4035SOL    HW113004   0.406   5.320   0.601
 4035SOL    HW213005   0.266   5.287   0.678
 4036SOL     OW13006   6.606   6.760   3.198
 4036SOL    HW113007   6.527   6.742   3.255
 4036SOL    HW213008   6.583   6.745   3.102
 4037SOL     OW13009   6.732   3.965   6.434
 4037SOL    HW113010   6.670   3.922   6.500
 4037SOL    HW213011   6.681   3.991   6.352
 4038SOL     OW13012   5.413   4.868   3.790
 4038SOL    HW113013   5.388   4.777   3.757
 4038SOL    HW213014   5.424   4.930   3.712
 4039SOL     OW13015   4.471   6.268   0.931
 4039SOL    HW113016   4.398   6.201   0.940
 4039SOL    HW213017   4.481   6.293   0.835
 4040SOL     OW13018   3.630   6.454   1.727
 4040SOL    HW113019   3.612   6.456   1.629
 4040SOL    HW213020   3.680   6.371   1.750
 4041SOL     OW13021   1.367   6.932   4.083
 4041SOL    HW113022   1.330   6.946   3.991
 4041SOL    HW213023   1.331   7.003   4.144
 4042SOL     OW13024   5.857   5.043   2.136
 4042SOL    HW113025   5.758   5.031   2.149
 4042SOL    HW213026   5.873   5.116   2.070
 4043SOL     OW13027   6.872   3.051   1.362
 4043SOL    HW113028   6.812   3.011   1.293
 4043SOL    HW213029   6.831   3.136   1.396
 4044SOL     OW13030   6.384   5.769   3.587
 4044SOL    HW113031   6.319   5.843   3.569
 4044SOL    HW213032   6.403   5.720   3.502
 4045SOL     OW13033   2.450   6.041   6.148
 4045SOL    HW113034   2.455   5.968   6.080
 4045SOL    HW213035   2.486   6.006   6.235
 4046SOL     OW13036   1.665   3.223   1.057
 4046SOL    HW113037   1.646   3.193   1.150
 4046SOL    HW213038   1.673   3.323   1.055
 4047SOL     OW13039   3.385   3.785   1.683
 4047SOL    HW113040   3.416   3.862   1.628
 4047SOL    HW213041   3.431   3.787   1.772
 4048SOL     OW13042   5.421   1.595   1.199
 4048SOL    HW113043   5.494   1.529   1.218
 4048SOL    HW213044   5.460   1.687   1.196
 4049SOL     OW13045   6.530   0.701   5.764
 4049SOL    HW113046   6.508   0.677   5.859
 4049SOL    HW213047   6.623   0.736   5.760
 4050SOL     OW13048   2.734   0.755   1.193
 4050SOL    HW113049   2.722   0.656   1.188
 4050SOL    HW213050   2.797   0.778   1.268
 4051SOL     OW13051   2.568   3.611   0.641
 4051SOL    HW113052   2.619   3.605   0.555
 4051SOL    HW213053   2.627   3.648   0.712
 4052SOL     OW13054   1.925   6.108   1.620
 4052SOL    HW113055   1.849   6.043   1.613
 4052SOL    HW213056   2.011   6.061   1.600
 4053SOL     OW13057   3.104   4.969   3.499
 4053SOL    HW113058   3.100   5.001   3.593
 4053SOL    HW213059   3.191   4.921   3.484
 4054SOL     OW13060   5.293   2.003   6.925
 4054SOL    HW113061   5.360   2.057   6.977
 4054SOL    HW213062   5.322   1.998   6.829
 4055SOL     OW13063   3.928   2.088   0.191
 4055SOL    HW113064   3.839   2.115   0.154
 4055SOL    HW213065   3.946   2.138   0.276
 4056SOL     OW13066   4.337   3.309   0.866
 4056SOL    HW113067   4.327   3.269   0.957
 4056SOL    HW213068   4.281   3.391   0.859
 4057SOL     OW13069   5.757   2.368   6.200
 4057SOL    HW113070   5.723   2.274   6.196
 4057SOL    HW213071   5.725   2.412   6.284
 4058SOL     OW13072   0.814   0.638   5.286
 4058SOL    HW113073   0.739   0.668   5.346
 4058SOL    HW213074   0.780   0.571   5.221
 4059SOL     OW13075   6.893   1.405   4.819
 4059SOL    HW113076   6.956   1.406   4.897
 4059SOL    HW213077   6.896   1.493   4.773
 4060SOL     OW13078   4.415   5.872   4.487
 4060SOL    HW113079   4.425   5.957   4.436
 4060SOL    HW213080   4.465   5.799   4.441
 4061SOL     OW13081   2.585   2.995   1.724
 4061SOL    HW113082   2.648   2.920   1.704
 4061SOL    HW213083   2.499   2.958   1.759
 4062SOL     OW13084   2.801   6.869   2.783
 4062SOL    HW113085   2.858   6.902   2.708
 4062SOL    HW213086   2.705   6.891   2.764
 4063SOL     OW13087   2.652   5.251   5.936
 4063SOL    HW113088   2.676   5.301   5.852
 4063SOL    HW213089   2.573   5.295   5.979
 4064SOL     OW13090   6.092   0.132   3.696
 4064SOL    HW113091   6.010   0.089   3.734
 4064SOL    HW213092   6.173   0.096   3.742
 4065SOL     OW13093   5.860   4.923   6.499
 4065SOL    HW113094   5.785   4.858   6.512
 4065SOL    HW213095   5.946   4.881   6.526
 4066SOL     OW13096   5.708   5.008   1.546
 4066SOL    HW113097   5.680   4.912   1.548
 4066SOL    HW213098   5.692   5.049   1.636
 4067SOL     OW13099   5.986   0.832   1.897
 4067SOL    HW113100   6.070   0.798   1.854
 4067SOL    HW213101   5.992   0.819   1.996
 4068SOL     OW13102   5.065   1.000   3.851
 4068SOL    HW113103   5.020   1.086   3.875
 4068SOL    HW213104   5.162   1.005   3.873
 4069SOL     OW13105   0.125   5.667   1.626
 4069SOL    HW113106   0.166   5.737   1.569
 4069SOL    HW213107   0.029   5.690   1.645
 4070SOL     OW13108   0.761   3.422   2.694
 4070SOL    HW113109   0.837   3.479   2.724
 4070SOL    HW213110   0.683   3.435   2.756
 4071SOL     OW13111   2.090   0.425   3.771
 4071SOL    HW113112   2.068   0.414   3.868
 4071SOL    HW213113   2.019   0.478   3.726
 4072SOL     OW13114   0.863   6.878   4.242
 4072SOL    HW113115   0.869   6.868   4.143
 4072SOL    HW213116   0.846   6.974   4.265
 4073SOL     OW13117   3.056   4.918   0.997
 4073SOL    HW113118   3.093   5.000   0.953
 4073SOL    HW213119   3.129   4.850   1.005
 4074SOL     OW13120   1.598   3.027   0.662
 4074SOL    HW113121   1.622   2.936   0.696
 4074SOL    HW213122   1.655   3.095   0.708
 4075SOL     OW13123   5.203   0.675   4.284
 4075SOL    HW113124   5.260   0.706   4.208
 4075SOL    HW213125   5.206   0.743   4.358
 4076SOL     OW13126   1.268   2.608   3.563
 4076SOL    HW113127   1.286   2.515   3.596
 4076SOL    HW213128   1.287   2.612   3.465
 4077SOL     OW13129   3.045   1.953   0.835
 4077SOL    HW113130   3.029   1.910   0.924
 4077SOL    HW213131   2.982   2.030   0.823
 4078SOL     OW13132   5.661   3.436   2.074
 4078SOL    HW113133   5.757   3.437   2.049
 4078SOL    HW213134   5.625   3.343   2.064
 4079SOL     OW13135   6.507   1.067   3.360
 4079SOL    HW113136   6.563   1.122   3.422
 4079SOL    HW213137   6.479   0.982   3.405
 4080SOL     OW13138   4.058   3.162   2.823
 4080SOL    HW113139   4.128   3.234   2.815
 4080SOL    HW213140   4.036   3.128   2.731
 4081SOL     OW13141   2.288   2.191   6.370
 4081SOL    HW113142   2.208   2.194   6.311
 4081SOL    HW213143   2.262   2.218   6.463
 4082SOL     OW13144   1.477   2.442   5.373
 4082SOL    HW113145   1.380   2.465   5.372
 4082SOL    HW213146   1.495   2.371   5.304
 4083SOL     OW13147   5.829   5.370   2.779
 4083SOL    HW113148   5.748   5.330   2.821
 4083SOL    HW213149   5.814   5.467   2.760
 4084SOL     OW13150   4.499   0.495   3.135
 4084SOL    HW113151   4.410   0.468   3.099
 4084SOL    HW213152   4.496   0.592   3.160
 4085SOL     OW13153   3.284   5.161   2.032
 4085SOL    HW113154   3.230   5.077   2.027
 4085SOL    HW213155   3.367   5.150   1.977
 4086SOL     OW13156   6.299   4.970   5.254
 4086SOL    HW113157   6.297   4.874   5.228
 4086SOL    HW213158   6.328   5.026   5.176
 4087SOL     OW13159   1.610   0.690   2.311
 4087SOL    HW113160   1.707   0.712   2.317
 4087SOL    HW213161   1.589   0.657   2.219
 4088SOL     OW13162   0.170   2.331   5.335
 4088SOL    HW113163   0.185   2.419   5.290
 4088SOL    HW213164   0.217   2.259   5.284
 4089SOL     OW13165   1.109   0.969   2.692
 4089SOL    HW113166   1.051   0.889   2.708
 4089SOL    HW213167   1.156   0.959   2.604
 4090SOL     OW13168   2.673   1.981   5.844
 4090SOL    HW113169   2.641   1.974   5.938
 4090SOL    HW213170   2.727   1.901   5.821
 4091SOL     OW13171   3.443   5.685   1.630
 4091SOL    HW113172   3.421   5.593   1.663
 4091SOL    HW213173   3.535   5.684   1.590
 4092SOL     OW13174   5.436   2.398   4.791
 4092SOL    HW113175   5.524   2.353   4.773
 4092SOL    HW213176   5.399   2.434   4.706
 4093SOL     OW13177   5.248   4.537   3.508
 4093SOL    HW113178   5.163   4.542   3.561
 4093SOL    HW213179   5.325   4.560   3.568
 4094SOL     OW13180   6.866   5.735   6.936
 4094SOL    HW113181   6.817   5.666   6.883
 4094SOL    HW213182   6.825   5.825   6.919
 4095SOL     OW13183   1.112   5.231   0.541
 4095SOL    HW113184   1.039   5.176   0.581
 4095SOL    HW213185   1.200   5.195   0.571
 4096SOL     OW13186   0.637   0.452   6.972
 4096SOL    HW113187   0.670   0.430   0.044
 4096SOL    HW213188   0.617   0.367   6.924
 4097SOL     OW13189   6.465   3.858   4.927
 4097SOL    HW113190   6.388   3.795   4.935
 4097SOL    HW213191   6.546   3.807   4.896
 4098SOL     OW13192   1.467   4.771   2.636
 4098SOL    HW113193   1.458   4.773   2.536
 4098SOL    HW213194   1.550   4.821   2.663
 4099SOL     OW13195   5.510   4.376   5.964
 4099SOL    HW113196   5.532   4.405   6.057
 4099SOL    HW213197   5.422   4.415   5.937
 4100SOL     OW13198   1.847   1.323   3.448
 4100SOL    HW113199   1.832   1.395   3.515
 4100SOL    HW213200   1.944   1.315   3.429
 4101SOL     OW13201   6.638   5.458   0.283
 4101SOL    HW113202   6.705   5.383   0.284
 4101SOL    HW213203   6.572   5.444   0.357
 4102SOL     OW13204   1.857   6.246   0.602
 4102SOL    HW113205   1.941   6.299   0.608
 4102SOL    HW213206   1.840   6.221   0.506
 4103SOL     OW13207   1.692   6.965   4.415
 4103SOL    HW113208   1.743   6.950   4.330
 4103SOL    HW213209   1.621   6.896   4.424
 4104SOL     OW13210   2.049   5.409   5.139
 4104SOL    HW113211   2.070   5.320   5.179
 4104SOL    HW213212   1.951   5.414   5.119
 4105SOL     OW13213   4.577   0.002   2.078
 4105SOL    HW113214   4.551   0.099   2.082
 4105SOL    HW213215   4.629   7.005   1.995
 4106SOL     OW13216   1.065   1.121   2.906
 4106SOL    HW113217   1.060   1.076   2.817
 4106SOL    HW213218   0.988   1.184   2.916
 4107SOL     OW13219   1.249   0.475   1.104
 4107SOL    HW113220   1.205   0.560   1.077
 4107SOL    HW213221   1.336   0.495   1.149
 4108SOL     OW13222   6.768   6.017   5.541
 4108SOL    HW113223   6.826   6.099   5.545
 4108SOL    HW213224   6.742   5.999   5.446
 4109SOL     OW13225   5.212   6.220   3.353
 4109SOL    HW113226   5.250   6.230   3.445
 4109SOL    HW213227   5.233   6.302   3.299
 4110SOL     OW13228   5.206   3.055   6.989
 4110SOL    HW113229   5.251   3.021   0.051
 4110SOL    HW213230   5.121   3.004   6.974
 4111SOL     OW13231   6.220   3.665   4.254
 4111SOL    HW113232   6.141   3.648   4.312
 4111SOL    HW213233   6.206   3.621   4.165
 4112SOL     OW13234   4.317   6.116   4.421
 4112SOL    HW113235   4.256   6.089   4.495
 4112SOL    HW213236   4.263   6.129   4.337
 4113SOL     OW13237   4.092   5.183   4.630
 4113SOL    HW113238   4.098   5.180   4.531
 4113SOL    HW213239   4.007   5.227   4.657
 4114SOL     OW13240   6.977   1.116   1.730
 4114SOL    HW113241   0.015   1.100   1.651
 4114SOL    HW213242   6.963   1.215   1.742
 4115SOL     OW13243   4.616   5.514   3.763
 4115SOL    HW113244   4.644   5.604   3.796
 4115SOL    HW213245   4.548   5.526   3.690
 4116SOL     OW13246   4.979   3.707   2.544
 4116SOL    HW113247   4.930   3.689   2.629
 4116SOL    HW213248   5.067   3.659   2.545
 4117SOL     OW13249   1.294   1.643   4.137
 4117SOL    HW113250   1.233   1.689   4.201
 4117SOL    HW213251   1.362   1.708   4.103
 4118SOL     OW13252   0.536   6.764   0.125
 4118SOL    HW113253   0.545   6.698   0.051
 4118SOL    HW213254   0.557   6.855   0.091
 4119SOL     OW13255   0.381   0.480   4.331
 4119SOL    HW113256   0.315   0.517   4.265
 4119SOL    HW213257   0.367   0.524   4.420
 4120SOL     OW13258   2.148   0.820   6.970
 4120SOL    HW113259   2.246   0.806   6.982
 4120SOL    HW213260   2.128   0.918   6.973
 4121SOL     OW13261   7.017   0.129   2.097
 4121SOL    HW113262   6.930   0.150   2.052
 4121SOL    HW213263   7.002   0.060   2.168
 4122SOL     OW13264   0.876   4.418   3.153
 4122SOL    HW113265   0.875   4.322   3.177
 4122SOL    HW213266   0.881   4.427   3.053
 4123SOL     OW13267   5.011   4.708   1.494
 4123SOL    HW113268   4.995   4.634   1.428
 4123SOL    HW213269   5.089   4.685   1.552
 4124SOL     OW13270   6.498   5.614   0.067
 4124SOL    HW113271   6.564   5.580   0.134
 4124SOL    HW213272   6.473   5.707   0.090
 4125SOL     OW13273   6.259   2.317   0.436
 4125SOL    HW113274   6.324   2.302   0.511
 4125SOL    HW213275   6.226   2.229   0.403
 4126SOL     OW13276   0.725   3.072   2.943
 4126SOL    HW113277   0.653   3.133   2.909
 4126SOL    HW213278   0.709   2.979   2.909
 4127SOL     OW13279   4.511   2.064   4.486
 4127SOL    HW113280   4.520   1.972   4.525
 4127SOL    HW213281   4.477   2.126   4.557
 4128SOL     OW13282   0.171   2.858   6.463
 4128SOL    HW113283   0.128   2.893   6.546
 4128SOL    HW213284   0.217   2.932   6.415
 4129SOL     OW13285   3.185   1.996   0.615
 4129SOL    HW113286   3.135   1.973   0.699
 4129SOL    HW213287   3.204   1.911   0.564
 4130SOL     OW13288   5.832   3.280   0.503
 4130SOL    HW113289   5.748   3.308   0.456
 4130SOL    HW213290   5.850   3.184   0.484
 4131SOL     OW13291   4.972   0.118   3.170
 4131SOL    HW113292   5.010   0.160   3.253
 4131SOL    HW213293   4.872   0.118   3.176
 4132SOL     OW13294   0.073   5.554   3.582
 4132SOL    HW113295   7.013   5.611   3.599
 4132SOL    HW213296   0.103   5.514   3.669
 4133SOL     OW13297   5.240   0.331   2.701
 4133SOL    HW113298   5.286   0.397   2.642
 4133SOL    HW213299   5.154   0.370   2.735
 4134SOL     OW13300   1.346   3.529   1.579
 4134SOL    HW113301   1.309   3.471   1.507
 4134SOL    HW213302   1.433   3.493   1.611
 4135SOL     OW13303   6.176   0.463   2.056
 4135SOL    HW113304   6.221   0.549   2.083
 4135SOL    HW213305   6.117   0.432   2.131
 4136SOL     OW13306   0.780   5.092   0.901
 4136SOL    HW113307   0.704   5.157   0.907
 4136SOL    HW213308   0.746   4.999   0.919
 4137SOL     OW13309   0.587   2.980   6.597
 4137SOL    HW113310   0.599   2.913   6.524
 4137SOL    HW213311   0.677   3.000   6.637
 4138SOL     OW13312   5.096   0.345   6.976
 4138SOL    HW113313   5.156   0.379   6.903
 4138SOL    HW213314   5.044   0.422   7.014
 4139SOL     OW13315   2.161   4.107   3.293
 4139SOL    HW113316   2.188   4.190   3.243
 4139SOL    HW213317   2.063   4.110   3.312
 4140SOL     OW13318   1.828   0.399   5.973
 4140SOL    HW113319   1.778   0.473   6.017
 4140SOL    HW213320   1.777   0.367   5.893
 4141SOL     OW13321   5.156   0.831   6.100
 4141SOL    HW113322   5.140   0.929   6.083
 4141SOL    HW213323   5.196   0.789   6.018
 4142SOL     OW13324   0.152   5.470   2.211
 4142SOL    HW113325   0.150   5.436   2.117
 4142SOL    HW213326   0.182   5.565   2.212
 4143SOL     OW13327   6.090   3.213   6.269
 4143SOL    HW113328   5.999   3.177   6.290
 4143SOL    HW213329   6.160   3.149   6.300
 4144SOL     OW13330   5.680   1.323   1.016
 4144SOL    HW113331   5.643   1.340   1.108
 4144SOL    HW213332   5.750   1.391   0.995
 4145SOL     OW13333   6.897   0.561   1.504
 4145SOL    HW113334   6.958   0.484   1.490
 4145SOL    HW213335   6.944   0.634   1.553
 4146SOL     OW13336   4.890   5.876   2.079
 4146SOL    HW113337   4.815   5.854   2.142
 4146SOL    HW213338   4.863   5.952   2.020
 4147SOL     OW13339   4.412   5.096   6.615
 4147SOL    HW113340   4.504   5.070   6.646
 4147SOL    HW213341   4.354   5.115   6.694
 4148SOL     OW13342   2.761   0.998   5.077
 4148SOL    HW113343   2.820   0.925   5.112
 4148SOL    HW213344   2.801   1.087   5.100
 4149SOL     OW13345   1.089   3.677   6.467
 4149SOL    HW113346   1.108   3.758   6.413
 4149SOL    HW213347   1.159   3.608   6.451
 4150SOL     OW13348   5.512   2.127   0.009
 4150SOL    HW113349   5.540   2.056   0.073
 4150SOL    HW213350   5.584   2.141   6.961
 4151SOL     OW13351   3.001   6.010   4.674
 4151SOL    HW113352   2.964   6.094   4.635
 4151SOL    HW213353   2.986   6.011   4.773
 4152SOL     OW13354   2.674   4.711   1.284
 4152SOL    HW113355   2.762   4.730   1.327
 4152SOL    HW213356   2.615   4.662   1.349
 4153SOL     OW13357   6.519   6.004   1.523
 4153SOL    HW113358   6.613   6.031   1.500
 4153SOL    HW213359   6.519   5.956   1.611
 4154SOL     OW13360   1.407   6.268   3.930
 4154SOL    HW113361   1.362   6.185   3.964
 4154SOL    HW213362   1.377   6.347   3.983
 4155SOL     OW13363   0.190   0.726   1.433
 4155SOL    HW113364   0.151   0.742   1.523
 4155SOL    HW213365   0.150   0.790   1.367
 4156SOL     OW13366   0.581   5.048   6.360
 4156SOL    HW113367   0.652   4.983   6.333
 4156SOL    HW213368   0.593   5.134   6.311
 4157SOL     OW13369   5.621   5.994   1.645
 4157SOL    HW113370   5.675   5.914   1.616
 4157SOL    HW213371   5.681   6.073   1.654
 4158SOL     OW13372   0.995   2.989   1.539
 4158SOL    HW113373   1.014   2.970   1.443
 4158SOL    HW213374   1.081   2.997   1.589
 4159SOL     OW13375   2.822   0.365   4.252
 4159SOL    HW113376   2.872   0.280   4.233
 4159SOL    HW213377   2.724   0.348   4.239
 4160SOL     OW13378   0.630   0.213   6.798
 4160SOL    HW113379   0.692   0.138   6.774
 4160SOL    HW213380   0.561   0.224   6.727
 4161SOL     OW13381   3.793   3.328   2.558
 4161SOL    HW113382   3.739   3.367   2.483
 4161SOL    HW213383   3.869   3.276   2.521
 4162SOL     OW13384   5.300   5.664   1.748
 4162SOL    HW113385   5.342   5.715   1.673
 4162SOL    HW213386   5.286   5.725   1.826
 4163SOL     OW13387   3.277   5.721   1.867
 4163SOL    HW113388   3.205   5.789   1.883
 4163SOL    HW213389   3.301   5.720   1.770
 4164SOL     OW13390   6.898   1.346   6.299
 4164SOL    HW113391   6.986   1.378   6.334
 4164SOL    HW213392   6.909   1.321   6.203
 4165SOL     OW13393   4.560   0.918   4.847
 4165SOL    HW113394   4.637   0.981   4.834
 4165SOL    HW213395   4.565   0.845   4.779
 4166SOL     OW13396   5.703   1.706   1.157
 4166SOL    HW113397   5.782   1.742   1.108
 4166SOL    HW213398   5.633   1.777   1.164
 4167SOL     OW13399   3.260   5.725   4.341
 4167SOL    HW113400   3.246   5.803   4.403
 4167SOL    HW213401   3.325   5.661   4.382
 4168SOL     OW13402   4.951   3.379   6.833
 4168SOL    HW113403   4.913   3.466   6.866
 4168SOL    HW213404   5.023   3.349   6.895
 4169SOL     OW13405   5.132   2.545   5.753
 4169SOL    HW113406   5.222   2.502   5.745
 4169SOL    HW213407   5.116   2.569   5.848
 4170SOL     OW13408   0.451   2.546   4.451
 4170SOL    HW113409   0.523   2.478   4.462
 4170SOL    HW213410   0.397   2.552   4.535
 4171SOL     OW13411   0.627   1.915   0.330
 4171SOL    HW113412   0.723   1.898   0.349
 4171SOL    HW213413   0.590   1.839   0.275
 4172SOL     OW13414   2.618   3.218   0.495
 4172SOL    HW113415   2.603   3.238   0.592
 4172SOL    HW213416   2.531   3.203   0.450
 4173SOL     OW13417   5.107   2.523   6.882
 4173SOL    HW113418   5.019   2.546   6.924
 4173SOL    HW213419   5.116   2.424   6.877
 4174SOL     OW13420   3.955   0.449   4.913
 4174SOL    HW113421   3.946   0.547   4.931
 4174SOL    HW213422   4.000   0.434   4.825
 4175SOL     OW13423   0.849   4.378   6.624
 4175SOL    HW113424   0.837   4.280   6.640
 4175SOL    HW213425   0.840   4.397   6.526
 4176SOL     OW13426   5.679   0.181   5.653
 4176SOL    HW113427   5.738   0.139   5.722
 4176SOL    HW213428   5.598   0.124   5.639
 4177SOL     OW13429   4.168   4.751   2.742
 4177SOL    HW113430   4.146   4.656   2.766
 4177SOL    HW213431   4.130   4.772   2.652
 4178SOL     OW13432   3.488   5.954   1.719
 4178SOL    HW113433   3.427   5.880   1.692
 4178SOL    HW213434   3.470   6.035   1.663
 4179SOL     OW13435   5.067   3.114   5.715
 4179SOL    HW113436   5.006   3.179   5.671
 4179SOL    HW213437   5.162   3.147   5.707
 4180SOL     OW13438   4.226   3.680   0.790
 4180SOL    HW113439   4.180   3.600   0.829
 4180SOL    HW213440   4.194   3.763   0.837
 4181SOL     OW13441   4.682   6.781   4.925
 4181SOL    HW113442   4.627   6.858   4.893
 4181SOL    HW213443   4.740   6.811   5.001
 4182SOL     OW13444   0.327   6.464   5.047
 4182SOL    HW113445   0.228   6.452   5.051
 4182SOL    HW213446   0.351   6.556   5.077
 4183SOL     OW13447   4.348   1.749   0.634
 4183SOL    HW113448   4.306   1.827   0.588
 4183SOL    HW213449   4.407   1.701   0.569
 4184SOL     OW13450   3.527   5.778   4.239
 4184SOL    HW113451   3.432   5.804   4.258
 4184SOL    HW213452   3.541   5.772   4.141
 4185SOL     OW13453   5.376   3.197   3.260
 4185SOL    HW113454   5.393   3.126   3.191
 4185SOL    HW213455   5.410   3.285   3.226
 4186SOL     OW13456   1.793   6.111   0.360
 4186SOL    HW113457   1.856   6.100   0.282
 4186SOL    HW213458   1.746   6.024   0.377
 4187SOL     OW13459   1.803   3.283   6.950
 4187SOL    HW113460   1.847   3.351   6.891
 4187SOL    HW213461   1.867   3.209   6.969
 4188SOL     OW13462   4.722   0.215   0.170
 4188SOL    HW113463   4.665   0.297   0.160
 4188SOL    HW213464   4.761   0.212   0.262
 4189SOL     OW13465   4.512   5.050   3.790
 4189SOL    HW113466   4.566   4.984   3.842
 4189SOL    HW213467   4.549   5.142   3.803
 4190SOL     OW13468   6.792   6.076   1.526
 4190SOL    HW113469   6.842   6.091   1.611
 4190SOL    HW213470   6.844   6.115   1.450
 4191SOL     OW13471   4.843   4.472   6.676
 4191SOL    HW113472   4.799   4.384   6.694
 4191SOL    HW213473   4.803   4.513   6.594
 4192SOL     OW13474   1.556   3.316   0.404
 4192SOL    HW113475   1.579   3.298   0.500
 4192SOL    HW213476   1.504   3.239   0.367
 4193SOL     OW13477   0.342   0.784   0.340
 4193SOL    HW113478   0.366   0.688   0.324
 4193SOL    HW213479   0.378   0.840   0.265
 4194SOL     OW13480   4.734   1.547   5.672
 4194SOL    HW113481   4.679   1.523   5.752
 4194SOL    HW213482   4.831   1.547   5.697
 4195SOL     OW13483   3.748   6.229   0.420
 4195SOL    HW113484   3.727   6.154   0.482
 4195SOL    HW213485   3.844   6.224   0.392
 4196SOL     OW13486   6.406   3.090   2.139
 4196SOL    HW113487   6.457   3.118   2.220
 4196SOL    HW213488   6.340   3.161   2.115
 4197SOL     OW13489   3.989   1.177   0.103
 4197SOL    HW113490   3.910   1.158   0.045
 4197SOL    HW213491   4.008   1.276   0.101
 4198SOL     OW13492   6.944   1.908   2.489
 4198SOL    HW113493   6.902   1.877   2.404
 4198SOL    HW213494   6.887   1.881   2.566
 4199SOL     OW13495   0.519   3.796   6.376
 4199SOL    HW113496   0.427   3.769   6.406
 4199SOL    HW213497   0.512   3.859   6.299
 4200SOL     OW13498   4.320   0.784   4.134
 4200SOL    HW113499   4.291   0.691   4.155
 4200SOL    HW213500   4.419   0.792   4.146
 4201SOL     OW13501   5.554   6.836   3.670
 4201SOL    HW113502   5.561   6.935   3.674
 4201SOL    HW213503   5.579   6.797   3.758
 4202SOL     OW13504   4.983   4.150   1.222
 4202SOL    HW113505   4.967   4.244   1.190
 4202SOL    HW213506   5.032   4.099   1.151
 4203SOL     OW13507   6.487   5.073   5.419
 4203SOL    HW113508   6.406   5.041   5.369
 4203SOL    HW213509   6.459   5.118   5.503
 4204SOL     OW13510   1.857   3.415   6.725
 4204SOL    HW113511   1.849   3.345   6.654
 4204SOL    HW213512   1.847   3.506   6.684
 4205SOL     OW13513   3.823   6.188   5.995
 4205SOL    HW113514   3.908   6.194   5.943
 4205SOL    HW213515   3.760   6.259   5.962
 4206SOL     OW13516   2.185   2.203   4.845
 4206SOL    HW113517   2.171   2.242   4.936
 4206SOL    HW213518   2.097   2.171   4.809
 4207SOL     OW13519   0.910   2.084   2.291
 4207SOL    HW113520   0.944   2.123   2.205
 4207SOL    HW213521   0.988   2.060   2.349
 4208SOL     OW13522   1.976   2.795   3.904
 4208SOL    HW113523   1.902   2.745   3.858
 4208SOL    HW213524   2.029   2.732   3.960
 4209SOL     OW13525   6.646   6.228   2.174
 4209SOL    HW113526   6.681   6.274   2.093
 4209SOL    HW213527   6.694   6.263   2.255
 4210SOL     OW13528   3.918   4.010   4.798
 4210SOL    HW113529   4.002   4.022   4.851
 4210SOL    HW213530   3.850   4.076   4.828
 4211SOL     OW13531   4.114   2.564   5.472
 4211SOL    HW113532   4.113   2.594   5.377
 4211SOL    HW213533   4.197   2.599   5.516
 4212SOL     OW13534   6.625   2.291   3.140
 4212SOL    HW113535   6.576   2.376   3.122
 4212SOL    HW213536   6.715   2.294   3.096
 4213SOL     OW13537   2.876   0.921   3.752
 4213SOL    HW113538   2.884   0.913   3.851
 4213SOL    HW213539   2.880   1.018   3.725
 4214SOL     OW13540   0.132   6.035   3.425
 4214SOL    HW113541   0.100   6.036   3.330
 4214SOL    HW213542   0.109   6.122   3.469
 4215SOL     OW13543   4.973   6.701   5.496
 4215SOL    HW113544   4.998   6.687   5.592
 4215SOL    HW213545   5.052   6.681   5.438
 4216SOL     OW13546   2.507   5.607   1.966
 4216SOL    HW113547   2.531   5.597   1.869
 4216SOL    HW213548   2.590   5.601   2.021
 4217SOL     OW13549   0.940   0.752   2.753
 4217SOL    HW113550   0.956   0.662   2.713
 4217SOL    HW213551   0.843   0.775   2.747
 4218SOL     OW13552   3.196   1.290   0.711
 4218SOL    HW113553   3.213   1.297   0.809
 4218SOL    HW213554   3.129   1.218   0.694
 4219SOL     OW13555   4.262   5.557   2.835
 4219SOL    HW113556   4.218   5.496   2.902
 4219SOL    HW213557   4.327   5.616   2.883
 4220SOL     OW13558   5.770   1.841   1.417
 4220SOL    HW113559   5.833   1.785   1.470
 4220SOL    HW213560   5.735   1.788   1.340
 4221SOL     OW13561   0.647   6.203   0.439
 4221SOL    HW113562   0.548   6.198   0.425
 4221SOL    HW213563   0.674   6.299   0.443
 4222SOL     OW13564   4.837   3.061   4.335
 4222SOL    HW113565   4.851   3.045   4.433
 4222SOL    HW213566   4.840   3.159   4.317
 4223SOL     OW13567   3.908   3.866   2.246
 4223SOL    HW113568   3.956   3.842   2.162
 4223SOL    HW213569   3.959   3.832   2.325
 4224SOL     OW13570   5.186   4.117   4.582
 4224SOL    HW113571   5.145   4.043   4.635
 4224SOL    HW213572   5.146   4.204   4.610
 4225SOL     OW13573   0.480   2.315   5.367
 4225SOL    HW113574   0.442   2.254   5.298
 4225SOL    HW213575   0.541   2.264   5.427
 4226SOL     OW13576   0.736   5.694   5.045
 4226SOL    HW113577   0.827   5.689   5.085
 4226SOL    HW213578   0.684   5.612   5.070
 4227SOL     OW13579   4.812   5.091   2.207
 4227SOL    HW113580   4.784   5.134   2.293
 4227SOL    HW213581   4.743   5.108   2.137
 4228SOL     OW13582   1.398   5.584   3.695
 4228SOL    HW113583   1.437   5.666   3.737
 4228SOL    HW213584   1.383   5.514   3.765
 4229SOL     OW13585   6.810   4.607   5.533
 4229SOL    HW113586   6.786   4.567   5.622
 4229SOL    HW213587   6.759   4.692   5.521
 4230SOL     OW13588   0.378   0.687   2.046
 4230SOL    HW113589   0.285   0.654   2.062
 4230SOL    HW213590   0.398   0.686   1.948
 4231SOL     OW13591   6.499   1.391   5.781
 4231SOL    HW113592   6.546   1.309   5.814
 4231SOL    HW213593   6.422   1.364   5.724
 4232SOL     OW13594   1.344   5.837   3.874
 4232SOL    HW113595   1.348   5.915   3.936
 4232SOL    HW213596   1.356   5.752   3.926
 4233SOL     OW13597   4.568   4.765   2.967
 4233SOL    HW113598   4.493   4.831   2.972
 4233SOL    HW213599   4.568   4.721   2.877
 4234SOL     OW13600   3.157   5.057   6.146
 4234SOL    HW113601   3.179   4.981   6.086
 4234SOL    HW213602   3.117   5.131   6.093
 4235SOL     OW13603   0.106   5.859   5.649
 4235SOL    HW113604   0.144   5.805   5.574
 4235SOL    HW213605   0.074   5.797   5.721
 4236SOL     OW13606   0.367   5.334   2.851
 4236SOL    HW113607   0.357   5.395   2.930
 4236SOL    HW213608   0.437   5.371   2.790
 4237SOL     OW13609   6.642   4.759   3.878
 4237SOL    HW113610   6.687   4.801   3.798
 4237SOL    HW213611   6.640   4.825   3.953
 4238SOL     OW13612   2.874   6.803   3.046
 4238SOL    HW113613   2.849   6.826   2.952
 4238SOL    HW213614   2.801   6.748   3.087
 4239SOL     OW13615   4.457   0.723   3.707
 4239SOL    HW113616   4.438   0.820   3.722
 4239SOL    HW213617   4.377   0.669   3.734
 4240SOL     OW13618   6.410   0.148   1.812
 4240SOL    HW113619   6.406   0.052   1.785
 4240SOL    HW213620   6.354   0.203   1.750
 4241SOL     OW13621   6.386   3.832   0.524
 4241SOL    HW113622   6.432   3.798   0.607
 4241SOL    HW213623   6.291   3.854   0.546
 4242SOL     OW13624   2.590   1.914   3.067
 4242SOL    HW113625   2.683   1.905   3.102
 4242SOL    HW213626   2.550   1.823   3.053
 4243SOL     OW13627   4.947   0.460   3.345
 4243SOL    HW113628   4.872   0.393   3.336
 4243SOL    HW213629   4.949   0.518   3.264
 4244SOL     OW13630   3.624   3.367   3.331
 4244SOL    HW113631   3.700   3.425   3.302
 4244SOL    HW213632   3.588   3.318   3.252
 4245SOL     OW13633   6.292   1.792   6.230
 4245SOL    HW113634   6.249   1.768   6.142
 4245SOL    HW213635   6.384   1.753   6.234
 4246SOL     OW13636   0.963   3.302   1.197
 4246SOL    HW113637   1.000   3.365   1.128
 4246SOL    HW213638   0.996   3.209   1.178
 4247SOL     OW13639   0.053   5.927   5.195
 4247SOL    HW113640   0.016   6.009   5.239
 4247SOL    HW213641   0.081   5.948   5.102
 4248SOL     OW13642   1.536   3.010   4.796
 4248SOL    HW113643   1.491   3.070   4.730
 4248SOL    HW213644   1.550   3.059   4.882
 4249SOL     OW13645   5.433   4.106   5.981
 4249SOL    HW113646   5.383   4.063   6.056
 4249SOL    HW213647   5.460   4.199   6.007
 4250SOL     OW13648   0.562   4.683   3.053
 4250SOL    HW113649   0.544   4.587   3.031
 4250SOL    HW213650   0.619   4.689   3.135
 4251SOL     OW13651   5.947   3.989   0.832
 4251SOL    HW113652   5.891   3.907   0.826
 4251SOL    HW213653   5.896   4.068   0.799
 4252SOL     OW13654   0.615   5.623   5.857
 4252SOL    HW113655   0.643   5.640   5.763
 4252SOL    HW213656   0.519   5.648   5.868
 4253SOL     OW13657   4.318   6.174   2.200
 4253SOL    HW113658   4.323   6.172   2.300
 4253SOL    HW213659   4.234   6.129   2.171
 4254SOL     OW13660   2.583   4.275   1.247
 4254SOL    HW113661   2.547   4.186   1.222
 4254SOL    HW213662   2.535   4.347   1.196
 4255SOL     OW13663   0.073   1.929   4.442
 4255SOL    HW113664   0.054   1.937   4.344
 4255SOL    HW213665   0.093   1.833   4.463
 4256SOL     OW13666   2.348   0.573   1.930
 4256SOL    HW113667   2.280   0.578   1.857
 4256SOL    HW213668   2.304   0.594   2.018
 4257SOL     OW13669   4.161   1.924   4.576
 4257SOL    HW113670   4.085   1.918   4.641
 4257SOL    HW213671   4.128   1.900   4.484
 4258SOL     OW13672   5.093   6.427   2.565
 4258SOL    HW113673   5.170   6.485   2.591
 4258SOL    HW213674   5.066   6.448   2.470
 4259SOL     OW13675   2.199   3.024   0.553
 4259SOL    HW113676   2.240   3.043   0.642
 4259SOL    HW213677   2.104   3.054   0.552
 4260SOL     OW13678   5.065   5.837   3.733
 4260SOL    HW113679   5.035   5.790   3.816
 4260SOL    HW213680   5.112   5.771   3.674
 4261SOL     OW13681   1.825   0.167   2.060
 4261SOL    HW113682   1.848   0.074   2.034
 4261SOL    HW213683   1.727   0.181   2.051
 4262SOL     OW13684   0.591   5.697   6.613
 4262SOL    HW113685   0.498   5.730   6.598
 4262SOL    HW213686   0.588   5.609   6.660
 4263SOL     OW13687   3.313   5.229   5.448
 4263SOL    HW113688   3.227   5.178   5.449
 4263SOL    HW213689   3.383   5.174   5.403
 4264SOL     OW13690   0.006   0.474   0.381
 4264SOL    HW113691   6.990   0.430   0.463
 4264SOL    HW213692   7.015   0.413   0.303
 4265SOL     OW13693   6.814   2.295   1.233
 4265SOL    HW113694   6.788   2.347   1.314
 4265SOL    HW213695   6.881   2.225   1.259
 4266SOL     OW13696   2.881   4.705   0.388
 4266SOL    HW113697   2.927   4.695   0.300
 4266SOL    HW213698   2.941   4.671   0.461
 4267SOL     OW13699   1.833   3.838   5.245
 4267SOL    HW113700   1.818   3.910   5.313
 4267SOL    HW213701   1.901   3.869   5.179
 4268SOL     OW13702   1.712   0.815   1.312
 4268SOL    HW113703   1.625   0.825   1.263
 4268SOL    HW213704   1.742   0.903   1.347
 4269SOL     OW13705   3.977   3.092   0.439
 4269SOL    HW113706   4.060   3.138   0.470
 4269SOL    HW213707   3.911   3.160   0.408
 4270SOL     OW13708   3.245   2.749   5.275
 4270SOL    HW113709   3.276   2.787   5.188
 4270SOL    HW213710   3.201   2.661   5.259
 4271SOL     OW13711   1.231   6.946   6.842
 4271SOL    HW113712   1.203   6.864   6.791
 4271SOL    HW213713   1.168   6.960   6.918
 4272SOL     OW13714   6.759   4.735   4.886
 4272SOL    HW113715   6.668   4.723   4.847
 4272SOL    HW213716   6.755   4.803   4.959
 4273SOL     OW13717   5.853   6.552   5.380
 4273SOL    HW113718   5.871   6.577   5.475
 4273SOL    HW213719   5.926   6.589   5.321
 4274SOL     OW13720   1.723   0.206   3.663
 4274SOL    HW113721   1.657   0.150   3.713
 4274SOL    HW213722   1.688   0.299   3.655
 4275SOL     OW13723   0.733   0.003   6.096
 4275SOL    HW113724   0.692   0.073   6.037
 4275SOL    HW213725   0.772   0.047   6.177
 4276SOL     OW13726   1.762   3.898   2.662
 4276SOL    HW113727   1.769   3.833   2.586
 4276SOL    HW213728   1.848   3.948   2.671
 4277SOL     OW13729   6.913   5.737   3.660
 4277SOL    HW113730   6.925   5.756   3.757
 4277SOL    HW213731   6.951   5.813   3.607
 4278SOL     OW13732   0.150   0.366   5.236
 4278SOL    HW113733   0.161   0.436   5.166
 4278SOL    HW213734   0.053   0.341   5.243
 4279SOL     OW13735   3.269   5.942   4.534
 4279SOL    HW113736   3.325   5.908   4.610
 4279SOL    HW213737   3.189   5.990   4.571
 4280SOL     OW13738   4.870   2.588   4.066
 4280SOL    HW113739   4.937   2.621   4.132
 4280SOL    HW213740   4.778   2.614   4.095
 4281SOL     OW13741   2.291   4.315   5.035
 4281SOL    HW113742   2.345   4.342   5.115
 4281SOL    HW213743   2.294   4.215   5.026
 4282SOL     OW13744   1.757   2.469   1.256
 4282SOL    HW113745   1.848   2.477   1.297
 4282SOL    HW213746   1.725   2.560   1.229
 4283SOL     OW13747   1.748   0.404   4.205
 4283SOL    HW113748   1.707   0.398   4.295
 4283SOL    HW213749   1.725   0.323   4.151
 4284SOL     OW13750   6.018   2.018   2.539
 4284SOL    HW113751   6.060   1.932   2.568
 4284SOL    HW213752   6.002   2.016   2.440
 4285SOL     OW13753   1.247   6.418   6.156
 4285SOL    HW113754   1.266   6.320   6.165
 4285SOL    HW213755   1.168   6.442   6.214
 4286SOL     OW13756   5.468   5.492   0.341
 4286SOL    HW113757   5.418   5.406   0.333
 4286SOL    HW213758   5.408   5.563   0.377
 4287SOL     OW13759   4.939   6.385   4.810
 4287SOL    HW113760   4.863   6.429   4.764
 4287SOL    HW213761   4.955   6.294   4.771
 4288SOL     OW13762   1.314   6.608   2.981
 4288SOL    HW113763   1.243   6.615   3.051
 4288SOL    HW213764   1.343   6.700   2.954
 4289SOL     OW13765   5.936   3.455   1.446
 4289SOL    HW113766   5.999   3.533   1.439
 4289SOL    HW213767   5.871   3.458   1.370
 4290SOL     OW13768   2.271   1.075   1.704
 4290SOL    HW113769   2.338   1.012   1.665
 4290SOL    HW213770   2.182   1.029   1.709
 4291SOL     OW13771   6.885   4.149   1.075
 4291SOL    HW113772   6.972   4.152   1.026
 4291SOL    HW213773   6.811   4.128   1.011
 4292SOL     OW13774   6.315   5.267   6.657
 4292SOL    HW113775   6.234   5.304   6.702
 4292SOL    HW213776   6.379   5.341   6.637
 4293SOL     OW13777   0.182   2.520   6.664
 4293SOL    HW113778   0.193   2.607   6.713
 4293SOL    HW213779   0.203   2.534   6.567
 4294SOL     OW13780   4.924   1.499   5.997
 4294SOL    HW113781   4.970   1.588   5.996
 4294SOL    HW213782   4.825   1.512   5.993
 4295SOL     OW13783   3.438   6.945   4.782
 4295SOL    HW113784   3.441   6.871   4.849
 4295SOL    HW213785   3.352   6.943   4.732
 4296SOL     OW13786   2.597   1.645   1.200
 4296SOL    HW113787   2.558   1.561   1.237
 4296SOL    HW213788   2.527   1.693   1.146
 4297SOL     OW13789   5.657   0.605   5.856
 4297SOL    HW113790   5.655   0.614   5.757
 4297SOL    HW213791   5.715   0.677   5.895
 4298SOL     OW13792   2.975   5.422   1.065
 4298SOL    HW113793   2.931   5.483   1.131
 4298SOL    HW213794   3.051   5.470   1.021
 4299SOL     OW13795   0.555   3.516   6.363
 4299SOL    HW113796   0.563   3.610   6.395
 4299SOL    HW213797   0.613   3.456   6.419
 4300SOL     OW13798   5.204   0.831   6.529
 4300SOL    HW113799   5.218   0.896   6.604
 4300SOL    HW213800   5.256   0.861   6.449
 4301SOL     OW13801   3.079   1.558   0.546
 4301SOL    HW113802   3.006   1.599   0.601
 4301SOL    HW213803   3.132   1.494   0.602
 4302SOL     OW13804   0.895   6.100   6.873
 4302SOL    HW113805   0.916   6.151   6.790
 4302SOL    HW213806   0.967   6.032   6.890
 4303SOL     OW13807   0.040   3.071   2.072
 4303SOL    HW113808   0.123   3.126   2.062
 4303SOL    HW213809   0.028   3.047   2.168
 4304SOL     OW13810   2.933   3.249   4.163
 4304SOL    HW113811   3.002   3.183   4.133
 4304SOL    HW213812   2.842   3.217   4.138
 4305SOL     OW13813   5.982   1.889   3.531
 4305SOL    HW113814   5.960   1.968   3.475
 4305SOL    HW213815   5.901   1.832   3.542
 4306SOL     OW13816   6.652   5.062   5.835
 4306SOL    HW113817   6.573   5.051   5.776
 4306SOL    HW213818   6.637   5.140   5.896
 4307SOL     OW13819   5.470   3.672   6.141
 4307SOL    HW113820   5.502   3.655   6.234
 4307SOL    HW213821   5.548   3.682   6.080
 4308SOL     OW13822   5.287   6.038   4.366
 4308SOL    HW113823   5.220   6.031   4.292
 4308SOL    HW213824   5.261   5.976   4.440
 4309SOL     OW13825   1.635   1.631   1.146
 4309SOL    HW113826   1.662   1.585   1.061
 4309SOL    HW213827   1.669   1.726   1.144
 4310SOL     OW13828   1.598   1.343   2.867
 4310SOL    HW113829   1.613   1.420   2.928
 4310SOL    HW213830   1.513   1.296   2.891
 4311SOL     OW13831   1.747   6.527   3.692
 4311SOL    HW113832   1.754   6.626   3.704
 4311SOL    HW213833   1.780   6.502   3.601
 4312SOL     OW13834   2.292   5.407   1.995
 4312SOL    HW113835   2.363   5.470   2.025
 4312SOL    HW213836   2.334   5.329   1.948
 4313SOL     OW13837   4.984   0.705   2.527
 4313SOL    HW113838   4.896   0.664   2.549
 4313SOL    HW213839   5.020   0.753   2.608
 4314SOL     OW13840   4.756   2.863   2.547
 4314SOL    HW113841   4.773   2.881   2.644
 4314SOL    HW213842   4.772   2.947   2.494
 4315SOL     OW13843   2.236   1.484   2.123
 4315SOL    HW113844   2.316   1.480   2.062
 4315SOL    HW213845   2.183   1.400   2.113
 4316SOL     OW13846   5.961   6.988   2.179
 4316SOL    HW113847   5.874   7.018   2.141
 4316SOL    HW213848   6.026   0.044   2.178
 4317SOL     OW13849   4.106   1.293   3.430
 4317SOL    HW113850   4.099   1.379   3.379
 4317SOL    HW213851   4.043   1.226   3.392
 4318SOL     OW13852   0.197   2.321   4.046
 4318SOL    HW113853   0.226   2.342   4.139
 4318SOL    HW213854   0.151   2.232   4.044
 4319SOL     OW13855   2.348   3.359   6.041
 4319SOL    HW113856   2.288   3.366   6.120
 4319SOL    HW213857   2.418   3.430   6.046
 4320SOL     OW13858   0.267   5.887   2.610
 4320SOL    HW113859   0.251   5.932   2.698
 4320SOL    HW213860   0.186   5.899   2.551
 4321SOL     OW13861   0.478   0.246   5.193
 4321SOL    HW113862   0.536   0.191   5.253
 4321SOL    HW213863   0.388   0.258   5.234
 4322SOL     OW13864   6.155   1.078   0.141
 4322SOL    HW113865   6.182   0.982   0.143
 4322SOL    HW213866   6.227   1.132   0.096
 4323SOL     OW13867   6.939   3.331   2.984
 4323SOL    HW113868   7.013   3.399   2.992
 4323SOL    HW213869   6.963   3.250   3.038
 4324SOL     OW13870   5.658   4.133   5.803
 4324SOL    HW113871   5.671   4.216   5.749
 4324SOL    HW213872   5.570   4.138   5.851
 4325SOL     OW13873   2.048   1.693   0.076
 4325SOL    HW113874   2.076   1.789   0.088
 4325SOL    HW213875   1.948   1.690   0.063
 4326SOL     OW13876   6.091   2.086   4.877
 4326SOL    HW113877   6.051   2.044   4.959
 4326SOL    HW213878   6.112   2.182   4.895
 4327SOL     OW13879   5.741   6.789   2.644
 4327SOL    HW113880   5.672   6.736   2.692
 4327SOL    HW213881   5.726   6.782   2.545
 4328SOL     OW13882   5.657   5.102   0.580
 4328SOL    HW113883   5.698   5.100   0.489
 4328SOL    HW213884   5.683   5.018   0.629
 4329SOL     OW13885   3.815   1.577   5.781
 4329SOL    HW113886   3.765   1.632   5.714
 4329SOL    HW213887   3.767   1.581   5.869
 4330SOL     OW13888   1.337   0.656   6.245
 4330SOL    HW113889   1.269   0.589   6.216
 4330SOL    HW213890   1.410   0.610   6.294
 4331SOL     OW13891   5.792   2.925   6.980
 4331SOL    HW113892   5.708   2.928   0.013
 4331SOL    HW213893   5.821   2.830   6.967
 4332SOL     OW13894   5.274   2.973   1.460
 4332SOL    HW113895   5.333   2.959   1.540
 4332SOL    HW213896   5.305   3.054   1.409
 4333SOL     OW13897   5.203   0.513   4.981
 4333SOL    HW113898   5.197   0.613   4.988
 4333SOL    HW213899   5.263   0.488   4.905
 4334SOL     OW13900   4.364   1.078   2.263
 4334SOL    HW113901   4.299   1.003   2.250
 4334SOL    HW213902   4.415   1.064   2.348
 4335SOL     OW13903   3.438   3.966   5.112
 4335SOL    HW113904   3.464   3.985   5.017
 4335SOL    HW213905   3.428   4.052   5.162
 4336SOL     OW13906   1.382   6.144   4.506
 4336SOL    HW113907   1.338   6.226   4.470
 4336SOL    HW213908   1.333   6.063   4.474
 4337SOL     OW13909   7.001   5.408   0.929
 4337SOL    HW113910   6.906   5.433   0.915
 4337SOL    HW213911   0.037   5.445   0.854
 4338SOL     OW13912   6.595   6.272   4.250
 4338SOL    HW113913   6.516   6.255   4.190
 4338SOL    HW213914   6.646   6.187   4.262
 4339SOL     OW13915   6.120   1.428   6.033
 4339SOL    HW113916   6.139   1.332   6.012
 4339SOL    HW213917   6.100   1.438   6.130
 4340SOL     OW13918   4.789   3.685   1.812
 4340SOL    HW113919   4.768   3.587   1.811
 4340SOL    HW213920   4.814   3.715   1.720
 4341SOL     OW13921   1.048   4.383   0.672
 4341SOL    HW113922   1.024   4.359   0.578
 4341SOL    HW213923   1.117   4.456   0.671
 4342SOL     OW13924   0.495   3.203   2.892
 4342SOL    HW113925   0.451   3.125   2.937
 4342SOL    HW213926   0.457   3.215   2.801
 4343SOL     OW13927   2.590   1.331   1.282
 4343SOL    HW113928   2.596   1.353   1.380
 4343SOL    HW213929   2.494   1.318   1.257
 4344SOL     OW13930   2.121   5.169   3.166
 4344SOL    HW113931   2.174   5.252   3.152
 4344SOL    HW213932   2.026   5.185   3.139
 4345SOL     OW13933   1.583   1.911   6.172
 4345SOL    HW113934   1.592   1.903   6.073
 4345SOL    HW213935   1.512   1.978   6.194
 4346SOL     OW13936   2.086   3.276   2.118
 4346SOL    HW113937   2.134   3.358   2.089
 4346SOL    HW213938   1.994   3.275   2.077
 4347SOL     OW13939   5.792   6.486   2.914
 4347SOL    HW113940   5.790   6.502   3.012
 4347SOL    HW213941   5.858   6.549   2.871
 4348SOL     OW13942   1.606   3.956   6.540
 4348SOL    HW113943   1.509   3.961   6.566
 4348SOL    HW213944   1.615   3.897   6.459
 4349SOL     OW13945   6.911   0.433   3.268
 4349SOL    HW113946   6.991   0.488   3.247
 4349SOL    HW213947   6.829   0.480   3.237
 4350SOL     OW13948   5.050   1.900   3.596
 4350SOL    HW113949   5.094   1.905   3.686
 4350SOL    HW213950   5.104   1.952   3.530
 4351SOL     OW13951   2.876   5.980   1.317
 4351SOL    HW113952   2.824   6.060   1.347
 4351SOL    HW213953   2.938   5.951   1.390
 4352SOL     OW13954   6.378   1.156   1.878
 4352SOL    HW113955   6.356   1.215   1.955
 4352SOL    HW213956   6.477   1.157   1.861
 4353SOL     OW13957   3.930   5.527   6.701
 4353SOL    HW113958   3.897   5.436   6.727
 4353SOL    HW213959   3.975   5.569   6.780
 4354SOL     OW13960   2.116   0.801   0.786
 4354SOL    HW113961   2.114   0.876   0.852
 4354SOL    HW213962   2.204   0.754   0.791
 4355SOL     OW13963   5.089   1.019   0.757
 4355SOL    HW113964   5.069   1.084   0.684
 4355SOL    HW213965   5.004   0.993   0.804
 4356SOL     OW13966   4.083   4.737   0.676
 4356SOL    HW113967   4.138   4.781   0.605
 4356SOL    HW213968   4.121   4.760   0.766
 4357SOL     OW13969   6.141   0.762   0.013
 4357SOL    HW113970   6.148   0.714   0.100
 4357SOL    HW213971   6.071   0.719   6.977
 4358SOL     OW13972   0.968   0.197   1.974
 4358SOL    HW113973   0.937   0.282   1.932
 4358SOL    HW213974   0.936   0.120   1.919
 4359SOL     OW13975   6.464   2.557   3.933
 4359SOL    HW113976   6.538   2.625   3.931
 4359SOL    HW213977   6.486   2.482   3.870
 4360SOL     OW13978   1.515   3.196   1.289
 4360SOL    HW113979   1.469   3.108   1.283
 4360SOL    HW213980   1.474   3.250   1.363
 4361SOL     OW13981   5.111   1.900   1.869
 4361SOL    HW113982   5.134   1.804   1.880
 4361SOL    HW213983   5.019   1.917   1.904
 4362SOL     OW13984   5.971   4.289   4.258
 4362SOL    HW113985   5.936   4.269   4.167
 4362SOL    HW213986   6.050   4.230   4.278
 4363SOL     OW13987   5.283   2.124   6.529
 4363SOL    HW113988   5.333   2.210   6.545
 4363SOL    HW213989   5.324   2.051   6.584
 4364SOL     OW13990   3.390   3.871   4.655
 4364SOL    HW113991   3.400   3.913   4.745
 4364SOL    HW213992   3.317   3.917   4.605
 4365SOL     OW13993   3.598   1.298   1.826
 4365SOL    HW113994   3.656   1.306   1.908
 4365SOL    HW213995   3.619   1.374   1.764
 4366SOL     OW13996   6.043   5.484   1.204
 4366SOL    HW113997   6.057   5.477   1.106
 4366SOL    HW213998   6.020   5.393   1.241
 4367SOL     OW13999   1.512   6.246   6.491
 4367SOL    HW114000   1.492   6.169   6.552
 4367SOL    HW214001   1.569   6.313   6.539
 4368SOL     OW14002   5.649   3.955   1.872
 4368SOL    HW114003   5.609   3.885   1.930
 4368SOL    HW214004   5.638   3.930   1.776
 4369SOL     OW14005   4.087   5.557   1.824
 4369SOL    HW114006   4.150   5.581   1.750
 4369SOL    HW214007   4.120   5.474   1.870
 4370SOL     OW14008   5.902   4.747   2.970
 4370SOL    HW114009   5.887   4.699   3.057
 4370SOL    HW214010   5.960   4.827   2.986
 4371SOL     OW14011   6.142   2.233   1.754
 4371SOL    HW114012   6.118   2.254   1.849
 4371SOL    HW214013   6.222   2.173   1.753
 4372SOL     OW14014   4.141   0.672   2.974
 4372SOL    HW114015   4.174   0.741   3.039
 4372SOL    HW214016   4.163   0.702   2.881
 4373SOL     OW14017   6.875   2.179   6.340
 4373SOL    HW114018   6.824   2.099   6.372
 4373SOL    HW214019   6.812   2.253   6.320
 4374SOL     OW14020   2.486   2.412   1.492
 4374SOL    HW114021   2.515   2.390   1.585
 4374SOL    HW214022   2.543   2.362   1.427
 4375SOL     OW14023   2.771   6.810   4.380
 4375SOL    HW114024   2.790   6.819   4.282
 4375SOL    HW214025   2.675   6.787   4.393
 4376SOL     OW14026   5.686   1.227   3.493
 4376SOL    HW114027   5.661   1.130   3.491
 4376SOL    HW214028   5.744   1.248   3.415
 4377SOL     OW14029   5.314   4.628   6.426
 4377SOL    HW114030   5.371   4.658   6.350
 4377SOL    HW214031   5.277   4.708   6.474
 4378SOL     OW14032   1.973   0.854   3.901
 4378SOL    HW114033   1.920   0.873   3.984
 4378SOL    HW214034   2.071   0.851   3.924
 4379SOL     OW14035   2.459   2.206   5.250
 4379SOL    HW114036   2.453   2.222   5.152
 4379SOL    HW214037   2.520   2.275   5.291
 4380SOL     OW14038   0.278   0.993   1.749
 4380SOL    HW114039   0.353   1.005   1.683
 4380SOL    HW214040   0.191   1.016   1.705
 4381SOL     OW14041   1.934   6.049   5.974
 4381SOL    HW114042   1.912   6.146   5.960
 4381SOL    HW214043   2.015   6.042   6.031
 4382SOL     OW14044   0.087   2.906   5.279
 4382SOL    HW114045   0.177   2.944   5.298
 4382SOL    HW214046   0.088   2.860   5.191
 4383SOL     OW14047   5.948   2.839   0.174
 4383SOL    HW114048   6.040   2.807   0.152
 4383SOL    HW214049   5.919   2.907   0.107
 4384SOL     OW14050   5.953   6.530   4.127
 4384SOL    HW114051   5.907   6.599   4.183
 4384SOL    HW214052   6.052   6.544   4.131
 4385SOL     OW14053   5.267   1.376   5.124
 4385SOL    HW114054   5.308   1.391   5.034
 4385SOL    HW214055   5.176   1.416   5.127
 4386SOL     OW14056   1.280   3.384   4.972
 4386SOL    HW114057   1.279   3.290   4.938
 4386SOL    HW214058   1.200   3.399   5.031
 4387SOL     OW14059   6.699   2.256   0.650
 4387SOL    HW114060   6.666   2.210   0.732
 4387SOL    HW214061   6.792   2.224   0.630
 4388SOL     OW14062   5.743   2.684   6.681
 4388SOL    HW114063   5.777   2.656   6.770
 4388SOL    HW214064   5.646   2.709   6.688
 4389SOL     OW14065   0.727   3.612   1.345
 4389SOL    HW114066   0.775   3.645   1.263
 4389SOL    HW214067   0.731   3.683   1.416
 4390SOL     OW14068   6.578   1.277   1.378
 4390SOL    HW114069   6.659   1.290   1.435
 4390SOL    HW214070   6.605   1.270   1.282
 4391SOL     OW14071   2.092   6.227   6.973
 4391SOL    HW114072   2.022   6.278   6.923
 4391SOL    HW214073   2.138   6.164   6.911
 4392SOL     OW14074   1.804   2.334   5.323
 4392SOL    HW114075   1.885   2.386   5.295
 4392SOL    HW214076   1.729   2.398   5.342
 4393SOL     OW14077   4.840   0.795   2.073
 4393SOL    HW114078   4.783   0.870   2.038
 4393SOL    HW214079   4.902   0.830   2.143
 4394SOL     OW14080   1.051   0.619   1.977
 4394SOL    HW114081   0.976   0.570   1.933
 4394SOL    HW214082   1.065   0.707   1.932
 4395SOL     OW14083   2.745   5.382   1.258
 4395SOL    HW114084   2.796   5.296   1.272
 4395SOL    HW214085   2.649   5.368   1.284
 4396SOL     OW14086   2.512   0.120   3.295
 4396SOL    HW114087   2.484   0.028   3.268
 4396SOL    HW214088   2.563   0.115   3.381
 4397SOL     OW14089   3.222   1.592   4.241
 4397SOL    HW114090   3.266   1.521   4.186
 4397SOL    HW214091   3.279   1.675   4.241
 4398SOL     OW14092   1.895   2.812   4.894
 4398SOL    HW114093   1.818   2.823   4.831
 4398SOL    HW214094   1.898   2.717   4.925
 4399SOL     OW14095   2.825   6.857   2.364
 4399SOL    HW114096   2.832   6.945   2.317
 4399SOL    HW214097   2.842   6.783   2.299
 4400SOL     OW14098   1.602   5.554   4.543
 4400SOL    HW114099   1.663   5.603   4.482
 4400SOL    HW214100   1.638   5.462   4.561
 4401SOL     OW14101   3.954   0.396   6.474
 4401SOL    HW114102   4.005   0.392   6.560
 4401SOL    HW214103   3.956   0.490   6.438
 4402SOL     OW14104   1.166   1.024   3.157
 4402SOL    HW114105   1.146   1.059   3.065
 4402SOL    HW214106   1.158   0.924   3.157
 4403SOL     OW14107   1.368   5.132   1.460
 4403SOL    HW114108   1.305   5.182   1.400
 4403SOL    HW214109   1.452   5.185   1.472
 4404SOL     OW14110   0.828   6.834   5.946
 4404SOL    HW114111   0.837   6.910   6.010
 4404SOL    HW214112   0.732   6.809   5.936
 4405SOL     OW14113   1.786   5.441   3.077
 4405SOL    HW114114   1.743   5.411   3.162
 4405SOL    HW214115   1.847   5.369   3.043
 4406SOL     OW14116   6.474   3.847   1.847
 4406SOL    HW114117   6.384   3.889   1.862
 4406SOL    HW214118   6.507   3.807   1.933
 4407SOL     OW14119   5.556   6.050   1.974
 4407SOL    HW114120   5.625   5.987   2.010
 4407SOL    HW214121   5.555   6.045   1.874
 4408SOL     OW14122   4.525   0.874   0.391
 4408SOL    HW114123   4.576   0.953   0.424
 4408SOL    HW214124   4.500   0.889   0.296
 4409SOL     OW14125   2.997   0.305   3.264
 4409SOL    HW114126   3.004   0.403   3.281
 4409SOL    HW214127   2.911   0.270   3.300
 4410SOL     OW14128   1.443   6.588   1.093
 4410SOL    HW114129   1.490   6.530   1.159
 4410SOL    HW214130   1.345   6.590   1.115
 4411SOL     OW14131   3.460   4.554   5.301
 4411SOL    HW114132   3.548   4.521   5.265
 4411SOL    HW214133   3.409   4.477   5.340
 4412SOL     OW14134   4.538   6.168   2.663
 4412SOL    HW114135   4.524   6.236   2.734
 4412SOL    HW214136   4.579   6.086   2.703
 4413SOL     OW14137   4.316   6.145   3.973
 4413SOL    HW114138   4.267   6.060   3.954
 4413SOL    HW214139   4.410   6.138   3.939
 4414SOL     OW14140   4.361   4.224   1.461
 4414SOL    HW114141   4.349   4.312   1.415
 4414SOL    HW214142   4.295   4.217   1.536
 4415SOL     OW14143   2.251   3.047   1.248
 4415SOL    HW114144   2.320   3.027   1.318
 4415SOL    HW214145   2.196   3.125   1.277
 4416SOL     OW14146   4.451   2.384   3.404
 4416SOL    HW114147   4.360   2.403   3.366
 4416SOL    HW214148   4.443   2.322   3.482
 4417SOL     OW14149   0.325   4.141   3.199
 4417SOL    HW114150   0.293   4.124   3.106
 4417SOL    HW214151   0.325   4.239   3.217
 4418SOL     OW14152   6.583   6.697   5.883
 4418SOL    HW114153   6.555   6.763   5.953
 4418SOL    HW214154   6.505   6.637   5.861
 4419SOL     OW14155   5.937   5.630   6.223
 4419SOL    HW114156   5.962   5.663   6.314
 4419SOL    HW214157   5.861   5.566   6.230
 4420SOL     OW14158   3.718   2.154   0.756
 4420SOL    HW114159   3.706   2.121   0.849
 4420SOL    HW214160   3.740   2.252   0.758
 4421SOL     OW14161   1.330   2.158   5.994
 4421SOL    HW114162   1.318   2.083   5.929
 4421SOL    HW214163   1.243   2.177   6.039
 4422SOL     OW14164   6.730   3.591   6.654
 4422SOL    HW114165   6.762   3.535   6.731
 4422SOL    HW214166   6.804   3.600   6.587
 4423SOL     OW14167   5.470   4.124   4.823
 4423SOL    HW114168   5.388   4.176   4.847
 4423SOL    HW214169   5.521   4.173   4.752
 4424SOL     OW14170   4.903   5.877   3.180
 4424SOL    HW114171   4.909   5.977   3.181
 4424SOL    HW214172   4.953   5.840   3.258
 4425SOL     OW14173   1.696   5.249   1.618
 4425SOL    HW114174   1.796   5.252   1.619
 4425SOL    HW214175   1.661   5.315   1.552
 4426SOL     OW14176   0.566   0.271   4.928
 4426SOL    HW114177   0.488   0.262   4.866
 4426SOL    HW214178   0.541   0.236   5.018
 4427SOL     OW14179   2.461   6.068   2.999
 4427SOL    HW114180   2.518   5.996   3.039
 4427SOL    HW214181   2.424   6.036   2.912
 4428SOL     OW14182   5.268   6.975   3.152
 4428SOL    HW114183   5.178   6.984   3.196
 4428SOL    HW214184   5.332   6.931   3.215
 4429SOL     OW14185   2.390   5.794   3.297
 4429SOL    HW114186   2.485   5.818   3.278
 4429SOL    HW214187   2.385   5.737   3.379
 4430SOL     OW14188   4.700   3.963   5.533
 4430SOL    HW114189   4.622   4.014   5.497
 4430SOL    HW214190   4.670   3.871   5.560
 4431SOL     OW14191   3.229   6.762   3.790
 4431SOL    HW114192   3.184   6.741   3.703
 4431SOL    HW214193   3.324   6.732   3.787
 4432SOL     OW14194   0.960   3.573   5.886
 4432SOL    HW114195   0.961   3.544   5.982
 4432SOL    HW214196   1.002   3.664   5.879
 4433SOL     OW14197   0.296   0.944   5.611
 4433SOL    HW114198   0.317   0.969   5.516
 4433SOL    HW214199   0.320   1.020   5.671
 4434SOL     OW14200   0.085   0.327   2.454
 4434SOL    HW114201   0.056   0.420   2.473
 4434SOL    HW214202   0.056   0.267   2.528
 4435SOL     OW14203   2.159   4.154   0.289
 4435SOL    HW114204   2.209   4.232   0.251
 4435SOL    HW214205   2.155   4.081   0.222
 4436SOL     OW14206   4.259   1.895   1.771
 4436SOL    HW114207   4.297   1.819   1.824
 4436SOL    HW214208   4.181   1.862   1.717
 4437SOL     OW14209   6.749   4.066   0.432
 4437SOL    HW114210   6.803   4.130   0.377
 4437SOL    HW214211   6.672   4.032   0.379
 4438SOL     OW14212   3.469   0.569   5.733
 4438SOL    HW114213   3.550   0.627   5.727
 4438SOL    HW214214   3.387   0.625   5.724
 4439SOL     OW14215   2.491   6.649   2.630
 4439SOL    HW114216   2.441   6.662   2.716
 4439SOL    HW214217   2.579   6.606   2.650
 4440SOL     OW14218   1.482   5.285   0.460
 4440SOL    HW114219   1.447   5.288   0.554
 4440SOL    HW214220   1.500   5.378   0.427
 4441SOL     OW14221   0.311   1.438   0.313
 4441SOL    HW114222   0.273   1.353   0.275
 4441SOL    HW214223   0.243   1.480   0.373
 4442SOL     OW14224   1.662   4.689   6.544
 4442SOL    HW114225   1.643   4.665   6.639
 4442SOL    HW214226   1.612   4.629   6.483
 4443SOL     OW14227   0.661   5.509   6.114
 4443SOL    HW114228   0.688   5.579   6.181
 4443SOL    HW214229   0.630   5.554   6.030
 4444SOL     OW14230   5.492   4.760   0.236
 4444SOL    HW114231   5.472   4.704   0.317
 4444SOL    HW214232   5.467   4.855   0.255
 4445SOL     OW14233   0.010   5.143   0.315
 4445SOL    HW114234   0.043   5.054   0.282
 4445SOL    HW214235   0.050   5.216   0.260
 4446SOL     OW14236   5.098   1.277   0.888
 4446SOL    HW114237   5.109   1.192   0.837
 4446SOL    HW214238   5.179   1.293   0.945
 4447SOL     OW14239   4.781   5.446   5.877
 4447SOL    HW114240   4.692   5.415   5.910
 4447SOL    HW214241   4.767   5.510   5.801
 4448SOL     OW14242   3.768   6.219   2.086
 4448SOL    HW114243   3.695   6.167   2.043
 4448SOL    HW214244   3.765   6.314   2.054
 4449SOL     OW14245   3.449   1.361   5.657
 4449SOL    HW114246   3.527   1.334   5.601
 4449SOL    HW214247   3.482   1.412   5.737
 4450SOL     OW14248   3.754   6.732   0.533
 4450SOL    HW114249   3.725   6.664   0.466
 4450SOL    HW214250   3.765   6.821   0.488
 4451SOL     OW14251   5.294   4.427   2.770
 4451SOL    HW114252   5.262   4.522   2.767
 4451SOL    HW214253   5.233   4.370   2.715
 4452SOL     OW14254   4.530   6.445   4.495
 4452SOL    HW114255   4.439   6.418   4.466
 4452SOL    HW214256   4.569   6.509   4.428
 4453SOL     OW14257   6.611   4.089   0.963
 4453SOL    HW114258   6.521   4.115   0.928
 4453SOL    HW214259   6.602   4.049   1.054
 4454SOL     OW14260   1.138   2.458   6.604
 4454SOL    HW114261   1.100   2.410   6.684
 4454SOL    HW214262   1.237   2.460   6.611
 4455SOL     OW14263   0.608   6.559   5.430
 4455SOL    HW114264   0.707   6.573   5.419
 4455SOL    HW214265   0.581   6.476   5.382
 4456SOL     OW14266   2.209   0.128   4.826
 4456SOL    HW114267   2.214   0.171   4.736
 4456SOL    HW214268   2.131   0.165   4.876
 4457SOL     OW14269   1.560   2.190   5.011
 4457SOL    HW114270   1.603   2.142   5.088
 4457SOL    HW214271   1.618   2.265   4.982
 4458SOL     OW14272   1.551   3.826   6.848
 4458SOL    HW114273   1.527   3.729   6.850
 4458SOL    HW214274   1.648   3.836   6.826
 4459SOL     OW14275   0.701   2.849   2.813
 4459SOL    HW114276   0.602   2.835   2.805
 4459SOL    HW214277   0.741   2.772   2.862
 4460SOL     OW14278   6.784   2.736   4.511
 4460SOL    HW114279   6.751   2.644   4.533
 4460SOL    HW214280   6.876   2.730   4.472
 4461SOL     OW14281   2.551   0.926   1.109
 4461SOL    HW114282   2.615   0.854   1.134
 4461SOL    HW214283   2.539   0.927   1.010
 4462SOL     OW14284   6.480   4.660   3.215
 4462SOL    HW114285   6.543   4.734   3.193
 4462SOL    HW214286   6.523   4.572   3.196
 4463SOL     OW14287   5.966   1.575   0.529
 4463SOL    HW114288   5.975   1.475   0.533
 4463SOL    HW214289   5.973   1.612   0.622
 4464SOL     OW14290   0.281   5.634   1.044
 4464SOL    HW114291   0.318   5.678   0.962
 4464SOL    HW214292   0.348   5.569   1.080
 4465SOL     OW14293   3.110   5.567   0.832
 4465SOL    HW114294   3.135   5.627   0.909
 4465SOL    HW214295   3.192   5.546   0.779
 4466SOL     OW14296   1.786   2.506   3.400
 4466SOL    HW114297   1.858   2.575   3.396
 4466SOL    HW214298   1.822   2.419   3.365
 4467SOL     OW14299   4.310   5.940   3.382
 4467SOL    HW114300   4.383   5.942   3.314
 4467SOL    HW214301   4.270   6.030   3.391
 4468SOL     OW14302   1.880   2.851   1.821
 4468SOL    HW114303   1.910   2.928   1.878
 4468SOL    HW214304   1.927   2.854   1.733
 4469SOL     OW14305   3.378   6.212   1.377
 4469SOL    HW114306   3.393   6.178   1.470
 4469SOL    HW214307   3.421   6.149   1.312
 4470SOL     OW14308   2.170   6.785   2.908
 4470SOL    HW114309   2.095   6.719   2.920
 4470SOL    HW214310   2.255   6.736   2.893
 4471SOL     OW14311   1.377   1.069   6.375
 4471SOL    HW114312   1.325   1.154   6.373
 4471SOL    HW214313   1.470   1.088   6.407
 4472SOL     OW14314   1.682   2.723   1.114
 4472SOL    HW114315   1.699   2.817   1.143
 4472SOL    HW214316   1.768   2.682   1.084
 4473SOL     OW14317   0.829   2.679   4.231
 4473SOL    HW114318   0.816   2.601   4.170
 4473SOL    HW214319   0.739   2.713   4.260
 4474SOL     OW14320   2.798   5.694   0.508
 4474SOL    HW114321   2.865   5.768   0.507
 4474SOL    HW214322   2.760   5.681   0.416
 4475SOL     OW14323   1.394   3.925   1.129
 4475SOL    HW114324   1.353   3.864   1.062
 4475SOL    HW214325   1.325   3.991   1.161
 4476SOL     OW14326   4.821   1.136   3.617
 4476SOL    HW114327   4.744   1.104   3.563
 4476SOL    HW214328   4.901   1.078   3.599
 4477SOL     OW14329   1.617   1.031   4.870
 4477SOL    HW114330   1.559   0.981   4.935
 4477SOL    HW214331   1.627   0.977   4.786
 4478SOL     OW14332   1.716   0.395   0.564
 4478SOL    HW114333   1.670   0.435   0.644
 4478SOL    HW214334   1.703   0.455   0.485
 4479SOL     OW14335   1.054   2.764   0.204
 4479SOL    HW114336   1.028   2.709   0.125
 4479SOL    HW214337   0.976   2.773   0.266
 4480SOL     OW14338   1.005   6.415   4.038
 4480SOL    HW114339   0.949   6.342   3.999
 4480SOL    HW214340   0.997   6.413   4.138
 4481SOL     OW14341   2.093   3.673   6.149
 4481SOL    HW114342   2.068   3.708   6.059
 4481SOL    HW214343   2.188   3.641   6.147
 4482SOL     OW14344   2.359   6.221   0.133
 4482SOL    HW114345   2.299   6.144   0.155
 4482SOL    HW214346   2.318   6.306   0.166
 4483SOL     OW14347   1.342   2.939   0.570
 4483SOL    HW114348   1.322   2.939   0.472
 4483SOL    HW214349   1.426   2.990   0.587
 4484SOL     OW14350   2.579   2.178   0.303
 4484SOL    HW114351   2.517   2.224   0.239
 4484SOL    HW214352   2.649   2.129   0.251
 4485SOL     OW14353   6.031   2.626   5.168
 4485SOL    HW114354   5.946   2.648   5.216
 4485SOL    HW214355   6.024   2.655   5.072
 4486SOL     OW14356   4.342   4.956   4.867
 4486SOL    HW114357   4.327   4.918   4.958
 4486SOL    HW214358   4.266   4.933   4.807
 4487SOL     OW14359   0.708   3.146   6.878
 4487SOL    HW114360   0.787   3.087   6.858
 4487SOL    HW214361   0.626   3.090   6.888
 4488SOL     OW14362   6.970   4.285   3.921
 4488SOL    HW114363   6.949   4.257   3.828
 4488SOL    HW214364   0.039   4.330   3.923
 4489SOL     OW14365   4.609   5.884   5.703
 4489SOL    HW114366   4.673   5.948   5.660
 4489SOL    HW214367   4.544   5.935   5.759
 4490SOL     OW14368   5.223   1.684   1.554
 4490SOL    HW114369   5.233   1.707   1.457
 4490SOL    HW214370   5.133   1.645   1.570
 4491SOL     OW14371   1.194   3.271   3.678
 4491SOL    HW114372   1.231   3.272   3.585
 4491SOL    HW214373   1.180   3.364   3.710
 4492SOL     OW14374   6.399   0.302   2.327
 4492SOL    HW114375   6.421   0.391   2.368
 4492SOL    HW214376   6.368   0.316   2.233
 4493SOL     OW14377   5.241   1.764   4.756
 4493SOL    HW114378   5.209   1.803   4.669
 4493SOL    HW214379   5.329   1.719   4.741
 4494SOL     OW14380   1.360   0.788   0.869
 4494SOL    HW114381   1.358   0.797   0.769
 4494SOL    HW214382   1.453   0.805   0.902
 4495SOL     OW14383   4.646   5.749   1.315
 4495SOL    HW114384   4.671   5.846   1.310
 4495SOL    HW214385   4.677   5.702   1.233
 4496SOL     OW14386   3.668   5.966   6.602
 4496SOL    HW114387   3.653   6.052   6.553
 4496SOL    HW214388   3.582   5.936   6.644
 4497SOL     OW14389   4.570   1.215   6.159
 4497SOL    HW114390   4.575   1.305   6.203
 4497SOL    HW214391   4.564   1.144   6.229
 4498SOL     OW14392   0.310   5.479   5.129
 4498SOL    HW114393   0.270   5.571   5.123
 4498SOL    HW214394   0.242   5.412   5.100
 4499SOL     OW14395   5.903   2.200   2.700
 4499SOL    HW114396   5.932   2.122   2.645
 4499SOL    HW214397   5.955   2.202   2.785
 4500SOL     OW14398   3.795   5.355   6.895
 4500SOL    HW114399   3.790   5.255   6.902
 4500SOL    HW214400   3.798   5.395   6.987
 4501SOL     OW14401   6.027   0.538   2.766
 4501SOL    HW114402   6.061   0.480   2.692
 4501SOL    HW214403   5.931   0.517   2.784
 4502SOL     OW14404   6.945   3.803   6.520
 4502SOL    HW114405   6.861   3.854   6.502
 4502SOL    HW214406   6.966   3.807   6.618
 4503SOL     OW14407   3.060   0.890   2.879
 4503SOL    HW114408   3.072   0.813   2.941
 4503SOL    HW214409   3.136   0.893   2.814
 4504SOL     OW14410   6.777   1.203   2.653
 4504SOL    HW114411   6.785   1.143   2.573
 4504SOL    HW214412   6.727   1.156   2.725
 4505SOL     OW14413   5.486   4.825   4.058
 4505SOL    HW114414   5.449   4.828   3.965
 4505SOL    HW214415   5.583   4.848   4.056
 4506SOL     OW14416   5.132   2.304   5.584
 4506SOL    HW114417   5.131   2.376   5.654
 4506SOL    HW214418   5.218   2.308   5.534
 4507SOL     OW14419   6.180   3.051   3.399
 4507SOL    HW114420   6.209   2.967   3.353
 4507SOL    HW214421   6.244   3.072   3.473
 4508SOL     OW14422   0.495   5.719   0.865
 4508SOL    HW114423   0.556   5.672   0.801
 4508SOL    HW214424   0.411   5.745   0.818
 4509SOL     OW14425   4.920   2.839   1.935
 4509SOL    HW114426   4.869   2.915   1.974
 4509SOL    HW214427   4.986   2.805   2.002
 4510SOL     OW14428   4.004   0.677   3.842
 4510SOL    HW114429   4.019   0.736   3.762
 4510SOL    HW214430   4.081   0.613   3.850
 4511SOL     OW14431   0.352   4.403   0.412
 4511SOL    HW114432   0.384   4.313   0.442
 4511SOL    HW214433   0.257   4.395   0.379
 4512SOL     OW14434   3.104   3.198   5.535
 4512SOL    HW114435   3.068   3.278   5.486
 4512SOL    HW214436   3.135   3.130   5.469
 4513SOL     OW14437   1.164   6.568   1.116
 4513SOL    HW114438   1.106   6.533   1.190
 4513SOL    HW214439   1.111   6.572   1.031
 4514SOL     OW14440   3.403   4.540   6.640
 4514SOL    HW114441   3.339   4.492   6.580
 4514SOL    HW214442   3.489   4.490   6.644
 4515SOL     OW14443   4.647   0.899   6.016
 4515SOL    HW114444   4.716   0.960   6.055
 4515SOL    HW214445   4.692   0.823   5.970
 4516SOL     OW14446   3.400   1.764   5.502
 4516SOL    HW114447   3.354   1.800   5.421
 4516SOL    HW214448   3.351   1.793   5.584
 4517SOL     OW14449   3.626   0.887   5.438
 4517SOL    HW114450   3.638   0.978   5.400
 4517SOL    HW214451   3.635   0.819   5.365
 4518SOL     OW14452   0.857   6.724   1.442
 4518SOL    HW114453   0.778   6.662   1.440
 4518SOL    HW214454   0.901   6.723   1.352
 4519SOL     OW14455   4.726   6.923   6.924
 4519SOL    HW114456   4.744   6.928   6.826
 4519SOL    HW214457   4.736   7.014   6.965
 4520SOL     OW14458   4.005   5.323   5.330
 4520SOL    HW114459   3.961   5.412   5.344
 4520SOL    HW214460   4.104   5.332   5.340
 4521SOL     OW14461   4.216   2.217   3.978
 4521SOL    HW114462   4.285   2.285   3.955
 4521SOL    HW214463   4.250   2.126   3.954
 4522SOL     OW14464   5.604   4.350   3.369
 4522SOL    HW114465   5.524   4.291   3.358
 4522SOL    HW214466   5.682   4.295   3.399
 4523SOL     OW14467   0.335   3.095   5.750
 4523SOL    HW114468   0.418   3.150   5.740
 4523SOL    HW214469   0.354   3.001   5.722
 4524SOL     OW14470   1.457   3.732   2.419
 4524SOL    HW114471   1.360   3.708   2.424
 4524SOL    HW214472   1.500   3.712   2.507
 4525SOL     OW14473   3.519   2.198   5.548
 4525SOL    HW114474   3.465   2.195   5.464
 4525SOL    HW214475   3.462   2.166   5.624
 4526SOL     OW14476   1.032   6.961   5.622
 4526SOL    HW114477   0.972   0.002   5.673
 4526SOL    HW214478   1.127   6.975   5.651
 4527SOL     OW14479   6.729   0.973   2.513
 4527SOL    HW114480   6.715   0.913   2.592
 4527SOL    HW214481   6.767   0.919   2.438
 4528SOL     OW14482   4.761   1.271   5.391
 4528SOL    HW114483   4.771   1.245   5.295
 4528SOL    HW214484   4.741   1.369   5.397
 4529SOL     OW14485   2.210   0.928   4.024
 4529SOL    HW114486   2.304   0.910   4.056
 4529SOL    HW214487   2.213   0.980   3.939
 4530SOL     OW14488   3.602   5.687   6.428
 4530SOL    HW114489   3.618   5.762   6.363
 4530SOL    HW214490   3.545   5.720   6.503
 4531SOL     OW14491   1.321   5.350   5.815
 4531SOL    HW114492   1.272   5.271   5.850
 4531SOL    HW214493   1.296   5.431   5.868
 4532SOL     OW14494   5.606   0.354   2.587
 4532SOL    HW114495   5.525   0.384   2.637
 4532SOL    HW214496   5.685   0.410   2.614
 4533SOL     OW14497   3.069   0.144   1.518
 4533SOL    HW114498   3.144   0.200   1.484
 4533SOL    HW214499   3.101   0.091   1.597
 4534SOL     OW14500   4.066   0.863   4.269
 4534SOL    HW114501   4.007   0.924   4.216
 4534SOL    HW214502   4.156   0.857   4.226
 4535SOL     OW14503   2.122   1.154   0.937
 4535SOL    HW114504   2.177   1.089   0.990
 4535SOL    HW214505   2.167   1.172   0.849
 4536SOL     OW14506   3.180   0.358   5.680
 4536SOL    HW114507   3.246   0.381   5.608
 4536SOL    HW214508   3.089   0.387   5.652
 4537SOL     OW14509   2.902   3.608   3.609
 4537SOL    HW114510   2.891   3.589   3.707
 4537SOL    HW214511   2.905   3.522   3.559
 4538SOL     OW14512   0.489   1.796   0.888
 4538SOL    HW114513   0.587   1.780   0.894
 4538SOL    HW214514   0.440   1.716   0.922
 4539SOL     OW14515   1.321   6.126   5.558
 4539SOL    HW114516   1.350   6.217   5.529
 4539SOL    HW214517   1.235   6.103   5.513
 4540SOL     OW14518   0.971   1.511   0.446
 4540SOL    HW114519   0.994   1.608   0.431
 4540SOL    HW214520   0.945   1.469   0.360
 4541SOL     OW14521   4.546   2.735   5.725
 4541SOL    HW114522   4.545   2.713   5.627
 4541SOL    HW214523   4.518   2.654   5.777
 4542SOL     OW14524   0.031   1.929   0.293
 4542SOL    HW114525   6.990   1.906   0.218
 4542SOL    HW214526   0.100   1.858   0.303
 4543SOL     OW14527   3.811   2.536   0.202
 4543SOL    HW114528   3.713   2.538   0.221
 4543SOL    HW214529   3.861   2.556   0.286
 4544SOL     OW14530   5.578   6.790   0.499
 4544SOL    HW114531   5.504   6.738   0.542
 4544SOL    HW214532   5.665   6.743   0.513
 4545SOL     OW14533   2.082   2.994   4.990
 4545SOL    HW114534   2.017   2.934   4.943
 4545SOL    HW214535   2.171   2.948   4.996
 4546SOL     OW14536   2.869   0.777   5.380
 4546SOL    HW114537   2.777   0.811   5.402
 4546SOL    HW214538   2.935   0.850   5.396
 4547SOL     OW14539   6.919   0.390   0.119
 4547SOL    HW114540   7.011   0.369   0.087
 4547SOL    HW214541   6.863   0.307   0.118
 4548SOL     OW14542   2.761   1.720   2.814
 4548SOL    HW114543   2.679   1.775   2.830
 4548SOL    HW214544   2.741   1.648   2.748
 4549SOL     OW14545   0.262   3.293   4.494
 4549SOL    HW114546   0.214   3.264   4.412
 4549SOL    HW214547   0.197   3.337   4.557
 4550SOL     OW14548   1.914   4.932   3.648
 4550SOL    HW114549   1.832   4.899   3.601
 4550SOL    HW214550   1.901   4.927   3.747
 4551SOL     OW14551   1.729   2.541   5.120
 4551SOL    HW114552   1.667   2.616   5.140
 4551SOL    HW214553   1.816   2.557   5.167
 4552SOL     OW14554   5.626   1.253   0.643
 4552SOL    HW114555   5.609   1.190   0.567
 4552SOL    HW214556   5.576   1.222   0.724
 4553SOL     OW14557   0.123   5.349   0.117
 4553SOL    HW114558   0.086   5.442   0.120
 4553SOL    HW214559   0.181   5.338   0.037
 4554SOL     OW14560   6.102   6.551   2.973
 4554SOL    HW114561   6.065   6.566   2.881
 4554SOL    HW214562   6.060   6.616   3.037
 4555SOL     OW14563   1.724   1.130   0.917
 4555SOL    HW114564   1.721   1.172   0.826
 4555SOL    HW214565   1.633   1.134   0.959
 4556SOL     OW14566   5.750   4.601   4.744
 4556SOL    HW114567   5.713   4.581   4.653
 4556SOL    HW214568   5.680   4.645   4.800
 4557SOL     OW14569   6.974   4.703   3.960
 4557SOL    HW114570   6.973   4.762   3.880
 4557SOL    HW214571   6.901   4.635   3.952
 4558SOL     OW14572   1.158   4.018   4.761
 4558SOL    HW114573   1.177   4.041   4.666
 4558SOL    HW214574   1.139   4.102   4.812
 4559SOL     OW14575   6.891   2.937   3.576
 4559SOL    HW114576   6.822   2.911   3.643
 4559SOL    HW214577   6.895   3.037   3.569
 4560SOL     OW14578   6.159   4.180   2.354
 4560SOL    HW114579   6.091   4.253   2.364
 4560SOL    HW214580   6.236   4.213   2.300
 4561SOL     OW14581   3.963   2.168   3.893
 4561SOL    HW114582   4.047   2.204   3.934
 4561SOL    HW214583   3.890   2.171   3.962
 4562SOL     OW14584   3.839   1.066   1.272
 4562SOL    HW114585   3.751   1.111   1.259
 4562SOL    HW214586   3.824   0.969   1.293
 4563SOL     OW14587   0.864   4.605   2.585
 4563SOL    HW114588   0.809   4.528   2.553
 4563SOL    HW214589   0.820   4.646   2.664
 4564SOL     OW14590   1.855   3.449   2.172
 4564SOL    HW114591   1.912   3.519   2.127
 4564SOL    HW214592   1.837   3.476   2.266
 4565SOL     OW14593   1.768   5.821   5.979
 4565SOL    HW114594   1.764   5.783   6.071
 4565SOL    HW214595   1.835   5.896   5.978
 4566SOL     OW14596   6.346   5.053   3.051
 4566SOL    HW114597   6.430   5.026   3.004
 4566SOL    HW214598   6.299   4.971   3.085
 4567SOL     OW14599   6.948   0.634   0.020
 4567SOL    HW114600   0.022   0.662   0.039
 4567SOL    HW214601   6.930   0.547   0.065
 4568SOL     OW14602   1.656   4.830   2.939
 4568SOL    HW114603   1.719   4.873   3.004
 4568SOL    HW214604   1.677   4.862   2.846
 4569SOL     OW14605   2.212   0.802   3.208
 4569SOL    HW114606   2.198   0.858   3.126
 4569SOL    HW214607   2.233   0.708   3.181
 4570SOL     OW14608   5.187   6.042   1.780
 4570SOL    HW114609   5.254   6.023   1.708
 4570SOL    HW214610   5.100   6.067   1.737
 4571SOL     OW14611   2.631   3.092   6.589
 4571SOL    HW114612   2.559   3.115   6.655
 4571SOL    HW214613   2.696   3.167   6.584
 4572SOL     OW14614   2.860   3.296   2.085
 4572SOL    HW114615   2.819   3.374   2.038
 4572SOL    HW214616   2.851   3.214   2.029
 4573SOL     OW14617   3.150   5.686   1.064
 4573SOL    HW114618   3.107   5.696   1.154
 4573SOL    HW214619   3.157   5.775   1.020
 4574SOL     OW14620   4.955   1.118   1.458
 4574SOL    HW114621   4.935   1.020   1.451
 4574SOL    HW214622   4.963   1.157   1.366
 4575SOL     OW14623   0.304   0.098   5.599
 4575SOL    HW114624   0.210   0.132   5.605
 4575SOL    HW214625   0.315   0.045   5.515
 4576SOL     OW14626   2.624   4.894   5.500
 4576SOL    HW114627   2.687   4.960   5.541
 4576SOL    HW214628   2.671   4.844   5.428
 4577SOL     OW14629   0.701   1.875   2.272
 4577SOL    HW114630   0.629   1.902   2.336
 4577SOL    HW214631   0.771   1.946   2.271
 4578SOL     OW14632   1.801   1.768   2.099
 4578SOL    HW114633   1.840   1.680   2.073
 4578SOL    HW214634   1.826   1.837   2.030
 4579SOL     OW14635   5.117   0.500   3.596
 4579SOL    HW114636   5.121   0.541   3.505
 4579SOL    HW214637   5.166   0.559   3.661
 4580SOL     OW14638   0.380   2.024   0.756
 4580SOL    HW114639   0.396   1.949   0.820
 4580SOL    HW214640   0.368   2.110   0.807
 4581SOL     OW14641   3.328   0.930   0.896
 4581SOL    HW114642   3.252   0.900   0.953
 4581SOL    HW214643   3.298   0.941   0.802
 4582SOL     OW14644   5.720   1.324   3.929
 4582SOL    HW114645   5.743   1.422   3.923
 4582SOL    HW214646   5.649   1.303   3.861
 4583SOL     OW14647   1.696   0.399   0.139
 4583SOL    HW114648   1.648   0.382   0.225
 4583SOL    HW214649   1.788   0.361   0.144
 4584SOL     OW14650   0.886   0.954   4.316
 4584SOL    HW114651   0.883   0.887   4.242
 4584SOL    HW214652   0.845   1.040   4.284
 4585SOL     OW14653   2.144   3.360   3.796
 4585SOL    HW114654   2.145   3.261   3.778
 4585SOL    HW214655   2.235   3.389   3.825
 4586SOL     OW14656   5.770   4.873   6.945
 4586SOL    HW114657   5.781   4.836   0.017
 4586SOL    HW214658   5.802   4.806   6.878
 4587SOL     OW14659   3.330   2.828   5.016
 4587SOL    HW114660   3.414   2.801   4.968
 4587SOL    HW214661   3.256   2.767   4.990
 4588SOL     OW14662   3.278   3.736   6.213
 4588SOL    HW114663   3.297   3.638   6.221
 4588SOL    HW214664   3.349   3.780   6.158
 4589SOL     OW14665   6.206   6.214   2.261
 4589SOL    HW114666   6.259   6.142   2.214
 4589SOL    HW214667   6.129   6.241   2.203
 4590SOL     OW14668   3.161   5.010   0.576
 4590SOL    HW114669   3.165   5.057   0.488
 4590SOL    HW214670   3.113   5.067   0.642
 4591SOL     OW14671   2.018   0.233   5.292
 4591SOL    HW114672   2.117   0.251   5.295
 4591SOL    HW214673   2.000   0.155   5.233
 4592SOL     OW14674   1.507   1.644   3.653
 4592SOL    HW114675   1.408   1.637   3.637
 4592SOL    HW214676   1.544   1.722   3.603
 4593SOL     OW14677   1.458   5.788   4.585
 4593SOL    HW114678   1.503   5.849   4.520
 4593SOL    HW214679   1.489   5.694   4.570
 4594SOL     OW14680   1.501   0.086   3.806
 4594SOL    HW114681   1.527   0.042   3.720
 4594SOL    HW214682   1.476   0.016   3.873
 4595SOL     OW14683   5.598   1.712   6.225
 4595SOL    HW114684   5.614   1.779   6.297
 4595SOL    HW214685   5.501   1.711   6.201
 4596SOL     OW14686   6.372   0.650   2.097
 4596SOL    HW114687   6.349   0.743   2.067
 4596SOL    HW214688   6.356   0.641   2.195
 4597SOL     OW14689   2.979   6.148   7.015
 4597SOL    HW114690   2.911   6.113   0.060
 4597SOL    HW214691   2.943   6.230   6.971
 4598SOL     OW14692   1.640   4.440   0.281
 4598SOL    HW114693   1.542   4.422   0.278
 4598SOL    HW214694   1.664   4.508   0.211
 4599SOL     OW14695   2.582   5.860   1.751
 4599SOL    HW114696   2.593   5.764   1.778
 4599SOL    HW214697   2.548   5.864   1.657
 4600SOL     OW14698   0.590   6.509   6.187
 4600SOL    HW114699   0.627   6.494   6.279
 4600SOL    HW214700   0.526   6.586   6.189
 4601SOL     OW14701   1.694   0.938   5.306
 4601SOL    HW114702   1.630   0.947   5.382
 4601SOL    HW214703   1.720   0.842   5.295
 4602SOL     OW14704   3.081   2.299   6.140
 4602SOL    HW114705   3.066   2.396   6.123
 4602SOL    HW214706   3.048   2.274   6.231
 4603SOL     OW14707   4.798   0.078   0.799
 4603SOL    HW114708   4.783   0.156   0.859
 4603SOL    HW214709   4.886   0.035   0.820
 4604SOL     OW14710   6.282   6.633   5.050
 4604SOL    HW114711   6.339   6.555   5.025
 4604SOL    HW214712   6.308   6.712   4.996
 4605SOL     OW14713   3.951   0.338   1.324
 4605SOL    HW114714   3.914   0.420   1.365
 4605SOL    HW214715   3.889   0.261   1.340
 4606SOL     OW14716   6.788   6.707   5.069
 4606SOL    HW114717   6.878   6.736   5.037
 4606SOL    HW214718   6.742   6.655   4.997
 4607SOL     OW14719   2.293   2.322   0.596
 4607SOL    HW114720   2.252   2.349   0.684
 4607SOL    HW214721   2.335   2.232   0.605
 4608SOL     OW14722   6.662   2.550   4.643
 4608SOL    HW114723   6.629   2.480   4.707
 4608SOL    HW214724   6.624   2.639   4.667
 4609SOL     OW14725   4.858   6.033   6.293
 4609SOL    HW114726   4.772   5.981   6.291
 4609SOL    HW214727   4.863   6.085   6.378
 4610SOL     OW14728   5.338   4.038   6.722
 4610SOL    HW114729   5.405   4.014   6.793
 4610SOL    HW214730   5.265   3.970   6.722
 4611SOL     OW14731   0.956   0.617   6.465
 4611SOL    HW114732   1.031   0.625   6.531
 4611SOL    HW214733   0.943   0.521   6.442
 4612SOL     OW14734   1.839   1.745   1.492
 4612SOL    HW114735   1.866   1.810   1.421
 4612SOL    HW214736   1.878   1.655   1.473
 4613SOL     OW14737   1.681   4.383   1.546
 4613SOL    HW114738   1.587   4.351   1.557
 4613SOL    HW214739   1.721   4.402   1.636
 4614SOL     OW14740   6.313   4.139   4.832
 4614SOL    HW114741   6.360   4.055   4.803
 4614SOL    HW214742   6.314   4.205   4.757
 4615SOL     OW14743   1.240   3.452   6.435
 4615SOL    HW114744   1.170   3.381   6.422
 4615SOL    HW214745   1.330   3.410   6.441
 4616SOL     OW14746   6.837   2.726   5.820
 4616SOL    HW114747   6.825   2.647   5.760
 4616SOL    HW214748   6.816   2.810   5.771
 4617SOL     OW14749   6.737   2.723   3.307
 4617SOL    HW114750   6.715   2.820   3.322
 4617SOL    HW214751   6.771   2.683   3.392
 4618SOL     OW14752   1.921   4.074   6.080
 4618SOL    HW114753   1.899   4.164   6.042
 4618SOL    HW214754   1.877   4.003   6.024
 4619SOL     OW14755   4.750   6.320   6.107
 4619SOL    HW114756   4.778   6.225   6.124
 4619SOL    HW214757   4.830   6.373   6.077
 4620SOL     OW14758   0.837   4.858   2.419
 4620SOL    HW114759   0.884   4.786   2.470
 4620SOL    HW214760   0.902   4.905   2.360
 4621SOL     OW14761   3.646   6.579   2.805
 4621SOL    HW114762   3.693   6.595   2.718
 4621SOL    HW214763   3.713   6.555   2.875
 4622SOL     OW14764   5.363   6.110   1.126
 4622SOL    HW114765   5.316   6.185   1.171
 4622SOL    HW214766   5.346   6.025   1.177
 4623SOL     OW14767   2.772   4.588   1.053
 4623SOL    HW114768   2.728   4.624   1.135
 4623SOL    HW214769   2.817   4.501   1.073
 4624SOL     OW14770   4.304   1.199   2.006
 4624SOL    HW114771   4.303   1.168   2.101
 4624SOL    HW214772   4.398   1.221   1.979
 4625SOL     OW14773   2.338   6.140   1.470
 4625SOL    HW114774   2.314   6.177   1.560
 4625SOL    HW214775   2.333   6.213   1.402
 4626SOL     OW14776   4.546   3.701   1.662
 4626SOL    HW114777   4.496   3.787   1.661
 4626SOL    HW214778   4.601   3.695   1.746
 4627SOL     OW14779   5.724   0.133   4.865
 4627SOL    HW114780   5.742   0.093   4.775
 4627SOL    HW214781   5.646   0.087   4.907
 4628SOL     OW14782   5.360   5.327   3.985
 4628SOL    HW114783   5.357   5.235   4.025
 4628SOL    HW214784   5.433   5.380   4.027
 4629SOL     OW14785   2.223   5.823   6.669
 4629SOL    HW114786   2.166   5.788   6.744
 4629SOL    HW214787   2.282   5.749   6.635
 4630SOL     OW14788   2.132   3.004   2.175
 4630SOL    HW114789   2.151   3.101   2.165
 4630SOL    HW214790   2.215   2.951   2.160
 4631SOL     OW14791   0.001   0.489   2.999
 4631SOL    HW114792   0.044   0.400   3.012
 4631SOL    HW214793   0.039   0.555   3.063
 4632SOL     OW14794   3.531   4.876   2.435
 4632SOL    HW114795   3.553   4.789   2.391
 4632SOL    HW214796   3.492   4.939   2.368
 4633SOL     OW14797   4.439   0.892   5.120
 4633SOL    HW114798   4.452   0.989   5.144
 4633SOL    HW214799   4.468   0.876   5.026
 4634SOL     OW14800   3.004   4.066   5.158
 4634SOL    HW114801   2.945   3.986   5.150
 4634SOL    HW214802   2.951   4.143   5.194
 4635SOL     OW14803   4.712   6.669   1.819
 4635SOL    HW114804   4.754   6.578   1.823
 4635SOL    HW214805   4.675   6.684   1.728
 4636SOL     OW14806   1.897   5.092   0.305
 4636SOL    HW114807   1.978   5.034   0.297
 4636SOL    HW214808   1.865   5.119   0.214
 4637SOL     OW14809   2.952   1.709   3.026
 4637SOL    HW114810   2.890   1.692   2.949
 4637SOL    HW214811   3.043   1.674   3.003
 4638SOL     OW14812   3.907   4.970   0.226
 4638SOL    HW114813   3.850   5.005   0.300
 4638SOL    HW214814   3.956   5.046   0.183
 4639SOL     OW14815   3.617   2.212   1.575
 4639SOL    HW114816   3.651   2.262   1.655
 4639SOL    HW214817   3.619   2.114   1.594
 4640SOL     OW14818   6.750   2.708   6.965
 4640SOL    HW114819   6.657   2.673   6.953
 4640SOL    HW214820   6.806   2.685   6.885
 4641SOL     OW14821   0.557   5.842   4.426
 4641SOL    HW114822   0.637   5.808   4.378
 4641SOL    HW214823   0.496   5.888   4.362
 4642SOL     OW14824   6.647   0.979   3.883
 4642SOL    HW114825   6.746   0.975   3.898
 4642SOL    HW214826   6.607   0.889   3.899
 4643SOL     OW14827   0.437   2.140   0.354
 4643SOL    HW114828   0.381   2.146   0.271
 4643SOL    HW214829   0.518   2.085   0.336
 4644SOL     OW14830   1.490   1.225   0.280
 4644SOL    HW114831   1.520   1.316   0.306
 4644SOL    HW214832   1.560   1.158   0.305
 4645SOL     OW14833   0.678   1.779   4.366
 4645SOL    HW114834   0.582   1.773   4.394
 4645SOL    HW214835   0.684   1.824   4.277
 4646SOL     OW14836   2.064   4.798   4.093
 4646SOL    HW114837   1.976   4.752   4.090
 4646SOL    HW214838   2.074   4.845   4.181
 4647SOL     OW14839   1.220   6.500   1.689
 4647SOL    HW114840   1.271   6.484   1.605
 4647SOL    HW214841   1.182   6.593   1.689
 4648SOL     OW14842   3.107   1.667   4.514
 4648SOL    HW114843   3.193   1.625   4.485
 4648SOL    HW214844   3.030   1.608   4.489
 4649SOL     OW14845   6.701   1.304   6.620
 4649SOL    HW114846   6.688   1.249   6.538
 4649SOL    HW214847   6.640   1.384   6.617
 4650SOL     OW14848   5.073   5.982   1.117
 4650SOL    HW114849   5.106   6.066   1.074
 4650SOL    HW214850   5.099   5.981   1.214
 4651SOL     OW14851   7.007   3.179   6.291
 4651SOL    HW114852   0.028   3.096   6.255
 4651SOL    HW214853   6.914   3.161   6.322
 4652SOL     OW14854   0.665   6.276   5.324
 4652SOL    HW114855   0.710   6.219   5.393
 4652SOL    HW214856   0.734   6.332   5.278
 4653SOL     OW14857   5.963   5.316   0.527
 4653SOL    HW114858   6.040   5.375   0.551
 4653SOL    HW214859   5.973   5.286   0.432
 4654SOL     OW14860   1.005   0.255   5.569
 4654SOL    HW114861   0.950   0.294   5.495
 4654SOL    HW214862   0.948   0.244   5.650
 4655SOL     OW14863   5.070   3.027   1.076
 4655SOL    HW114864   5.016   3.030   1.160
 4655SOL    HW214865   5.024   3.080   1.005
 4656SOL     OW14866   0.337   1.670   1.390
 4656SOL    HW114867   0.376   1.579   1.379
 4656SOL    HW214868   0.388   1.735   1.334
 4657SOL     OW14869   4.435   0.437   2.400
 4657SOL    HW114870   4.489   0.521   2.404
 4657SOL    HW214871   4.380   0.436   2.317
 4658SOL     OW14872   1.298   2.766   5.704
 4658SOL    HW114873   1.334   2.827   5.633
 4658SOL    HW214874   1.212   2.726   5.673
 4659SOL     OW14875   1.803   4.464   0.038
 4659SOL    HW114876   1.788   4.374   0.078
 4659SOL    HW214877   1.850   4.454   6.971
 4660SOL     OW14878   1.001   6.442   3.470
 4660SOL    HW114879   0.992   6.436   3.370
 4660SOL    HW214880   1.097   6.429   3.495
 4661SOL     OW14881   1.134   2.070   5.270
 4661SOL    HW114882   1.219   2.028   5.303
 4661SOL    HW214883   1.057   2.008   5.288
 4662SOL     OW14884   2.359   7.006   5.569
 4662SOL    HW114885   2.282   6.965   5.520
 4662SOL    HW214886   2.438   7.011   5.508
 4663SOL     OW14887   1.903   0.250   0.293
 4663SOL    HW114888   1.917   0.151   0.300
 4663SOL    HW214889   1.816   0.274   0.336
 4664SOL     OW14890   6.704   6.855   0.141
 4664SOL    HW114891   6.741   6.775   0.187
 4664SOL    HW214892   6.606   6.842   0.125
 4665SOL     OW14893   1.853   0.628   4.108
 4665SOL    HW114894   1.829   0.543   4.154
 4665SOL    HW214895   1.951   0.628   4.087
 4666SOL     OW14896   2.413   1.933   5.088
 4666SOL    HW114897   2.419   1.931   5.188
 4666SOL    HW214898   2.417   2.028   5.056
 4667SOL     OW14899   6.983   3.375   1.270
 4667SOL    HW114900   0.013   3.461   1.267
 4667SOL    HW214901   6.956   3.355   1.364
 4668SOL     OW14902   4.472   1.646   3.872
 4668SOL    HW114903   4.565   1.633   3.837
 4668SOL    HW214904   4.476   1.659   3.971
 4669SOL     OW14905   5.912   0.394   6.468
 4669SOL    HW114906   5.816   0.418   6.480
 4669SOL    HW214907   5.929   0.368   6.373
 4670SOL     OW14908   0.703   2.635   0.384
 4670SOL    HW114909   0.656   2.716   0.349
 4670SOL    HW214910   0.695   2.561   0.318
 4671SOL     OW14911   0.536   3.696   0.715
 4671SOL    HW114912   0.514   3.735   0.804
 4671SOL    HW214913   0.619   3.738   0.679
 4672SOL     OW14914   2.346   4.021   6.435
 4672SOL    HW114915   2.384   4.009   6.527
 4672SOL    HW214916   2.267   4.082   6.439
 4673SOL     OW14917   5.890   1.086   0.218
 4673SOL    HW114918   5.853   0.995   0.205
 4673SOL    HW214919   5.972   1.098   0.162
 4674SOL     OW14920   0.955   2.542   1.728
 4674SOL    HW114921   0.924   2.634   1.704
 4674SOL    HW214922   0.907   2.475   1.672
 4675SOL     OW14923   2.270   6.095   6.742
 4675SOL    HW114924   2.259   5.999   6.716
 4675SOL    HW214925   2.361   6.127   6.714
 4676SOL     OW14926   0.449   6.227   4.295
 4676SOL    HW114927   0.382   6.300   4.287
 4676SOL    HW214928   0.535   6.256   4.251
 4677SOL     OW14929   4.307   6.468   6.831
 4677SOL    HW114930   4.275   6.377   6.806
 4677SOL    HW214931   4.230   6.522   6.867
 4678SOL     OW14932   1.896   4.550   6.405
 4678SOL    HW114933   1.996   4.556   6.406
 4678SOL    HW214934   1.859   4.578   6.494
 4679SOL     OW14935   3.040   7.018   5.639
 4679SOL    HW114936   3.138   0.008   5.656
 4679SOL    HW214937   3.008   6.934   5.683
 4680SOL     OW14938   2.100   4.486   0.708
 4680SOL    HW114939   2.067   4.543   0.783
 4680SOL    HW214940   2.022   4.449   0.658
 4681SOL     OW14941   0.141   5.669   5.092
 4681SOL    HW114942   0.081   5.635   5.019
 4681SOL    HW214943   0.102   5.753   5.130
 4682SOL     OW14944   4.421   6.498   0.428
 4682SOL    HW114945   4.340   6.557   0.428
 4682SOL    HW214946   4.401   6.415   0.377
 4683SOL     OW14947   7.003   4.263   3.453
 4683SOL    HW114948   6.979   4.193   3.521
 4683SOL    HW214949   6.972   4.235   3.363
 4684SOL     OW14950   1.593   0.810   4.683
 4684SOL    HW114951   1.551   0.746   4.747
 4684SOL    HW214952   1.533   0.823   4.604
 4685SOL     OW14953   4.787   4.630   5.239
 4685SOL    HW114954   4.711   4.658   5.180
 4685SOL    HW214955   4.805   4.532   5.227
 4686SOL     OW14956   4.310   5.680   6.933
 4686SOL    HW114957   4.369   5.614   6.980
 4686SOL    HW214958   4.360   5.766   6.920
 4687SOL     OW14959   5.533   6.324   4.900
 4687SOL    HW114960   5.462   6.315   4.830
 4687SOL    HW214961   5.556   6.421   4.911
 4688SOL     OW14962   0.624   1.883   6.905
 4688SOL    HW114963   0.610   1.982   6.903
 4688SOL    HW214964   0.609   1.845   6.814
 4689SOL     OW14965   1.449   5.154   5.657
 4689SOL    HW114966   1.443   5.232   5.719
 4689SOL    HW214967   1.543   5.122   5.651
 4690SOL     OW14968   1.653   2.777   0.765
 4690SOL    HW114969   1.732   2.731   0.724
 4690SOL    HW214970   1.684   2.840   0.836
 4691SOL     OW14971   3.900   4.403   0.501
 4691SOL    HW114972   3.990   4.417   0.544
 4691SOL    HW214973   3.829   4.410   0.571
 4692SOL     OW14974   0.259   5.590   3.357
 4692SOL    HW114975   0.185   5.579   3.423
 4692SOL    HW214976   0.234   5.659   3.289
 4693SOL     OW14977   0.365   0.956   3.611
 4693SOL    HW114978   0.387   0.887   3.543
 4693SOL    HW214979   0.334   0.911   3.695
 4694SOL     OW14980   1.996   1.499   6.442
 4694SOL    HW114981   1.986   1.445   6.358
 4694SOL    HW214982   1.916   1.558   6.453
 4695SOL     OW14983   3.395   2.933   1.661
 4695SOL    HW114984   3.387   2.970   1.568
 4695SOL    HW214985   3.457   2.855   1.660
 4696SOL     OW14986   6.136   3.123   0.285
 4696SOL    HW114987   6.222   3.089   0.247
 4696SOL    HW214988   6.078   3.156   0.211
 4697SOL     OW14989   0.618   4.884   0.220
 4697SOL    HW114990   0.680   4.836   0.158
 4697SOL    HW214991   0.668   4.956   0.268
 4698SOL     OW14992   5.990   3.087   1.014
 4698SOL    HW114993   6.046   3.165   1.041
 4698SOL    HW214994   5.926   3.065   1.087
 4699SOL     OW14995   6.496   0.364   3.556
 4699SOL    HW114996   6.549   0.289   3.596
 4699SOL    HW214997   6.410   0.374   3.607
 4700SOL     OW14998   5.692   0.324   1.239
 4700SOL    HW114999   5.762   0.395   1.235
 4700SOL    HW215000   5.668   0.294   1.147
 4701SOL     OW15001   1.432   1.219   0.825
 4701SOL    HW115002   1.479   1.145   0.776
 4701SOL    HW215003   1.451   1.212   0.923
 4702SOL     OW15004   3.332   3.961   7.002
 4702SOL    HW115005   3.252   3.966   6.942
 4702SOL    HW215006   3.305   3.985   0.074
 4703SOL     OW15007   1.824   1.051   1.976
 4703SOL    HW115008   1.866   1.137   1.946
 4703SOL    HW215009   1.763   1.069   2.053
 4704SOL     OW15010   5.041   6.926   0.306
 4704SOL    HW115011   4.977   7.002   0.316
 4704SOL    HW215012   5.062   6.889   0.397
 4705SOL     OW15013   3.502   3.770   4.249
 4705SOL    HW115014   3.513   3.864   4.282
 4705SOL    HW215015   3.464   3.772   4.156
 4706SOL     OW15016   4.287   5.347   1.311
 4706SOL    HW115017   4.232   5.430   1.316
 4706SOL    HW215018   4.228   5.267   1.325
 4707SOL     OW15019   3.568   6.135   0.697
 4707SOL    HW115020   3.582   6.118   0.795
 4707SOL    HW215021   3.473   6.115   0.673
 4708SOL     OW15022   2.365   2.139   2.307
 4708SOL    HW115023   2.440   2.135   2.240
 4708SOL    HW215024   2.295   2.202   2.274
 4709SOL     OW15025   4.092   4.001   6.236
 4709SOL    HW115026   4.041   4.071   6.285
 4709SOL    HW215027   4.132   3.937   6.301
 4710SOL     OW15028   5.097   1.825   0.810
 4710SOL    HW115029   5.136   1.736   0.787
 4710SOL    HW215030   5.078   1.829   0.908
 4711SOL     OW15031   2.905   0.134   2.829
 4711SOL    HW115032   2.919   0.055   2.769
 4711SOL    HW215033   2.818   0.123   2.878
 4712SOL     OW15034   1.295   4.669   0.180
 4712SOL    HW115035   1.296   4.700   0.275
 4712SOL    HW215036   1.292   4.570   0.177
 4713SOL     OW15037   2.464   5.230   0.438
 4713SOL    HW115038   2.549   5.244   0.488
 4713SOL    HW215039   2.394   5.197   0.501
 4714SOL     OW15040   3.880   2.393   0.799
 4714SOL    HW115041   3.908   2.420   0.891
 4714SOL    HW215042   3.821   2.464   0.760
 4715SOL     OW15043   6.015   3.889   4.116
 4715SOL    HW115044   5.956   3.812   4.140
 4715SOL    HW215045   6.093   3.855   4.063
 4716SOL     OW15046   3.329   5.780   0.072
 4716SOL    HW115047   3.357   5.830   0.154
 4716SOL    HW215048   3.232   5.757   0.079
 4717SOL     OW15049   1.070   6.007   3.849
 4717SOL    HW115050   1.020   5.921   3.842
 4717SOL    HW215051   1.131   6.016   3.770
 4718SOL     OW15052   6.251   0.887   6.422
 4718SOL    HW115053   6.236   0.883   6.520
 4718SOL    HW215054   6.164   0.882   6.374
 4719SOL     OW15055   4.666   3.169   0.957
 4719SOL    HW115056   4.664   3.197   1.053
 4719SOL    HW215057   4.662   3.251   0.899
 4720SOL     OW15058   2.726   1.123   3.978
 4720SOL    HW115059   2.646   1.173   4.011
 4720SOL    HW215060   2.804   1.186   3.970
 4721SOL     OW15061   1.757   2.340   1.572
 4721SOL    HW115062   1.742   2.431   1.533
 4721SOL    HW215063   1.773   2.275   1.498
 4722SOL     OW15064   2.506   0.012   1.094
 4722SOL    HW115065   2.588   0.042   1.046
 4722SOL    HW215066   2.427   0.024   1.034
 4723SOL     OW15067   3.047   0.243   6.636
 4723SOL    HW115068   3.009   0.195   6.557
 4723SOL    HW215069   3.125   0.298   6.607
 4724SOL     OW15070   4.287   5.136   1.615
 4724SOL    HW115071   4.321   5.068   1.550
 4724SOL    HW215072   4.208   5.099   1.663
 4725SOL     OW15073   6.183   5.887   3.851
 4725SOL    HW115074   6.153   5.801   3.810
 4725SOL    HW215075   6.282   5.898   3.839
 4726SOL     OW15076   0.328   5.849   6.559
 4726SOL    HW115077   0.260   5.812   6.622
 4726SOL    HW215078   0.313   5.947   6.547
 4727SOL     OW15079   0.302   6.440   0.196
 4727SOL    HW115080   0.296   6.539   0.209
 4727SOL    HW215081   0.218   6.407   0.152
 4728SOL     OW15082   0.365   1.302   0.057
 4728SOL    HW115083   0.370   1.401   0.060
 4728SOL    HW215084   0.402   1.269   6.990
 4729SOL     OW15085   3.932   0.417   1.068
 4729SOL    HW115086   3.938   0.378   1.160
 4729SOL    HW215087   3.880   0.355   1.009
 4730SOL     OW15088   1.476   0.152   5.528
 4730SOL    HW115089   1.537   0.125   5.454
 4730SOL    HW215090   1.525   0.148   5.615
 4731SOL     OW15091   5.467   1.588   5.707
 4731SOL    HW115092   5.563   1.614   5.698
 4731SOL    HW215093   5.426   1.580   5.616
 4732SOL     OW15094   0.277   2.190   0.578
 4732SOL    HW115095   0.305   2.132   0.654
 4732SOL    HW215096   0.331   2.167   0.497
 4733SOL     OW15097   6.668   3.043   3.969
 4733SOL    HW115098   6.683   2.997   4.057
 4733SOL    HW215099   6.608   3.121   3.982
 4734SOL     OW15100   3.932   4.519   6.236
 4734SOL    HW115101   3.978   4.546   6.321
 4734SOL    HW215102   3.894   4.600   6.191
 4735SOL     OW15103   0.707   5.151   3.438
 4735SOL    HW115104   0.758   5.069   3.410
 4735SOL    HW215105   0.656   5.187   3.359
 4736SOL     OW15106   1.664   1.279   1.304
 4736SOL    HW115107   1.693   1.366   1.343
 4736SOL    HW215108   1.737   1.211   1.316
 4737SOL     OW15109   2.876   5.587   1.440
 4737SOL    HW115110   2.901   5.597   1.536
 4737SOL    HW215111   2.852   5.492   1.422
 4738SOL     OW15112   6.867   6.426   2.798
 4738SOL    HW115113   6.821   6.501   2.751
 4738SOL    HW215114   6.858   6.342   2.745
 4739SOL     OW15115   4.709   0.572   1.346
 4739SOL    HW115116   4.721   0.669   1.366
 4739SOL    HW215117   4.612   0.553   1.331
 4740SOL     OW15118   0.444   2.556   3.549
 4740SOL    HW115119   0.485   2.491   3.613
 4740SOL    HW215120   0.480   2.648   3.568
 4741SOL     OW15121   3.654   4.110   1.181
 4741SOL    HW115122   3.714   4.057   1.241
 4741SOL    HW215123   3.704   4.137   1.099
 4742SOL     OW15124   3.465   0.244   0.396
 4742SOL    HW115125   3.473   0.169   0.461
 4742SOL    HW215126   3.547   0.249   0.339
 4743SOL     OW15127   1.614   4.766   1.218
 4743SOL    HW115128   1.633   4.838   1.151
 4743SOL    HW215129   1.527   4.787   1.264
 4744SOL     OW15130   2.457   5.401   0.793
 4744SOL    HW115131   2.532   5.446   0.746
 4744SOL    HW215132   2.460   5.302   0.775
 4745SOL     OW15133   1.087   4.324   6.927
 4745SOL    HW115134   1.011   4.265   6.954
 4745SOL    HW215135   1.125   4.292   6.840
 4746SOL     OW15136   4.454   5.789   4.210
 4746SOL    HW115137   4.516   5.824   4.139
 4746SOL    HW215138   4.364   5.772   4.170
 4747SOL     OW15139   1.428   2.038   0.187
 4747SOL    HW115140   1.514   2.090   0.189
 4747SOL    HW215141   1.368   2.075   0.116
 4748SOL     OW15142   1.970   6.569   2.152
 4748SOL    HW115143   1.909   6.526   2.219
 4748SOL    HW215144   1.945   6.665   2.141
 4749SOL     OW15145   2.864   1.640   6.535
 4749SOL    HW115146   2.819   1.590   6.609
 4749SOL    HW215147   2.900   1.727   6.570
 4750SOL     OW15148   4.900   2.646   5.700
 4750SOL    HW115149   4.995   2.621   5.718
 4750SOL    HW215150   4.891   2.746   5.703
 4751SOL     OW15151   3.976   0.664   3.239
 4751SOL    HW115152   3.960   0.574   3.200
 4751SOL    HW215153   3.971   0.733   3.167
 4752SOL     OW15154   4.712   2.261   6.310
 4752SOL    HW115155   4.635   2.228   6.255
 4752SOL    HW215156   4.785   2.193   6.310
 4753SOL     OW15157   3.470   6.265   5.777
 4753SOL    HW115158   3.479   6.167   5.761
 4753SOL    HW215159   3.558   6.310   5.762
 4754SOL     OW15160   4.655   5.000   6.742
 4754SOL    HW115161   4.696   4.934   6.678
 4754SOL    HW215162   4.591   4.952   6.803
 4755SOL     OW15163   1.048   0.840   1.793
 4755SOL    HW115164   1.081   0.785   1.716
 4755SOL    HW215165   1.085   0.933   1.786
 4756SOL     OW15166   6.457   4.112   5.699
 4756SOL    HW115167   6.507   4.198   5.693
 4756SOL    HW215168   6.515   4.042   5.741
 4757SOL     OW15169   1.753   3.795   0.933
 4757SOL    HW115170   1.688   3.766   0.864
 4757SOL    HW215171   1.838   3.742   0.924
 4758SOL     OW15172   2.473   6.325   3.077
 4758SOL    HW115173   2.455   6.235   3.040
 4758SOL    HW215174   2.546   6.370   3.025
 4759SOL     OW15175   0.614   6.183   1.557
 4759SOL    HW115176   0.562   6.180   1.472
 4759SOL    HW215177   0.644   6.277   1.575
 4760SOL     OW15178   1.488   6.099   0.969
 4760SOL    HW115179   1.527   6.025   1.023
 4760SOL    HW215180   1.411   6.140   1.018
 4761SOL     OW15181   6.303   6.180   1.697
 4761SOL    HW115182   6.401   6.166   1.685
 4761SOL    HW215183   6.265   6.106   1.752
 4762SOL     OW15184   1.406   0.567   2.804
 4762SOL    HW115185   1.386   0.628   2.727
 4762SOL    HW215186   1.406   0.473   2.773
 4763SOL     OW15187   5.305   5.027   1.958
 4763SOL    HW115188   5.223   4.970   1.967
 4763SOL    HW215189   5.289   5.097   1.888
 4764SOL     OW15190   5.085   2.813   0.915
 4764SOL    HW115191   4.989   2.787   0.912
 4764SOL    HW215192   5.099   2.887   0.980
 4765SOL     OW15193   3.750   1.629   5.069
 4765SOL    HW115194   3.686   1.637   5.146
 4765SOL    HW215195   3.736   1.542   5.023
 4766SOL     OW15196   0.769   0.103   4.303
 4766SOL    HW115197   0.707   0.148   4.239
 4766SOL    HW215198   0.756   0.139   4.395
 4767SOL     OW15199   2.236   4.222   3.553
 4767SOL    HW115200   2.165   4.192   3.617
 4767SOL    HW215201   2.246   4.154   3.480
 4768SOL     OW15202   4.500   2.717   6.655
 4768SOL    HW115203   4.514   2.705   6.557
 4768SOL    HW215204   4.423   2.661   6.685
 4769SOL     OW15205   2.629   3.866   0.514
 4769SOL    HW115206   2.560   3.891   0.445
 4769SOL    HW215207   2.600   3.782   0.561
 4770SOL     OW15208   0.779   1.236   4.666
 4770SOL    HW115209   0.795   1.302   4.739
 4770SOL    HW215210   0.698   1.262   4.613
 4771SOL     OW15211   1.328   7.010   4.716
 4771SOL    HW115212   1.404   0.022   4.660
 4771SOL    HW215213   1.363   6.970   4.801
 4772SOL     OW15214   3.017   5.095   2.265
 4772SOL    HW115215   3.084   5.058   2.328
 4772SOL    HW215216   3.038   5.064   2.172
 4773SOL     OW15217   2.013   5.426   4.677
 4773SOL    HW115218   2.081   5.496   4.702
 4773SOL    HW215219   2.022   5.347   4.737
 4774SOL     OW15220   1.382   4.409   0.225
 4774SOL    HW115221   1.300   4.365   0.262
 4774SOL    HW215222   1.395   4.381   0.130
 4775SOL     OW15223   6.274   6.472   5.570
 4775SOL    HW115224   6.329   6.540   5.522
 4775SOL    HW215225   6.263   6.390   5.513
 4776SOL     OW15226   0.208   1.500   5.994
 4776SOL    HW115227   0.256   1.539   5.916
 4776SOL    HW215228   0.110   1.521   5.988
 4777SOL     OW15229   1.374   0.317   2.682
 4777SOL    HW115230   1.394   0.220   2.669
 4777SOL    HW215231   1.275   0.330   2.688
 4778SOL     OW15232   2.124   1.441   0.198
 4778SOL    HW115233   2.100   1.532   0.163
 4778SOL    HW215234   2.077   1.371   0.144
 4779SOL     OW15235   5.399   0.501   4.776
 4779SOL    HW115236   5.451   0.580   4.808
 4779SOL    HW215237   5.461   0.426   4.755
 4780SOL     OW15238   5.102   2.567   5.096
 4780SOL    HW115239   5.105   2.583   4.998
 4780SOL    HW215240   5.039   2.633   5.138
 4781SOL     OW15241   2.298   5.775   1.998
 4781SOL    HW115242   2.370   5.710   1.970
 4781SOL    HW215243   2.265   5.750   2.089
 4782SOL     OW15244   6.337   6.922   4.092
 4782SOL    HW115245   6.407   6.859   4.125
 4782SOL    HW215246   6.342   7.007   4.144
 4783SOL     OW15247   6.840   3.395   6.155
 4783SOL    HW115248   6.778   3.428   6.226
 4783SOL    HW215249   6.917   3.348   6.197
 4784SOL     OW15250   5.504   3.336   6.677
 4784SOL    HW115251   5.575   3.288   6.625
 4784SOL    HW215252   5.417   3.330   6.627
 4785SOL     OW15253   7.006   6.638   4.256
 4785SOL    HW115254   6.960   6.649   4.344
 4785SOL    HW215255   0.059   6.705   4.248
 4786SOL     OW15256   0.784   5.920   0.004
 4786SOL    HW115257   0.771   5.837   6.969
 4786SOL    HW215258   0.838   5.986   6.972
 4787SOL     OW15259   3.485   1.647   3.822
 4787SOL    HW115260   3.486   1.743   3.794
 4787SOL    HW215261   3.516   1.640   3.917
 4788SOL     OW15262   6.429   5.872   0.127
 4788SOL    HW115263   6.336   5.904   0.111
 4788SOL    HW215264   6.471   5.925   0.200
 4789SOL     OW15265   5.742   1.100   2.826
 4789SOL    HW115266   5.798   1.182   2.837
 4789SOL    HW215267   5.791   1.033   2.770
 4790SOL     OW15268   6.828   1.689   4.686
 4790SOL    HW115269   6.752   1.678   4.622
 4790SOL    HW215270   6.792   1.705   4.778
 4791SOL     OW15271   0.318   0.383   0.506
 4791SOL    HW115272   0.338   0.460   0.567
 4791SOL    HW215273   0.296   0.418   0.415
 4792SOL     OW15274   1.976   3.276   2.970
 4792SOL    HW115275   1.957   3.314   2.879
 4792SOL    HW215276   1.889   3.267   3.020
 4793SOL     OW15277   1.145   3.170   5.354
 4793SOL    HW115278   1.191   3.254   5.381
 4793SOL    HW215279   1.195   3.126   5.279
 4794SOL     OW15280   4.570   1.790   4.595
 4794SOL    HW115281   4.485   1.744   4.623
 4794SOL    HW215282   4.590   1.865   4.658
 4795SOL     OW15283   0.064   0.992   6.688
 4795SOL    HW115284   7.019   0.931   6.733
 4795SOL    HW215285   0.040   1.087   6.707
 4796SOL     OW15286   4.448   1.449   5.546
 4796SOL    HW115287   4.545   1.473   5.546
 4796SOL    HW215288   4.397   1.518   5.598
 4797SOL     OW15289   1.796   4.966   5.371
 4797SOL    HW115290   1.735   4.887   5.378
 4797SOL    HW215291   1.786   5.022   5.454
 4798SOL     OW15292   4.066   5.193   0.148
 4798SOL    HW115293   3.995   5.257   0.177
 4798SOL    HW215294   4.118   5.233   0.072
 4799SOL     OW15295   4.593   2.720   6.951
 4799SOL    HW115296   4.570   2.737   6.855
 4799SOL    HW215297   4.553   2.792   7.008
 4800SOL     OW15298   0.348   3.860   0.449
 4800SOL    HW115299   0.351   3.768   0.410
 4800SOL    HW215300   0.296   3.859   0.534
 4801SOL     OW15301   5.396   2.518   2.037
 4801SOL    HW115302   5.412   2.420   2.053
 4801SOL    HW215303   5.436   2.543   1.948
 4802SOL     OW15304   6.575   0.309   4.092
 4802SOL    HW115305   6.660   0.331   4.140
 4802SOL    HW215306   6.514   0.389   4.095
 4803SOL     OW15307   5.323   3.709   5.910
 4803SOL    HW115308   5.289   3.801   5.891
 4803SOL    HW215309   5.376   3.710   5.995
 4804SOL     OW15310   4.731   1.790   0.608
 4804SOL    HW115311   4.658   1.721   0.602
 4804SOL    HW215312   4.819   1.748   0.586
 4805SOL     OW15313   6.483   1.641   6.915
 4805SOL    HW115314   6.534   1.625   6.830
 4805SOL    HW215315   6.534   1.704   6.973
 4806SOL     OW15316   0.812   0.940   3.656
 4806SOL    HW115317   0.909   0.954   3.674
 4806SOL    HW215318   0.771   0.887   3.730
 4807SOL     OW15319   0.348   4.021   5.342
 4807SOL    HW115320   0.348   4.121   5.336
 4807SOL    HW215321   0.280   3.984   5.279
 4808SOL     OW15322   3.732   6.211   1.772
 4808SOL    HW115323   3.817   6.161   1.783
 4808SOL    HW215324   3.662   6.170   1.831
 4809SOL     OW15325   3.380   3.943   1.345
 4809SOL    HW115326   3.417   3.927   1.253
 4809SOL    HW215327   3.450   3.989   1.400
 4810SOL     OW15328   0.580   4.941   4.155
 4810SOL    HW115329   0.661   4.995   4.175
 4810SOL    HW215330   0.599   4.844   4.174
 4811SOL     OW15331   2.901   3.768   4.356
 4811SOL    HW115332   2.957   3.807   4.429
 4811SOL    HW215333   2.805   3.793   4.371
 4812SOL     OW15334   0.997   0.472   2.941
 4812SOL    HW115335   1.072   0.527   2.979
 4812SOL    HW215336   1.032   0.416   2.866
 4813SOL     OW15337   6.869   1.756   5.521
 4813SOL    HW115338   6.845   1.708   5.437
 4813SOL    HW215339   6.789   1.760   5.581
 4814SOL     OW15340   6.296   3.906   1.432
 4814SOL    HW115341   6.375   3.845   1.441
 4814SOL    HW215342   6.260   3.900   1.338
 4815SOL     OW15343   5.455   4.508   1.663
 4815SOL    HW115344   5.421   4.419   1.693
 4815SOL    HW215345   5.509   4.549   1.737
 4816SOL     OW15346   2.738   1.479   2.697
 4816SOL    HW115347   2.827   1.461   2.739
 4816SOL    HW215348   2.740   1.453   2.601
 4817SOL     OW15349   4.373   2.135   0.670
 4817SOL    HW115350   4.403   2.065   0.604
 4817SOL    HW215351   4.282   2.167   0.646
 4818SOL     OW15352   4.062   0.548   5.233
 4818SOL    HW115353   4.091   0.643   5.245
 4818SOL    HW215354   4.093   0.515   5.144
 4819SOL     OW15355   3.813   0.222   0.882
 4819SOL    HW115356   3.747   0.204   0.809
 4819SOL    HW215357   3.905   0.203   0.849
 4820SOL     OW15358   5.906   3.908   2.019
 4820SOL    HW115359   5.827   3.890   1.961
 4820SOL    HW215360   5.889   3.988   2.076
 4821SOL     OW15361   0.125   5.189   1.614
 4821SOL    HW115362   0.121   5.210   1.516
 4821SOL    HW215363   0.140   5.091   1.627
 4822SOL     OW15364   0.975   4.124   2.323
 4822SOL    HW115365   1.015   4.065   2.393
 4822SOL    HW215366   0.982   4.079   2.234
 4823SOL     OW15367   1.515   0.961   4.150
 4823SOL    HW115368   1.450   0.936   4.078
 4823SOL    HW215369   1.532   1.060   4.146
 4824SOL     OW15370   5.388   2.813   1.706
 4824SOL    HW115371   5.338   2.734   1.671
 4824SOL    HW215372   5.386   2.812   1.806
 4825SOL     OW15373   0.581   2.847   3.160
 4825SOL    HW115374   0.562   2.921   3.225
 4825SOL    HW215375   0.629   2.773   3.207
 4826SOL     OW15376   6.849   6.219   6.963
 4826SOL    HW115377   6.873   6.173   6.877
 4826SOL    HW215378   6.932   6.251   7.008
 4827SOL     OW15379   5.857   1.027   1.046
 4827SOL    HW115380   5.787   1.094   1.021
 4827SOL    HW215381   5.817   0.935   1.043
 4828SOL     OW15382   4.795   3.641   6.544
 4828SOL    HW115383   4.723   3.639   6.613
 4828SOL    HW215384   4.846   3.555   6.546
 4829SOL     OW15385   3.519   0.162   5.265
 4829SOL    HW115386   3.441   0.224   5.263
 4829SOL    HW215387   3.548   0.141   5.171
 4830SOL     OW15388   3.892   6.637   5.226
 4830SOL    HW115389   3.800   6.602   5.212
 4830SOL    HW215390   3.944   6.630   5.140
 4831SOL     OW15391   6.588   3.886   5.764
 4831SOL    HW115392   6.687   3.889   5.748
 4831SOL    HW215393   6.557   3.791   5.766
 4832SOL     OW15394   2.334   2.519   6.485
 4832SOL    HW115395   2.334   2.529   6.385
 4832SOL    HW215396   2.243   2.541   6.521
 4833SOL     OW15397   4.835   1.754   2.957
 4833SOL    HW115398   4.872   1.841   2.992
 4833SOL    HW215399   4.853   1.682   3.024
 4834SOL     OW15400   5.723   0.536   2.825
 4834SOL    HW115401   5.730   0.627   2.867
 4834SOL    HW215402   5.698   0.470   2.896
 4835SOL     OW15403   2.210   0.822   5.844
 4835SOL    HW115404   2.274   0.749   5.819
 4835SOL    HW215405   2.187   0.815   5.941
 4836SOL     OW15406   5.571   2.708   2.757
 4836SOL    HW115407   5.652   2.754   2.793
 4836SOL    HW215408   5.519   2.773   2.701
 4837SOL     OW15409   0.955   4.057   0.540
 4837SOL    HW115410   0.892   4.131   0.515
 4837SOL    HW215411   0.967   3.996   0.462
 4838SOL     OW15412   2.613   5.859   2.729
 4838SOL    HW115413   2.694   5.917   2.722
 4838SOL    HW215414   2.631   5.772   2.683
 4839SOL     OW15415   0.511   6.772   6.453
 4839SOL    HW115416   0.495   6.834   6.529
 4839SOL    HW215417   0.455   6.690   6.464
 4840SOL     OW15418   6.890   6.475   6.630
 4840SOL    HW115419   6.879   6.568   6.596
 4840SOL    HW215420   6.963   6.473   6.699
 4841SOL     OW15421   2.273   6.089   2.497
 4841SOL    HW115422   2.308   6.000   2.469
 4841SOL    HW215423   2.174   6.091   2.481
 4842SOL     OW15424   3.230   6.667   1.186
 4842SOL    HW115425   3.278   6.696   1.269
 4842SOL    HW215426   3.296   6.626   1.123
 4843SOL     OW15427   0.284   3.049   0.027
 4843SOL    HW115428   0.211   2.982   0.011
 4843SOL    HW215429   0.295   3.064   0.125
 4844SOL     OW15430   6.843   1.923   5.894
 4844SOL    HW115431   6.775   1.953   5.827
 4844SOL    HW215432   6.864   1.999   5.955
 4845SOL     OW15433   5.713   5.866   3.627
 4845SOL    HW115434   5.674   5.834   3.713
 4845SOL    HW215435   5.771   5.794   3.588
 4846SOL     OW15436   1.082   4.820   0.735
 4846SOL    HW115437   1.133   4.859   0.659
 4846SOL    HW215438   1.064   4.891   0.804
 4847SOL     OW15439   4.424   2.207   4.730
 4847SOL    HW115440   4.472   2.292   4.706
 4847SOL    HW215441   4.335   2.206   4.684
 4848SOL     OW15442   3.002   2.142   2.147
 4848SOL    HW115443   2.930   2.072   2.139
 4848SOL    HW215444   2.969   2.227   2.107
 4849SOL     OW15445   1.270   6.292   0.303
 4849SOL    HW115446   1.322   6.344   0.371
 4849SOL    HW215447   1.325   6.282   0.220
 4850SOL     OW15448   4.061   0.434   2.373
 4850SOL    HW115449   4.001   0.389   2.307
 4850SOL    HW215450   4.011   0.508   2.418
 4851SOL     OW15451   5.129   0.157   4.999
 4851SOL    HW115452   5.049   0.123   4.949
 4851SOL    HW215453   5.101   0.182   5.092
 4852SOL     OW15454   1.786   2.114   1.402
 4852SOL    HW115455   1.876   2.074   1.385
 4852SOL    HW215456   1.720   2.074   1.339
 4853SOL     OW15457   2.948   1.153   1.843
 4853SOL    HW115458   3.029   1.207   1.821
 4853SOL    HW215459   2.880   1.210   1.889
 4854SOL     OW15460   4.878   6.771   0.662
 4854SOL    HW115461   4.810   6.844   0.663
 4854SOL    HW215462   4.832   6.683   0.646
 4855SOL     OW15463   0.351   2.326   2.688
 4855SOL    HW115464   0.319   2.393   2.755
 4855SOL    HW215465   0.395   2.374   2.612
 4856SOL     OW15466   2.310   4.281   3.865
 4856SOL    HW115467   2.320   4.331   3.952
 4856SOL    HW215468   2.360   4.329   3.793
 4857SOL     OW15469   0.294   2.269   5.623
 4857SOL    HW115470   0.308   2.345   5.560
 4857SOL    HW215471   0.199   2.238   5.618
 4858SOL     OW15472   0.842   1.230   3.828
 4858SOL    HW115473   0.942   1.237   3.830
 4858SOL    HW215474   0.807   1.272   3.744
 4859SOL     OW15475   2.659   5.382   5.198
 4859SOL    HW115476   2.630   5.287   5.209
 4859SOL    HW215477   2.757   5.385   5.178
 4860SOL     OW15478   4.605   4.663   0.786
 4860SOL    HW115479   4.615   4.567   0.813
 4860SOL    HW215480   4.540   4.670   0.710
 4861SOL     OW15481   4.863   3.629   5.688
 4861SOL    HW115482   4.911   3.609   5.774
 4861SOL    HW215483   4.911   3.584   5.612
 4862SOL     OW15484   1.663   6.376   1.979
 4862SOL    HW115485   1.660   6.456   1.920
 4862SOL    HW215486   1.734   6.313   1.947
 4863SOL     OW15487   5.942   4.480   6.333
 4863SOL    HW115488   5.862   4.539   6.339
 4863SOL    HW215489   6.021   4.534   6.303
 4864SOL     OW15490   3.018   1.177   3.696
 4864SOL    HW115491   3.055   1.254   3.643
 4864SOL    HW215492   3.088   1.143   3.759
 4865SOL     OW15493   2.057   6.841   4.854
 4865SOL    HW115494   2.128   6.817   4.789
 4865SOL    HW215495   2.000   6.761   4.873
 4866SOL     OW15496   6.147   4.585   6.741
 4866SOL    HW115497   6.111   4.525   6.669
 4866SOL    HW215498   6.226   4.541   6.784
 4867SOL     OW15499   5.287   6.641   2.640
 4867SOL    HW115500   5.361   6.686   2.589
 4867SOL    HW215501   5.289   6.671   2.735
 4868SOL     OW15502   0.033   4.639   1.226
 4868SOL    HW115503   0.039   4.582   1.308
 4868SOL    HW215504   6.982   4.604   1.166
 4869SOL     OW15505   0.715   1.189   6.961
 4869SOL    HW115506   0.814   1.182   6.953
 4869SOL    HW215507   0.693   1.248   0.019
 4870SOL     OW15508   0.870   5.994   1.860
 4870SOL    HW115509   0.819   5.923   1.813
 4870SOL    HW215510   0.928   6.043   1.795
 4871SOL     OW15511   1.724   1.693   4.671
 4871SOL    HW115512   1.794   1.640   4.719
 4871SOL    HW215513   1.659   1.631   4.627
 4872SOL     OW15514   5.595   6.893   3.043
 4872SOL    HW115515   5.630   6.880   3.136
 4872SOL    HW215516   5.535   6.973   3.041
 4873SOL     OW15517   6.863   5.657   5.511
 4873SOL    HW115518   6.939   5.683   5.452
 4873SOL    HW215519   6.891   5.583   5.572
 4874SOL     OW15520   5.339   2.498   2.738
 4874SOL    HW115521   5.386   2.587   2.742
 4874SOL    HW215522   5.406   2.425   2.746
 4875SOL     OW15523   5.589   6.197   5.211
 4875SOL    HW115524   5.641   6.219   5.128
 4875SOL    HW215525   5.593   6.275   5.274
 4876SOL     OW15526   1.622   0.939   3.122
 4876SOL    HW115527   1.567   0.856   3.110
 4876SOL    HW215528   1.567   1.019   3.100
 4877SOL     OW15529   0.210   1.769   4.845
 4877SOL    HW115530   0.201   1.863   4.876
 4877SOL    HW215531   0.306   1.744   4.843
 4878SOL     OW15532   0.198   2.609   2.568
 4878SOL    HW115533   0.231   2.694   2.528
 4878SOL    HW215534   0.131   2.630   2.640
 4879SOL     OW15535   5.134   1.458   3.099
 4879SOL    HW115536   5.137   1.407   3.014
 4879SOL    HW215537   5.040   1.463   3.133
 4880SOL     OW15538   6.684   2.700   6.509
 4880SOL    HW115539   6.649   2.682   6.417
 4880SOL    HW215540   6.622   2.764   6.555
 4881SOL     OW15541   1.927   2.224   1.760
 4881SOL    HW115542   1.870   2.152   1.800
 4881SOL    HW215543   1.878   2.265   1.683
 4882SOL     OW15544   4.117   1.689   4.379
 4882SOL    HW115545   4.168   1.761   4.331
 4882SOL    HW215546   4.178   1.611   4.394
 4883SOL     OW15547   6.788   4.303   1.266
 4883SOL    HW115548   6.830   4.290   1.356
 4883SOL    HW215549   6.835   4.246   1.199
 4884SOL     OW15550   2.137   6.361   1.064
 4884SOL    HW115551   2.159   6.276   1.015
 4884SOL    HW215552   2.098   6.427   1.000
 4885SOL     OW15553   0.960   4.619   0.286
 4885SOL    HW115554   1.022   4.635   0.363
 4885SOL    HW215555   0.971   4.692   0.219
 4886SOL     OW15556   2.441   0.868   1.869
 4886SOL    HW115557   2.361   0.810   1.855
 4886SOL    HW215558   2.416   0.963   1.855
 4887SOL     OW15559   6.380   6.793   1.112
 4887SOL    HW115560   6.451   6.816   1.179
 4887SOL    HW215561   6.290   6.799   1.155
 4888SOL     OW15562   4.272   6.635   3.102
 4888SOL    HW115563   4.236   6.680   3.184
 4888SOL    HW215564   4.330   6.558   3.128
 4889SOL     OW15565   0.137   3.168   4.016
 4889SOL    HW115566   0.085   3.086   3.991
 4889SOL    HW215567   0.143   3.174   4.116
 4890SOL     OW15568   0.375   1.087   4.474
 4890SOL    HW115569   0.409   1.044   4.391
 4890SOL    HW215570   0.285   1.049   4.497
 4891SOL     OW15571   2.729   5.595   6.125
 4891SOL    HW115572   2.654   5.562   6.067
 4891SOL    HW215573   2.693   5.621   6.214
 4892SOL     OW15574   4.829   5.805   2.915
 4892SOL    HW115575   4.749   5.747   2.930
 4892SOL    HW215576   4.884   5.810   2.998
 4893SOL     OW15577   0.888   3.424   1.420
 4893SOL    HW115578   0.811   3.483   1.393
 4893SOL    HW215579   0.921   3.374   1.340
 4894SOL     OW15580   5.078   0.600   1.713
 4894SOL    HW115581   5.036   0.515   1.681
 4894SOL    HW215582   5.154   0.579   1.774
 4895SOL     OW15583   6.977   4.312   4.326
 4895SOL    HW115584   0.040   4.307   4.381
 4895SOL    HW215585   6.960   4.408   4.301
 4896SOL     OW15586   1.734   5.059   4.454
 4896SOL    HW115587   1.830   5.034   4.463
 4896SOL    HW215588   1.691   5.061   4.544
 4897SOL     OW15589   1.952   6.564   4.882
 4897SOL    HW115590   1.966   6.492   4.814
 4897SOL    HW215591   1.856   6.565   4.911
 4898SOL     OW15592   4.786   1.540   3.717
 4898SOL    HW115593   4.718   1.482   3.671
 4898SOL    HW215594   4.750   1.633   3.723
 4899SOL     OW15595   6.880   6.067   1.782
 4899SOL    HW115596   6.819   6.017   1.842
 4899SOL    HW215597   6.912   6.150   1.828
 4900SOL     OW15598   3.587   6.027   5.746
 4900SOL    HW115599   3.676   5.983   5.758
 4900SOL    HW215600   3.580   6.062   5.652
 4901SOL     OW15601   0.679   1.556   5.714
 4901SOL    HW115602   0.609   1.504   5.762
 4901SOL    HW215603   0.656   1.653   5.717
 4902SOL     OW15604   1.537   0.166   5.849
 4902SOL    HW115605   1.486   0.084   5.872
 4902SOL    HW215606   1.512   0.240   5.911
 4903SOL     OW15607   4.796   4.110   2.554
 4903SOL    HW115608   4.760   4.048   2.623
 4903SOL    HW215609   4.881   4.072   2.516
 4904SOL     OW15610   1.718   6.903   0.450
 4904SOL    HW115611   1.752   6.872   0.539
 4904SOL    HW215612   1.794   6.902   0.384
 4905SOL     OW15613   2.931   6.344   3.072
 4905SOL    HW115614   2.899   6.291   3.151
 4905SOL    HW215615   2.978   6.426   3.104
 4906SOL     OW15616   4.989   3.431   5.143
 4906SOL    HW115617   4.939   3.361   5.193
 4906SOL    HW215618   4.925   3.487   5.091
 4907SOL     OW15619   5.033   1.804   6.696
 4907SOL    HW115620   5.006   1.727   6.638
 4907SOL    HW215621   5.025   1.889   6.644
 4908SOL     OW15622   4.462   6.321   0.070
 4908SOL    HW115623   4.451   6.310   0.168
 4908SOL    HW215624   4.405   6.396   0.038
 4909SOL     OW15625   5.004   4.641   4.634
 4909SOL    HW115626   5.010   4.681   4.725
 4909SOL    HW215627   4.948   4.700   4.575
 4910SOL     OW15628   4.600   2.046   5.669
 4910SOL    HW115629   4.620   1.950   5.650
 4910SOL    HW215630   4.685   2.099   5.668
 4911SOL     OW15631   6.915   2.624   2.399
 4911SOL    HW115632   6.821   2.639   2.367
 4911SOL    HW215633   6.930   2.674   2.484
 4912SOL     OW15634   5.752   2.234   3.719
 4912SOL    HW115635   5.680   2.165   3.714
 4912SOL    HW215636   5.727   2.313   3.664
 4913SOL     OW15637   0.139   3.545   5.866
 4913SOL    HW115638   0.135   3.605   5.785
 4913SOL    HW215639   0.049   3.545   5.910
 4914SOL     OW15640   4.513   0.615   3.465
 4914SOL    HW115641   4.505   0.675   3.544
 4914SOL    HW215642   4.488   0.521   3.491
 4915SOL     OW15643   3.714   5.176   5.742
 4915SOL    HW115644   3.729   5.272   5.764
 4915SOL    HW215645   3.745   5.159   5.648
 4916SOL     OW15646   6.021   2.731   4.237
 4916SOL    HW115647   5.930   2.721   4.197
 4916SOL    HW215648   6.087   2.752   4.164
 4917SOL     OW15649   4.393   6.237   0.326
 4917SOL    HW115650   4.401   6.160   0.264
 4917SOL    HW215651   4.406   6.206   0.420
 4918SOL     OW15652   6.047   4.969   2.988
 4918SOL    HW115653   6.145   4.986   2.983
 4918SOL    HW215654   6.000   5.053   3.014
 4919SOL     OW15655   3.567   3.838   2.354
 4919SOL    HW115656   3.573   3.781   2.436
 4919SOL    HW215657   3.637   3.909   2.357
 4920SOL     OW15658   6.631   1.141   5.948
 4920SOL    HW115659   6.646   1.073   6.020
 4920SOL    HW215660   6.713   1.148   5.891
 4921SOL     OW15661   0.072   6.611   2.413
 4921SOL    HW115662   0.016   6.650   2.487
 4921SOL    HW215663   0.162   6.656   2.412
 4922SOL     OW15664   3.613   2.049   6.535
 4922SOL    HW115665   3.545   1.984   6.568
 4922SOL    HW215666   3.627   2.121   6.603
 4923SOL     OW15667   3.739   1.540   1.665
 4923SOL    HW115668   3.740   1.489   1.579
 4923SOL    HW215669   3.831   1.541   1.705
 4924SOL     OW15670   2.442   0.514   4.886
 4924SOL    HW115671   2.488   0.581   4.828
 4924SOL    HW215672   2.489   0.426   4.878
 4925SOL     OW15673   5.615   6.347   3.699
 4925SOL    HW115674   5.654   6.300   3.778
 4925SOL    HW215675   5.539   6.404   3.727
 4926SOL     OW15676   5.546   2.448   1.101
 4926SOL    HW115677   5.530   2.405   1.190
 4926SOL    HW215678   5.486   2.527   1.091
 4927SOL     OW15679   3.448   1.401   6.952
 4927SOL    HW115680   3.412   1.478   7.006
 4927SOL    HW215681   3.420   1.412   6.857
 4928SOL     OW15682   6.988   2.487   1.119
 4928SOL    HW115683   6.916   2.417   1.121
 4928SOL    HW215684   7.003   2.522   1.211
 4929SOL     OW15685   0.706   6.424   5.049
 4929SOL    HW115686   0.737   6.336   5.015
 4929SOL    HW215687   0.630   6.457   4.993
 4930SOL     OW15688   5.391   6.451   1.913
 4930SOL    HW115689   5.406   6.411   1.823
 4930SOL    HW215690   5.321   6.399   1.962
 4931SOL     OW15691   6.717   5.698   0.381
 4931SOL    HW115692   6.698   5.607   0.345
 4931SOL    HW215693   6.645   5.724   0.445
 4932SOL     OW15694   3.035   3.112   1.901
 4932SOL    HW115695   3.082   3.092   1.986
 4932SOL    HW215696   3.062   3.046   1.831
 4933SOL     OW15697   2.704   6.214   5.818
 4933SOL    HW115698   2.663   6.219   5.727
 4933SOL    HW215699   2.632   6.206   5.887
 4934SOL     OW15700   4.341   5.275   2.665
 4934SOL    HW115701   4.333   5.360   2.613
 4934SOL    HW215702   4.329   5.197   2.604
 4935SOL     OW15703   0.378   1.317   6.129
 4935SOL    HW115704   0.316   1.247   6.164
 4935SOL    HW215705   0.331   1.373   6.061
 4936SOL     OW15706   3.647   2.989   0.589
 4936SOL    HW115707   3.666   2.955   0.681
 4936SOL    HW215708   3.729   3.033   0.552
 4937SOL     OW15709   4.437   2.508   4.933
 4937SOL    HW115710   4.437   2.482   4.837
 4937SOL    HW215711   4.352   2.477   4.976
 4938SOL     OW15712   3.921   5.185   6.629
 4938SOL    HW115713   3.833   5.137   6.633
 4938SOL    HW215714   3.919   5.253   6.555
 4939SOL     OW15715   4.583   3.149   6.039
 4939SOL    HW115716   4.628   3.061   6.022
 4939SOL    HW215717   4.536   3.146   6.127
 4940SOL     OW15718   1.873   6.067   4.668
 4940SOL    HW115719   1.881   6.119   4.582
 4940SOL    HW215720   1.787   6.091   4.713
 4941SOL     OW15721   5.258   0.313   1.064
 4941SOL    HW115722   5.316   0.288   1.141
 4941SOL    HW215723   5.225   0.407   1.076
 4942SOL     OW15724   5.338   3.361   5.504
 4942SOL    HW115725   5.343   3.308   5.589
 4942SOL    HW215726   5.279   3.441   5.519
 4943SOL     OW15727   5.330   2.571   1.446
 4943SOL    HW115728   5.281   2.586   1.532
 4943SOL    HW215729   5.401   2.641   1.436
 4944SOL     OW15730   2.446   4.388   2.722
 4944SOL    HW115731   2.408   4.453   2.788
 4944SOL    HW215732   2.489   4.438   2.647
 4945SOL     OW15733   0.728   6.198   4.915
 4945SOL    HW115734   0.652   6.148   4.872
 4945SOL    HW215735   0.790   6.233   4.844
 4946SOL     OW15736   0.707   4.575   2.298
 4946SOL    HW115737   0.686   4.509   2.370
 4946SOL    HW215738   0.789   4.627   2.324
 4947SOL     OW15739   0.073   0.146   0.809
 4947SOL    HW115740   0.037   0.066   0.856
 4947SOL    HW215741   0.143   0.117   0.743
 4948SOL     OW15742   1.696   1.446   2.122
 4948SOL    HW115743   1.666   1.419   2.214
 4948SOL    HW215744   1.625   1.501   2.079
 4949SOL     OW15745   4.997   1.570   4.554
 4949SOL    HW115746   4.934   1.583   4.630
 4949SOL    HW215747   5.034   1.659   4.526
 4950SOL     OW15748   2.917   5.323   5.424
 4950SOL    HW115749   2.963   5.384   5.359
 4950SOL    HW215750   2.849   5.268   5.376
 4951SOL     OW15751   4.573   1.729   3.515
 4951SOL    HW115752   4.542   1.824   3.512
 4951SOL    HW215753   4.630   1.711   3.435
 4952SOL     OW15754   0.830   5.513   4.750
 4952SOL    HW115755   0.910   5.574   4.750
 4952SOL    HW215756   0.828   5.461   4.835
 4953SOL     OW15757   1.727   5.910   1.566
 4953SOL    HW115758   1.682   5.835   1.614
 4953SOL    HW215759   1.816   5.879   1.533
 4954SOL     OW15760   5.680   5.693   6.699
 4954SOL    HW115761   5.668   5.759   6.625
 4954SOL    HW215762   5.762   5.638   6.682
 4955SOL     OW15763   0.948   6.939   1.715
 4955SOL    HW115764   1.032   6.985   1.686
 4955SOL    HW215765   0.868   6.989   1.679
 4956SOL     OW15766   5.449   6.267   4.335
 4956SOL    HW115767   5.410   6.343   4.387
 4956SOL    HW215768   5.397   6.183   4.354
 4957SOL     OW15769   1.150   6.579   3.785
 4957SOL    HW115770   1.179   6.510   3.851
 4957SOL    HW215771   1.051   6.587   3.785
 4958SOL     OW15772   0.016   6.030   6.831
 4958SOL    HW115773   0.067   6.113   6.807
 4958SOL    HW215774   0.004   6.025   6.930
 4959SOL     OW15775   0.834   1.045   1.207
 4959SOL    HW115776   0.794   0.964   1.250
 4959SOL    HW215777   0.929   1.054   1.236
 4960SOL     OW15778   3.795   6.136   4.883
 4960SOL    HW115779   3.877   6.192   4.875
 4960SOL    HW215780   3.804   6.075   4.962
 4961SOL     OW15781   4.222   0.342   5.516
 4961SOL    HW115782   4.178   0.349   5.605
 4961SOL    HW215783   4.275   0.426   5.499
 4962SOL     OW15784   6.581   2.109   1.705
 4962SOL    HW115785   6.666   2.105   1.758
 4962SOL    HW215786   6.523   2.182   1.740
 4963SOL     OW15787   0.128   4.482   1.951
 4963SOL    HW115788   0.224   4.466   1.970
 4963SOL    HW215789   0.077   4.491   2.037
 4964SOL     OW15790   3.455   6.330   3.025
 4964SOL    HW115791   3.468   6.426   2.999
 4964SOL    HW215792   3.520   6.306   3.097
 4965SOL     OW15793   0.061   6.486   4.971
 4965SOL    HW115794   0.077   6.444   4.881
 4965SOL    HW215795   0.021   6.577   4.959
 4966SOL     OW15796   3.787   4.928   3.630
 4966SOL    HW115797   3.778   4.896   3.725
 4966SOL    HW215798   3.875   4.901   3.593
 4967SOL     OW15799   4.539   1.807   6.006
 4967SOL    HW115800   4.602   1.823   6.082
 4967SOL    HW215801   4.539   1.887   5.945
 4968SOL     OW15802   5.704   3.867   5.724
 4968SOL    HW115803   5.685   3.963   5.744
 4968SOL    HW215804   5.796   3.860   5.683
 4969SOL     OW15805   0.607   2.294   1.930
 4969SOL    HW115806   0.696   2.251   1.918
 4969SOL    HW215807   0.615   2.393   1.919
 4970SOL     OW15808   1.323   3.131   6.327
 4970SOL    HW115809   1.266   3.179   6.261
 4970SOL    HW215810   1.394   3.192   6.361
 4971SOL     OW15811   6.549   5.764   4.057
 4971SOL    HW115812   6.580   5.680   4.011
 4971SOL    HW215813   6.503   5.823   3.990
 4972SOL     OW15814   1.619   2.450   5.927
 4972SOL    HW115815   1.533   2.400   5.928
 4972SOL    HW215816   1.616   2.521   5.857
 4973SOL     OW15817   5.981   6.172   3.200
 4973SOL    HW115818   5.915   6.152   3.272
 4973SOL    HW215819   6.047   6.098   3.193
 4974SOL     OW15820   4.555   6.695   1.327
 4974SOL    HW115821   4.597   6.743   1.250
 4974SOL    HW215822   4.455   6.696   1.316
 4975SOL     OW15823   5.431   6.138   0.398
 4975SOL    HW115824   5.473   6.081   0.468
 4975SOL    HW215825   5.368   6.203   0.441
 4976SOL     OW15826   4.015   0.201   4.598
 4976SOL    HW115827   3.938   0.223   4.538
 4976SOL    HW215828   3.987   0.131   4.665
 4977SOL     OW15829   3.382   3.963   0.539
 4977SOL    HW115830   3.364   3.914   0.454
 4977SOL    HW215831   3.424   3.901   0.605
 4978SOL     OW15832   6.203   2.694   5.968
 4978SOL    HW115833   6.129   2.760   5.951
 4978SOL    HW215834   6.283   2.742   6.003
 4979SOL     OW15835   1.455   1.944   4.992
 4979SOL    HW115836   1.537   1.888   4.985
 4979SOL    HW215837   1.480   2.041   4.989
 4980SOL     OW15838   2.679   5.392   2.372
 4980SOL    HW115839   2.688   5.315   2.435
 4980SOL    HW215840   2.665   5.358   2.279
 4981SOL     OW15841   4.763   6.129   5.633
 4981SOL    HW115842   4.714   6.168   5.555
 4981SOL    HW215843   4.839   6.189   5.658
 4982SOL     OW15844   2.425   2.531   0.471
 4982SOL    HW115845   2.362   2.470   0.520
 4982SOL    HW215846   2.515   2.489   0.464
 4983SOL     OW15847   5.411   3.005   4.360
 4983SOL    HW115848   5.429   2.916   4.402
 4983SOL    HW215849   5.329   3.045   4.400
 4984SOL     OW15850   4.759   3.927   2.747
 4984SOL    HW115851   4.729   3.950   2.839
 4984SOL    HW215852   4.820   3.848   2.751
 4985SOL     OW15853   5.765   3.763   2.641
 4985SOL    HW115854   5.844   3.735   2.694
 4985SOL    HW215855   5.778   3.857   2.608
 4986SOL     OW15856   4.855   4.417   2.708
 4986SOL    HW115857   4.888   4.368   2.627
 4986SOL    HW215858   4.755   4.421   2.707
 4987SOL     OW15859   0.664   3.710   1.052
 4987SOL    HW115860   0.736   3.664   1.001
 4987SOL    HW215861   0.589   3.646   1.069
 4988SOL     OW15862   0.514   2.468   5.152
 4988SOL    HW115863   0.603   2.455   5.108
 4988SOL    HW215864   0.504   2.402   5.227
 4989SOL     OW15865   0.379   0.987   0.155
 4989SOL    HW115866   0.475   0.997   0.184
 4989SOL    HW215867   0.335   1.076   0.152
 4990SOL     OW15868   0.777   2.392   5.305
 4990SOL    HW115869   0.803   2.477   5.261
 4990SOL    HW215870   0.779   2.317   5.238
 4991SOL     OW15871   1.617   2.589   4.378
 4991SOL    HW115872   1.695   2.650   4.370
 4991SOL    HW215873   1.563   2.591   4.294
 4992SOL     OW15874   3.364   0.592   5.294
 4992SOL    HW115875   3.371   0.517   5.360
 4992SOL    HW215876   3.321   0.671   5.338
 4993SOL     OW15877   2.807   5.589   3.972
 4993SOL    HW115878   2.716   5.614   3.941
 4993SOL    HW215879   2.826   5.494   3.950
 4994SOL     OW15880   6.860   6.550   2.312
 4994SOL    HW115881   6.947   6.572   2.355
 4994SOL    HW215882   6.819   6.634   2.275
 4995SOL     OW15883   6.124   2.794   5.508
 4995SOL    HW115884   6.072   2.834   5.432
 4995SOL    HW215885   6.068   2.726   5.555
 4996SOL     OW15886   0.027   1.249   4.304
 4996SOL    HW115887   0.015   1.310   4.382
 4996SOL    HW215888   0.079   1.296   4.233
 4997SOL     OW15889   0.157   2.339   3.463
 4997SOL    HW115890   0.195   2.424   3.428
 4997SOL    HW215891   0.157   2.341   3.563
 4998SOL     OW15892   1.432   5.439   5.010
 4998SOL    HW115893   1.425   5.387   5.095
 4998SOL    HW215894   1.528   5.444   4.982
 4999SOL     OW15895   6.485   4.324   1.159
 4999SOL    HW115896   6.577   4.315   1.197
 4999SOL    HW215897   6.439   4.401   1.202
 5000SOL     OW15898   6.962   5.338   4.583
 5000SOL    HW115899   7.017   5.314   4.663
 5000SOL    HW215900   6.954   5.258   4.523
 5001SOL     OW15901   4.656   4.295   5.805
 5001SOL    HW115902   4.709   4.210   5.806
 5001SOL    HW215903   4.565   4.277   5.767
 5002SOL     OW15904   2.351   1.582   1.413
 5002SOL    HW115905   2.318   1.512   1.475
 5002SOL    HW215906   2.431   1.627   1.453
 5003SOL     OW15907   6.309   5.471   3.079
 5003SOL    HW115908   6.321   5.400   3.148
 5003SOL    HW215909   6.213   5.475   3.051
 5004SOL     OW15910   3.242   5.102   0.335
 5004SOL    HW115911   3.239   5.005   0.312
 5004SOL    HW215912   3.187   5.154   0.270
 5005SOL     OW15913   4.483   2.404   6.965
 5005SOL    HW115914   4.561   2.348   6.937
 5005SOL    HW215915   4.513   2.499   6.978
 5006SOL     OW15916   5.088   4.863   3.581
 5006SOL    HW115917   5.149   4.785   3.566
 5006SOL    HW215918   4.995   4.829   3.599
 5007SOL     OW15919   4.311   1.727   4.683
 5007SOL    HW115920   4.315   1.741   4.782
 5007SOL    HW215921   4.270   1.807   4.640
 5008SOL     OW15922   6.847   1.311   4.010
 5008SOL    HW115923   6.754   1.284   3.983
 5008SOL    HW215924   6.845   1.350   4.102
 5009SOL     OW15925   1.922   6.415   3.886
 5009SOL    HW115926   1.988   6.390   3.815
 5009SOL    HW215927   1.847   6.468   3.845
 5010SOL     OW15928   3.321   3.513   4.348
 5010SOL    HW115929   3.295   3.540   4.255
 5010SOL    HW215930   3.242   3.471   4.393
 5011SOL     OW15931   1.237   3.118   2.976
 5011SOL    HW115932   1.248   3.186   2.903
 5011SOL    HW215933   1.208   3.031   2.937
 5012SOL     OW15934   5.706   3.185   6.817
 5012SOL    HW115935   5.678   3.126   6.741
 5012SOL    HW215936   5.717   3.130   6.900
 5013SOL     OW15937   5.081   1.289   6.052
 5013SOL    HW115938   5.062   1.201   6.009
 5013SOL    HW215939   5.011   1.356   6.026
 5014SOL     OW15940   6.227   6.890   0.341
 5014SOL    HW115941   6.288   6.826   0.388
 5014SOL    HW215942   6.268   6.918   0.254
 5015SOL     OW15943   5.393   2.270   3.347
 5015SOL    HW115944   5.363   2.181   3.313
 5015SOL    HW215945   5.448   2.316   3.278
 5016SOL     OW15946   2.588   6.997   2.158
 5016SOL    HW115947   2.493   7.013   2.131
 5016SOL    HW215948   2.591   6.947   2.244
 5017SOL     OW15949   2.373   2.696   1.663
 5017SOL    HW115950   2.325   2.654   1.585
 5017SOL    HW215951   2.444   2.634   1.695
 5018SOL     OW15952   6.855   4.831   4.585
 5018SOL    HW115953   6.920   4.870   4.520
 5018SOL    HW215954   6.792   4.770   4.537
 5019SOL     OW15955   2.778   5.250   6.177
 5019SOL    HW115956   2.702   5.244   6.242
 5019SOL    HW215957   2.744   5.242   6.084
 5020SOL     OW15958   5.100   5.122   6.191
 5020SOL    HW115959   5.098   5.042   6.132
 5020SOL    HW215960   5.039   5.192   6.155
 5021SOL     OW15961   2.210   5.175   6.000
 5021SOL    HW115962   2.127   5.200   5.950
 5021SOL    HW215963   2.244   5.086   5.968
 5022SOL     OW15964   1.526   4.902   0.742
 5022SOL    HW115965   1.622   4.911   0.716
 5022SOL    HW215966   1.505   4.807   0.762
 5023SOL     OW15967   6.669   3.285   3.104
 5023SOL    HW115968   6.764   3.317   3.100
 5023SOL    HW215969   6.620   3.334   3.176
 5024SOL     OW15970   5.713   3.417   5.828
 5024SOL    HW115971   5.718   3.348   5.757
 5024SOL    HW215972   5.788   3.483   5.816
 5025SOL     OW15973   6.451   1.839   2.988
 5025SOL    HW115974   6.496   1.894   3.059
 5025SOL    HW215975   6.433   1.747   3.024
 5026SOL     OW15976   0.673   6.236   2.691
 5026SOL    HW115977   0.706   6.147   2.720
 5026SOL    HW215978   0.725   6.308   2.737
 5027SOL     OW15979   0.801   6.593   3.366
 5027SOL    HW115980   0.862   6.563   3.439
 5027SOL    HW215981   0.718   6.537   3.368
 5028SOL     OW15982   1.239   0.583   3.012
 5028SOL    HW115983   1.296   0.589   2.929
 5028SOL    HW215984   1.292   0.542   3.086
 5029SOL     OW15985   0.199   1.073   2.736
 5029SOL    HW115986   0.239   1.152   2.781
 5029SOL    HW215987   0.147   1.103   2.656
 5030SOL     OW15988   1.693   5.688   6.931
 5030SOL    HW115989   1.684   5.680   6.832
 5030SOL    HW215990   1.631   5.623   6.975
 5031SOL     OW15991   5.644   0.447   5.061
 5031SOL    HW115992   5.721   0.383   5.055
 5031SOL    HW215993   5.566   0.401   5.104
 5032SOL     OW15994   0.928   6.351   1.241
 5032SOL    HW115995   0.844   6.353   1.186
 5032SOL    HW215996   0.951   6.256   1.263
 5033SOL     OW15997   1.076   4.031   5.757
 5033SOL    HW115998   1.152   4.085   5.721
 5033SOL    HW215999   1.035   3.977   5.684
 5034SOL     OW16000   6.589   3.882   0.216
 5034SOL    HW116001   6.684   3.886   0.186
 5034SOL    HW216002   6.540   3.814   0.161
 5035SOL     OW16003   6.408   4.217   1.412
 5035SOL    HW116004   6.456   4.252   1.332
 5035SOL    HW216005   6.364   4.130   1.389
 5036SOL     OW16006   1.822   0.749   2.546
 5036SOL    HW116007   1.908   0.712   2.581
 5036SOL    HW216008   1.774   0.797   2.620
 5037SOL     OW16009   4.620   2.435   2.982
 5037SOL    HW116010   4.524   2.465   2.977
 5037SOL    HW216011   4.662   2.472   3.065
 5038SOL     OW16012   2.682   6.374   6.231
 5038SOL    HW116013   2.727   6.313   6.297
 5038SOL    HW216014   2.653   6.457   6.278
 5039SOL     OW16015   1.667   1.689   3.902
 5039SOL    HW116016   1.621   1.673   3.814
 5039SOL    HW216017   1.752   1.739   3.886
 5040SOL     OW16018   2.733   3.647   6.362
 5040SOL    HW116019   2.647   3.605   6.391
 5040SOL    HW216020   2.754   3.619   6.268
 5041SOL     OW16021   1.023   5.471   1.180
 5041SOL    HW116022   1.085   5.501   1.108
 5041SOL    HW216023   0.973   5.389   1.150
 5042SOL     OW16024   5.995   2.044   5.966
 5042SOL    HW116025   5.900   2.012   5.973
 5042SOL    HW216026   6.039   2.039   6.055
 5043SOL     OW16027   4.744   0.262   3.374
 5043SOL    HW116028   4.716   0.222   3.287
 5043SOL    HW216029   4.690   0.344   3.391
 5044SOL     OW16030   6.077   4.414   2.678
 5044SOL    HW116031   6.066   4.418   2.579
 5044SOL    HW216032   6.010   4.476   2.720
 5045SOL     OW16033   6.445   3.256   6.177
 5045SOL    HW116034   6.416   3.166   6.211
 5045SOL    HW216035   6.381   3.326   6.209
 5046SOL     OW16036   3.159   3.012   5.356
 5046SOL    HW116037   3.098   3.061   5.294
 5046SOL    HW216038   3.167   2.917   5.326
 5047SOL     OW16039   1.277   1.260   2.697
 5047SOL    HW116040   1.215   1.223   2.628
 5047SOL    HW216041   1.363   1.210   2.694
 5048SOL     OW16042   6.198   3.582   1.563
 5048SOL    HW116043   6.271   3.517   1.542
 5048SOL    HW216044   6.133   3.540   1.626
 5049SOL     OW16045   1.436   2.445   2.482
 5049SOL    HW116046   1.394   2.369   2.532
 5049SOL    HW216047   1.450   2.522   2.544
 5050SOL     OW16048   1.079   3.388   0.942
 5050SOL    HW116049   1.164   3.342   0.918
 5050SOL    HW216050   1.008   3.367   0.875
 5051SOL     OW16051   2.911   3.816   0.595
 5051SOL    HW116052   2.871   3.777   0.677
 5051SOL    HW216053   2.840   3.830   0.526
 5052SOL     OW16054   5.718   3.838   0.486
 5052SOL    HW116055   5.645   3.828   0.419
 5052SOL    HW216056   5.799   3.788   0.455
 5053SOL     OW16057   1.946   4.735   0.357
 5053SOL    HW116058   2.018   4.789   0.313
 5053SOL    HW216059   1.934   4.649   0.309
 5054SOL     OW16060   3.931   5.881   5.033
 5054SOL    HW116061   3.852   5.836   5.074
 5054SOL    HW216062   4.015   5.834   5.063
 5055SOL     OW16063   1.795   2.086   3.953
 5055SOL    HW116064   1.770   2.131   4.039
 5055SOL    HW216065   1.878   2.128   3.917
 5056SOL     OW16066   2.202   2.312   5.470
 5056SOL    HW116067   2.171   2.221   5.498
 5056SOL    HW216068   2.261   2.350   5.541
 5057SOL     OW16069   0.502   4.427   3.008
 5057SOL    HW116070   0.518   4.346   2.951
 5057SOL    HW216071   0.445   4.401   3.086
 5058SOL     OW16072   3.296   3.399   7.009
 5058SOL    HW116073   3.277   3.471   0.054
 5058SOL    HW216074   3.389   3.365   0.003
 5059SOL     OW16075   4.185   1.686   3.045
 5059SOL    HW116076   4.245   1.614   3.010
 5059SOL    HW216077   4.090   1.661   3.029
 5060SOL     OW16078   0.222   3.416   5.319
 5060SOL    HW116079   0.302   3.356   5.315
 5060SOL    HW216080   0.250   3.508   5.346
 5061SOL     OW16081   3.782   2.105   5.497
 5061SOL    HW116082   3.847   2.180   5.489
 5061SOL    HW216083   3.690   2.142   5.509
 5062SOL     OW16084   5.050   0.965   3.580
 5062SOL    HW116085   5.051   0.964   3.680
 5062SOL    HW216086   5.137   1.000   3.546
 5063SOL     OW16087   0.849   1.726   1.751
 5063SOL    HW116088   0.861   1.638   1.795
 5063SOL    HW216089   0.752   1.751   1.750
 5064SOL     OW16090   5.150   5.725   0.643
 5064SOL    HW116091   5.073   5.761   0.589
 5064SOL    HW216092   5.149   5.768   0.734
 5065SOL     OW16093   2.395   0.910   2.518
 5065SOL    HW116094   2.295   0.907   2.519
 5065SOL    HW216095   2.430   0.849   2.447
 5066SOL     OW16096   2.485   4.777   2.716
 5066SOL    HW116097   2.583   4.783   2.697
 5066SOL    HW216098   2.470   4.725   2.800
 5067SOL     OW16099   5.400   2.970   0.819
 5067SOL    HW116100   5.388   2.914   0.737
 5067SOL    HW216101   5.438   3.059   0.794
 5068SOL     OW16102   2.429   5.675   0.618
 5068SOL    HW116103   2.393   5.595   0.569
 5068SOL    HW216104   2.523   5.656   0.646
 5069SOL     OW16105   3.614   4.922   5.018
 5069SOL    HW116106   3.579   4.898   4.928
 5069SOL    HW216107   3.567   4.868   5.088
 5070SOL     OW16108   5.962   3.509   5.175
 5070SOL    HW116109   6.048   3.475   5.216
 5070SOL    HW216110   5.887   3.449   5.202
 5071SOL     OW16111   2.589   6.794   3.958
 5071SOL    HW116112   2.524   6.841   4.017
 5071SOL    HW216113   2.552   6.705   3.931
 5072SOL     OW16114   1.169   1.430   0.945
 5072SOL    HW116115   1.107   1.509   0.947
 5072SOL    HW216116   1.185   1.403   0.850
 5073SOL     OW16117   2.535   0.469   2.320
 5073SOL    HW116118   2.471   0.406   2.364
 5073SOL    HW216119   2.572   0.426   2.237
 5074SOL     OW16120   3.363   2.232   1.736
 5074SOL    HW116121   3.449   2.275   1.763
 5074SOL    HW216122   3.338   2.164   1.805
 5075SOL     OW16123   0.201   3.545   0.037
 5075SOL    HW116124   0.171   3.453   0.061
 5075SOL    HW216125   0.266   3.540   6.981
 5076SOL     OW16126   6.419   0.006   6.292
 5076SOL    HW116127   6.431   0.105   6.291
 5076SOL    HW216128   6.322   7.004   6.303
 5077SOL     OW16129   0.595   4.649   4.187
 5077SOL    HW116130   0.545   4.620   4.105
 5077SOL    HW216131   0.548   4.615   4.269
 5078SOL     OW16132   0.161   2.020   3.944
 5078SOL    HW116133   0.141   1.952   3.873
 5078SOL    HW216134   0.259   2.035   3.950
 5079SOL     OW16135   1.719   2.781   5.609
 5079SOL    HW116136   1.749   2.838   5.685
 5079SOL    HW216137   1.669   2.837   5.543
 5080SOL     OW16138   5.652   6.090   0.084
 5080SOL    HW116139   5.658   6.006   0.139
 5080SOL    HW216140   5.556   6.108   0.063
 5081SOL     OW16141   2.677   5.374   5.674
 5081SOL    HW116142   2.627   5.456   5.702
 5081SOL    HW216143   2.774   5.397   5.663
 5082SOL     OW16144   5.371   5.908   1.620
 5082SOL    HW116145   5.362   5.884   1.523
 5082SOL    HW216146   5.459   5.952   1.635
 5083SOL     OW16147   1.441   0.224   3.333
 5083SOL    HW116148   1.369   0.214   3.265
 5083SOL    HW216149   1.530   0.232   3.287
 5084SOL     OW16150   2.446   4.447   5.560
 5084SOL    HW116151   2.402   4.480   5.477
 5084SOL    HW216152   2.444   4.519   5.629
 5085SOL     OW16153   0.425   4.310   5.048
 5085SOL    HW116154   0.510   4.269   5.016
 5085SOL    HW216155   0.431   4.410   5.040
 5086SOL     OW16156   1.784   5.160   1.979
 5086SOL    HW116157   1.882   5.176   1.986
 5086SOL    HW216158   1.738   5.244   1.950
 5087SOL     OW16159   6.400   4.639   2.280
 5087SOL    HW116160   6.431   4.547   2.256
 5087SOL    HW216161   6.306   4.635   2.312
 5088SOL     OW16162   5.126   5.815   1.954
 5088SOL    HW116163   5.035   5.837   1.988
 5088SOL    HW216164   5.163   5.893   1.904
 5089SOL     OW16165   5.351   5.494   5.684
 5089SOL    HW116166   5.448   5.476   5.698
 5089SOL    HW216167   5.303   5.493   5.772
 5090SOL     OW16168   2.744   6.532   5.479
 5090SOL    HW116169   2.651   6.562   5.500
 5090SOL    HW216170   2.744   6.481   5.393
 5091SOL     OW16171   7.003   0.099   6.426
 5091SOL    HW116172   0.079   0.099   6.398
 5091SOL    HW216173   6.946   0.069   6.350
 5092SOL     OW16174   3.157   3.120   4.067
 5092SOL    HW116175   3.206   3.050   4.016
 5092SOL    HW216176   3.196   3.127   4.159
 5093SOL     OW16177   2.703   2.054   2.590
 5093SOL    HW116178   2.666   2.134   2.542
 5093SOL    HW216179   2.674   2.056   2.685
 5094SOL     OW16180   1.619   5.897   5.070
 5094SOL    HW116181   1.599   5.894   5.168
 5094SOL    HW216182   1.536   5.877   5.018
 5095SOL     OW16183   6.757   1.290   3.167
 5095SOL    HW116184   6.814   1.345   3.106
 5095SOL    HW216185   6.812   1.216   3.206
 5096SOL     OW16186   5.939   2.924   5.295
 5096SOL    HW116187   5.847   2.920   5.256
 5096SOL    HW216188   5.973   3.018   5.292
 5097SOL     OW16189   1.112   0.618   5.607
 5097SOL    HW116190   1.116   0.611   5.507
 5097SOL    HW216191   1.151   0.535   5.648
 5098SOL     OW16192   3.522   3.207   0.704
 5098SOL    HW116193   3.539   3.259   0.619
 5098SOL    HW216194   3.545   3.111   0.689
 5099SOL     OW16195   1.587   0.300   1.973
 5099SOL    HW116196   1.536   0.273   2.055
 5099SOL    HW216197   1.575   0.397   1.956
 5100SOL     OW16198   5.139   3.556   2.126
 5100SOL    HW116199   5.099   3.540   2.036
 5100SOL    HW216200   5.232   3.592   2.115
 5101SOL     OW16201   3.804   0.798   6.478
 5101SOL    HW116202   3.878   0.834   6.536
 5101SOL    HW216203   3.717   0.841   6.505
 5102SOL     OW16204   4.689   4.659   4.346
 5102SOL    HW116205   4.711   4.619   4.257
 5102SOL    HW216206   4.592   4.679   4.351
 5103SOL     OW16207   0.756   1.182   6.531
 5103SOL    HW116208   0.807   1.108   6.575
 5103SOL    HW216209   0.782   1.270   6.571
 5104SOL     OW16210   3.947   3.285   2.224
 5104SOL    HW116211   3.858   3.288   2.179
 5104SOL    HW216212   3.998   3.205   2.192
 5105SOL     OW16213   4.311   3.041   6.120
 5105SOL    HW116214   4.291   2.946   6.145
 5105SOL    HW216215   4.334   3.045   6.023
 5106SOL     OW16216   4.544   2.348   0.582
 5106SOL    HW116217   4.600   2.364   0.663
 5106SOL    HW216218   4.479   2.275   0.600
 5107SOL     OW16219   4.983   3.824   0.008
 5107SOL    HW116220   4.887   3.850   7.016
 5107SOL    HW216221   4.995   3.728   7.001
 5108SOL     OW16222   4.444   4.885   0.376
 5108SOL    HW116223   4.523   4.824   0.361
 5108SOL    HW216224   4.449   4.961   0.311
 5109SOL     OW16225   1.393   2.963   1.293
 5109SOL    HW116226   1.476   2.933   1.341
 5109SOL    HW216227   1.372   2.898   1.220
 5110SOL     OW16228   4.689   0.120   5.584
 5110SOL    HW116229   4.656   0.026   5.574
 5110SOL    HW216230   4.689   0.146   5.680
 5111SOL     OW16231   0.309   6.531   4.663
 5111SOL    HW116232   0.334   6.447   4.614
 5111SOL    HW216233   0.366   6.607   4.630
 5112SOL     OW16234   6.535   6.340   3.214
 5112SOL    HW116235   6.460   6.399   3.186
 5112SOL    HW216236   6.599   6.327   3.138
 5113SOL     OW16237   1.530   3.769   0.180
 5113SOL    HW116238   1.465   3.844   0.170
 5113SOL    HW216239   1.604   3.780   0.114
 5114SOL     OW16240   4.928   4.811   0.964
 5114SOL    HW116241   4.829   4.828   0.962
 5114SOL    HW216242   4.962   4.820   1.057
 5115SOL     OW16243   1.744   4.286   0.865
 5115SOL    HW116244   1.790   4.206   0.903
 5115SOL    HW216245   1.763   4.366   0.921
 5116SOL     OW16246   1.178   0.474   6.075
 5116SOL    HW116247   1.090   0.514   6.051
 5116SOL    HW216248   1.169   0.424   6.161
 5117SOL     OW16249   0.958   2.560   3.548
 5117SOL    HW116250   0.963   2.503   3.466
 5117SOL    HW216251   1.034   2.625   3.549
 5118SOL     OW16252   4.398   5.447   6.661
 5118SOL    HW116253   4.326   5.504   6.621
 5118SOL    HW216254   4.365   5.353   6.669
 5119SOL     OW16255   5.796   0.464   0.664
 5119SOL    HW116256   5.807   0.531   0.738
 5119SOL    HW216257   5.701   0.466   0.632
 5120SOL     OW16258   5.494   6.498   6.725
 5120SOL    HW116259   5.398   6.474   6.710
 5120SOL    HW216260   5.549   6.468   6.647
 5121SOL     OW16261   1.483   3.304   6.460
 5121SOL    HW116262   1.554   3.271   6.397
 5121SOL    HW216263   1.504   3.273   6.553
 5122SOL     OW16264   4.792   4.835   3.638
 5122SOL    HW116265   4.796   4.909   3.704
 5122SOL    HW216266   4.776   4.748   3.687
 5123SOL     OW16267   4.921   3.360   1.484
 5123SOL    HW116268   4.849   3.291   1.491
 5123SOL    HW216269   5.002   3.328   1.533
 5124SOL     OW16270   2.257   6.156   5.134
 5124SOL    HW116271   2.264   6.130   5.230
 5124SOL    HW216272   2.201   6.089   5.085
 5125SOL     OW16273   6.444   1.746   3.637
 5125SOL    HW116274   6.406   1.670   3.690
 5125SOL    HW216275   6.369   1.798   3.596
 5126SOL     OW16276   1.942   0.432   1.395
 5126SOL    HW116277   2.031   0.461   1.429
 5126SOL    HW216278   1.907   0.499   1.330
 5127SOL     OW16279   1.920   5.377   0.151
 5127SOL    HW116280   1.965   5.348   0.236
 5127SOL    HW216281   1.969   5.455   0.112
 5128SOL     OW16282   6.190   0.198   2.029
 5128SOL    HW116283   6.279   0.223   1.990
 5128SOL    HW216284   6.130   0.164   1.957
 5129SOL     OW16285   5.892   6.678   0.910
 5129SOL    HW116286   5.806   6.722   0.934
 5129SOL    HW216287   5.903   6.675   0.811
 5130SOL     OW16288   6.893   4.538   2.864
 5130SOL    HW116289   6.875   4.600   2.940
 5130SOL    HW216290   6.821   4.469   2.859
 5131SOL     OW16291   2.355   2.456   2.655
 5131SOL    HW116292   2.336   2.358   2.660
 5131SOL    HW216293   2.394   2.486   2.743
 5132SOL     OW16294   3.051   5.914   5.597
 5132SOL    HW116295   3.105   5.859   5.533
 5132SOL    HW216296   3.015   5.995   5.551
 5133SOL     OW16297   3.881   6.243   5.654
 5133SOL    HW116298   3.975   6.235   5.689
 5133SOL    HW216299   3.847   6.153   5.627
 5134SOL     OW16300   6.322   4.511   6.973
 5134SOL    HW116301   6.418   4.503   6.947
 5134SOL    HW216302   6.292   4.427   7.018
 5135SOL     OW16303   5.643   1.746   4.434
 5135SOL    HW116304   5.620   1.842   4.446
 5135SOL    HW216305   5.580   1.689   4.488
 5136SOL     OW16306   4.350   1.013   4.677
 5136SOL    HW116307   4.420   0.975   4.738
 5136SOL    HW216308   4.308   1.093   4.721
 5137SOL     OW16309   3.570   4.216   0.082
 5137SOL    HW116310   3.569   4.125   0.040
 5137SOL    HW216311   3.498   4.271   0.041
 5138SOL     OW16312   2.422   3.065   6.089
 5138SOL    HW116313   2.454   3.060   6.183
 5138SOL    HW216314   2.404   3.160   6.064
 5139SOL     OW16315   0.684   0.251   3.284
 5139SOL    HW116316   0.692   0.324   3.216
 5139SOL    HW216317   0.589   0.224   3.294
 5140SOL     OW16318   3.716   2.788   1.710
 5140SOL    HW116319   3.692   2.697   1.675
 5140SOL    HW216320   3.815   2.792   1.725
 5141SOL     OW16321   6.735   3.647   6.098
 5141SOL    HW116322   6.706   3.692   6.182
 5141SOL    HW216323   6.795   3.570   6.121
 5142SOL     OW16324   5.301   3.392   3.957
 5142SOL    HW116325   5.375   3.324   3.948
 5142SOL    HW216326   5.335   3.471   4.009
 5143SOL     OW16327   6.771   4.597   4.429
 5143SOL    HW116328   6.748   4.513   4.478
 5143SOL    HW216329   6.851   4.581   4.371
 5144SOL     OW16330   1.716   1.276   4.617
 5144SOL    HW116331   1.652   1.352   4.603
 5144SOL    HW216332   1.745   1.241   4.528
 5145SOL     OW16333   3.081   6.019   6.061
 5145SOL    HW116334   3.046   6.043   5.970
 5145SOL    HW216335   3.112   5.924   6.060
 5146SOL     OW16336   2.275   4.171   6.954
 5146SOL    HW116337   2.374   4.173   6.936
 5146SOL    HW216338   2.234   4.094   6.905
 5147SOL     OW16339   6.397   5.369   0.020
 5147SOL    HW116340   6.456   5.293   7.014
 5147SOL    HW216341   6.452   5.452   0.032
 5148SOL     OW16342   0.701   0.014   2.029
 5148SOL    HW116343   0.671   6.958   1.972
 5148SOL    HW216344   0.667   0.002   2.122
 5149SOL     OW16345   6.461   0.983   5.494
 5149SOL    HW116346   6.418   0.930   5.568
 5149SOL    HW216347   6.424   1.076   5.496
 5150SOL     OW16348   1.389   5.320   4.168
 5150SOL    HW116349   1.438   5.234   4.156
 5150SOL    HW216350   1.308   5.304   4.224
 5151SOL     OW16351   4.207   1.041   6.212
 5151SOL    HW116352   4.233   0.954   6.170
 5151SOL    HW216353   4.242   1.044   6.306
 5152SOL     OW16354   0.783   5.376   0.456
 5152SOL    HW116355   0.734   5.459   0.427
 5152SOL    HW216356   0.858   5.401   0.517
 5153SOL     OW16357   1.760   1.869   1.166
 5153SOL    HW116358   1.701   1.947   1.144
 5153SOL    HW216359   1.849   1.882   1.121
 5154SOL     OW16360   2.191   3.077   4.534
 5154SOL    HW116361   2.133   3.109   4.609
 5154SOL    HW216362   2.228   2.987   4.556
 5155SOL     OW16363   3.254   0.647   1.879
 5155SOL    HW116364   3.323   0.675   1.812
 5155SOL    HW216365   3.235   0.724   1.941
 5156SOL     OW16366   6.035   3.202   5.697
 5156SOL    HW116367   6.080   3.114   5.691
 5156SOL    HW216368   6.060   3.247   5.783
 5157SOL     OW16369   5.938   2.895   3.965
 5157SOL    HW116370   5.890   2.965   4.017
 5157SOL    HW216371   5.872   2.832   3.923
 5158SOL     OW16372   3.809   0.935   0.511
 5158SOL    HW116373   3.736   0.942   0.580
 5158SOL    HW216374   3.843   0.841   0.509
 5159SOL     OW16375   1.362   2.763   4.474
 5159SOL    HW116376   1.437   2.708   4.438
 5159SOL    HW216377   1.356   2.751   4.573
 5160SOL     OW16378   2.291   2.792   3.924
 5160SOL    HW116379   2.250   2.747   4.003
 5160SOL    HW216380   2.232   2.867   3.893
 5161SOL     OW16381   1.560   3.232   6.706
 5161SOL    HW116382   1.489   3.263   6.769
 5161SOL    HW216383   1.649   3.260   6.741
 5162SOL     OW16384   6.227   6.233   5.377
 5162SOL    HW116385   6.279   6.151   5.402
 5162SOL    HW216386   6.242   6.254   5.281
 5163SOL     OW16387   5.378   3.454   0.865
 5163SOL    HW116388   5.455   3.418   0.917
 5163SOL    HW216389   5.326   3.379   0.825
 5164SOL     OW16390   6.070   5.123   5.972
 5164SOL    HW116391   6.112   5.072   5.897
 5164SOL    HW216392   6.114   5.097   6.058
 5165SOL     OW16393   6.318   4.297   4.049
 5165SOL    HW116394   6.260   4.237   4.104
 5165SOL    HW216395   6.371   4.241   3.985
 5166SOL     OW16396   1.244   0.421   1.955
 5166SOL    HW116397   1.162   0.470   1.985
 5166SOL    HW216398   1.255   0.338   2.009
 5167SOL     OW16399   0.988   6.626   5.889
 5167SOL    HW116400   0.928   6.703   5.910
 5167SOL    HW216401   0.969   6.551   5.952
 5168SOL     OW16402   3.698   2.129   3.050
 5168SOL    HW116403   3.766   2.152   2.980
 5168SOL    HW216404   3.645   2.050   3.020
 5169SOL     OW16405   3.664   4.429   6.280
 5169SOL    HW116406   3.756   4.467   6.285
 5169SOL    HW216407   3.649   4.366   6.356
 5170SOL     OW16408   4.814   4.513   4.110
 5170SOL    HW116409   4.829   4.457   4.192
 5170SOL    HW216410   4.897   4.514   4.054
 5171SOL     OW16411   2.740   4.747   4.782
 5171SOL    HW116412   2.802   4.726   4.858
 5171SOL    HW216413   2.656   4.694   4.794
 5172SOL     OW16414   1.780   4.787   0.559
 5172SOL    HW116415   1.837   4.787   0.477
 5172SOL    HW216416   1.728   4.701   0.564
 5173SOL     OW16417   5.889   4.093   5.943
 5173SOL    HW116418   5.889   4.150   6.025
 5173SOL    HW216419   5.816   4.123   5.881
 5174SOL     OW16420   1.107   4.409   5.681
 5174SOL    HW116421   1.124   4.320   5.638
 5174SOL    HW216422   1.015   4.408   5.723
 5175SOL     OW16423   0.368   5.046   6.514
 5175SOL    HW116424   0.453   5.072   6.468
 5175SOL    HW216425   0.337   5.122   6.571
 5176SOL     OW16426   5.152   3.320   6.978
 5176SOL    HW116427   5.165   3.221   6.981
 5176SOL    HW216428   5.135   3.354   0.051
 5177SOL     OW16429   5.685   6.868   6.687
 5177SOL    HW116430   5.592   6.832   6.677
 5177SOL    HW216431   5.726   6.880   6.597
 5178SOL     OW16432   2.983   2.164   1.486
 5178SOL    HW116433   2.904   2.104   1.469
 5178SOL    HW216434   2.964   2.223   1.564
 5179SOL     OW16435   2.948   6.054   5.819
 5179SOL    HW116436   2.991   6.028   5.732
 5179SOL    HW216437   2.873   6.118   5.801
 5180SOL     OW16438   3.479   2.617   0.760
 5180SOL    HW116439   3.425   2.655   0.684
 5180SOL    HW216440   3.430   2.540   0.800
 5181SOL     OW16441   3.194   5.500   2.459
 5181SOL    HW116442   3.098   5.497   2.486
 5181SOL    HW216443   3.245   5.560   2.521
 5182SOL     OW16444   4.860   4.362   1.470
 5182SOL    HW116445   4.875   4.263   1.463
 5182SOL    HW216446   4.887   4.406   1.385
 5183SOL     OW16447   4.015   0.428   2.967
 5183SOL    HW116448   4.057   0.517   2.983
 5183SOL    HW216449   4.009   0.411   2.869
 5184SOL     OW16450   0.880   1.611   3.247
 5184SOL    HW116451   0.781   1.626   3.249
 5184SOL    HW216452   0.918   1.656   3.166
 5185SOL     OW16453   3.973   6.984   2.545
 5185SOL    HW116454   4.059   6.963   2.498
 5185SOL    HW216455   3.977   6.948   2.639
 5186SOL     OW16456   6.156   4.107   0.425
 5186SOL    HW116457   6.108   4.191   0.401
 5186SOL    HW216458   6.248   4.108   0.386
 5187SOL     OW16459   4.983   1.806   3.930
 5187SOL    HW116460   4.990   1.715   3.972
 5187SOL    HW216461   5.074   1.845   3.920
 5188SOL     OW16462   1.026   3.422   5.084
 5188SOL    HW116463   0.988   3.361   5.153
 5188SOL    HW216464   0.956   3.446   5.017
 5189SOL     OW16465   4.793   5.429   6.506
 5189SOL    HW116466   4.874   5.487   6.496
 5189SOL    HW216467   4.784   5.370   6.427
 5190SOL     OW16468   1.326   2.356   3.605
 5190SOL    HW116469   1.286   2.341   3.696
 5190SOL    HW216470   1.426   2.349   3.611
 5191SOL     OW16471   4.064   0.682   1.458
 5191SOL    HW116472   4.032   0.681   1.363
 5191SOL    HW216473   4.039   0.768   1.501
 5192SOL     OW16474   5.858   4.221   2.055
 5192SOL    HW116475   5.787   4.221   1.985
 5192SOL    HW216476   5.820   4.255   2.142
 5193SOL     OW16477   4.893   3.686   2.833
 5193SOL    HW116478   4.867   3.590   2.827
 5193SOL    HW216479   4.902   3.713   2.929
 5194SOL     OW16480   5.674   1.401   6.031
 5194SOL    HW116481   5.725   1.473   5.984
 5194SOL    HW216482   5.594   1.376   5.977
 5195SOL     OW16483   6.477   6.671   5.637
 5195SOL    HW116484   6.542   6.710   5.702
 5195SOL    HW216485   6.495   6.708   5.546
 5196SOL     OW16486   0.835   3.069   2.071
 5196SOL    HW116487   0.797   3.161   2.055
 5196SOL    HW216488   0.930   3.067   2.040
 5197SOL     OW16489   3.417   5.917   5.016
 5197SOL    HW116490   3.514   5.928   5.036
 5197SOL    HW216491   3.365   5.915   5.101
 5198SOL     OW16492   4.259   0.048   5.905
 5198SOL    HW116493   4.241   0.045   5.807
 5198SOL    HW216494   4.228   6.983   5.947
 5199SOL     OW16495   1.142   5.117   1.610
 5199SOL    HW116496   1.104   5.086   1.697
 5199SOL    HW216497   1.235   5.080   1.598
 5200SOL     OW16498   0.110   0.606   5.082
 5200SOL    HW116499   0.156   0.646   5.002
 5200SOL    HW216500   0.074   0.679   5.140
 5201SOL     OW16501   6.297   4.735   5.139
 5201SOL    HW116502   6.307   4.636   5.123
 5201SOL    HW216503   6.234   4.774   5.072
 5202SOL     OW16504   3.879   2.880   5.582
 5202SOL    HW116505   3.865   2.851   5.488
 5202SOL    HW216506   3.818   2.957   5.603
 5203SOL     OW16507   1.992   0.361   6.380
 5203SOL    HW116508   2.069   0.370   6.443
 5203SOL    HW216509   1.945   0.275   6.397
 5204SOL     OW16510   2.900   0.395   0.936
 5204SOL    HW116511   2.977   0.343   0.973
 5204SOL    HW216512   2.825   0.332   0.914
 5205SOL     OW16513   6.826   6.444   0.953
 5205SOL    HW116514   6.772   6.374   0.999
 5205SOL    HW216515   6.877   6.403   0.878
 5206SOL     OW16516   1.194   5.098   3.644
 5206SOL    HW116517   1.212   5.095   3.546
 5206SOL    HW216518   1.095   5.097   3.660
 5207SOL     OW16519   6.545   6.672   3.895
 5207SOL    HW116520   6.596   6.757   3.884
 5207SOL    HW216521   6.580   6.623   3.975
 5208SOL     OW16522   6.040   1.808   0.401
 5208SOL    HW116523   6.022   1.881   0.466
 5208SOL    HW216524   6.042   1.720   0.450
 5209SOL     OW16525   5.736   6.165   3.378
 5209SOL    HW116526   5.660   6.227   3.362
 5209SOL    HW216527   5.770   6.177   3.471
 5210SOL     OW16528   5.642   4.273   0.263
 5210SOL    HW116529   5.693   4.216   0.327
 5210SOL    HW216530   5.690   4.274   0.175
 5211SOL     OW16531   5.805   2.404   5.110
 5211SOL    HW116532   5.768   2.322   5.067
 5211SOL    HW216533   5.868   2.450   5.048
 5212SOL     OW16534   0.504   3.372   0.011
 5212SOL    HW116535   0.480   3.449   0.071
 5212SOL    HW216536   0.588   3.393   6.981
 5213SOL     OW16537   3.851   3.512   3.267
 5213SOL    HW116538   3.894   3.568   3.337
 5213SOL    HW216539   3.917   3.448   3.229
 5214SOL     OW16540   5.716   3.503   5.376
 5214SOL    HW116541   5.642   3.438   5.361
 5214SOL    HW216542   5.684   3.577   5.434
 5215SOL     OW16543   0.564   3.825   4.930
 5215SOL    HW116544   0.652   3.855   4.966
 5215SOL    HW216545   0.544   3.732   4.960
 5216SOL     OW16546   5.361   5.137   1.215
 5216SOL    HW116547   5.454   5.120   1.247
 5216SOL    HW216548   5.315   5.049   1.200
 5217SOL     OW16549   4.591   6.171   3.120
 5217SOL    HW116550   4.556   6.081   3.147
 5217SOL    HW216551   4.675   6.160   3.068
 5218SOL     OW16552   6.527   0.161   0.630
 5218SOL    HW116553   6.510   0.233   0.563
 5218SOL    HW216554   6.569   0.083   0.585
 5219SOL     OW16555   3.338   1.264   5.141
 5219SOL    HW116556   3.253   1.237   5.096
 5219SOL    HW216557   3.318   1.313   5.225
 5220SOL     OW16558   2.242   5.590   4.633
 5220SOL    HW116559   2.258   5.586   4.535
 5220SOL    HW216560   2.267   5.680   4.668
 5221SOL     OW16561   6.223   5.664   1.337
 5221SOL    HW116562   6.149   5.615   1.291
 5221SOL    HW216563   6.272   5.720   1.271
 5222SOL     OW16564   6.540   3.786   1.390
 5222SOL    HW116565   6.616   3.746   1.340
 5222SOL    HW216566   6.541   3.751   1.484
 5223SOL     OW16567   0.028   3.162   0.547
 5223SOL    HW116568   0.049   3.236   0.612
 5223SOL    HW216569   6.969   3.110   0.581
 5224SOL     OW16570   0.258   2.076   4.614
 5224SOL    HW116571   0.197   2.153   4.633
 5224SOL    HW216572   0.216   2.017   4.545
 5225SOL     OW16573   6.860   1.495   4.250
 5225SOL    HW116574   6.806   1.528   4.328
 5225SOL    HW216575   6.957   1.506   4.270
 5226SOL     OW16576   0.424   6.513   3.822
 5226SOL    HW116577   0.484   6.461   3.884
 5226SOL    HW216578   0.408   6.461   3.739
 5227SOL     OW16579   0.325   3.870   5.590
 5227SOL    HW116580   0.356   3.957   5.551
 5227SOL    HW216581   0.319   3.879   5.690
 5228SOL     OW16582   1.071   1.110   5.231
 5228SOL    HW116583   0.988   1.056   5.238
 5228SOL    HW216584   1.061   1.178   5.158
 5229SOL     OW16585   3.272   1.842   6.405
 5229SOL    HW116586   3.260   1.894   6.489
 5229SOL    HW216587   3.199   1.866   6.340
 5230SOL     OW16588   6.888   6.748   1.784
 5230SOL    HW116589   6.801   6.721   1.825
 5230SOL    HW216590   6.880   6.745   1.685
 5231SOL     OW16591   6.537   2.906   1.877
 5231SOL    HW116592   6.565   2.986   1.825
 5231SOL    HW216593   6.530   2.929   1.974
 5232SOL     OW16594   2.226   2.505   6.203
 5232SOL    HW116595   2.180   2.417   6.218
 5232SOL    HW216596   2.194   2.546   6.118
 5233SOL     OW16597   2.982   6.327   2.698
 5233SOL    HW116598   2.894   6.351   2.657
 5233SOL    HW216599   2.994   6.376   2.784
 5234SOL     OW16600   3.263   2.142   6.596
 5234SOL    HW116601   3.246   2.141   6.498
 5234SOL    HW216602   3.354   2.105   6.615
 5235SOL     OW16603   2.462   1.890   1.391
 5235SOL    HW116604   2.507   1.801   1.392
 5235SOL    HW216605   2.499   1.944   1.315
 5236SOL     OW16606   3.240   4.989   1.285
 5236SOL    HW116607   3.299   5.054   1.333
 5236SOL    HW216608   3.154   5.035   1.260
 5237SOL     OW16609   1.877   2.167   2.678
 5237SOL    HW116610   1.818   2.118   2.613
 5237SOL    HW216611   1.908   2.103   2.749
 5238SOL     OW16612   0.389   6.751   2.555
 5238SOL    HW116613   0.335   6.706   2.626
 5238SOL    HW216614   0.482   6.767   2.588
 5239SOL     OW16615   2.321   3.680   1.002
 5239SOL    HW116616   2.314   3.606   0.935
 5239SOL    HW216617   2.341   3.766   0.955
 5240SOL     OW16618   2.432   4.085   5.556
 5240SOL    HW116619   2.509   4.149   5.555
 5240SOL    HW216620   2.467   3.993   5.573
 5241SOL     OW16621   0.934   6.504   2.487
 5241SOL    HW116622   0.965   6.599   2.484
 5241SOL    HW216623   0.984   6.455   2.559
 5242SOL     OW16624   4.514   1.041   6.718
 5242SOL    HW116625   4.526   1.101   6.639
 5242SOL    HW216626   4.429   0.989   6.707
 5243SOL     OW16627   2.741   5.980   1.973
 5243SOL    HW116628   2.761   6.068   1.931
 5243SOL    HW216629   2.647   5.979   2.005
 5244SOL     OW16630   5.137   1.181   0.140
 5244SOL    HW116631   5.121   1.115   0.213
 5244SOL    HW216632   5.130   1.274   0.176
 5245SOL     OW16633   3.366   4.058   1.631
 5245SOL    HW116634   3.356   4.098   1.723
 5245SOL    HW216635   3.281   4.072   1.580
 5246SOL     OW16636   6.537   4.063   6.229
 5246SOL    HW116637   6.469   4.017   6.172
 5246SOL    HW216638   6.503   4.153   6.255
 5247SOL     OW16639   3.979   1.670   6.261
 5247SOL    HW116640   3.996   1.694   6.357
 5247SOL    HW216641   3.930   1.745   6.217
 5248SOL     OW16642   5.630   0.946   3.529
 5248SOL    HW116643   5.568   0.879   3.489
 5248SOL    HW216644   5.601   0.966   3.623
 5249SOL     OW16645   0.303   4.867   0.646
 5249SOL    HW116646   0.210   4.903   0.646
 5249SOL    HW216647   0.353   4.902   0.567
 5250SOL     OW16648   1.990   5.251   1.144
 5250SOL    HW116649   1.986   5.348   1.169
 5250SOL    HW216650   2.075   5.234   1.094
 5251SOL     OW16651   0.564   5.247   0.611
 5251SOL    HW116652   0.547   5.198   0.697
 5251SOL    HW216653   0.662   5.243   0.590
 5252SOL     OW16654   3.796   6.148   2.363
 5252SOL    HW116655   3.809   6.233   2.413
 5252SOL    HW216656   3.799   6.166   2.265
 5253SOL     OW16657   6.779   6.023   4.799
 5253SOL    HW116658   6.723   5.965   4.740
 5253SOL    HW216659   6.790   5.979   4.888
 5254SOL     OW16660   5.093   6.461   3.531
 5254SOL    HW116661   5.077   6.419   3.441
 5254SOL    HW216662   5.124   6.555   3.519
 5255SOL     OW16663   6.381   1.673   5.076
 5255SOL    HW116664   6.461   1.614   5.065
 5255SOL    HW216665   6.364   1.687   5.174
 5256SOL     OW16666   6.684   1.456   2.031
 5256SOL    HW116667   6.768   1.404   2.012
 5256SOL    HW216668   6.618   1.397   2.078
 5257SOL     OW16669   4.162   1.501   6.093
 5257SOL    HW116670   4.208   1.434   6.152
 5257SOL    HW216671   4.089   1.546   6.144
 5258SOL     OW16672   4.199   1.352   3.794
 5258SOL    HW116673   4.258   1.426   3.826
 5258SOL    HW216674   4.226   1.326   3.701
 5259SOL     OW16675   6.285   4.957   3.671
 5259SOL    HW116676   6.299   4.893   3.746
 5259SOL    HW216677   6.284   4.907   3.584
 5260SOL     OW16678   1.901   0.734   0.966
 5260SOL    HW116679   1.933   0.750   0.873
 5260SOL    HW216680   1.873   0.821   1.007
 5261SOL     OW16681   5.640   4.768   6.550
 5261SOL    HW116682   5.708   4.728   6.611
 5261SOL    HW216683   5.555   4.784   6.600
 5262SOL     OW16684   1.449   1.676   2.586
 5262SOL    HW116685   1.425   1.645   2.494
 5262SOL    HW216686   1.549   1.684   2.594
 5263SOL     OW16687   1.725   6.458   2.230
 5263SOL    HW116688   1.711   6.385   2.297
 5263SOL    HW216689   1.692   6.428   2.140
 5264SOL     OW16690   6.611   1.515   1.647
 5264SOL    HW116691   6.652   1.600   1.680
 5264SOL    HW216692   6.645   1.496   1.555
 5265SOL     OW16693   6.901   4.944   5.235
 5265SOL    HW116694   6.969   4.911   5.170
 5265SOL    HW216695   6.887   4.876   5.308
 5266SOL     OW16696   1.782   0.510   6.260
 5266SOL    HW116697   1.856   0.450   6.291
 5266SOL    HW216698   1.778   0.590   6.320
 5267SOL     OW16699   5.115   2.419   4.166
 5267SOL    HW116700   5.111   2.507   4.213
 5267SOL    HW216701   5.063   2.425   4.080
 5268SOL     OW16702   5.517   0.183   6.009
 5268SOL    HW116703   5.482   0.276   6.018
 5268SOL    HW216704   5.588   0.167   6.078
 5269SOL     OW16705   0.317   0.024   3.579
 5269SOL    HW116706   0.255   0.069   3.644
 5269SOL    HW216707   0.264   6.987   3.517
 5270SOL     OW16708   0.681   1.169   6.283
 5270SOL    HW116709   0.749   1.186   6.354
 5270SOL    HW216710   0.590   1.174   6.322
 5271SOL     OW16711   0.847   5.261   3.105
 5271SOL    HW116712   0.816   5.356   3.102
 5271SOL    HW216713   0.768   5.200   3.110
 5272SOL     OW16714   4.415   7.009   6.881
 5272SOL    HW116715   4.468   0.005   6.965
 5272SOL    HW216716   4.473   0.005   6.801
 5273SOL     OW16717   2.406   1.752   2.601
 5273SOL    HW116718   2.401   1.656   2.628
 5273SOL    HW216719   2.395   1.811   2.681
 5274SOL     OW16720   5.234   4.904   1.136
 5274SOL    HW116721   5.286   4.895   1.051
 5274SOL    HW216722   5.280   4.854   1.209
 5275SOL     OW16723   4.689   2.052   6.547
 5275SOL    HW116724   4.645   2.142   6.553
 5275SOL    HW216725   4.629   1.989   6.498
 5276SOL     OW16726   4.372   6.578   1.741
 5276SOL    HW116727   4.375   6.600   1.839
 5276SOL    HW216728   4.313   6.643   1.694
 5277SOL     OW16729   1.901   3.056   2.003
 5277SOL    HW116730   1.963   3.033   2.079
 5277SOL    HW216731   1.809   3.072   2.039
 5278SOL     OW16732   4.301   3.503   1.532
 5278SOL    HW116733   4.279   3.439   1.458
 5278SOL    HW216734   4.349   3.455   1.605
 5279SOL     OW16735   1.968   6.058   2.468
 5279SOL    HW116736   1.913   5.984   2.429
 5279SOL    HW216737   1.911   6.116   2.525
 5280SOL     OW16738   4.368   6.856   5.536
 5280SOL    HW116739   4.426   6.882   5.459
 5280SOL    HW216740   4.319   6.937   5.568
 5281SOL     OW16741   0.007   3.010   2.707
 5281SOL    HW116742   0.072   2.943   2.743
 5281SOL    HW216743   6.960   3.033   2.778
 5282SOL     OW16744   5.050   1.343   1.859
 5282SOL    HW116745   5.072   1.415   1.793
 5282SOL    HW216746   5.024   1.260   1.809
 5283SOL     OW16747   5.573   5.404   6.102
 5283SOL    HW116748   5.548   5.313   6.134
 5283SOL    HW216749   5.662   5.401   6.058
 5284SOL     OW16750   5.213   2.497   3.437
 5284SOL    HW116751   5.136   2.434   3.452
 5284SOL    HW216752   5.293   2.444   3.409
 5285SOL     OW16753   3.681   5.731   2.379
 5285SOL    HW116754   3.701   5.637   2.351
 5285SOL    HW216755   3.612   5.731   2.451
 5286SOL     OW16756   2.581   5.239   2.116
 5286SOL    HW116757   2.607   5.288   2.033
 5286SOL    HW216758   2.648   5.168   2.136
 5287SOL     OW16759   0.702   2.076   1.635
 5287SOL    HW116760   0.778   2.140   1.626
 5287SOL    HW216761   0.726   2.006   1.703
 5288SOL     OW16762   4.281   1.245   0.598
 5288SOL    HW116763   4.284   1.150   0.568
 5288SOL    HW216764   4.289   1.306   0.519
 5289SOL     OW16765   2.468   6.064   0.897
 5289SOL    HW116766   2.452   5.972   0.930
 5289SOL    HW216767   2.567   6.082   0.896
 5290SOL     OW16768   4.698   5.928   0.812
 5290SOL    HW116769   4.724   5.996   0.881
 5290SOL    HW216770   4.637   5.970   0.745
 5291SOL     OW16771   1.502   5.051   6.687
 5291SOL    HW116772   1.562   4.991   6.739
 5291SOL    HW216773   1.457   4.999   6.614
 5292SOL     OW16774   5.193   2.381   6.614
 5292SOL    HW116775   5.129   2.437   6.562
 5292SOL    HW216776   5.149   2.350   6.699
 5293SOL     OW16777   1.122   1.040   4.116
 5293SOL    HW116778   1.189   1.115   4.117
 5293SOL    HW216779   1.031   1.076   4.099
 5294SOL     OW16780   4.895   2.725   5.157
 5294SOL    HW116781   4.826   2.721   5.229
 5294SOL    HW216782   4.880   2.805   5.100
 5295SOL     OW16783   5.560   1.024   2.357
 5295SOL    HW116784   5.574   1.054   2.452
 5295SOL    HW216785   5.535   1.102   2.300
 5296SOL     OW16786   0.353   3.479   0.641
 5296SOL    HW116787   0.402   3.555   0.684
 5296SOL    HW216788   0.354   3.491   0.541
 5297SOL     OW16789   1.558   2.862   2.468
 5297SOL    HW116790   1.651   2.866   2.503
 5297SOL    HW216791   1.515   2.776   2.495
 5298SOL     OW16792   1.344   5.799   1.558
 5298SOL    HW116793   1.366   5.770   1.651
 5298SOL    HW216794   1.291   5.728   1.512
 5299SOL     OW16795   3.407   0.492   1.531
 5299SOL    HW116796   3.312   0.464   1.544
 5299SOL    HW216797   3.424   0.577   1.580
 5300SOL     OW16798   6.676   5.331   3.653
 5300SOL    HW116799   6.725   5.351   3.568
 5300SOL    HW216800   6.593   5.280   3.633
 5301SOL     OW16801   4.776   0.351   0.546
 5301SOL    HW116802   4.688   0.388   0.574
 5301SOL    HW216803   4.847   0.381   0.610
 5302SOL     OW16804   6.412   4.609   3.586
 5302SOL    HW116805   6.370   4.684   3.536
 5302SOL    HW216806   6.342   4.557   3.634
 5303SOL     OW16807   0.741   5.517   3.141
 5303SOL    HW116808   0.665   5.515   3.205
 5303SOL    HW216809   0.807   5.586   3.169
 5304SOL     OW16810   4.968   2.294   5.058
 5304SOL    HW116811   5.009   2.385   5.066
 5304SOL    HW216812   4.881   2.293   5.108
 5305SOL     OW16813   2.456   0.974   2.810
 5305SOL    HW116814   2.477   1.066   2.844
 5305SOL    HW216815   2.432   0.978   2.713
 5306SOL     OW16816   2.879   0.110   4.806
 5306SOL    HW116817   2.784   0.137   4.822
 5306SOL    HW216818   2.889   0.076   4.712
 5307SOL     OW16819   4.559   6.661   0.008
 5307SOL    HW116820   4.486   6.644   0.075
 5307SOL    HW216821   4.536   6.615   6.942
 5308SOL     OW16822   6.883   1.206   2.363
 5308SOL    HW116823   6.912   1.286   2.309
 5308SOL    HW216824   6.828   1.146   2.305
 5309SOL     OW16825   3.630   4.137   4.445
 5309SOL    HW116826   3.622   4.101   4.538
 5309SOL    HW216827   3.699   4.083   4.394
 5310SOL     OW16828   5.595   1.957   0.499
 5310SOL    HW116829   5.570   2.019   0.573
 5310SOL    HW216830   5.610   2.009   0.415
 5311SOL     OW16831   1.364   6.266   0.059
 5311SOL    HW116832   1.379   6.169   0.080
 5311SOL    HW216833   1.447   6.304   0.018
 5312SOL     OW16834   0.427   2.965   1.673
 5312SOL    HW116835   0.468   2.875   1.657
 5312SOL    HW216836   0.405   2.975   1.770
 5313SOL     OW16837   1.225   5.959   0.675
 5313SOL    HW116838   1.318   5.980   0.648
 5313SOL    HW216839   1.167   5.951   0.594
 5314SOL     OW16840   3.781   4.793   1.077
 5314SOL    HW116841   3.868   4.841   1.074
 5314SOL    HW216842   3.724   4.823   1.001
 5315SOL     OW16843   5.181   2.634   1.659
 5315SOL    HW116844   5.161   2.581   1.742
 5315SOL    HW216845   5.103   2.693   1.638
 5316SOL     OW16846   5.946   5.111   4.691
 5316SOL    HW116847   6.017   5.176   4.664
 5316SOL    HW216848   5.969   5.072   4.781
 5317SOL     OW16849   6.020   5.482   3.045
 5317SOL    HW116850   6.001   5.575   3.014
 5317SOL    HW216851   5.998   5.473   3.142
 5318SOL     OW16852   0.581   2.105   4.432
 5318SOL    HW116853   0.562   2.026   4.491
 5318SOL    HW216854   0.561   2.190   4.482
 5319SOL     OW16855   3.654   0.177   1.205
 5319SOL    HW116856   3.587   0.103   1.207
 5319SOL    HW216857   3.606   0.264   1.191
 5320SOL     OW16858   6.527   3.806   5.419
 5320SOL    HW116859   6.497   3.899   5.440
 5320SOL    HW216860   6.517   3.749   5.500
 5321SOL     OW16861   1.489   5.224   6.334
 5321SOL    HW116862   1.578   5.182   6.350
 5321SOL    HW216863   1.489   5.270   6.245
 5322SOL     OW16864   3.011   6.067   0.678
 5322SOL    HW116865   2.932   6.084   0.738
 5322SOL    HW216866   3.010   5.971   0.649
 5323SOL     OW16867   5.884   3.668   0.353
 5323SOL    HW116868   5.964   3.702   0.304
 5323SOL    HW216869   5.900   3.574   0.382
 5324SOL     OW16870   3.882   3.241   1.502
 5324SOL    HW116871   3.927   3.259   1.590
 5324SOL    HW216872   3.783   3.243   1.514
 5325SOL     OW16873   4.565   6.162   4.427
 5325SOL    HW116874   4.471   6.132   4.406
 5325SOL    HW216875   4.567   6.202   4.519
 5326SOL     OW16876   0.258   0.110   2.451
 5326SOL    HW116877   0.280   0.108   2.548
 5326SOL    HW216878   0.202   0.190   2.430
 5327SOL     OW16879   6.779   0.461   4.174
 5327SOL    HW116880   6.871   0.464   4.136
 5327SOL    HW216881   6.744   0.555   4.184
 5328SOL     OW16882   3.833   4.870   0.629
 5328SOL    HW116883   3.894   4.794   0.651
 5328SOL    HW216884   3.880   4.956   0.647
 5329SOL     OW16885   6.942   5.793   0.256
 5329SOL    HW116886   6.853   5.754   0.277
 5329SOL    HW216887   6.978   5.840   0.338
 5330SOL     OW16888   3.576   4.877   0.217
 5330SOL    HW116889   3.665   4.834   0.233
 5330SOL    HW216890   3.586   4.976   0.215
 5331SOL     OW16891   5.167   2.678   6.629
 5331SOL    HW116892   5.183   2.775   6.645
 5331SOL    HW216893   5.162   2.630   6.717
 5332SOL     OW16894   5.439   3.317   0.019
 5332SOL    HW116895   5.345   3.343   7.018
 5332SOL    HW216896   5.502   3.376   6.989
 5333SOL     OW16897   1.830   1.916   4.528
 5333SOL    HW116898   1.787   1.831   4.561
 5333SOL    HW216899   1.772   1.994   4.553
 5334SOL     OW16900   3.359   6.197   1.638
 5334SOL    HW116901   3.386   6.257   1.714
 5334SOL    HW216902   3.270   6.155   1.659
 5335SOL     OW16903   0.313   4.562   1.543
 5335SOL    HW116904   0.336   4.636   1.479
 5335SOL    HW216905   0.269   4.487   1.494
 5336SOL     OW16906   1.784   2.962   5.132
 5336SOL    HW116907   1.846   2.991   5.205
 5336SOL    HW216908   1.838   2.932   5.053
 5337SOL     OW16909   0.093   4.192   0.923
 5337SOL    HW116910   0.185   4.207   0.960
 5337SOL    HW216911   0.100   4.154   0.831
 5338SOL     OW16912   6.428   4.045   0.335
 5338SOL    HW116913   6.483   4.009   0.260
 5338SOL    HW216914   6.415   3.973   0.403
 5339SOL     OW16915   5.541   3.198   2.159
 5339SOL    HW116916   5.605   3.157   2.225
 5339SOL    HW216917   5.469   3.247   2.209
 5340SOL     OW16918   4.745   3.411   1.756
 5340SOL    HW116919   4.656   3.378   1.725
 5340SOL    HW216920   4.810   3.334   1.758
 5341SOL     OW16921   4.523   4.478   3.528
 5341SOL    HW116922   4.521   4.461   3.429
 5341SOL    HW216923   4.451   4.543   3.552
 5342SOL     OW16924   5.972   5.708   5.079
 5342SOL    HW116925   5.948   5.657   5.162
 5342SOL    HW216926   5.994   5.802   5.103
 5343SOL     OW16927   3.804   3.086   6.407
 5343SOL    HW116928   3.859   3.013   6.449
 5343SOL    HW216929   3.763   3.052   6.323
 5344SOL     OW16930   0.257   1.728   6.701
 5344SOL    HW116931   0.249   1.775   6.614
 5344SOL    HW216932   0.344   1.679   6.705
 5345SOL     OW16933   5.246   1.485   6.411
 5345SOL    HW116934   5.185   1.518   6.483
 5345SOL    HW216935   5.238   1.386   6.402
 5346SOL     OW16936   3.162   5.515   3.086
 5346SOL    HW116937   3.242   5.568   3.057
 5346SOL    HW216938   3.150   5.525   3.185
 5347SOL     OW16939   5.403   1.489   4.054
 5347SOL    HW116940   5.481   1.550   4.071
 5347SOL    HW216941   5.318   1.539   4.069
 5348SOL     OW16942   4.853   2.879   4.935
 5348SOL    HW116943   4.810   2.964   4.907
 5348SOL    HW216944   4.784   2.806   4.937
 5349SOL     OW16945   0.945   3.437   1.928
 5349SOL    HW116946   0.883   3.510   1.957
 5349SOL    HW216947   0.957   3.441   1.829
 5350SOL     OW16948   0.973   6.403   6.745
 5350SOL    HW116949   0.979   6.486   6.689
 5350SOL    HW216950   1.061   6.356   6.744
 5351SOL     OW16951   6.671   5.955   3.387
 5351SOL    HW116952   6.596   6.017   3.409
 5351SOL    HW216953   6.741   5.961   3.458
 5352SOL     OW16954   1.130   2.835   5.936
 5352SOL    HW116955   1.104   2.929   5.916
 5352SOL    HW216956   1.174   2.795   5.855
 5353SOL     OW16957   4.171   4.861   3.368
 5353SOL    HW116958   4.218   4.947   3.349
 5353SOL    HW216959   4.083   4.861   3.322
 5354SOL     OW16960   3.718   5.722   1.519
 5354SOL    HW116961   3.769   5.704   1.436
 5354SOL    HW216962   3.773   5.697   1.599
 5355SOL     OW16963   4.971   5.655   5.154
 5355SOL    HW116964   5.051   5.596   5.164
 5355SOL    HW216965   4.945   5.660   5.058
 5356SOL     OW16966   1.015   6.503   0.898
 5356SOL    HW116967   1.055   6.440   0.831
 5356SOL    HW216968   0.917   6.511   0.881
 5357SOL     OW16969   6.554   3.914   2.619
 5357SOL    HW116970   6.608   3.925   2.703
 5357SOL    HW216971   6.476   3.977   2.621
 5358SOL     OW16972   5.220   1.259   6.587
 5358SOL    HW116973   5.299   1.206   6.554
 5358SOL    HW216974   5.154   1.197   6.629
 5359SOL     OW16975   3.448   2.513   6.861
 5359SOL    HW116976   3.531   2.569   6.854
 5359SOL    HW216977   3.413   2.495   6.769
 5360SOL     OW16978   5.361   5.061   4.148
 5360SOL    HW116979   5.372   5.105   4.237
 5360SOL    HW216980   5.414   4.977   4.145
 5361SOL     OW16981   1.450   4.977   2.979
 5361SOL    HW116982   1.533   4.922   2.972
 5361SOL    HW216983   1.373   4.927   2.939
 5362SOL     OW16984   5.729   1.405   2.906
 5362SOL    HW116985   5.816   1.452   2.917
 5362SOL    HW216986   5.693   1.380   2.996
 5363SOL     OW16987   5.219   5.688   3.584
 5363SOL    HW116988   5.244   5.593   3.604
 5363SOL    HW216989   5.299   5.737   3.550
 5364SOL     OW16990   4.076   1.979   2.396
 5364SOL    HW116991   4.153   1.916   2.406
 5364SOL    HW216992   4.071   2.012   2.302
 5365SOL     OW16993   3.042   3.070   4.694
 5365SOL    HW116994   2.990   2.987   4.674
 5365SOL    HW216995   3.113   3.049   4.761
 5366SOL     OW16996   6.509   6.143   3.547
 5366SOL    HW116997   6.412   6.119   3.552
 5366SOL    HW216998   6.518   6.234   3.505
 5367SOL     OW16999   6.097   6.054   1.351
 5367SOL    HW117000   6.051   5.985   1.295
 5367SOL    HW217001   6.032   6.127   1.373
 5368SOL     OW17002   0.116   6.346   4.451
 5368SOL    HW117003   0.050   6.273   4.432
 5368SOL    HW217004   0.203   6.306   4.479
 5369SOL     OW17005   3.961   5.973   2.752
 5369SOL    HW117006   3.934   5.943   2.661
 5369SOL    HW217007   4.047   6.025   2.747
 5370SOL     OW17008   1.872   3.005   0.616
 5370SOL    HW117009   1.845   2.930   0.555
 5370SOL    HW217010   1.863   3.092   0.567
 5371SOL     OW17011   6.492   5.865   4.869
 5371SOL    HW117012   6.456   5.774   4.851
 5371SOL    HW217013   6.538   5.900   4.787
 5372SOL     OW17014   1.957   6.714   3.277
 5372SOL    HW117015   1.878   6.689   3.332
 5372SOL    HW217016   1.936   6.796   3.223
 5373SOL     OW17017   2.337   0.877   6.299
 5373SOL    HW117018   2.352   0.827   6.385
 5373SOL    HW217019   2.416   0.863   6.239
 5374SOL     OW17020   1.296   3.794   1.437
 5374SOL    HW117021   1.324   3.705   1.473
 5374SOL    HW217022   1.279   3.787   1.339
 5375SOL     OW17023   2.475   4.367   5.234
 5375SOL    HW117024   2.530   4.283   5.243
 5375SOL    HW217025   2.406   4.370   5.307
 5376SOL     OW17026   0.889   0.010   6.881
 5376SOL    HW117027   0.918   6.936   6.895
 5376SOL    HW217028   0.881   0.028   6.782
 5377SOL     OW17029   1.275   2.025   3.177
 5377SOL    HW117030   1.185   2.003   3.139
 5377SOL    HW217031   1.265   2.092   3.250
 5378SOL     OW17032   4.672   6.859   2.505
 5378SOL    HW117033   4.728   6.783   2.538
 5378SOL    HW217034   4.631   6.835   2.417
 5379SOL     OW17035   1.956   1.769   3.878
 5379SOL    HW117036   1.965   1.822   3.962
 5379SOL    HW217037   2.020   1.693   3.880
 5380SOL     OW17038   4.381   5.806   1.365
 5380SOL    HW117039   4.472   5.765   1.360
 5380SOL    HW217040   4.390   5.906   1.365
 5381SOL     OW17041   3.232   0.940   3.225
 5381SOL    HW117042   3.233   1.019   3.163
 5381SOL    HW217043   3.193   0.967   3.313
 5382SOL     OW17044   4.432   0.854   2.890
 5382SOL    HW117045   4.397   0.915   2.819
 5382SOL    HW217046   4.443   0.762   2.852
 5383SOL     OW17047   2.272   2.806   4.598
 5383SOL    HW117048   2.278   2.803   4.698
 5383SOL    HW217049   2.352   2.760   4.558
 5384SOL     OW17050   5.275   5.816   5.766
 5384SOL    HW117051   5.250   5.727   5.805
 5384SOL    HW217052   5.202   5.882   5.784
 5385SOL     OW17053   4.314   3.552   6.464
 5385SOL    HW117054   4.237   3.493   6.492
 5385SOL    HW217055   4.398   3.499   6.465
 5386SOL     OW17056   4.080   4.822   3.961
 5386SOL    HW117057   4.131   4.763   3.898
 5386SOL    HW217058   3.992   4.845   3.921
 5387SOL     OW17059   1.063   1.960   4.294
 5387SOL    HW117060   1.024   1.880   4.339
 5387SOL    HW217061   1.116   2.013   4.359
 5388SOL     OW17062   6.624   6.528   4.155
 5388SOL    HW117063   6.723   6.513   4.152
 5388SOL    HW217064   6.579   6.444   4.182
 5389SOL     OW17065   5.305   0.884   4.166
 5389SOL    HW117066   5.387   0.889   4.223
 5389SOL    HW217067   5.326   0.919   4.075
 5390SOL     OW17068   6.589   3.984   3.454
 5390SOL    HW117069   6.542   4.015   3.537
 5390SOL    HW217070   6.611   3.887   3.463
 5391SOL     OW17071   3.256   2.545   0.990
 5391SOL    HW117072   3.165   2.515   0.960
 5391SOL    HW217073   3.262   2.644   0.985
 5392SOL     OW17074   5.552   0.700   4.489
 5392SOL    HW117075   5.595   0.631   4.431
 5392SOL    HW217076   5.459   0.670   4.513
 5393SOL     OW17077   4.047   1.249   3.996
 5393SOL    HW117078   4.024   1.342   4.023
 5393SOL    HW217079   4.126   1.251   3.935
 5394SOL     OW17080   0.095   2.741   1.671
 5394SOL    HW117081   0.085   2.801   1.751
 5394SOL    HW217082   0.129   2.794   1.594
 5395SOL     OW17083   0.002   1.797   0.796
 5395SOL    HW117084   7.009   1.777   0.893
 5395SOL    HW217085   7.013   1.896   0.782
 5396SOL     OW17086   4.027   3.162   0.713
 5396SOL    HW117087   4.028   3.139   0.810
 5396SOL    HW217088   4.061   3.085   0.659
 5397SOL     OW17089   6.687   0.251   2.423
 5397SOL    HW117090   6.749   0.329   2.419
 5397SOL    HW217091   6.595   0.280   2.398
 5398SOL     OW17092   6.894   3.273   2.642
 5398SOL    HW117093   6.897   3.177   2.668
 5398SOL    HW217094   6.798   3.302   2.634
 5399SOL     OW17095   2.045   3.281   1.051
 5399SOL    HW117096   1.971   3.344   1.073
 5399SOL    HW217097   2.108   3.274   1.129
 5400SOL     OW17098   4.710   3.187   1.474
 5400SOL    HW117099   4.705   3.087   1.471
 5400SOL    HW217100   4.643   3.221   1.539
 5401SOL     OW17101   5.560   2.907   1.199
 5401SOL    HW117102   5.554   2.814   1.237
 5401SOL    HW217103   5.474   2.931   1.155
 5402SOL     OW17104   1.064   5.939   2.361
 5402SOL    HW117105   1.124   5.875   2.408
 5402SOL    HW217106   1.019   5.892   2.284
 5403SOL     OW17107   5.090   2.270   6.834
 5403SOL    HW117108   5.137   2.247   6.919
 5403SOL    HW217109   5.042   2.189   6.800
 5404SOL     OW17110   5.132   6.972   0.047
 5404SOL    HW117111   5.217   0.001   0.027
 5404SOL    HW217112   5.120   6.964   0.146
 5405SOL     OW17113   0.236   5.025   0.168
 5405SOL    HW117114   0.290   5.090   0.222
 5405SOL    HW217115   0.264   4.932   0.191
 5406SOL     OW17116   2.503   1.192   5.730
 5406SOL    HW117117   2.587   1.246   5.735
 5406SOL    HW217118   2.491   1.142   5.816
 5407SOL     OW17119   1.311   6.556   3.571
 5407SOL    HW117120   1.367   6.474   3.580
 5407SOL    HW217121   1.265   6.575   3.657
 5408SOL     OW17122   2.916   1.866   4.575
 5408SOL    HW117123   2.883   1.859   4.669
 5408SOL    HW217124   2.977   1.789   4.555
 5409SOL     OW17125   0.963   2.399   2.498
 5409SOL    HW117126   0.892   2.439   2.556
 5409SOL    HW217127   0.996   2.314   2.539
 5410SOL     OW17128   6.291   2.708   0.597
 5410SOL    HW117129   6.340   2.790   0.566
 5410SOL    HW217130   6.227   2.732   0.669
 5411SOL     OW17131   3.748   5.593   0.084
 5411SOL    HW117132   3.771   5.690   0.091
 5411SOL    HW217133   3.829   5.538   0.105
 5412SOL     OW17134   0.908   2.071   5.623
 5412SOL    HW117135   0.947   2.112   5.540
 5412SOL    HW217136   0.877   2.144   5.685
 5413SOL     OW17137   0.925   5.013   4.857
 5413SOL    HW117138   0.871   4.944   4.905
 5413SOL    HW217139   0.874   5.099   4.854
 5414SOL     OW17140   5.708   4.274   5.386
 5414SOL    HW117141   5.681   4.184   5.352
 5414SOL    HW217142   5.685   4.282   5.483
 5415SOL     OW17143   2.355   1.519   0.325
 5415SOL    HW117144   2.287   1.468   0.273
 5415SOL    HW217145   2.387   1.597   0.271
 5416SOL     OW17146   3.417   5.313   6.873
 5416SOL    HW117147   3.463   5.393   6.911
 5416SOL    HW217148   3.337   5.343   6.820
 5417SOL     OW17149   4.962   6.917   3.756
 5417SOL    HW117150   5.009   6.836   3.790
 5417SOL    HW217151   4.868   6.894   3.731
 5418SOL     OW17152   0.067   3.134   5.634
 5418SOL    HW117153   0.044   3.229   5.614
 5418SOL    HW217154   0.160   3.129   5.671
 5419SOL     OW17155   4.020   1.691   6.528
 5419SOL    HW117156   3.995   1.788   6.538
 5419SOL    HW217157   3.992   1.641   6.610
 5420SOL     OW17158   1.708   2.251   2.013
 5420SOL    HW117159   1.698   2.195   1.931
 5420SOL    HW217160   1.618   2.272   2.050
 5421SOL     OW17161   3.650   5.524   1.899
 5421SOL    HW117162   3.674   5.559   1.989
 5421SOL    HW217163   3.550   5.516   1.892
 5422SOL     OW17164   2.391   5.063   3.978
 5422SOL    HW117165   2.369   4.981   3.926
 5422SOL    HW217166   2.452   5.121   3.924
 5423SOL     OW17167   4.834   6.905   1.398
 5423SOL    HW117168   4.810   6.844   1.473
 5423SOL    HW217169   4.780   6.880   1.317
 5424SOL     OW17170   4.150   4.026   5.411
 5424SOL    HW117171   4.096   3.946   5.437
 5424SOL    HW217172   4.229   3.997   5.356
 5425SOL     OW17173   1.435   4.827   6.214
 5425SOL    HW117174   1.462   4.856   6.306
 5425SOL    HW217175   1.505   4.767   6.176
 5426SOL     OW17176   6.689   4.786   1.607
 5426SOL    HW117177   6.769   4.763   1.662
 5426SOL    HW217178   6.607   4.783   1.665
 5427SOL     OW17179   4.534   3.089   0.647
 5427SOL    HW117180   4.507   3.043   0.732
 5427SOL    HW217181   4.631   3.114   0.652
 5428SOL     OW17182   5.183   5.122   3.199
 5428SOL    HW117183   5.206   5.032   3.234
 5428SOL    HW217184   5.085   5.126   3.179
 5429SOL     OW17185   3.250   0.226   4.403
 5429SOL    HW117186   3.307   0.148   4.430
 5429SOL    HW217187   3.203   0.262   4.484
 5430SOL     OW17188   2.133   3.575   5.704
 5430SOL    HW117189   2.111   3.487   5.746
 5430SOL    HW217190   2.069   3.645   5.735
 5431SOL     OW17191   5.044   4.464   0.306
 5431SOL    HW117192   5.025   4.368   0.326
 5431SOL    HW217193   4.990   4.522   0.366
 5432SOL     OW17194   0.601   5.161   6.727
 5432SOL    HW117195   0.591   5.064   6.752
 5432SOL    HW217196   0.601   5.169   6.627
 5433SOL     OW17197   3.840   7.020   1.275
 5433SOL    HW117198   3.810   6.996   1.367
 5433SOL    HW217199   3.768   0.051   1.228
 5434SOL     OW17200   5.004   6.916   4.182
 5434SOL    HW117201   5.032   6.982   4.112
 5434SOL    HW217202   5.009   6.959   4.272
 5435SOL     OW17203   6.760   5.190   0.249
 5435SOL    HW117204   6.684   5.143   0.295
 5435SOL    HW217205   6.845   5.168   0.297
 5436SOL     OW17206   2.281   5.003   2.339
 5436SOL    HW117207   2.312   5.098   2.330
 5436SOL    HW217208   2.244   4.971   2.252
 5437SOL     OW17209   3.378   6.784   0.808
 5437SOL    HW117210   3.373   6.702   0.864
 5437SOL    HW217211   3.393   6.758   0.712
 5438SOL     OW17212   4.326   6.293   1.729
 5438SOL    HW117213   4.353   6.250   1.643
 5438SOL    HW217214   4.373   6.381   1.739
 5439SOL     OW17215   1.157   4.105   1.063
 5439SOL    HW117216   1.072   4.151   1.090
 5439SOL    HW217217   1.159   4.095   0.963
 5440SOL     OW17218   5.354   6.622   3.651
 5440SOL    HW117219   5.349   6.563   3.571
 5440SOL    HW217220   5.426   6.690   3.638
 5441SOL     OW17221   5.889   2.001   4.703
 5441SOL    HW117222   5.967   2.040   4.752
 5441SOL    HW217223   5.886   1.902   4.721
 5442SOL     OW17224   2.459   0.476   6.553
 5442SOL    HW117225   2.490   0.571   6.563
 5442SOL    HW217226   2.538   0.415   6.554
 5443SOL     OW17227   5.677   0.805   2.856
 5443SOL    HW117228   5.740   0.842   2.788
 5443SOL    HW217229   5.707   0.830   2.948
 5444SOL     OW17230   0.139   1.362   6.392
 5444SOL    HW117231   0.176   1.272   6.369
 5444SOL    HW217232   0.142   1.374   6.491
 5445SOL     OW17233   5.852   6.748   5.617
 5445SOL    HW117234   5.892   6.838   5.635
 5445SOL    HW217235   5.852   6.694   5.701
 5446SOL     OW17236   0.575   4.393   5.837
 5446SOL    HW117237   0.519   4.451   5.896
 5446SOL    HW217238   0.547   4.405   5.742
 5447SOL     OW17239   6.743   1.733   1.749
 5447SOL    HW117240   6.831   1.718   1.704
 5447SOL    HW217241   6.707   1.822   1.722
 5448SOL     OW17242   5.610   5.392   2.437
 5448SOL    HW117243   5.549   5.468   2.416
 5448SOL    HW217244   5.705   5.423   2.434
 5449SOL     OW17245   2.263   0.999   1.108
 5449SOL    HW117246   2.358   0.974   1.089
 5449SOL    HW217247   2.218   0.924   1.157
 5450SOL     OW17248   4.635   5.820   2.216
 5450SOL    HW117249   4.623   5.909   2.261
 5450SOL    HW217250   4.551   5.766   2.227
 5451SOL     OW17251   6.322   6.533   3.542
 5451SOL    HW117252   6.239   6.502   3.495
 5451SOL    HW217253   6.364   6.607   3.489
 5452SOL     OW17254   2.270   4.063   2.986
 5452SOL    HW117255   2.320   4.066   3.072
 5452SOL    HW217256   2.208   3.985   2.986
 5453SOL     OW17257   6.478   4.691   4.494
 5453SOL    HW117258   6.547   4.640   4.443
 5453SOL    HW217259   6.390   4.643   4.490
 5454SOL     OW17260   5.968   4.378   3.181
 5454SOL    HW117261   6.061   4.415   3.173
 5454SOL    HW217262   5.945   4.328   3.097
 5455SOL     OW17263   2.714   2.025   3.348
 5455SOL    HW117264   2.763   1.982   3.423
 5455SOL    HW217265   2.756   1.998   3.261
 5456SOL     OW17266   5.955   2.534   0.473
 5456SOL    HW117267   5.959   2.626   0.513
 5456SOL    HW217268   5.996   2.468   0.537
 5457SOL     OW17269   6.429   1.185   6.411
 5457SOL    HW117270   6.526   1.164   6.399
 5457SOL    HW217271   6.374   1.104   6.392
 5458SOL     OW17272   5.576   4.576   0.034
 5458SOL    HW117273   5.512   4.500   0.039
 5458SOL    HW217274   5.564   4.635   0.114
 5459SOL     OW17275   2.062   3.164   4.751
 5459SOL    HW117276   1.962   3.170   4.747
 5459SOL    HW217277   2.087   3.094   4.818
 5460SOL     OW17278   0.636   0.551   1.254
 5460SOL    HW117279   0.642   0.634   1.200
 5460SOL    HW217280   0.549   0.550   1.304
 5461SOL     OW17281   6.287   1.176   6.068
 5461SOL    HW117282   6.384   1.153   6.070
 5461SOL    HW217283   6.241   1.119   5.999
 5462SOL     OW17284   5.146   4.893   6.026
 5462SOL    HW117285   5.092   4.814   6.056
 5462SOL    HW217286   5.132   4.906   5.928
 5463SOL     OW17287   0.758   3.579   5.698
 5463SOL    HW117288   0.842   3.581   5.751
 5463SOL    HW217289   0.682   3.548   5.755
 5464SOL     OW17290   1.746   5.225   5.257
 5464SOL    HW117291   1.838   5.192   5.280
 5464SOL    HW217292   1.755   5.303   5.194
 5465SOL     OW17293   0.546   6.967   4.786
 5465SOL    HW117294   0.531   6.956   4.885
 5465SOL    HW217295   0.643   6.958   4.766
 5466SOL     OW17296   5.592   1.685   4.119
 5466SOL    HW117297   5.689   1.700   4.103
 5466SOL    HW217298   5.566   1.723   4.208
 5467SOL     OW17299   4.896   3.325   4.316
 5467SOL    HW117300   4.824   3.393   4.329
 5467SOL    HW217301   4.981   3.370   4.289
 5468SOL     OW17302   0.079   1.577   1.335
 5468SOL    HW117303   0.088   1.549   1.240
 5468SOL    HW217304   0.169   1.595   1.374
 5469SOL     OW17305   3.762   0.902   4.460
 5469SOL    HW117306   3.822   0.823   4.472
 5469SOL    HW217307   3.720   0.899   4.369
 5470SOL     OW17308   4.258   4.857   4.197
 5470SOL    HW117309   4.185   4.839   4.131
 5470SOL    HW217310   4.336   4.797   4.177
 5471SOL     OW17311   5.231   0.683   2.759
 5471SOL    HW117312   5.328   0.692   2.738
 5471SOL    HW217313   5.217   0.604   2.819
 5472SOL     OW17314   3.174   3.415   6.770
 5472SOL    HW117315   3.230   3.392   6.850
 5472SOL    HW217316   3.077   3.414   6.796
 5473SOL     OW17317   2.884   5.170   1.882
 5473SOL    HW117318   2.964   5.197   1.828
 5473SOL    HW217319   2.838   5.093   1.838
 5474SOL     OW17320   0.911   5.275   2.343
 5474SOL    HW117321   0.999   5.310   2.373
 5474SOL    HW217322   0.861   5.346   2.293
 5475SOL     OW17323   0.981   0.966   4.956
 5475SOL    HW117324   0.977   0.918   5.043
 5475SOL    HW217325   0.972   1.064   4.971
 5476SOL     OW17326   2.253   6.725   5.128
 5476SOL    HW117327   2.250   6.691   5.034
 5476SOL    HW217328   2.247   6.825   5.128
 5477SOL     OW17329   1.911   3.448   3.960
 5477SOL    HW117330   1.993   3.493   3.925
 5477SOL    HW217331   1.855   3.514   4.009
 5478SOL     OW17332   5.321   4.739   5.788
 5478SOL    HW117333   5.257   4.809   5.756
 5478SOL    HW217334   5.395   4.729   5.722
 5479SOL     OW17335   5.172   1.922   4.166
 5479SOL    HW117336   5.120   2.002   4.194
 5479SOL    HW217337   5.239   1.948   4.096
 5480SOL     OW17338   1.221   3.428   4.138
 5480SOL    HW117339   1.129   3.398   4.164
 5480SOL    HW217340   1.255   3.493   4.206
 5481SOL     OW17341   4.420   1.488   6.432
 5481SOL    HW117342   4.371   1.434   6.364
 5481SOL    HW217343   4.394   1.584   6.424
 5482SOL     OW17344   5.321   3.305   1.957
 5482SOL    HW117345   5.224   3.291   1.935
 5482SOL    HW217346   5.333   3.301   2.057
 5483SOL     OW17347   6.797   2.956   6.850
 5483SOL    HW117348   6.869   2.996   6.907
 5483SOL    HW217349   6.772   2.866   6.887
 5484SOL     OW17350   6.577   6.840   4.851
 5484SOL    HW117351   6.501   6.835   4.785
 5484SOL    HW217352   6.543   6.875   4.938
 5485SOL     OW17353   3.882   0.182   4.925
 5485SOL    HW117354   3.785   0.165   4.941
 5485SOL    HW217355   3.896   0.279   4.904
 5486SOL     OW17356   1.037   0.744   4.203
 5486SOL    HW117357   1.069   0.839   4.198
 5486SOL    HW217358   1.116   0.683   4.213
 5487SOL     OW17359   4.496   5.080   0.610
 5487SOL    HW117360   4.505   5.017   0.533
 5487SOL    HW217361   4.572   5.065   0.674
 5488SOL     OW17362   5.033   1.080   5.905
 5488SOL    HW117363   4.933   1.084   5.912
 5488SOL    HW217364   5.058   1.022   5.827
 5489SOL     OW17365   0.034   4.447   3.113
 5489SOL    HW117366   0.062   4.442   3.017
 5489SOL    HW217367   6.973   4.503   3.121
 5490SOL     OW17368   2.194   2.482   6.926
 5490SOL    HW117369   2.155   2.481   7.018
 5490SOL    HW217370   2.292   2.462   6.931
 5491SOL     OW17371   0.509   5.793   1.703
 5491SOL    HW117372   0.473   5.733   1.774
 5491SOL    HW217373   0.486   5.888   1.724
 5492SOL     OW17374   1.791   1.184   5.259
 5492SOL    HW117375   1.759   1.089   5.255
 5492SOL    HW217376   1.835   1.200   5.348
 5493SOL     OW17377   3.059   2.950   6.964
 5493SOL    HW117378   3.038   2.943   6.866
 5493SOL    HW217379   2.995   2.892   7.015
 5494SOL     OW17380   5.786   2.916   2.546
 5494SOL    HW117381   5.823   2.853   2.614
 5494SOL    HW217382   5.696   2.948   2.576
 5495SOL     OW17383   3.694   2.908   2.918
 5495SOL    HW117384   3.677   2.897   2.820
 5495SOL    HW217385   3.688   2.819   2.963
 5496SOL     OW17386   3.465   5.426   1.155
 5496SOL    HW117387   3.545   5.378   1.192
 5496SOL    HW217388   3.494   5.488   1.082
 5497SOL     OW17389   6.380   6.889   1.757
 5497SOL    HW117390   6.368   6.899   1.659
 5497SOL    HW217391   6.341   6.802   1.787
 5498SOL     OW17392   4.168   0.005   5.310
 5498SOL    HW117393   4.153   0.101   5.337
 5498SOL    HW217394   4.260   7.015   5.273
 5499SOL     OW17395   0.163   1.516   4.723
 5499SOL    HW117396   0.170   1.587   4.793
 5499SOL    HW217397   0.177   1.426   4.765
 5500SOL     OW17398   2.126   5.730   1.261
 5500SOL    HW117399   2.059   5.709   1.190
 5500SOL    HW217400   2.156   5.825   1.252
 5501SOL     OW17401   1.879   6.996   2.662
 5501SOL    HW117402   1.861   0.052   2.601
 5501SOL    HW217403   1.909   0.010   2.751
 5502SOL     OW17404   4.822   3.807   0.277
 5502SOL    HW117405   4.880   3.728   0.259
 5502SOL    HW217406   4.762   3.823   0.198
 5503SOL     OW17407   0.621   6.088   4.577
 5503SOL    HW117408   0.594   6.008   4.524
 5503SOL    HW217409   0.567   6.093   4.661
 5504SOL     OW17410   3.568   2.059   4.665
 5504SOL    HW117411   3.574   1.969   4.622
 5504SOL    HW217412   3.491   2.109   4.625
 5505SOL     OW17413   3.303   4.868   5.968
 5505SOL    HW117414   3.312   4.945   5.905
 5505SOL    HW217415   3.372   4.799   5.947
 5506SOL     OW17416   6.869   0.126   5.530
 5506SOL    HW117417   6.811   0.202   5.557
 5506SOL    HW217418   6.952   0.125   5.586
 5507SOL     OW17419   3.349   5.513   4.512
 5507SOL    HW117420   3.364   5.421   4.475
 5507SOL    HW217421   3.272   5.512   4.575
 5508SOL     OW17422   2.580   0.738   5.774
 5508SOL    HW117423   2.579   0.686   5.860
 5508SOL    HW217424   2.561   0.676   5.698
 5509SOL     OW17425   6.076   6.079   6.879
 5509SOL    HW117426   6.072   6.164   6.825
 5509SOL    HW217427   5.991   6.028   6.868
 5510SOL     OW17428   5.118   0.262   5.884
 5510SOL    HW117429   5.196   0.206   5.856
 5510SOL    HW217430   5.111   0.260   5.984
 5511SOL     OW17431   0.331   1.566   1.864
 5511SOL    HW117432   0.311   1.601   1.772
 5511SOL    HW217433   0.328   1.641   1.930
 5512SOL     OW17434   0.997   6.813   0.875
 5512SOL    HW117435   1.096   6.808   0.887
 5512SOL    HW217436   0.973   6.898   0.827
 5513SOL     OW17437   3.477   5.197   4.517
 5513SOL    HW117438   3.483   5.097   4.514
 5513SOL    HW217439   3.404   5.228   4.455
 5514SOL     OW17440   5.914   5.608   3.740
 5514SOL    HW117441   6.007   5.642   3.749
 5514SOL    HW217442   5.879   5.581   3.830
 5515SOL     OW17443   6.621   3.076   2.318
 5515SOL    HW117444   6.678   3.014   2.264
 5515SOL    HW217445   6.584   3.027   2.397
 5516SOL     OW17446   1.375   3.700   5.941
 5516SOL    HW117447   1.286   3.739   5.966
 5516SOL    HW217448   1.367   3.651   5.854
 5517SOL     OW17449   2.099   1.222   2.106
 5517SOL    HW117450   2.023   1.215   2.041
 5517SOL    HW217451   2.182   1.184   2.065
 5518SOL     OW17452   5.356   4.826   5.251
 5518SOL    HW117453   5.434   4.886   5.234
 5518SOL    HW217454   5.275   4.881   5.271
 5519SOL     OW17455   5.267   3.511   3.707
 5519SOL    HW117456   5.283   3.431   3.650
 5519SOL    HW217457   5.258   3.482   3.803
 5520SOL     OW17458   1.666   3.435   1.330
 5520SOL    HW117459   1.649   3.490   1.411
 5520SOL    HW217460   1.589   3.373   1.315
 5521SOL     OW17461   5.009   5.717   1.543
 5521SOL    HW117462   5.057   5.720   1.631
 5521SOL    HW217463   5.019   5.626   1.503
 5522SOL     OW17464   2.095   3.668   2.367
 5522SOL    HW117465   2.164   3.736   2.341
 5522SOL    HW217466   2.010   3.715   2.393
 5523SOL     OW17467   3.205   0.541   1.230
 5523SOL    HW117468   3.235   0.456   1.272
 5523SOL    HW217469   3.112   0.562   1.261
 5524SOL     OW17470   6.553   5.883   6.267
 5524SOL    HW117471   6.587   5.797   6.229
 5524SOL    HW217472   6.581   5.959   6.209
 5525SOL     OW17473   0.009   5.763   4.726
 5525SOL    HW117474   0.020   5.862   4.720
 5525SOL    HW217475   0.016   5.722   4.635
 5526SOL     OW17476   5.407   2.643   4.921
 5526SOL    HW117477   5.429   2.712   4.851
 5526SOL    HW217478   5.416   2.552   4.881
 5527SOL     OW17479   1.983   3.639   1.391
 5527SOL    HW117480   1.920   3.709   1.423
 5527SOL    HW217481   1.945   3.594   1.309
 5528SOL     OW17482   0.682   3.504   3.167
 5528SOL    HW117483   0.669   3.554   3.253
 5528SOL    HW217484   0.778   3.481   3.155
 5529SOL     OW17485   1.798   1.372   5.063
 5529SOL    HW117486   1.818   1.327   4.976
 5529SOL    HW217487   1.779   1.303   5.133
 5530SOL     OW17488   1.248   2.861   0.819
 5530SOL    HW117489   1.180   2.926   0.786
 5530SOL    HW217490   1.327   2.861   0.757
 5531SOL     OW17491   2.935   2.706   5.864
 5531SOL    HW117492   2.906   2.627   5.809
 5531SOL    HW217493   3.021   2.742   5.827
 5532SOL     OW17494   2.779   1.830   1.270
 5532SOL    HW117495   2.857   1.781   1.310
 5532SOL    HW217496   2.705   1.765   1.252
 5533SOL     OW17497   4.173   0.105   0.560
 5533SOL    HW117498   4.179   0.203   0.579
 5533SOL    HW217499   4.115   0.061   0.629
 5534SOL     OW17500   0.080   4.439   5.752
 5534SOL    HW117501   0.160   4.483   5.713
 5534SOL    HW217502   0.090   4.339   5.743
 5535SOL     OW17503   5.604   3.362   3.591
 5535SOL    HW117504   5.533   3.334   3.527
 5535SOL    HW217505   5.584   3.454   3.625
 5536SOL     OW17506   1.768   0.544   3.268
 5536SOL    HW117507   1.859   0.527   3.304
 5536SOL    HW217508   1.700   0.532   3.341
 5537SOL     OW17509   4.369   1.186   4.945
 5537SOL    HW117510   4.324   1.264   4.902
 5537SOL    HW217511   4.304   1.111   4.954
 5538SOL     OW17512   5.462   1.869   0.925
 5538SOL    HW117513   5.440   1.913   0.838
 5538SOL    HW217514   5.456   1.770   0.914
 5539SOL     OW17515   3.205   6.736   0.005
 5539SOL    HW117516   3.226   6.727   0.103
 5539SOL    HW217517   3.233   6.652   6.978
 5540SOL     OW17518   5.172   0.565   6.547
 5540SOL    HW117519   5.185   0.519   6.459
 5540SOL    HW217520   5.145   0.660   6.531
 5541SOL     OW17521   4.708   3.441   5.964
 5541SOL    HW117522   4.695   3.342   5.974
 5541SOL    HW217523   4.805   3.463   5.967
 5542SOL     OW17524   4.366   4.400   0.068
 5542SOL    HW117525   4.348   4.306   0.096
 5542SOL    HW217526   4.289   4.458   0.093
 5543SOL     OW17527   1.610   0.208   0.360
 5543SOL    HW117528   1.630   0.271   0.435
 5543SOL    HW217529   1.544   0.139   0.391
 5544SOL     OW17530   3.838   5.565   6.431
 5544SOL    HW117531   3.884   5.568   6.521
 5544SOL    HW217532   3.755   5.620   6.435
 5545SOL     OW17533   4.204   0.345   3.399
 5545SOL    HW117534   4.139   0.396   3.455
 5545SOL    HW217535   4.156   0.272   3.351
 5546SOL     OW17536   0.292   4.997   4.669
 5546SOL    HW117537   0.332   5.077   4.713
 5546SOL    HW217538   0.206   4.973   4.715
 5547SOL     OW17539   5.123   1.371   4.709
 5547SOL    HW117540   5.095   1.437   4.639
 5547SOL    HW217541   5.132   1.281   4.668
 5548SOL     OW17542   0.213   3.975   4.866
 5548SOL    HW117543   0.261   3.891   4.893
 5548SOL    HW217544   0.266   4.022   4.796
 5549SOL     OW17545   4.429   2.898   0.474
 5549SOL    HW117546   4.359   2.948   0.421
 5549SOL    HW217547   4.473   2.961   0.538
 5550SOL     OW17548   2.020   4.163   1.887
 5550SOL    HW117549   2.042   4.241   1.946
 5550SOL    HW217550   1.921   4.146   1.890
 5551SOL     OW17551   1.863   5.388   3.451
 5551SOL    HW117552   1.787   5.429   3.402
 5551SOL    HW217553   1.855   5.289   3.449
 5552SOL     OW17554   0.339   6.600   6.844
 5552SOL    HW117555   0.400   6.564   6.915
 5552SOL    HW217556   0.390   6.607   6.758
 5553SOL     OW17557   4.595   0.243   6.894
 5553SOL    HW117558   4.535   0.191   6.955
 5553SOL    HW217559   4.657   0.300   6.948
 5554SOL     OW17560   5.426   2.323   1.742
 5554SOL    HW117561   5.476   2.259   1.683
 5554SOL    HW217562   5.333   2.335   1.706
 5555SOL     OW17563   1.431   4.749   2.347
 5555SOL    HW117564   1.411   4.718   2.254
 5555SOL    HW217565   1.501   4.821   2.344
 5556SOL     OW17566   0.348   1.068   4.862
 5556SOL    HW117567   0.400   1.019   4.793
 5556SOL    HW217568   0.270   1.113   4.819
 5557SOL     OW17569   3.220   5.978   2.889
 5557SOL    HW117570   3.161   6.057   2.874
 5557SOL    HW217571   3.242   5.970   2.986
 5558SOL     OW17572   4.159   4.592   0.362
 5558SOL    HW117573   4.143   4.688   0.386
 5558SOL    HW217574   4.127   4.575   0.269
 5559SOL     OW17575   2.158   0.060   2.462
 5559SOL    HW117576   2.224   7.007   2.448
 5559SOL    HW217577   2.153   0.082   2.560
 5560SOL     OW17578   1.033   6.368   2.708
 5560SOL    HW117579   1.016   6.270   2.719
 5560SOL    HW217580   0.964   6.420   2.758
 5561SOL     OW17581   3.452   6.585   3.417
 5561SOL    HW117582   3.372   6.561   3.363
 5561SOL    HW217583   3.440   6.677   3.456
 5562SOL     OW17584   4.000   4.304   1.005
 5562SOL    HW117585   4.071   4.243   1.040
 5562SOL    HW217586   4.043   4.381   0.958
 5563SOL     OW17587   2.528   4.524   3.384
 5563SOL    HW117588   2.559   4.498   3.293
 5563SOL    HW217589   2.577   4.607   3.413
 5564SOL     OW17590   5.348   0.428   5.839
 5564SOL    HW117591   5.286   0.350   5.846
 5564SOL    HW217592   5.396   0.442   5.926
 5565SOL     OW17593   3.283   2.150   6.310
 5565SOL    HW117594   3.305   2.246   6.290
 5565SOL    HW217595   3.363   2.093   6.291
 5566SOL     OW17596   1.589   3.544   6.537
 5566SOL    HW117597   1.588   3.446   6.516
 5566SOL    HW217598   1.557   3.596   6.458
 5567SOL     OW17599   0.105   4.178   1.438
 5567SOL    HW117600   0.153   4.203   1.523
 5567SOL    HW217601   0.136   4.088   1.407
 5568SOL     OW17602   3.919   5.883   1.220
 5568SOL    HW117603   3.918   5.932   1.308
 5568SOL    HW217604   3.871   5.796   1.230
 5569SOL     OW17605   2.109   3.034   3.915
 5569SOL    HW117606   2.056   2.950   3.913
 5569SOL    HW217607   2.093   3.082   4.001
 5570SOL     OW17608   0.726   3.725   2.650
 5570SOL    HW117609   0.803   3.686   2.701
 5570SOL    HW217610   0.641   3.703   2.697
 5571SOL     OW17611   6.217   4.936   1.680
 5571SOL    HW117612   6.203   5.035   1.683
 5571SOL    HW217613   6.160   4.897   1.607
 5572SOL     OW17614   1.515   3.491   5.120
 5572SOL    HW117615   1.460   3.471   5.038
 5572SOL    HW217616   1.538   3.406   5.166
 5573SOL     OW17617   3.004   5.151   4.095
 5573SOL    HW117618   2.920   5.108   4.062
 5573SOL    HW217619   2.989   5.249   4.107
 5574SOL     OW17620   0.842   2.341   6.569
 5574SOL    HW117621   0.861   2.382   6.480
 5574SOL    HW217622   0.796   2.252   6.556
 5575SOL     OW17623   0.586   0.185   1.704
 5575SOL    HW117624   0.624   0.226   1.787
 5575SOL    HW217625   0.567   0.257   1.637
 5576SOL     OW17626   2.022   4.511   3.346
 5576SOL    HW117627   1.926   4.540   3.346
 5576SOL    HW217628   2.058   4.513   3.439
 5577SOL     OW17629   1.765   2.854   5.887
 5577SOL    HW117630   1.806   2.938   5.922
 5577SOL    HW217631   1.805   2.775   5.934
 5578SOL     OW17632   3.925   3.673   3.470
 5578SOL    HW117633   3.969   3.758   3.501
 5578SOL    HW217634   3.973   3.595   3.509
 5579SOL     OW17635   0.630   3.266   1.517
 5579SOL    HW117636   0.715   3.235   1.560
 5579SOL    HW217637   0.599   3.350   1.562
 5580SOL     OW17638   5.055   2.034   5.186
 5580SOL    HW117639   5.038   1.983   5.102
 5580SOL    HW217640   5.034   2.131   5.172
 5581SOL     OW17641   1.172   1.587   6.797
 5581SOL    HW117642   1.223   1.608   6.714
 5581SOL    HW217643   1.118   1.667   6.824
 5582SOL     OW17644   2.607   2.389   6.532
 5582SOL    HW117645   2.525   2.434   6.497
 5582SOL    HW217646   2.688   2.436   6.496
 5583SOL     OW17647   5.324   0.986   2.222
 5583SOL    HW117648   5.334   1.053   2.148
 5583SOL    HW217649   5.406   0.987   2.279
 5584SOL     OW17650   0.847   3.965   4.959
 5584SOL    HW117651   0.916   4.034   4.980
 5584SOL    HW217652   0.882   3.901   4.891
 5585SOL     OW17653   4.581   4.809   2.278
 5585SOL    HW117654   4.568   4.749   2.358
 5585SOL    HW217655   4.575   4.904   2.307
 5586SOL     OW17656   6.670   3.042   6.619
 5586SOL    HW117657   6.726   2.994   6.687
 5586SOL    HW217658   6.593   2.983   6.593
 5587SOL     OW17659   5.468   0.583   6.382
 5587SOL    HW117660   5.405   0.509   6.358
 5587SOL    HW217661   5.416   0.663   6.411
 5588SOL     OW17662   3.421   6.908   1.840
 5588SOL    HW117663   3.503   6.853   1.857
 5588SOL    HW217664   3.340   6.856   1.867
 5589SOL     OW17665   5.937   5.111   6.282
 5589SOL    HW117666   5.923   5.061   6.367
 5589SOL    HW217667   6.035   5.130   6.270
 5590SOL     OW17668   5.534   5.441   4.313
 5590SOL    HW117669   5.494   5.503   4.246
 5590SOL    HW217670   5.465   5.374   4.343
 5591SOL     OW17671   6.173   1.316   1.150
 5591SOL    HW117672   6.221   1.253   1.088
 5591SOL    HW217673   6.238   1.357   1.213
 5592SOL     OW17674   0.744   4.635   3.262
 5592SOL    HW117675   0.702   4.609   3.349
 5592SOL    HW217676   0.804   4.561   3.231
 5593SOL     OW17677   6.487   2.804   0.137
 5593SOL    HW117678   6.485   2.756   0.225
 5593SOL    HW217679   6.498   2.737   0.063
 5594SOL     OW17680   5.782   2.466   5.379
 5594SOL    HW117681   5.840   2.390   5.411
 5594SOL    HW217682   5.766   2.456   5.281
 5595SOL     OW17683   0.795   2.597   5.566
 5595SOL    HW117684   0.788   2.520   5.502
 5595SOL    HW217685   0.751   2.573   5.652
 5596SOL     OW17686   4.114   6.367   2.444
 5596SOL    HW117687   4.142   6.463   2.451
 5596SOL    HW217688   4.072   6.351   2.354
 5597SOL     OW17689   5.223   3.597   3.230
 5597SOL    HW117690   5.256   3.620   3.321
 5597SOL    HW217691   5.129   3.565   3.236
 5598SOL     OW17692   5.637   2.143   5.015
 5598SOL    HW117693   5.554   2.088   5.022
 5598SOL    HW217694   5.644   2.181   4.923
 5599SOL     OW17695   0.469   1.645   4.058
 5599SOL    HW117696   0.443   1.557   4.018
 5599SOL    HW217697   0.552   1.679   4.012
 5600SOL     OW17698   1.463   2.332   4.146
 5600SOL    HW117699   1.559   2.350   4.126
 5600SOL    HW217700   1.453   2.236   4.174
 5601SOL     OW17701   2.360   1.190   5.502
 5601SOL    HW117702   2.298   1.111   5.508
 5601SOL    HW217703   2.414   1.196   5.585
 5602SOL     OW17704   1.086   1.854   0.761
 5602SOL    HW117705   1.081   1.918   0.837
 5602SOL    HW217706   1.182   1.830   0.744
 5603SOL     OW17707   6.160   2.443   6.399
 5603SOL    HW117708   6.086   2.497   6.439
 5603SOL    HW217709   6.166   2.461   6.301
 5604SOL     OW17710   6.419   1.946   5.487
 5604SOL    HW117711   6.460   1.860   5.457
 5604SOL    HW217712   6.325   1.929   5.518
 5605SOL     OW17713   0.586   2.330   4.613
 5605SOL    HW117714   0.532   2.298   4.690
 5605SOL    HW217715   0.636   2.412   4.640
 5606SOL     OW17716   4.634   0.179   1.678
 5606SOL    HW117717   4.666   0.257   1.732
 5606SOL    HW217718   4.705   0.108   1.676
 5607SOL     OW17719   5.888   1.399   1.423
 5607SOL    HW117720   5.880   1.310   1.378
 5607SOL    HW217721   5.926   1.466   1.359
 5608SOL     OW17722   4.007   6.404   5.382
 5608SOL    HW117723   4.081   6.415   5.315
 5608SOL    HW217724   3.924   6.447   5.346
 5609SOL     OW17725   2.800   6.202   6.393
 5609SOL    HW117726   2.786   6.217   6.491
 5609SOL    HW217727   2.850   6.117   6.378
 5610SOL     OW17728   4.725   0.888   6.811
 5610SOL    HW117729   4.770   0.836   6.738
 5610SOL    HW217730   4.649   0.940   6.773
 5611SOL     OW17731   1.907   4.810   3.265
 5611SOL    HW117732   1.893   4.808   3.364
 5611SOL    HW217733   1.871   4.726   3.224
 5612SOL     OW17734   2.644   0.086   5.822
 5612SOL    HW117735   2.635   0.012   5.755
 5612SOL    HW217736   2.741   0.102   5.842
 5613SOL     OW17737   3.996   4.758   1.887
 5613SOL    HW117738   4.016   4.784   1.981
 5613SOL    HW217739   4.057   4.683   1.860
 5614SOL     OW17740   4.575   1.835   2.942
 5614SOL    HW117741   4.663   1.790   2.956
 5614SOL    HW217742   4.521   1.831   3.026
 5615SOL     OW17743   1.617   0.854   0.936
 5615SOL    HW117744   1.663   0.931   0.892
 5615SOL    HW217745   1.676   0.773   0.932
 5616SOL     OW17746   2.054   0.903   4.647
 5616SOL    HW117747   1.966   0.930   4.608
 5616SOL    HW217748   2.049   0.809   4.680
 5617SOL     OW17749   2.062   0.928   4.937
 5617SOL    HW117750   2.074   0.916   4.838
 5617SOL    HW217751   2.123   0.999   4.969
 5618SOL     OW17752   0.301   4.406   3.203
 5618SOL    HW117753   0.301   4.483   3.267
 5618SOL    HW217754   0.215   4.404   3.153
 5619SOL     OW17755   2.283   3.495   5.241
 5619SOL    HW117756   2.263   3.518   5.146
 5619SOL    HW217757   2.242   3.564   5.302
 5620SOL     OW17758   3.479   1.954   6.265
 5620SOL    HW117759   3.571   1.931   6.298
 5620SOL    HW217760   3.411   1.900   6.314
 5621SOL     OW17761   2.024   2.338   5.819
 5621SOL    HW117762   1.956   2.299   5.882
 5621SOL    HW217763   2.003   2.309   5.725
 5622SOL     OW17764   6.142   0.584   5.999
 5622SOL    HW117765   6.072   0.614   6.065
 5622SOL    HW217766   6.140   0.645   5.919
 5623SOL     OW17767   1.141   5.987   6.915
 5623SOL    HW117768   1.210   5.930   6.870
 5623SOL    HW217769   1.137   5.964   7.013
 5624SOL     OW17770   0.766   4.489   3.760
 5624SOL    HW117771   0.859   4.456   3.741
 5624SOL    HW217772   0.712   4.415   3.801
 5625SOL     OW17773   6.806   2.543   4.988
 5625SOL    HW117774   6.795   2.561   5.085
 5625SOL    HW217775   6.722   2.503   4.951
 5626SOL     OW17776   4.073   6.754   5.022
 5626SOL    HW117777   4.156   6.775   4.971
 5626SOL    HW217778   4.063   6.821   5.096
 5627SOL     OW17779   1.641   6.444   1.239
 5627SOL    HW117780   1.583   6.378   1.286
 5627SOL    HW217781   1.658   6.412   1.145
 5628SOL     OW17782   1.670   1.702   4.178
 5628SOL    HW117783   1.664   1.680   4.081
 5628SOL    HW217784   1.759   1.673   4.214
 5629SOL     OW17785   3.613   3.642   2.727
 5629SOL    HW117786   3.614   3.613   2.631
 5629SOL    HW217787   3.705   3.631   2.766
 5630SOL     OW17788   0.767   4.398   1.558
 5630SOL    HW117789   0.732   4.415   1.465
 5630SOL    HW217790   0.833   4.324   1.555
 5631SOL     OW17791   4.827   0.749   0.251
 5631SOL    HW117792   4.816   0.792   0.340
 5631SOL    HW217793   4.792   0.810   0.180
 5632SOL     OW17794   4.219   3.830   6.686
 5632SOL    HW117795   4.282   3.785   6.622
 5632SOL    HW217796   4.242   3.927   6.693
 5633SOL     OW17797   6.059   2.628   4.494
 5633SOL    HW117798   6.107   2.707   4.533
 5633SOL    HW217799   6.045   2.642   4.396
 5634SOL     OW17800   3.789   5.633   4.445
 5634SOL    HW117801   3.852   5.601   4.515
 5634SOL    HW217802   3.839   5.688   4.378
 5635SOL     OW17803   2.893   2.186   4.983
 5635SOL    HW117804   2.914   2.135   4.899
 5635SOL    HW217805   2.972   2.241   5.009
 5636SOL     OW17806   3.874   5.772   3.480
 5636SOL    HW117807   3.777   5.773   3.501
 5636SOL    HW217808   3.927   5.774   3.564
 5637SOL     OW17809   5.496   0.306   3.255
 5637SOL    HW117810   5.506   0.255   3.170
 5637SOL    HW217811   5.412   0.360   3.252
 5638SOL     OW17812   5.613   3.313   6.222
 5638SOL    HW117813   5.594   3.395   6.276
 5638SOL    HW217814   5.708   3.285   6.238
 5639SOL     OW17815   2.031   1.078   6.427
 5639SOL    HW117816   1.974   1.010   6.382
 5639SOL    HW217817   2.117   1.088   6.378
 5640SOL     OW17818   2.368   0.326   3.197
 5640SOL    HW117819   2.411   0.412   3.226
 5640SOL    HW217820   2.434   0.252   3.207
 5641SOL     OW17821   6.576   5.480   4.939
 5641SOL    HW117822   6.515   5.536   4.883
 5641SOL    HW217823   6.612   5.405   4.883
 5642SOL     OW17824   1.130   1.733   6.261
 5642SOL    HW117825   1.074   1.699   6.185
 5642SOL    HW217826   1.096   1.822   6.291
 5643SOL     OW17827   5.641   2.533   4.597
 5643SOL    HW117828   5.603   2.614   4.641
 5643SOL    HW217829   5.570   2.487   4.544
 5644SOL     OW17830   3.628   0.533   6.829
 5644SOL    HW117831   3.548   0.475   6.844
 5644SOL    HW217832   3.646   0.541   6.731
 5645SOL     OW17833   5.407   2.396   4.205
 5645SOL    HW117834   5.314   2.384   4.171
 5645SOL    HW217835   5.470   2.340   4.152
 5646SOL     OW17836   1.786   4.565   3.176
 5646SOL    HW117837   1.687   4.555   3.188
 5646SOL    HW217838   1.821   4.488   3.123
 5647SOL     OW17839   6.590   5.758   2.618
 5647SOL    HW117840   6.564   5.733   2.525
 5647SOL    HW217841   6.510   5.791   2.668
 5648SOL     OW17842   4.408   6.705   2.878
 5648SOL    HW117843   4.490   6.743   2.920
 5648SOL    HW217844   4.340   6.685   2.949
 5649SOL     OW17845   0.780   6.597   4.092
 5649SOL    HW117846   0.795   6.553   4.180
 5649SOL    HW217847   0.808   6.536   4.018
 5650SOL     OW17848   6.565   4.461   6.887
 5650SOL    HW117849   6.506   4.423   6.815
 5650SOL    HW217850   6.654   4.416   6.883
 5651SOL     OW17851   1.568   0.608   2.044
 5651SOL    HW117852   1.658   0.640   2.015
 5651SOL    HW217853   1.499   0.638   1.978
 5652SOL     OW17854   1.290   6.006   1.782
 5652SOL    HW117855   1.254   6.020   1.690
 5652SOL    HW217856   1.318   6.093   1.821
 5653SOL     OW17857   6.934   6.921   0.915
 5653SOL    HW117858   6.907   6.853   0.846
 5653SOL    HW217859   6.854   6.950   0.967
 5654SOL     OW17860   2.634   6.223   4.949
 5654SOL    HW117861   2.623   6.134   4.995
 5654SOL    HW217862   2.639   6.295   5.018
 5655SOL     OW17863   6.345   2.842   4.502
 5655SOL    HW117864   6.384   2.821   4.413
 5655SOL    HW217865   6.363   2.938   4.525
 5656SOL     OW17866   6.947   3.205   6.883
 5656SOL    HW117867   7.007   3.242   6.812
 5656SOL    HW217868   6.860   3.254   6.882
 5657SOL     OW17869   4.756   5.426   5.497
 5657SOL    HW117870   4.672   5.374   5.483
 5657SOL    HW217871   4.738   5.504   5.557
 5658SOL     OW17872   2.397   2.833   5.600
 5658SOL    HW117873   2.368   2.745   5.561
 5658SOL    HW217874   2.439   2.817   5.689
 5659SOL     OW17875   3.948   4.224   6.286
 5659SOL    HW117876   3.926   4.311   6.243
 5659SOL    HW217877   3.870   4.162   6.280
 5660SOL     OW17878   4.340   0.812   6.089
 5660SOL    HW117879   4.440   0.821   6.091
 5660SOL    HW217880   4.315   0.721   6.057
 5661SOL     OW17881   1.093   5.054   5.535
 5661SOL    HW117882   1.090   5.149   5.566
 5661SOL    HW217883   1.174   5.041   5.478
 5662SOL     OW17884   2.567   6.425   1.824
 5662SOL    HW117885   2.518   6.472   1.898
 5662SOL    HW217886   2.509   6.423   1.742
 5663SOL     OW17887   0.884   2.996   6.586
 5663SOL    HW117888   0.912   3.084   6.547
 5663SOL    HW217889   0.910   2.993   6.683
 5664SOL     OW17890   4.801   4.064   4.664
 5664SOL    HW117891   4.722   4.103   4.616
 5664SOL    HW217892   4.884   4.110   4.633
 5665SOL     OW17893   1.985   1.875   0.992
 5665SOL    HW117894   1.956   1.920   0.908
 5665SOL    HW217895   2.017   1.783   0.971
 5666SOL     OW17896   5.123   1.055   4.839
 5666SOL    HW117897   5.215   1.024   4.815
 5666SOL    HW217898   5.055   1.001   4.790
 5667SOL     OW17899   2.515   5.112   4.421
 5667SOL    HW117900   2.446   5.118   4.348
 5667SOL    HW217901   2.501   5.186   4.487
 5668SOL     OW17902   5.156   3.200   3.832
 5668SOL    HW117903   5.176   3.282   3.886
 5668SOL    HW217904   5.162   3.223   3.735
 5669SOL     OW17905   6.683   4.617   6.686
 5669SOL    HW117906   6.594   4.572   6.700
 5669SOL    HW217907   6.755   4.548   6.684
 5670SOL     OW17908   0.404   1.855   2.864
 5670SOL    HW117909   0.332   1.923   2.878
 5670SOL    HW217910   0.364   1.772   2.826
 5671SOL     OW17911   6.975   6.618   3.604
 5671SOL    HW117912   6.880   6.636   3.627
 5671SOL    HW217913   7.005   6.533   3.647
 5672SOL     OW17914   4.909   3.172   5.227
 5672SOL    HW117915   4.996   3.188   5.274
 5672SOL    HW217916   4.841   3.141   5.294
 5673SOL     OW17917   0.509   0.978   1.292
 5673SOL    HW117918   0.510   1.061   1.236
 5673SOL    HW217919   0.475   0.901   1.237
 5674SOL     OW17920   1.932   5.326   5.847
 5674SOL    HW117921   1.907   5.342   5.752
 5674SOL    HW217922   1.988   5.402   5.881
 5675SOL     OW17923   2.683   1.999   0.725
 5675SOL    HW117924   2.606   2.027   0.668
 5675SOL    HW217925   2.758   2.065   0.714
 5676SOL     OW17926   2.750   2.026   1.749
 5676SOL    HW117927   2.741   2.030   1.650
 5676SOL    HW217928   2.671   1.979   1.788
 5677SOL     OW17929   6.737   1.237   0.911
 5677SOL    HW117930   6.735   1.183   0.826
 5677SOL    HW217931   6.819   1.293   0.913
 5678SOL     OW17932   3.247   2.063   1.922
 5678SOL    HW117933   3.162   2.074   1.871
 5678SOL    HW217934   3.226   2.041   2.017
 5679SOL     OW17935   6.217   3.418   5.270
 5679SOL    HW117936   6.286   3.351   5.243
 5679SOL    HW217937   6.228   3.441   5.367
 5680SOL     OW17938   1.536   6.185   5.282
 5680SOL    HW117939   1.631   6.180   5.314
 5680SOL    HW217940   1.486   6.105   5.314
 5681SOL     OW17941   0.962   3.771   3.810
 5681SOL    HW117942   0.892   3.757   3.879
 5681SOL    HW217943   0.936   3.848   3.751
 5682SOL     OW17944   2.049   4.359   2.056
 5682SOL    HW117945   2.032   4.454   2.030
 5682SOL    HW217946   1.996   4.337   2.137
 5683SOL     OW17947   6.519   1.658   6.238
 5683SOL    HW117948   6.616   1.651   6.263
 5683SOL    HW217949   6.479   1.567   6.234
 5684SOL     OW17950   1.938   2.574   5.290
 5684SOL    HW117951   1.946   2.589   5.388
 5684SOL    HW217952   2.007   2.628   5.242
 5685SOL     OW17953   2.214   1.695   2.934
 5685SOL    HW117954   2.241   1.783   2.974
 5685SOL    HW217955   2.190   1.709   2.837
 5686SOL     OW17956   3.426   5.620   6.019
 5686SOL    HW117957   3.414   5.543   5.955
 5686SOL    HW217958   3.349   5.683   6.010
 5687SOL     OW17959   1.876   6.421   6.934
 5687SOL    HW117960   1.871   6.481   7.014
 5687SOL    HW217961   1.811   6.453   6.865
 5688SOL     OW17962   2.276   2.448   3.085
 5688SOL    HW117963   2.193   2.411   3.127
 5688SOL    HW217964   2.352   2.385   3.101
 5689SOL     OW17965   0.682   2.668   1.403
 5689SOL    HW117966   0.715   2.715   1.485
 5689SOL    HW217967   0.749   2.679   1.329
 5690SOL     OW17968   1.527   5.530   0.347
 5690SOL    HW117969   1.618   5.571   0.350
 5690SOL    HW217970   1.478   5.562   0.266
 5691SOL     OW17971   3.115   1.288   2.579
 5691SOL    HW117972   3.092   1.192   2.566
 5691SOL    HW217973   3.202   1.296   2.628
 5692SOL     OW17974   4.200   4.894   1.499
 5692SOL    HW117975   4.258   4.813   1.500
 5692SOL    HW217976   4.104   4.866   1.502
 5693SOL     OW17977   4.186   0.609   1.092
 5693SOL    HW117978   4.264   0.550   1.112
 5693SOL    HW217979   4.116   0.557   1.044
 5694SOL     OW17980   1.071   6.287   1.753
 5694SOL    HW117981   1.145   6.354   1.747
 5694SOL    HW217982   1.032   6.289   1.845
 5695SOL     OW17983   1.626   0.334   1.038
 5695SOL    HW117984   1.535   0.294   1.031
 5695SOL    HW217985   1.695   0.263   1.025
 5696SOL     OW17986   1.615   0.444   3.725
 5696SOL    HW117987   1.567   0.409   3.806
 5696SOL    HW217988   1.671   0.522   3.751
 5697SOL     OW17989   6.437   3.077   0.217
 5697SOL    HW117990   6.464   2.985   0.186
 5697SOL    HW217991   6.443   3.140   0.140
 5698SOL     OW17992   2.696   2.375   3.921
 5698SOL    HW117993   2.616   2.399   3.867
 5698SOL    HW217994   2.773   2.357   3.860
 5699SOL     OW17995   1.966   2.585   2.976
 5699SOL    HW117996   1.904   2.662   2.993
 5699SOL    HW217997   2.044   2.615   2.922
 5700SOL     OW17998   6.418   0.636   2.909
 5700SOL    HW117999   6.328   0.680   2.909
 5700SOL    HW218000   6.408   0.538   2.895
 5701SOL     OW18001   0.224   1.157   1.178
 5701SOL    HW118002   0.170   1.209   1.245
 5701SOL    HW218003   0.319   1.187   1.182
 5702SOL     OW18004   2.490   6.797   4.432
 5702SOL    HW118005   2.450   6.889   4.431
 5702SOL    HW218006   2.432   6.737   4.487
 5703SOL     OW18007   0.119   2.952   6.180
 5703SOL    HW118008   0.187   2.888   6.215
 5703SOL    HW218009   0.042   2.902   6.140
 5704SOL     OW18010   4.388   4.721   3.849
 5704SOL    HW118011   4.343   4.790   3.793
 5704SOL    HW218012   4.400   4.637   3.797
 5705SOL     OW18013   6.406   6.768   5.369
 5705SOL    HW118014   6.357   6.843   5.414
 5705SOL    HW218015   6.436   6.798   5.279
 5706SOL     OW18016   4.854   1.973   0.170
 5706SOL    HW118017   4.888   2.066   0.179
 5706SOL    HW218018   4.882   1.935   0.081
 5707SOL     OW18019   5.467   5.621   2.375
 5707SOL    HW118020   5.413   5.676   2.312
 5707SOL    HW218021   5.433   5.634   2.468
 5708SOL     OW18022   4.320   5.916   2.736
 5708SOL    HW118023   4.279   5.992   2.686
 5708SOL    HW218024   4.375   5.861   2.673
 5709SOL     OW18025   6.938   1.607   2.237
 5709SOL    HW118026   6.894   1.685   2.192
 5709SOL    HW218027   6.920   1.611   2.335
 5710SOL     OW18028   3.211   2.043   1.227
 5710SOL    HW118029   3.235   2.091   1.312
 5710SOL    HW218030   3.241   2.098   1.149
 5711SOL     OW18031   5.432   1.517   2.006
 5711SOL    HW118032   5.423   1.499   2.103
 5711SOL    HW218033   5.475   1.606   1.992
 5712SOL     OW18034   6.112   6.942   1.473
 5712SOL    HW118035   6.116   0.008   1.423
 5712SOL    HW218036   6.128   6.866   1.410
 5713SOL     OW18037   2.468   0.014   0.376
 5713SOL    HW118038   2.421   0.099   0.399
 5713SOL    HW218039   2.559   0.014   0.418
 5714SOL     OW18040   6.203   0.007   0.927
 5714SOL    HW118041   6.130   6.998   0.989
 5714SOL    HW218042   6.282   0.038   0.981
 5715SOL     OW18043   0.069   0.361   1.481
 5715SOL    HW118044   0.155   0.393   1.442
 5715SOL    HW218045   0.013   0.318   1.410
 5716SOL     OW18046   6.634   4.837   5.483
 5716SOL    HW118047   6.726   4.870   5.506
 5716SOL    HW218048   6.575   4.914   5.460
 5717SOL     OW18049   1.469   5.147   3.181
 5717SOL    HW118050   1.432   5.067   3.133
 5717SOL    HW218051   1.479   5.222   3.116
 5718SOL     OW18052   0.650   3.153   0.179
 5718SOL    HW118053   0.748   3.171   0.172
 5718SOL    HW218054   0.602   3.201   0.105
 5719SOL     OW18055   2.367   3.438   0.814
 5719SOL    HW118056   2.351   3.503   0.739
 5719SOL    HW218057   2.463   3.409   0.813
 5720SOL     OW18058   2.506   4.548   6.640
 5720SOL    HW118059   2.557   4.467   6.609
 5720SOL    HW218060   2.501   4.614   6.565
 5721SOL     OW18061   2.741   3.609   0.434
 5721SOL    HW118062   2.723   3.649   0.344
 5721SOL    HW218063   2.825   3.554   0.431
 5722SOL     OW18064   1.282   1.064   6.085
 5722SOL    HW118065   1.232   1.092   6.167
 5722SOL    HW218066   1.217   1.034   6.014
 5723SOL     OW18067   4.157   3.327   0.393
 5723SOL    HW118068   4.222   3.326   0.469
 5723SOL    HW218069   4.146   3.421   0.360
 5724SOL     OW18070   5.453   2.378   4.483
 5724SOL    HW118071   5.446   2.387   4.384
 5724SOL    HW218072   5.505   2.296   4.506
 5725SOL     OW18073   6.839   4.071   4.761
 5725SOL    HW118074   6.791   3.990   4.728
 5725SOL    HW218075   6.912   4.095   4.697
 5726SOL     OW18076   5.294   4.553   2.406
 5726SOL    HW118077   5.251   4.474   2.361
 5726SOL    HW218078   5.249   4.570   2.493
 5727SOL     OW18079   0.799   1.935   5.054
 5727SOL    HW118080   0.814   1.898   5.145
 5727SOL    HW218081   0.851   2.020   5.044
 5728SOL     OW18082   4.712   6.534   5.093
 5728SOL    HW118083   4.747   6.625   5.117
 5728SOL    HW218084   4.618   6.543   5.060
 5729SOL     OW18085   2.022   2.068   5.203
 5729SOL    HW118086   2.038   2.111   5.292
 5729SOL    HW218087   1.957   1.993   5.215
 5730SOL     OW18088   6.774   3.754   4.694
 5730SOL    HW118089   6.870   3.773   4.713
 5730SOL    HW218090   6.726   3.732   4.779
 5731SOL     OW18091   0.173   6.403   2.285
 5731SOL    HW118092   0.198   6.461   2.207
 5731SOL    HW218093   0.127   6.459   2.354
 5732SOL     OW18094   0.687   6.981   3.325
 5732SOL    HW118095   0.619   6.957   3.393
 5732SOL    HW218096   0.672   0.055   3.295
 5733SOL     OW18097   3.214   0.665   5.633
 5733SOL    HW118098   3.163   0.621   5.558
 5733SOL    HW218099   3.155   0.673   5.713
 5734SOL     OW18100   2.218   6.336   3.409
 5734SOL    HW118101   2.289   6.273   3.377
 5734SOL    HW218102   2.131   6.313   3.366
 5735SOL     OW18103   2.624   1.090   1.658
 5735SOL    HW118104   2.640   0.991   1.664
 5735SOL    HW218105   2.661   1.124   1.572
 5736SOL     OW18106   1.259   5.127   6.428
 5736SOL    HW118107   1.247   5.101   6.524
 5736SOL    HW218108   1.353   5.161   6.415
 5737SOL     OW18109   5.311   4.395   0.783
 5737SOL    HW118110   5.237   4.399   0.715
 5737SOL    HW218111   5.355   4.484   0.790
 5738SOL     OW18112   1.468   3.979   5.995
 5738SOL    HW118113   1.432   3.890   5.966
 5738SOL    HW218114   1.421   4.008   6.078
 5739SOL     OW18115   0.820   1.716   1.320
 5739SOL    HW118116   0.891   1.786   1.314
 5739SOL    HW218117   0.859   1.627   1.295
 5740SOL     OW18118   3.673   5.854   6.203
 5740SOL    HW118119   3.708   5.947   6.216
 5740SOL    HW218120   3.714   5.813   6.121
 5741SOL     OW18121   0.059   4.784   3.385
 5741SOL    HW118122   0.036   4.824   3.296
 5741SOL    HW218123   0.000   4.705   3.402
 5742SOL     OW18124   6.871   6.433   4.548
 5742SOL    HW118125   6.911   6.343   4.565
 5742SOL    HW218126   6.771   6.426   4.549
 5743SOL     OW18127   1.825   7.020   4.858
 5743SOL    HW118128   1.920   6.991   4.847
 5743SOL    HW218129   1.811   0.088   4.813
 5744SOL     OW18130   5.414   6.720   1.884
 5744SOL    HW118131   5.399   6.734   1.786
 5744SOL    HW218132   5.418   6.622   1.904
 5745SOL     OW18133   1.252   1.754   3.536
 5745SOL    HW118134   1.156   1.782   3.538
 5745SOL    HW218135   1.281   1.742   3.441
 5746SOL     OW18136   6.247   4.296   0.161
 5746SOL    HW118137   6.152   4.277   0.184
 5746SOL    HW218138   6.296   4.325   0.243
 5747SOL     OW18139   0.985   6.102   2.782
 5747SOL    HW118140   0.970   6.107   2.881
 5747SOL    HW218141   1.014   6.009   2.758
 5748SOL     OW18142   2.230   6.130   3.102
 5748SOL    HW118143   2.235   6.150   3.200
 5748SOL    HW218144   2.319   6.098   3.070
 5749SOL     OW18145   2.343   1.839   3.372
 5749SOL    HW118146   2.366   1.780   3.449
 5749SOL    HW218147   2.372   1.932   3.391
 5750SOL     OW18148   6.650   5.507   2.790
 5750SOL    HW118149   6.657   5.606   2.775
 5750SOL    HW218150   6.740   5.465   2.775
 5751SOL     OW18151   2.177   3.017   6.418
 5751SOL    HW118152   2.200   3.110   6.388
 5751SOL    HW218153   2.089   3.019   6.465
 5752SOL     OW18154   6.817   0.893   0.008
 5752SOL    HW118155   6.843   0.935   0.095
 5752SOL    HW218156   6.868   0.807   7.017
 5753SOL     OW18157   3.962   2.210   0.435
 5753SOL    HW118158   4.039   2.268   0.409
 5753SOL    HW218159   3.966   2.191   0.533
 5754SOL     OW18160   6.111   4.493   1.023
 5754SOL    HW118161   6.197   4.457   0.987
 5754SOL    HW218162   6.086   4.444   1.106
 5755SOL     OW18163   3.648   3.640   1.419
 5755SOL    HW118164   3.675   3.709   1.486
 5755SOL    HW218165   3.578   3.581   1.459
 5756SOL     OW18166   0.199   6.384   4.030
 5756SOL    HW118167   0.217   6.436   4.113
 5756SOL    HW218168   0.284   6.375   3.977
 5757SOL     OW18169   0.654   5.469   1.757
 5757SOL    HW118170   0.605   5.546   1.717
 5757SOL    HW218171   0.594   5.420   1.821
 5758SOL     OW18172   1.045   1.650   5.616
 5758SOL    HW118173   1.053   1.588   5.538
 5758SOL    HW218174   0.978   1.721   5.595
 5759SOL     OW18175   5.752   2.081   5.240
 5759SOL    HW118176   5.702   2.104   5.156
 5759SOL    HW218177   5.687   2.075   5.316
 5760SOL     OW18178   1.844   5.542   1.686
 5760SOL    HW118179   1.848   5.443   1.678
 5760SOL    HW218180   1.910   5.573   1.755
 5761SOL     OW18181   4.999   0.389   5.127
 5761SOL    HW118182   5.055   0.458   5.082
 5761SOL    HW218183   4.902   0.409   5.110
 5762SOL     OW18184   5.722   6.090   1.158
 5762SOL    HW118185   5.672   6.026   1.216
 5762SOL    HW218186   5.795   6.042   1.109
 5763SOL     OW18187   1.428   1.708   1.497
 5763SOL    HW118188   1.393   1.650   1.571
 5763SOL    HW218189   1.515   1.748   1.523
 5764SOL     OW18190   4.873   3.278   5.565
 5764SOL    HW118191   4.817   3.218   5.621
 5764SOL    HW218192   4.819   3.311   5.487
 5765SOL     OW18193   5.898   4.614   0.559
 5765SOL    HW118194   5.910   4.553   0.637
 5765SOL    HW218195   5.844   4.568   0.489
 5766SOL     OW18196   2.805   1.143   3.471
 5766SOL    HW118197   2.807   1.198   3.554
 5766SOL    HW218198   2.888   1.160   3.418
 5767SOL     OW18199   6.634   7.012   0.842
 5767SOL    HW118200   6.611   6.915   0.840
 5767SOL    HW218201   6.593   0.038   0.764
 5768SOL     OW18202   6.533   0.356   2.675
 5768SOL    HW118203   6.600   0.377   2.746
 5768SOL    HW218204   6.441   0.366   2.712
 5769SOL     OW18205   2.065   5.743   3.672
 5769SOL    HW118206   1.984   5.686   3.659
 5769SOL    HW218207   2.041   5.839   3.662
 5770SOL     OW18208   6.218   0.725   1.770
 5770SOL    HW118209   6.272   0.736   1.686
 5770SOL    HW218210   6.176   0.634   1.770
 5771SOL     OW18211   0.887   1.408   2.202
 5771SOL    HW118212   0.942   1.326   2.189
 5771SOL    HW218213   0.943   1.479   2.246
 5772SOL     OW18214   0.133   4.180   6.861
 5772SOL    HW118215   0.146   4.095   6.810
 5772SOL    HW218216   0.035   4.195   6.875
 5773SOL     OW18217   5.566   5.920   4.742
 5773SOL    HW118218   5.616   5.833   4.745
 5773SOL    HW218219   5.626   5.994   4.774
 5774SOL     OW18220   2.684   5.088   2.821
 5774SOL    HW118221   2.686   5.012   2.886
 5774SOL    HW218222   2.701   5.052   2.729
 5775SOL     OW18223   0.714   0.333   0.189
 5775SOL    HW118224   0.801   0.304   0.230
 5775SOL    HW218225   0.647   0.259   0.197
 5776SOL     OW18226   5.546   1.055   6.093
 5776SOL    HW118227   5.503   1.037   6.005
 5776SOL    HW218228   5.510   1.141   6.130
 5777SOL     OW18229   5.845   0.631   5.000
 5777SOL    HW118230   5.914   0.565   4.971
 5777SOL    HW218231   5.770   0.583   5.046
 5778SOL     OW18232   2.060   6.857   3.783
 5778SOL    HW118233   2.070   6.957   3.784
 5778SOL    HW218234   2.050   6.824   3.877
 5779SOL     OW18235   4.122   0.548   1.969
 5779SOL    HW118236   4.152   0.611   1.897
 5779SOL    HW218237   4.056   0.595   2.028
 5780SOL     OW18238   6.066   3.706   1.362
 5780SOL    HW118239   6.131   3.692   1.436
 5780SOL    HW218240   6.107   3.676   1.275
 5781SOL     OW18241   2.597   4.901   5.072
 5781SOL    HW118242   2.511   4.905   5.020
 5781SOL    HW218243   2.601   4.815   5.122
 5782SOL     OW18244   2.912   1.436   3.084
 5782SOL    HW118245   2.951   1.520   3.121
 5782SOL    HW218246   2.936   1.428   2.987
 5783SOL     OW18247   2.683   6.554   1.310
 5783SOL    HW118248   2.674   6.649   1.280
 5783SOL    HW218249   2.674   6.548   1.409
 5784SOL     OW18250   1.746   5.822   0.288
 5784SOL    HW118251   1.799   5.782   0.214
 5784SOL    HW218252   1.655   5.847   0.254
 5785SOL     OW18253   2.604   1.379   0.542
 5785SOL    HW118254   2.615   1.434   0.459
 5785SOL    HW218255   2.536   1.421   0.602
 5786SOL     OW18256   0.909   3.216   0.235
 5786SOL    HW118257   0.878   3.225   0.330
 5786SOL    HW218258   0.927   3.307   0.197
 5787SOL     OW18259   0.336   3.067   5.349
 5787SOL    HW118260   0.370   3.100   5.260
 5787SOL    HW218261   0.335   3.143   5.414
 5788SOL     OW18262   2.077   2.674   1.928
 5788SOL    HW118263   2.031   2.705   1.845
 5788SOL    HW218264   2.077   2.747   1.996
 5789SOL     OW18265   2.930   5.212   6.978
 5789SOL    HW118266   2.969   5.187   6.890
 5789SOL    HW218267   2.928   5.132   0.017
 5790SOL     OW18268   6.175   6.196   3.503
 5790SOL    HW118269   6.130   6.275   3.461
 5790SOL    HW218270   6.138   6.181   3.595
 5791SOL     OW18271   4.192   1.833   1.300
 5791SOL    HW118272   4.252   1.822   1.221
 5791SOL    HW218273   4.115   1.769   1.293
 5792SOL     OW18274   4.127   2.227   2.981
 5792SOL    HW118275   4.186   2.149   3.002
 5792SOL    HW218276   4.115   2.234   2.882
 5793SOL     OW18277   3.951   2.849   6.773
 5793SOL    HW118278   3.908   2.851   6.863
 5793SOL    HW218279   3.988   2.757   6.756
 5794SOL     OW18280   3.551   6.131   6.964
 5794SOL    HW118281   3.523   6.048   6.915
 5794SOL    HW218282   3.470   6.182   6.991
 5795SOL     OW18283   2.020   6.478   1.593
 5795SOL    HW118284   1.998   6.549   1.659
 5795SOL    HW218285   1.938   6.426   1.570
 5796SOL     OW18286   4.908   0.786   6.629
 5796SOL    HW118287   4.928   0.738   6.715
 5796SOL    HW218288   4.994   0.816   6.588
 5797SOL     OW18289   6.840   2.743   0.548
 5797SOL    HW118290   6.789   2.659   0.564
 5797SOL    HW218291   6.936   2.729   0.570
 5798SOL     OW18292   1.521   3.597   4.632
 5798SOL    HW118293   1.476   3.514   4.598
 5798SOL    HW218294   1.597   3.620   4.571
 5799SOL     OW18295   2.832   0.215   3.763
 5799SOL    HW118296   2.910   0.178   3.713
 5799SOL    HW218297   2.787   0.142   3.815
 5800SOL     OW18298   1.082   0.229   1.428
 5800SOL    HW118299   1.009   0.214   1.361
 5800SOL    HW218300   1.056   0.306   1.487
 5801SOL     OW18301   1.781   1.758   2.458
 5801SOL    HW118302   1.802   1.751   2.361
 5801SOL    HW218303   1.795   1.669   2.502
 5802SOL     OW18304   0.515   0.284   2.732
 5802SOL    HW118305   0.449   0.209   2.729
 5802SOL    HW218306   0.600   0.251   2.772
 5803SOL     OW18307   0.354   6.270   4.564
 5803SOL    HW118308   0.402   6.232   4.643
 5803SOL    HW218309   0.397   6.239   4.480
 5804SOL     OW18310   5.912   2.109   3.010
 5804SOL    HW118311   5.900   2.031   3.071
 5804SOL    HW218312   5.830   2.118   2.952
 5805SOL     OW18313   1.155   2.858   2.375
 5805SOL    HW118314   1.212   2.940   2.362
 5805SOL    HW218315   1.213   2.777   2.374
 5806SOL     OW18316   6.666   4.074   2.246
 5806SOL    HW118317   6.651   4.084   2.148
 5806SOL    HW218318   6.597   4.012   2.284
 5807SOL     OW18319   1.546   1.342   2.340
 5807SOL    HW118320   1.501   1.432   2.338
 5807SOL    HW218321   1.540   1.304   2.432
 5808SOL     OW18322   6.751   0.510   5.905
 5808SOL    HW118323   6.715   0.553   5.987
 5808SOL    HW218324   6.801   0.427   5.930
 5809SOL     OW18325   0.160   2.715   4.610
 5809SOL    HW118326   0.230   2.652   4.643
 5809SOL    HW218327   0.102   2.744   4.686
 5810SOL     OW18328   3.015   6.021   5.209
 5810SOL    HW118329   2.971   6.015   5.298
 5810SOL    HW218330   2.999   6.111   5.168
 5811SOL     OW18331   3.745   4.189   6.653
 5811SOL    HW118332   3.691   4.235   6.582
 5811SOL    HW218333   3.822   4.247   6.679
 5812SOL     OW18334   5.936   2.693   6.158
 5812SOL    HW118335   5.951   2.669   6.254
 5812SOL    HW218336   6.018   2.671   6.105
 5813SOL     OW18337   5.191   5.444   0.627
 5813SOL    HW118338   5.144   5.410   0.709
 5813SOL    HW218339   5.192   5.544   0.629
 5814SOL     OW18340   5.936   0.972   2.332
 5814SOL    HW118341   5.848   0.967   2.285
 5814SOL    HW218342   5.986   0.886   2.319
 5815SOL     OW18343   6.330   3.395   4.372
 5815SOL    HW118344   6.302   3.367   4.464
 5815SOL    HW218345   6.297   3.488   4.354
 5816SOL     OW18346   0.202   3.970   2.257
 5816SOL    HW118347   0.236   3.877   2.243
 5816SOL    HW218348   0.111   3.979   2.216
 5817SOL     OW18349   6.272   3.766   3.075
 5817SOL    HW118350   6.201   3.834   3.056
 5817SOL    HW218351   6.231   3.675   3.078
 5818SOL     OW18352   2.613   0.141   4.566
 5818SOL    HW118353   2.578   0.169   4.655
 5818SOL    HW218354   2.603   0.216   4.501
 5819SOL     OW18355   3.680   3.789   0.384
 5819SOL    HW118356   3.681   3.715   0.317
 5819SOL    HW218357   3.655   3.751   0.474
 5820SOL     OW18358   5.969   6.938   2.621
 5820SOL    HW118359   6.005   6.969   2.533
 5820SOL    HW218360   5.889   6.881   2.605
 5821SOL     OW18361   6.832   0.228   1.921
 5821SOL    HW118362   6.877   0.172   1.851
 5821SOL    HW218363   6.758   0.175   1.962
 5822SOL     OW18364   1.089   3.992   2.598
 5822SOL    HW118365   1.047   4.014   2.686
 5822SOL    HW218366   1.186   3.971   2.612
 5823SOL     OW18367   1.952   6.709   3.983
 5823SOL    HW118368   1.981   6.621   3.947
 5823SOL    HW218369   2.020   6.743   4.049
 5824SOL     OW18370   1.805   6.722   2.383
 5824SOL    HW118371   1.888   6.767   2.351
 5824SOL    HW218372   1.794   6.634   2.337
 5825SOL     OW18373   4.625   1.260   3.966
 5825SOL    HW118374   4.717   1.224   3.984
 5825SOL    HW218375   4.619   1.290   3.870
 5826SOL     OW18376   1.599   6.841   5.274
 5826SOL    HW118377   1.546   6.862   5.355
 5826SOL    HW218378   1.557   6.885   5.194
 5827SOL     OW18379   2.001   4.012   3.657
 5827SOL    HW118380   2.016   3.927   3.607
 5827SOL    HW218381   1.973   4.084   3.594
 5828SOL     OW18382   4.363   0.580   5.585
 5828SOL    HW118383   4.328   0.634   5.661
 5828SOL    HW218384   4.461   0.600   5.572
 5829SOL     OW18385   1.947   0.379   2.899
 5829SOL    HW118386   1.946   0.303   2.963
 5829SOL    HW218387   1.855   0.393   2.862
 5830SOL     OW18388   4.048   5.367   4.153
 5830SOL    HW118389   4.074   5.462   4.172
 5830SOL    HW218390   4.126   5.318   4.116
 5831SOL     OW18391   2.085   2.299   5.081
 5831SOL    HW118392   2.050   2.206   5.086
 5831SOL    HW218393   2.127   2.324   5.168
 5832SOL     OW18394   2.894   5.363   2.194
 5832SOL    HW118395   2.943   5.276   2.195
 5832SOL    HW218396   2.898   5.405   2.284
 5833SOL     OW18397   3.500   5.601   6.962
 5833SOL    HW118398   3.589   5.589   7.005
 5833SOL    HW218399   3.450   5.675   7.008
 5834SOL     OW18400   6.733   2.907   6.179
 5834SOL    HW118401   6.667   2.836   6.203
 5834SOL    HW218402   6.714   2.989   6.234
 5835SOL     OW18403   4.516   1.755   3.200
 5835SOL    HW118404   4.487   1.809   3.279
 5835SOL    HW218405   4.616   1.745   3.202
 5836SOL     OW18406   5.160   6.276   1.971
 5836SOL    HW118407   5.146   6.190   1.923
 5836SOL    HW218408   5.084   6.290   2.036
 5837SOL     OW18409   2.997   4.629   6.520
 5837SOL    HW118410   3.032   4.545   6.560
 5837SOL    HW218411   3.062   4.664   6.452
 5838SOL     OW18412   4.293   3.074   0.220
 5838SOL    HW118413   4.291   3.172   0.241
 5838SOL    HW218414   4.200   3.038   0.220
 5839SOL     OW18415   1.951   2.228   0.892
 5839SOL    HW118416   1.876   2.248   0.955
 5839SOL    HW218417   1.916   2.175   0.814
 5840SOL     OW18418   0.493   3.732   3.730
 5840SOL    HW118419   0.394   3.730   3.715
 5840SOL    HW218420   0.533   3.648   3.695
 5841SOL     OW18421   5.325   1.293   0.509
 5841SOL    HW118422   5.383   1.250   0.439
 5841SOL    HW218423   5.361   1.384   0.530
 5842SOL     OW18424   3.219   1.644   1.214
 5842SOL    HW118425   3.207   1.630   1.313
 5842SOL    HW218426   3.207   1.557   1.166
 5843SOL     OW18427   3.699   3.383   0.235
 5843SOL    HW118428   3.669   3.352   0.145
 5843SOL    HW218429   3.798   3.371   0.243
 5844SOL     OW18430   0.381   5.970   5.280
 5844SOL    HW118431   0.374   6.056   5.330
 5844SOL    HW218432   0.326   5.975   5.196
 5845SOL     OW18433   1.353   6.702   2.492
 5845SOL    HW118434   1.434   6.720   2.548
 5845SOL    HW218435   1.367   6.740   2.400
 5846SOL     OW18436   0.926   4.410   5.107
 5846SOL    HW118437   0.836   4.394   5.150
 5846SOL    HW218438   0.998   4.377   5.168
 5847SOL     OW18439   1.527   3.715   6.311
 5847SOL    HW118440   1.570   3.672   6.232
 5847SOL    HW218441   1.467   3.790   6.280
 5848SOL     OW18442   2.120   5.574   1.858
 5848SOL    HW118443   2.180   5.512   1.909
 5848SOL    HW218444   2.156   5.667   1.863
 5849SOL     OW18445   2.671   5.681   6.385
 5849SOL    HW118446   2.638   5.601   6.436
 5849SOL    HW218447   2.762   5.705   6.417
 5850SOL     OW18448   0.547   1.776   1.727
 5850SOL    HW118449   0.449   1.775   1.744
 5850SOL    HW218450   0.582   1.682   1.724
 5851SOL     OW18451   6.323   3.598   4.815
 5851SOL    HW118452   6.375   3.536   4.756
 5851SOL    HW218453   6.337   3.572   4.911
 5852SOL     OW18454   4.933   4.292   2.153
 5852SOL    HW118455   4.913   4.194   2.157
 5852SOL    HW218456   4.886   4.333   2.075
 5853SOL     OW18457   4.828   4.891   6.509
 5853SOL    HW118458   4.883   4.963   6.551
 5853SOL    HW218459   4.868   4.802   6.531
 5854SOL     OW18460   3.457   4.825   5.252
 5854SOL    HW118461   3.358   4.837   5.238
 5854SOL    HW218462   3.473   4.733   5.289
 5855SOL     OW18463   2.357   2.785   2.748
 5855SOL    HW118464   2.284   2.826   2.804
 5855SOL    HW218465   2.337   2.800   2.652
 5856SOL     OW18466   0.791   6.422   2.869
 5856SOL    HW118467   0.766   6.519   2.860
 5856SOL    HW218468   0.785   6.395   2.965
 5857SOL     OW18469   5.674   5.128   6.420
 5857SOL    HW118470   5.717   5.042   6.447
 5857SOL    HW218471   5.644   5.178   6.501
 5858SOL     OW18472   1.894   1.036   3.044
 5858SOL    HW118473   1.919   1.082   3.129
 5858SOL    HW218474   1.822   1.089   2.998
 5859SOL     OW18475   5.824   5.430   2.109
 5859SOL    HW118476   5.757   5.466   2.175
 5859SOL    HW218477   5.850   5.502   2.046
 5860SOL     OW18478   0.570   4.177   2.867
 5860SOL    HW118479   0.612   4.158   2.778
 5860SOL    HW218480   0.618   4.127   2.938
 5861SOL     OW18481   4.744   0.841   5.695
 5861SOL    HW118482   4.816   0.799   5.751
 5861SOL    HW218483   4.753   0.940   5.698
 5862SOL     OW18484   6.322   5.260   3.225
 5862SOL    HW118485   6.323   5.186   3.158
 5862SOL    HW218486   6.327   5.221   3.317
 5863SOL     OW18487   3.822   6.864   6.538
 5863SOL    HW118488   3.913   6.893   6.571
 5863SOL    HW218489   3.804   6.906   6.449
 5864SOL     OW18490   3.552   3.532   2.464
 5864SOL    HW118491   3.511   3.451   2.506
 5864SOL    HW218492   3.572   3.513   2.368
 5865SOL     OW18493   6.672   0.426   6.689
 5865SOL    HW118494   6.632   0.517   6.682
 5865SOL    HW218495   6.611   0.359   6.647
 5866SOL     OW18496   3.219   2.920   2.603
 5866SOL    HW118497   3.139   2.893   2.656
 5866SOL    HW218498   3.268   2.993   2.652
 5867SOL     OW18499   3.579   1.568   1.392
 5867SOL    HW118500   3.614   1.654   1.354
 5867SOL    HW218501   3.649   1.497   1.383
 5868SOL     OW18502   0.993   0.790   0.071
 5868SOL    HW118503   0.933   0.827   0.142
 5868SOL    HW218504   1.051   0.718   0.110
 5869SOL     OW18505   1.164   5.950   3.189
 5869SOL    HW118506   1.196   5.889   3.262
 5869SOL    HW218507   1.225   5.943   3.110
 5870SOL     OW18508   4.013   6.403   4.203
 5870SOL    HW118509   4.028   6.497   4.233
 5870SOL    HW218510   3.915   6.385   4.201
 5871SOL     OW18511   3.784   3.286   3.600
 5871SOL    HW118512   3.823   3.198   3.575
 5871SOL    HW218513   3.710   3.309   3.538
 5872SOL     OW18514   4.754   6.337   0.387
 5872SOL    HW118515   4.799   6.251   0.363
 5872SOL    HW218516   4.694   6.322   0.466
 5873SOL     OW18517   4.067   6.122   2.057
 5873SOL    HW118518   4.060   6.185   1.980
 5873SOL    HW218519   3.978   6.114   2.101
 5874SOL     OW18520   0.642   3.986   5.722
 5874SOL    HW118521   0.565   3.944   5.771
 5874SOL    HW218522   0.608   4.037   5.643
 5875SOL     OW18523   3.862   1.887   1.447
 5875SOL    HW118524   3.868   1.982   1.416
 5875SOL    HW218525   3.824   1.830   1.374
 5876SOL     OW18526   3.508   3.350   1.888
 5876SOL    HW118527   3.454   3.281   1.840
 5876SOL    HW218528   3.453   3.389   1.962
 5877SOL     OW18529   5.830   4.587   1.364
 5877SOL    HW118530   5.894   4.525   1.317
 5877SOL    HW218531   5.779   4.639   1.296
 5878SOL     OW18532   2.078   3.951   2.643
 5878SOL    HW118533   2.131   4.033   2.663
 5878SOL    HW218534   2.121   3.901   2.568
 5879SOL     OW18535   0.684   4.062   4.144
 5879SOL    HW118536   0.606   4.116   4.176
 5879SOL    HW218537   0.762   4.122   4.128
 5880SOL     OW18538   3.246   5.963   0.409
 5880SOL    HW118539   3.150   5.944   0.389
 5880SOL    HW218540   3.295   5.877   0.421
 5881SOL     OW18541   1.026   5.730   4.166
 5881SOL    HW118542   1.102   5.682   4.208
 5881SOL    HW218543   1.007   5.690   4.076
 5882SOL     OW18544   4.809   0.723   2.757
 5882SOL    HW118545   4.775   0.740   2.849
 5882SOL    HW218546   4.901   0.762   2.748
 5883SOL     OW18547   0.584   3.400   5.244
 5883SOL    HW118548   0.648   3.446   5.305
 5883SOL    HW218549   0.635   3.342   5.180
 5884SOL     OW18550   0.630   0.801   3.805
 5884SOL    HW118551   0.638   0.702   3.793
 5884SOL    HW218552   0.534   0.828   3.801
 5885SOL     OW18553   5.823   6.389   1.157
 5885SOL    HW118554   5.795   6.298   1.128
 5885SOL    HW218555   5.743   6.445   1.176
 5886SOL     OW18556   0.523   0.918   6.439
 5886SOL    HW118557   0.479   0.884   6.522
 5886SOL    HW218558   0.617   0.885   6.435
 5887SOL     OW18559   4.506   6.424   3.108
 5887SOL    HW118560   4.533   6.328   3.102
 5887SOL    HW218561   4.547   6.464   3.190
 5888SOL     OW18562   0.631   0.983   2.683
 5888SOL    HW118563   0.534   0.980   2.704
 5888SOL    HW218564   0.658   0.901   2.633
 5889SOL     OW18565   2.481   0.353   7.002
 5889SOL    HW118566   2.465   0.280   6.936
 5889SOL    HW218567   2.564   0.333   0.033
 5890SOL     OW18568   3.570   4.921   5.581
 5890SOL    HW118569   3.476   4.950   5.563
 5890SOL    HW218570   3.580   4.900   5.679
 5891SOL     OW18571   2.397   3.639   6.495
 5891SOL    HW118572   2.446   3.695   6.428
 5891SOL    HW218573   2.341   3.697   6.552
 5892SOL     OW18574   1.795   6.653   2.891
 5892SOL    HW118575   1.771   6.703   2.808
 5892SOL    HW218576   1.850   6.573   2.867
 5893SOL     OW18577   1.798   0.820   3.283
 5893SOL    HW118578   1.776   0.723   3.283
 5893SOL    HW218579   1.734   0.870   3.225
 5894SOL     OW18580   0.684   3.666   4.209
 5894SOL    HW118581   0.588   3.682   4.229
 5894SOL    HW218582   0.693   3.580   4.158
 5895SOL     OW18583   5.524   3.632   3.638
 5895SOL    HW118584   5.452   3.680   3.690
 5895SOL    HW218585   5.613   3.654   3.677
 5896SOL     OW18586   4.845   2.127   5.923
 5896SOL    HW118587   4.839   2.027   5.919
 5896SOL    HW218588   4.885   2.161   5.838
 5897SOL     OW18589   4.313   7.013   1.398
 5897SOL    HW118590   4.363   7.001   1.484
 5897SOL    HW218591   4.235   6.951   1.395
 5898SOL     OW18592   2.384   6.595   2.918
 5898SOL    HW118593   2.372   6.545   3.004
 5898SOL    HW218594   2.351   6.538   2.842
 5899SOL     OW18595   5.701   0.359   3.415
 5899SOL    HW118596   5.695   0.458   3.404
 5899SOL    HW218597   5.630   0.315   3.359
 5900SOL     OW18598   3.946   4.955   2.350
 5900SOL    HW118599   3.880   4.973   2.277
 5900SOL    HW218600   3.961   5.039   2.403
 5901SOL     OW18601   3.384   6.213   5.023
 5901SOL    HW118602   3.377   6.215   4.924
 5901SOL    HW218603   3.401   6.119   5.054
 5902SOL     OW18604   6.560   1.545   6.624
 5902SOL    HW118605   6.631   1.614   6.639
 5902SOL    HW218606   6.488   1.583   6.566
 5903SOL     OW18607   6.415   3.398   6.919
 5903SOL    HW118608   6.366   3.313   6.942
 5903SOL    HW218609   6.349   3.468   6.893
 5904SOL     OW18610   0.561   4.034   2.146
 5904SOL    HW118611   0.504   3.966   2.191
 5904SOL    HW218612   0.514   4.123   2.145
 5905SOL     OW18613   6.459   4.944   1.905
 5905SOL    HW118614   6.493   5.029   1.866
 5905SOL    HW218615   6.420   4.887   1.832
 5906SOL     OW18616   0.113   1.564   4.256
 5906SOL    HW118617   0.091   1.607   4.344
 5906SOL    HW218618   0.204   1.522   4.262
 5907SOL     OW18619   2.034   6.831   2.276
 5907SOL    HW118620   2.120   6.874   2.302
 5907SOL    HW218621   2.000   6.872   2.191
 5908SOL     OW18622   0.189   2.676   6.037
 5908SOL    HW118623   0.178   2.586   5.995
 5908SOL    HW218624   0.115   2.736   6.007
 5909SOL     OW18625   6.902   3.882   0.855
 5909SOL    HW118626   6.996   3.852   0.838
 5909SOL    HW218627   6.875   3.949   0.786
 5910SOL     OW18628   2.268   1.502   3.746
 5910SOL    HW118629   2.175   1.464   3.756
 5910SOL    HW218630   2.325   1.436   3.696
 5911SOL     OW18631   6.652   6.220   6.408
 5911SOL    HW118632   6.703   6.155   6.466
 5911SOL    HW218633   6.600   6.282   6.466
 5912SOL     OW18634   1.078   0.375   3.878
 5912SOL    HW118635   1.128   0.326   3.806
 5912SOL    HW218636   1.112   0.469   3.885
 5913SOL     OW18637   6.038   1.750   6.911
 5913SOL    HW118638   6.040   1.766   7.009
 5913SOL    HW218639   6.107   1.681   6.887
 5914SOL     OW18640   0.932   6.614   0.608
 5914SOL    HW118641   1.024   6.579   0.589
 5914SOL    HW218642   0.911   6.599   0.704
 5915SOL     OW18643   4.075   1.451   5.820
 5915SOL    HW118644   4.117   1.433   5.909
 5915SOL    HW218645   3.981   1.482   5.833
 5916SOL     OW18646   0.996   6.505   2.216
 5916SOL    HW118647   1.039   6.422   2.180
 5916SOL    HW218648   0.933   6.481   2.290
 5917SOL     OW18649   3.628   4.259   0.344
 5917SOL    HW118650   3.603   4.244   0.249
 5917SOL    HW218651   3.656   4.354   0.357
 5918SOL     OW18652   2.939   6.349   4.919
 5918SOL    HW118653   2.848   6.371   4.883
 5918SOL    HW218654   2.960   6.407   4.997
 5919SOL     OW18655   3.391   3.702   4.934
 5919SOL    HW118656   3.365   3.715   5.029
 5919SOL    HW218657   3.320   3.739   4.874
 5920SOL     OW18658   6.281   0.604   5.437
 5920SOL    HW118659   6.357   0.549   5.472
 5920SOL    HW218660   6.280   0.600   5.337
 5921SOL     OW18661   2.591   4.267   6.580
 5921SOL    HW118662   2.602   4.175   6.617
 5921SOL    HW218663   2.553   4.261   6.487
 5922SOL     OW18664   5.169   2.730   2.058
 5922SOL    HW118665   5.252   2.767   2.015
 5922SOL    HW218666   5.174   2.631   2.060
 5923SOL     OW18667   6.263   0.749   3.329
 5923SOL    HW118668   6.219   0.675   3.278
 5923SOL    HW218669   6.348   0.776   3.283
 5924SOL     OW18670   5.016   6.749   3.485
 5924SOL    HW118671   4.992   6.726   3.579
 5924SOL    HW218672   5.076   6.828   3.484
 5925SOL     OW18673   4.720   1.146   1.127
 5925SOL    HW118674   4.684   1.227   1.174
 5925SOL    HW218675   4.670   1.133   1.041
 5926SOL     OW18676   4.785   4.543   3.560
 5926SOL    HW118677   4.836   4.528   3.475
 5926SOL    HW218678   4.688   4.523   3.546
 5927SOL     OW18679   0.417   4.497   1.957
 5927SOL    HW118680   0.453   4.456   1.873
 5927SOL    HW218681   0.440   4.594   1.960
 5928SOL     OW18682   2.804   0.501   0.116
 5928SOL    HW118683   2.766   0.524   0.027
 5928SOL    HW218684   2.739   0.447   0.168
 5929SOL     OW18685   1.576   0.904   0.093
 5929SOL    HW118686   1.497   0.849   0.064
 5929SOL    HW218687   1.661   0.859   0.063
 5930SOL     OW18688   1.803   3.714   2.447
 5930SOL    HW118689   1.786   3.630   2.499
 5930SOL    HW218690   1.732   3.725   2.377
 5931SOL     OW18691   4.844   6.703   3.264
 5931SOL    HW118692   4.843   6.726   3.166
 5931SOL    HW218693   4.930   6.733   3.305
 5932SOL     OW18694   2.998   0.965   6.246
 5932SOL    HW118695   3.075   0.987   6.306
 5932SOL    HW218696   3.023   0.890   6.186
 5933SOL     OW18697   6.184   6.218   4.748
 5933SOL    HW118698   6.211   6.269   4.666
 5933SOL    HW218699   6.153   6.283   4.818
 5934SOL     OW18700   3.687   3.467   6.698
 5934SOL    HW118701   3.779   3.497   6.673
 5934SOL    HW218702   3.693   3.387   6.758
 5935SOL     OW18703   1.195   6.108   6.218
 5935SOL    HW118704   1.210   6.063   6.131
 5935SOL    HW218705   1.099   6.136   6.225
 5936SOL     OW18706   3.751   3.293   2.016
 5936SOL    HW118707   3.811   3.222   1.981
 5936SOL    HW218708   3.672   3.303   1.956
 5937SOL     OW18709   0.543   3.274   0.994
 5937SOL    HW118710   0.598   3.268   1.078
 5937SOL    HW218711   0.449   3.244   1.013
 5938SOL     OW18712   0.446   4.562   3.994
 5938SOL    HW118713   0.430   4.464   3.998
 5938SOL    HW218714   0.359   4.610   3.986
 5939SOL     OW18715   4.045   1.587   5.093
 5939SOL    HW118716   3.945   1.579   5.084
 5939SOL    HW218717   4.076   1.527   5.166
 5940SOL     OW18718   4.744   5.424   1.982
 5940SOL    HW118719   4.767   5.404   1.886
 5940SOL    HW218720   4.791   5.507   2.011
 5941SOL     OW18721   0.204   2.209   2.986
 5941SOL    HW118722   0.176   2.155   2.906
 5941SOL    HW218723   0.154   2.177   3.067
 5942SOL     OW18724   5.142   2.950   5.928
 5942SOL    HW118725   5.188   3.005   5.998
 5942SOL    HW218726   5.107   3.010   5.856
 5943SOL     OW18727   2.905   4.352   1.663
 5943SOL    HW118728   2.886   4.409   1.743
 5943SOL    HW218729   2.821   4.309   1.631
 5944SOL     OW18730   6.502   3.292   6.591
 5944SOL    HW118731   6.414   3.337   6.603
 5944SOL    HW218732   6.524   3.238   6.673
 5945SOL     OW18733   6.637   6.314   4.752
 5945SOL    HW118734   6.709   6.244   4.756
 5945SOL    HW218735   6.600   6.318   4.659
 5946SOL     OW18736   2.290   3.584   0.565
 5946SOL    HW118737   2.243   3.670   0.586
 5946SOL    HW218738   2.389   3.598   0.568
 5947SOL     OW18739   3.968   3.146   4.739
 5947SOL    HW118740   4.030   3.079   4.699
 5947SOL    HW218741   3.915   3.190   4.667
 5948SOL     OW18742   5.046   3.281   1.923
 5948SOL    HW118743   5.007   3.248   2.009
 5948SOL    HW218744   4.988   3.251   1.847
 5949SOL     OW18745   0.370   4.565   2.815
 5949SOL    HW118746   0.277   4.601   2.822
 5949SOL    HW218747   0.397   4.524   2.902
 5950SOL     OW18748   3.934   6.900   4.827
 5950SOL    HW118749   3.900   6.990   4.853
 5950SOL    HW218750   3.949   6.845   4.909
 5951SOL     OW18751   0.323   3.613   6.793
 5951SOL    HW118752   0.244   3.609   6.731
 5951SOL    HW218753   0.328   3.704   6.835
 5952SOL     OW18754   4.364   4.593   1.018
 5952SOL    HW118755   4.284   4.652   1.011
 5952SOL    HW218756   4.440   4.633   0.966
 5953SOL     OW18757   6.379   2.953   4.980
 5953SOL    HW118758   6.288   2.911   4.977
 5953SOL    HW218759   6.409   2.974   4.888
 5954SOL     OW18760   1.851   6.223   4.174
 5954SOL    HW118761   1.781   6.230   4.103
 5954SOL    HW218762   1.897   6.135   4.167
 5955SOL     OW18763   5.452   3.705   0.372
 5955SOL    HW118764   5.390   3.724   0.295
 5955SOL    HW218765   5.420   3.753   0.453
 5956SOL     OW18766   5.349   2.346   5.413
 5956SOL    HW118767   5.343   2.370   5.317
 5956SOL    HW218768   5.424   2.397   5.456
 5957SOL     OW18769   6.758   2.030   3.189
 5957SOL    HW118770   6.728   1.961   3.254
 5957SOL    HW218771   6.694   2.107   3.189
 5958SOL     OW18772   3.147   0.341   2.826
 5958SOL    HW118773   3.077   0.277   2.858
 5958SOL    HW218774   3.237   0.296   2.829
 5959SOL     OW18775   4.836   2.335   3.983
 5959SOL    HW118776   4.833   2.433   4.005
 5959SOL    HW218777   4.745   2.295   3.994
 5960SOL     OW18778   4.152   7.014   6.317
 5960SOL    HW118779   4.072   0.050   6.294
 5960SOL    HW218780   4.122   6.922   6.343
 5961SOL     OW18781   2.678   2.421   2.979
 5961SOL    HW118782   2.598   2.476   2.956
 5961SOL    HW218783   2.740   2.418   2.900
 5962SOL     OW18784   5.233   5.887   0.862
 5962SOL    HW118785   5.310   5.843   0.908
 5962SOL    HW218786   5.168   5.920   0.930
 5963SOL     OW18787   2.828   3.955   0.057
 5963SOL    HW118788   2.795   4.040   0.098
 5963SOL    HW218789   2.923   3.968   0.027
 5964SOL     OW18790   2.914   6.612   2.236
 5964SOL    HW118791   2.833   6.554   2.225
 5964SOL    HW218792   2.992   6.556   2.265
 5965SOL     OW18793   1.986   0.388   0.043
 5965SOL    HW118794   1.990   0.341   0.131
 5965SOL    HW218795   1.946   0.327   6.995
 5966SOL     OW18796   2.967   1.371   4.816
 5966SOL    HW118797   2.871   1.376   4.841
 5966SOL    HW218798   3.015   1.308   4.877
 5967SOL     OW18799   3.876   1.687   4.499
 5967SOL    HW118800   3.960   1.703   4.448
 5967SOL    HW218801   3.895   1.626   4.576
 5968SOL     OW18802   5.811   2.716   1.836
 5968SOL    HW118803   5.867   2.672   1.766
 5968SOL    HW218804   5.769   2.645   1.894
 5969SOL     OW18805   5.900   0.238   0.815
 5969SOL    HW118806   5.887   0.151   0.768
 5969SOL    HW218807   5.904   0.312   0.748
 5970SOL     OW18808   0.044   3.611   0.560
 5970SOL    HW118809   6.974   3.569   0.568
 5970SOL    HW218810   0.114   3.539   0.556
 5971SOL     OW18811   0.047   6.393   3.795
 5971SOL    HW118812   0.100   6.386   3.879
 5971SOL    HW218813   6.971   6.380   3.815
 5972SOL     OW18814   5.115   4.765   0.729
 5972SOL    HW118815   5.041   4.748   0.795
 5972SOL    HW218816   5.111   4.696   0.657
 5973SOL     OW18817   2.983   1.401   2.360
 5973SOL    HW118818   2.887   1.372   2.359
 5973SOL    HW218819   3.027   1.367   2.443
 5974SOL     OW18820   5.027   1.874   5.554
 5974SOL    HW118821   5.071   1.833   5.474
 5974SOL    HW218822   5.096   1.917   5.611
 5975SOL     OW18823   4.583   5.144   0.929
 5975SOL    HW118824   4.545   5.204   0.999
 5975SOL    HW218825   4.667   5.184   0.893
 5976SOL     OW18826   2.281   3.071   5.710
 5976SOL    HW118827   2.316   3.019   5.788
 5976SOL    HW218828   2.302   3.022   5.625
 5977SOL     OW18829   6.515   4.636   0.769
 5977SOL    HW118830   6.590   4.652   0.834
 5977SOL    HW218831   6.431   4.676   0.805
 5978SOL     OW18832   2.421   3.510   0.071
 5978SOL    HW118833   2.442   3.607   0.058
 5978SOL    HW218834   2.469   3.456   0.001
 5979SOL     OW18835   5.851   0.888   1.654
 5979SOL    HW118836   5.907   0.863   1.733
 5979SOL    HW218837   5.785   0.959   1.680
 5980SOL     OW18838   3.043   3.006   1.401
 5980SOL    HW118839   3.102   2.956   1.338
 5980SOL    HW218840   3.052   2.966   1.493
 5981SOL     OW18841   3.068   2.520   0.552
 5981SOL    HW118842   3.101   2.426   0.552
 5981SOL    HW218843   3.017   2.538   0.468
 5982SOL     OW18844   5.346   3.327   0.269
 5982SOL    HW118845   5.387   3.303   0.181
 5982SOL    HW218846   5.314   3.244   0.315
 5983SOL     OW18847   6.890   0.698   3.630
 5983SOL    HW118848   6.979   0.736   3.607
 5983SOL    HW218849   6.824   0.723   3.558
 5984SOL     OW18850   5.833   0.097   4.276
 5984SOL    HW118851   5.887   0.016   4.301
 5984SOL    HW218852   5.818   0.097   4.177
 5985SOL     OW18853   6.219   3.315   2.250
 5985SOL    HW118854   6.221   3.357   2.340
 5985SOL    HW218855   6.215   3.386   2.179
 5986SOL     OW18856   3.965   3.547   4.785
 5986SOL    HW118857   3.913   3.619   4.738
 5986SOL    HW218858   4.044   3.522   4.729
 5987SOL     OW18859   0.241   6.803   5.333
 5987SOL    HW118860   0.184   6.885   5.335
 5987SOL    HW218861   0.183   6.722   5.323
 5988SOL     OW18862   0.892   2.985   6.079
 5988SOL    HW118863   0.896   3.017   5.984
 5988SOL    HW218864   0.962   2.915   6.094
 5989SOL     OW18865   0.686   6.113   5.873
 5989SOL    HW118866   0.605   6.104   5.931
 5989SOL    HW218867   0.730   6.200   5.890
 5990SOL     OW18868   3.172   4.820   1.790
 5990SOL    HW118869   3.163   4.913   1.755
 5990SOL    HW218870   3.259   4.781   1.759
 5991SOL     OW18871   4.483   0.242   0.536
 5991SOL    HW118872   4.436   0.289   0.610
 5991SOL    HW218873   4.423   0.236   0.456
 5992SOL     OW18874   3.355   6.244   2.153
 5992SOL    HW118875   3.373   6.171   2.220
 5992SOL    HW218876   3.389   6.331   2.189
 5993SOL     OW18877   5.665   2.068   0.252
 5993SOL    HW118878   5.717   2.145   0.214
 5993SOL    HW218879   5.669   1.991   0.189
 5994SOL     OW18880   0.049   3.352   0.163
 5994SOL    HW118881   0.082   3.285   0.229
 5994SOL    HW218882   7.014   3.306   0.093
 5995SOL     OW18883   4.903   3.824   1.603
 5995SOL    HW118884   4.886   3.923   1.604
 5995SOL    HW218885   4.918   3.794   1.508
 5996SOL     OW18886   2.765   5.633   1.119
 5996SOL    HW118887   2.745   5.541   1.153
 5996SOL    HW218888   2.699   5.697   1.158
 5997SOL     OW18889   5.966   0.425   3.871
 5997SOL    HW118890   5.922   0.347   3.825
 5997SOL    HW218891   5.997   0.491   3.803
 5998SOL     OW18892   6.145   5.871   0.739
 5998SOL    HW118893   6.211   5.876   0.664
 5998SOL    HW218894   6.091   5.787   0.731
 5999SOL     OW18895   5.014   2.983   1.562
 5999SOL    HW118896   5.112   2.968   1.544
 5999SOL    HW218897   4.976   2.903   1.607
 6000SOL     OW18898   0.591   4.199   1.097
 6000SOL    HW118899   0.637   4.203   1.008
 6000SOL    HW218900   0.591   4.105   1.131
 6001SOL     OW18901   6.666   5.519   5.862
 6001SOL    HW118902   6.604   5.596   5.847
 6001SOL    HW218903   6.653   5.452   5.789
 6002SOL     OW18904   5.956   4.733   5.300
 6002SOL    HW118905   5.902   4.682   5.368
 6002SOL    HW218906   6.053   4.721   5.319
 6003SOL     OW18907   1.805   2.544   4.691
 6003SOL    HW118908   1.755   2.626   4.719
 6003SOL    HW218909   1.903   2.561   4.698
 6004SOL     OW18910   5.026   2.179   4.220
 6004SOL    HW118911   4.952   2.157   4.157
 6004SOL    HW218912   5.072   2.262   4.189
 6005SOL     OW18913   4.286   4.823   6.780
 6005SOL    HW118914   4.310   4.801   6.686
 6005SOL    HW218915   4.203   4.879   6.782
 6006SOL     OW18916   3.084   6.216   6.449
 6006SOL    HW118917   3.046   6.129   6.481
 6006SOL    HW218918   3.068   6.225   6.350
 6007SOL     OW18919   2.441   5.896   6.433
 6007SOL    HW118920   2.507   5.820   6.430
 6007SOL    HW218921   2.471   5.963   6.500
 6008SOL     OW18922   3.353   4.133   6.289
 6008SOL    HW118923   3.355   4.055   6.352
 6008SOL    HW218924   3.355   4.099   6.195
 6009SOL     OW18925   3.701   5.174   2.981
 6009SOL    HW118926   3.768   5.167   2.908
 6009SOL    HW218927   3.745   5.208   3.064
 6010SOL     OW18928   0.512   5.267   4.013
 6010SOL    HW118929   0.489   5.257   4.110
 6010SOL    HW218930   0.534   5.177   3.974
 6011SOL     OW18931   6.327   1.989   1.815
 6011SOL    HW118932   6.367   1.967   1.726
 6011SOL    HW218933   6.244   1.936   1.828
 6012SOL     OW18934   6.886   0.296   6.246
 6012SOL    HW118935   6.812   0.358   6.271
 6012SOL    HW218936   6.940   0.274   6.327
 6013SOL     OW18937   5.779   1.444   2.332
 6013SOL    HW118938   5.736   1.511   2.393
 6013SOL    HW218939   5.787   1.356   2.381
 6014SOL     OW18940   3.410   3.783   3.991
 6014SOL    HW118941   3.313   3.759   3.999
 6014SOL    HW218942   3.442   3.759   3.899
 6015SOL     OW18943   5.844   0.513   4.182
 6015SOL    HW118944   5.925   0.469   4.141
 6015SOL    HW218945   5.847   0.501   4.281
 6016SOL     OW18946   4.598   1.322   4.817
 6016SOL    HW118947   4.528   1.269   4.866
 6016SOL    HW218948   4.617   1.279   4.729
 6017SOL     OW18949   7.008   2.234   5.627
 6017SOL    HW118950   6.995   2.214   5.724
 6017SOL    HW218951   6.965   2.162   5.572
 6018SOL     OW18952   2.644   1.247   4.507
 6018SOL    HW118953   2.607   1.194   4.431
 6018SOL    HW218954   2.588   1.328   4.523
 6019SOL     OW18955   6.323   4.148   6.969
 6019SOL    HW118956   6.259   4.180   6.899
 6019SOL    HW218957   6.307   4.197   0.034
 6020SOL     OW18958   0.741   4.842   6.244
 6020SOL    HW118959   0.814   4.818   6.308
 6020SOL    HW218960   0.665   4.779   6.255
 6021SOL     OW18961   5.786   6.828   3.565
 6021SOL    HW118962   5.842   6.753   3.600
 6021SOL    HW218963   5.692   6.816   3.598
 6022SOL     OW18964   6.629   2.000   1.334
 6022SOL    HW118965   6.683   1.978   1.253
 6022SOL    HW218966   6.563   2.073   1.312
 6023SOL     OW18967   3.841   0.224   1.776
 6023SOL    HW118968   3.931   0.263   1.755
 6023SOL    HW218969   3.787   0.290   1.828
 6024SOL     OW18970   1.462   6.110   0.441
 6024SOL    HW118971   1.521   6.181   0.401
 6024SOL    HW218972   1.511   6.065   0.515
 6025SOL     OW18973   3.316   0.693   4.420
 6025SOL    HW118974   3.288   0.666   4.513
 6025SOL    HW218975   3.276   0.630   4.354
 6026SOL     OW18976   5.788   5.504   4.396
 6026SOL    HW118977   5.694   5.477   4.375
 6026SOL    HW218978   5.795   5.524   4.494
 6027SOL     OW18979   5.520   4.397   6.522
 6027SOL    HW118980   5.570   4.416   6.607
 6027SOL    HW218981   5.428   4.437   6.528
 6028SOL     OW18982   5.799   5.495   5.960
 6028SOL    HW118983   5.872   5.514   5.895
 6028SOL    HW218984   5.715   5.542   5.931
 6029SOL     OW18985   2.487   0.752   2.288
 6029SOL    HW118986   2.492   0.655   2.310
 6029SOL    HW218987   2.559   0.776   2.223
 6030SOL     OW18988   5.939   3.406   4.201
 6030SOL    HW118989   5.845   3.430   4.176
 6030SOL    HW218990   5.980   3.350   4.129
 6031SOL     OW18991   0.382   5.767   5.496
 6031SOL    HW118992   0.390   5.676   5.455
 6031SOL    HW218993   0.363   5.835   5.425
 6032SOL     OW18994   3.614   5.820   3.513
 6032SOL    HW118995   3.549   5.746   3.532
 6032SOL    HW218996   3.597   5.896   3.575
 6033SOL     OW18997   1.229   1.790   2.670
 6033SOL    HW118998   1.187   1.708   2.708
 6033SOL    HW218999   1.318   1.766   2.629
 6034SOL     OW19000   1.099   0.127   0.902
 6034SOL    HW119001   1.035   0.087   0.836
 6034SOL    HW219002   1.080   0.225   0.910
 6035SOL     OW19003   2.197   0.183   2.714
 6035SOL    HW119004   2.183   0.146   2.806
 6035SOL    HW219005   2.292   0.214   2.704
 6036SOL     OW19006   0.026   3.387   0.999
 6036SOL    HW119007   6.963   3.339   0.969
 6036SOL    HW219008   0.032   3.384   1.099
 6037SOL     OW19009   4.902   2.058   6.823
 6037SOL    HW119010   4.907   2.023   6.730
 6037SOL    HW219011   4.888   1.983   6.887
 6038SOL     OW19012   1.026   2.086   5.934
 6038SOL    HW119013   0.986   2.134   5.856
 6038SOL    HW219014   1.060   1.997   5.905
 6039SOL     OW19015   4.052   3.436   3.551
 6039SOL    HW119016   3.961   3.406   3.582
 6039SOL    HW219017   4.083   3.375   3.477
 6040SOL     OW19018   0.683   1.538   0.226
 6040SOL    HW119019   0.630   1.497   0.300
 6040SOL    HW219020   0.764   1.483   0.208
 6041SOL     OW19021   2.396   3.262   5.509
 6041SOL    HW119022   2.314   3.270   5.453
 6041SOL    HW219023   2.380   3.194   5.581
 6042SOL     OW19024   3.272   5.737   3.864
 6042SOL    HW119025   3.264   5.676   3.785
 6042SOL    HW219026   3.189   5.730   3.920
 6043SOL     OW19027   2.675   0.651   3.280
 6043SOL    HW119028   2.599   0.588   3.294
 6043SOL    HW219029   2.646   0.744   3.299
 6044SOL     OW19030   1.286   3.344   1.372
 6044SOL    HW119031   1.265   3.287   1.451
 6044SOL    HW219032   1.249   3.302   1.289
 6045SOL     OW19033   5.036   1.622   3.427
 6045SOL    HW119034   5.048   1.529   3.461
 6045SOL    HW219035   5.057   1.687   3.500
 6046SOL     OW19036   3.717   2.853   2.616
 6046SOL    HW119037   3.627   2.871   2.576
 6046SOL    HW219038   3.788   2.897   2.561
 6047SOL     OW19039   6.763   2.039   0.873
 6047SOL    HW119040   6.858   2.051   0.845
 6047SOL    HW219041   6.752   1.951   0.920
 6048SOL     OW19042   5.376   5.675   4.191
 6048SOL    HW119043   5.295   5.685   4.250
 6048SOL    HW219044   5.433   5.757   4.197
 6049SOL     OW19045   4.377   4.875   5.704
 6049SOL    HW119046   4.355   4.915   5.615
 6049SOL    HW219047   4.469   4.837   5.701
 6050SOL     OW19048   3.407   6.158   2.433
 6050SOL    HW119049   3.423   6.075   2.487
 6050SOL    HW219050   3.493   6.207   2.420
 6051SOL     OW19051   0.450   1.345   3.575
 6051SOL    HW119052   0.510   1.348   3.495
 6051SOL    HW219053   0.490   1.285   3.644
 6052SOL     OW19054   5.136   6.364   0.274
 6052SOL    HW119055   5.203   6.396   0.340
 6052SOL    HW219056   5.052   6.418   0.283
 6053SOL     OW19057   4.220   2.624   5.986
 6053SOL    HW119058   4.127   2.609   6.019
 6053SOL    HW219059   4.218   2.672   5.898
 6054SOL     OW19060   3.757   4.200   0.946
 6054SOL    HW119061   3.784   4.151   0.864
 6054SOL    HW219062   3.836   4.251   0.981
 6055SOL     OW19063   3.421   3.867   1.066
 6055SOL    HW119064   3.334   3.827   1.037
 6055SOL    HW219065   3.485   3.794   1.091
 6056SOL     OW19066   5.463   6.049   3.915
 6056SOL    HW119067   5.544   6.104   3.933
 6056SOL    HW219068   5.453   6.037   3.816
 6057SOL     OW19069   4.746   0.203   4.214
 6057SOL    HW119070   4.684   0.241   4.146
 6057SOL    HW219071   4.773   0.111   4.188
 6058SOL     OW19072   5.773   2.280   5.748
 6058SOL    HW119073   5.700   2.232   5.700
 6058SOL    HW219074   5.734   2.331   5.825
 6059SOL     OW19075   4.493   2.905   0.095
 6059SOL    HW119076   4.541   2.866   0.173
 6059SOL    HW219077   4.405   2.943   0.125
 6060SOL     OW19078   2.072   3.293   0.244
 6060SOL    HW119079   2.027   3.316   0.158
 6060SOL    HW219080   2.128   3.371   0.273
 6061SOL     OW19081   2.838   4.410   0.183
 6061SOL    HW119082   2.841   4.436   0.086
 6061SOL    HW219083   2.779   4.329   0.193
 6062SOL     OW19084   1.817   2.378   0.010
 6062SOL    HW119085   1.870   2.315   0.068
 6062SOL    HW219086   1.861   2.385   6.941
 6063SOL     OW19087   4.659   4.521   6.183
 6063SOL    HW119088   4.703   4.571   6.108
 6063SOL    HW219089   4.709   4.436   6.199
 6064SOL     OW19090   6.704   5.268   1.133
 6064SOL    HW119091   6.694   5.308   1.225
 6064SOL    HW219092   6.625   5.210   1.114
 6065SOL     OW19093   1.443   0.240   2.201
 6065SOL    HW119094   1.382   0.178   2.151
 6065SOL    HW219095   1.395   0.278   2.280
 6066SOL     OW19096   5.473   5.777   3.482
 6066SOL    HW119097   5.534   5.835   3.536
 6066SOL    HW219098   5.450   5.823   3.397
 6067SOL     OW19099   5.753   6.923   5.964
 6067SOL    HW119100   5.720   6.898   5.873
 6067SOL    HW219101   5.814   6.851   5.998
 6068SOL     OW19102   4.389   2.132   4.244
 6068SOL    HW119103   4.398   2.230   4.225
 6068SOL    HW219104   4.436   2.110   4.329
 6069SOL     OW19105   0.225   4.051   6.114
 6069SOL    HW119106   0.143   3.992   6.107
 6069SOL    HW219107   0.262   4.068   6.023
 6070SOL     OW19108   2.882   1.288   0.506
 6070SOL    HW119109   2.943   1.278   0.427
 6070SOL    HW219110   2.790   1.312   0.474
 6071SOL     OW19111   6.077   0.961   5.950
 6071SOL    HW119112   6.051   0.882   5.894
 6071SOL    HW219113   6.018   1.038   5.927
 6072SOL     OW19114   0.072   2.606   0.542
 6072SOL    HW119115   0.134   2.588   0.618
 6072SOL    HW219116   0.006   2.531   0.534
 6073SOL     OW19117   4.933   2.744   0.381
 6073SOL    HW119118   4.868   2.692   0.325
 6073SOL    HW219119   4.886   2.824   0.419
 6074SOL     OW19120   0.672   6.532   2.445
 6074SOL    HW119121   0.756   6.486   2.473
 6074SOL    HW219122   0.689   6.629   2.433
 6075SOL     OW19123   5.322   0.365   6.343
 6075SOL    HW119124   5.373   0.279   6.346
 6075SOL    HW219125   5.253   0.360   6.271
 6076SOL     OW19126   1.291   5.699   3.025
 6076SOL    HW119127   1.253   5.636   2.958
 6076SOL    HW219128   1.319   5.783   2.978
 6077SOL     OW19129   5.167   6.714   2.300
 6077SOL    HW119130   5.180   6.751   2.392
 6077SOL    HW219131   5.139   6.618   2.306
 6078SOL     OW19132   4.002   4.181   0.385
 6078SOL    HW119133   3.941   4.103   0.401
 6078SOL    HW219134   3.963   4.262   0.428
 6079SOL     OW19135   3.148   3.116   0.407
 6079SOL    HW119136   3.061   3.140   0.449
 6079SOL    HW219137   3.139   3.118   0.308
 6080SOL     OW19138   0.129   5.044   6.806
 6080SOL    HW119139   0.220   5.053   6.845
 6080SOL    HW219140   0.075   4.980   6.861
 6081SOL     OW19141   1.255   3.854   3.789
 6081SOL    HW119142   1.156   3.837   3.785
 6081SOL    HW219143   1.278   3.894   3.878
 6082SOL     OW19144   4.577   0.667   1.078
 6082SOL    HW119145   4.512   0.655   1.154
 6082SOL    HW219146   4.644   0.737   1.102
 6083SOL     OW19147   4.470   0.466   6.351
 6083SOL    HW119148   4.517   0.409   6.284
 6083SOL    HW219149   4.499   0.440   6.443
 6084SOL     OW19150   0.155   6.025   2.300
 6084SOL    HW119151   0.156   6.109   2.355
 6084SOL    HW219152   0.217   6.035   2.222
 6085SOL     OW19153   0.646   6.831   0.857
 6085SOL    HW119154   0.658   6.921   0.813
 6085SOL    HW219155   0.735   6.786   0.864
 6086SOL     OW19156   3.362   4.174   6.691
 6086SOL    HW119157   3.391   4.082   6.718
 6086SOL    HW219158   3.349   4.230   6.773
 6087SOL     OW19159   5.201   6.666   0.801
 6087SOL    HW119160   5.162   6.748   0.842
 6087SOL    HW219161   5.129   6.612   0.757
 6088SOL     OW19162   5.374   5.996   3.258
 6088SOL    HW119163   5.350   6.009   3.162
 6088SOL    HW219164   5.335   6.070   3.313
 6089SOL     OW19165   6.188   4.079   3.665
 6089SOL    HW119166   6.280   4.113   3.646
 6089SOL    HW219167   6.189   3.979   3.666
 6090SOL     OW19168   3.926   5.820   4.249
 6090SOL    HW119169   3.994   5.832   4.321
 6090SOL    HW219170   3.841   5.867   4.275
 6091SOL     OW19171   1.412   1.574   2.330
 6091SOL    HW119172   1.427   1.640   2.257
 6091SOL    HW219173   1.315   1.549   2.332
 6092SOL     OW19174   3.256   6.211   0.735
 6092SOL    HW119175   3.313   6.196   0.816
 6092SOL    HW219176   3.162   6.187   0.755
 6093SOL     OW19177   2.259   1.986   2.508
 6093SOL    HW119178   2.317   1.905   2.519
 6093SOL    HW219179   2.294   2.042   2.433
 6094SOL     OW19180   0.434   6.218   5.056
 6094SOL    HW119181   0.463   6.224   5.151
 6094SOL    HW219182   0.403   6.308   5.024
 6095SOL     OW19183   5.035   4.976   1.613
 6095SOL    HW119184   5.068   4.884   1.595
 6095SOL    HW219185   4.978   5.006   1.536
 6096SOL     OW19186   5.331   6.374   3.167
 6096SOL    HW119187   5.409   6.336   3.118
 6096SOL    HW219188   5.248   6.364   3.112
 6097SOL     OW19189   1.958   5.311   1.604
 6097SOL    HW119190   2.004   5.357   1.528
 6097SOL    HW219191   2.023   5.254   1.654
 6098SOL     OW19192   6.469   0.485   4.501
 6098SOL    HW119193   6.564   0.457   4.510
 6098SOL    HW219194   6.444   0.545   4.577
 6099SOL     OW19195   4.001   0.776   6.051
 6099SOL    HW119196   4.027   0.867   6.020
 6099SOL    HW219197   3.917   0.781   6.104
 6100SOL     OW19198   0.390   6.219   5.401
 6100SOL    HW119199   0.478   6.251   5.365
 6100SOL    HW219200   0.402   6.191   5.497
 6101SOL     OW19201   6.975   2.894   1.873
 6101SOL    HW119202   7.014   2.958   1.939
 6101SOL    HW219203   6.928   2.945   1.801
 6102SOL     OW19204   4.404   6.922   2.672
 6102SOL    HW119205   4.486   6.978   2.681
 6102SOL    HW219206   4.396   6.861   2.750
 6103SOL     OW19207   6.486   1.730   2.124
 6103SOL    HW119208   6.542   1.686   2.054
 6103SOL    HW219209   6.506   1.690   2.214
 6104SOL     OW19210   7.004   0.450   3.988
 6104SOL    HW119211   0.034   0.491   3.912
 6104SOL    HW219212   6.992   0.352   3.971
 6105SOL     OW19213   3.135   4.598   5.332
 6105SOL    HW119214   3.066   4.589   5.260
 6105SOL    HW219215   3.132   4.517   5.391
 6106SOL     OW19216   6.219   5.278   5.776
 6106SOL    HW119217   6.177   5.367   5.796
 6106SOL    HW219218   6.176   5.208   5.833
 6107SOL     OW19219   5.417   5.379   5.276
 6107SOL    HW119220   5.478   5.332   5.341
 6107SOL    HW219221   5.374   5.311   5.216
 6108SOL     OW19222   2.346   1.659   0.800
 6108SOL    HW119223   2.434   1.705   0.799
 6108SOL    HW219224   2.345   1.586   0.732
 6109SOL     OW19225   6.487   6.922   3.522
 6109SOL    HW119226   6.393   6.890   3.534
 6109SOL    HW219227   6.506   6.993   3.589
 6110SOL     OW19228   1.569   1.298   3.994
 6110SOL    HW119229   1.526   1.386   3.972
 6110SOL    HW219230   1.641   1.279   3.927
 6111SOL     OW19231   1.916   4.393   0.475
 6111SOL    HW119232   1.962   4.416   0.389
 6111SOL    HW219233   1.867   4.307   0.464
 6112SOL     OW19234   4.967   0.369   2.920
 6112SOL    HW119235   5.020   0.287   2.941
 6112SOL    HW219236   4.888   0.375   2.982
 6113SOL     OW19237   2.810   5.213   0.382
 6113SOL    HW119238   2.752   5.275   0.329
 6113SOL    HW219239   2.894   5.195   0.331
 6114SOL     OW19240   4.627   1.905   0.358
 6114SOL    HW119241   4.650   1.836   0.427
 6114SOL    HW219242   4.710   1.936   0.313
 6115SOL     OW19243   0.842   0.627   5.778
 6115SOL    HW119244   0.780   0.565   5.731
 6115SOL    HW219245   0.924   0.642   5.723
 6116SOL     OW19246   5.183   2.096   5.963
 6116SOL    HW119247   5.166   2.015   6.019
 6116SOL    HW219248   5.126   2.171   5.995
 6117SOL     OW19249   2.082   2.230   1.136
 6117SOL    HW119250   2.081   2.133   1.162
 6117SOL    HW219251   2.069   2.238   1.037
 6118SOL     OW19252   6.058   0.739   0.927
 6118SOL    HW119253   6.052   0.834   0.896
 6118SOL    HW219254   6.153   0.717   0.947
 6119SOL     OW19255   0.011   2.115   0.492
 6119SOL    HW119256   0.027   2.038   0.430
 6119SOL    HW219257   0.092   2.173   0.494
 6120SOL     OW19258   2.486   0.869   4.539
 6120SOL    HW119259   2.486   0.911   4.629
 6120SOL    HW219260   2.522   0.776   4.545
 6121SOL     OW19261   0.522   2.940   4.711
 6121SOL    HW119262   0.493   2.935   4.616
 6121SOL    HW219263   0.483   2.862   4.761
 6122SOL     OW19264   5.140   4.986   5.776
 6122SOL    HW119265   5.193   5.059   5.821
 6122SOL    HW219266   5.069   5.027   5.719
 6123SOL     OW19267   5.475   1.343   5.290
 6123SOL    HW119268   5.467   1.415   5.358
 6123SOL    HW219269   5.391   1.338   5.236
 6124SOL     OW19270   2.593   6.325   3.979
 6124SOL    HW119271   2.590   6.401   3.915
 6124SOL    HW219272   2.508   6.272   3.972
 6125SOL     OW19273   2.247   2.328   6.692
 6125SOL    HW119274   2.226   2.368   6.782
 6125SOL    HW219275   2.319   2.382   6.648
 6126SOL     OW19276   6.141   3.124   5.092
 6126SOL    HW119277   6.048   3.089   5.083
 6126SOL    HW219278   6.168   3.167   5.006
 6127SOL     OW19279   4.166   2.388   1.605
 6127SOL    HW119280   4.211   2.421   1.687
 6127SOL    HW219281   4.068   2.401   1.613
 6128SOL     OW19282   5.737   5.602   0.414
 6128SOL    HW119283   5.729   5.664   0.492
 6128SOL    HW219284   5.683   5.520   0.432
 6129SOL     OW19285   1.300   5.506   1.972
 6129SOL    HW119286   1.291   5.562   2.054
 6129SOL    HW219287   1.329   5.563   1.895
 6130SOL     OW19288   6.011   2.362   0.255
 6130SOL    HW119289   5.989   2.430   0.325
 6130SOL    HW219290   6.083   2.302   0.289
 6131SOL     OW19291   6.425   1.601   3.096
 6131SOL    HW119292   6.464   1.511   3.074
 6131SOL    HW219293   6.366   1.593   3.176
 6132SOL     OW19294   3.655   1.459   6.688
 6132SOL    HW119295   3.630   1.365   6.665
 6132SOL    HW219296   3.755   1.465   6.698
 6133SOL     OW19297   1.940   1.909   3.631
 6133SOL    HW119298   1.956   1.860   3.716
 6133SOL    HW219299   1.952   1.847   3.554
 6134SOL     OW19300   5.821   6.883   6.450
 6134SOL    HW119301   5.816   6.976   6.487
 6134SOL    HW219302   5.902   6.874   6.392
 6135SOL     OW19303   6.594   0.328   0.055
 6135SOL    HW119304   6.618   0.424   0.046
 6135SOL    HW219305   6.620   0.279   6.992
 6136SOL     OW19306   1.512   3.398   2.965
 6136SOL    HW119307   1.471   3.475   2.915
 6136SOL    HW219308   1.608   3.388   2.937
 6137SOL     OW19309   6.925   3.796   2.324
 6137SOL    HW119310   6.826   3.783   2.318
 6137SOL    HW219311   6.952   3.872   2.264
 6138SOL     OW19312   4.237   0.177   1.938
 6138SOL    HW119313   4.274   0.094   1.896
 6138SOL    HW219314   4.205   0.239   1.867
 6139SOL     OW19315   1.207   0.369   5.704
 6139SOL    HW119316   1.232   0.332   5.793
 6139SOL    HW219317   1.139   0.309   5.661
 6140SOL     OW19318   1.130   0.355   3.560
 6140SOL    HW119319   1.057   0.307   3.608
 6140SOL    HW219320   1.217   0.335   3.605
 6141SOL     OW19321   0.315   1.234   5.759
 6141SOL    HW119322   0.307   1.334   5.764
 6141SOL    HW219323   0.412   1.209   5.758
 6142SOL     OW19324   0.307   0.488   1.392
 6142SOL    HW119325   0.279   0.584   1.391
 6142SOL    HW219326   0.300   0.451   1.299
 6143SOL     OW19327   6.871   3.908   5.756
 6143SOL    HW119328   6.856   4.004   5.778
 6143SOL    HW219329   6.938   3.901   5.682
 6144SOL     OW19330   4.177   5.421   3.068
 6144SOL    HW119331   4.251   5.389   3.127
 6144SOL    HW219332   4.121   5.344   3.039
 6145SOL     OW19333   4.729   2.791   3.889
 6145SOL    HW119334   4.815   2.741   3.904
 6145SOL    HW219335   4.743   2.861   3.819
 6146SOL     OW19336   5.620   6.554   5.009
 6146SOL    HW119337   5.615   6.634   4.950
 6146SOL    HW219338   5.591   6.579   5.101
 6147SOL     OW19339   1.557   2.089   3.809
 6147SOL    HW119340   1.576   2.065   3.714
 6147SOL    HW219341   1.641   2.081   3.863
 6148SOL     OW19342   3.019   5.864   0.271
 6148SOL    HW119343   2.980   5.924   0.202
 6148SOL    HW219344   2.989   5.770   0.254
 6149SOL     OW19345   2.847   0.145   1.674
 6149SOL    HW119346   2.909   0.176   1.602
 6149SOL    HW219347   2.897   0.138   1.761
 6150SOL     OW19348   0.129   4.174   5.703
 6150SOL    HW119349   0.156   4.103   5.769
 6150SOL    HW219350   0.065   4.135   5.637
 6151SOL     OW19351   4.241   5.197   4.091
 6151SOL    HW119352   4.311   5.194   4.163
 6151SOL    HW219353   4.245   5.113   4.037
 6152SOL     OW19354   1.171   5.200   4.337
 6152SOL    HW119355   1.204   5.120   4.386
 6152SOL    HW219356   1.150   5.174   4.242
 6153SOL     OW19357   5.053   5.512   1.372
 6153SOL    HW119358   5.106   5.429   1.386
 6153SOL    HW219359   4.958   5.489   1.353
 6154SOL     OW19360   5.414   2.840   1.970
 6154SOL    HW119361   5.512   2.862   1.971
 6154SOL    HW219362   5.367   2.890   2.042
 6155SOL     OW19363   1.612   1.600   3.013
 6155SOL    HW119364   1.678   1.644   3.072
 6155SOL    HW219365   1.617   1.641   2.921
 6156SOL     OW19366   5.228   5.180   1.738
 6156SOL    HW119367   5.152   5.133   1.695
 6156SOL    HW219368   5.195   5.234   1.816
 6157SOL     OW19369   1.719   2.742   2.150
 6157SOL    HW119370   1.699   2.657   2.199
 6157SOL    HW219371   1.637   2.799   2.146
 6158SOL     OW19372   2.836   2.553   5.309
 6158SOL    HW119373   2.770   2.552   5.385
 6158SOL    HW219374   2.929   2.561   5.346
 6159SOL     OW19375   6.125   3.020   0.666
 6159SOL    HW119376   6.159   3.094   0.608
 6159SOL    HW219377   6.177   3.017   0.751
 6160SOL     OW19378   1.361   0.526   0.497
 6160SOL    HW119379   1.350   0.626   0.493
 6160SOL    HW219380   1.450   0.501   0.459
 6161SOL     OW19381   4.459   3.188   6.336
 6161SOL    HW119382   4.506   3.261   6.385
 6161SOL    HW219383   4.371   3.221   6.302
 6162SOL     OW19384   5.728   5.336   3.228
 6162SOL    HW119385   5.682   5.367   3.144
 6162SOL    HW219386   5.806   5.395   3.247
 6163SOL     OW19387   5.421   6.462   3.857
 6163SOL    HW119388   5.362   6.496   3.783
 6163SOL    HW219389   5.372   6.391   3.908
 6164SOL     OW19390   3.191   4.035   4.486
 6164SOL    HW119391   3.187   4.066   4.391
 6164SOL    HW219392   3.107   3.985   4.508
 6165SOL     OW19393   3.707   1.669   0.350
 6165SOL    HW119394   3.749   1.676   0.259
 6165SOL    HW219395   3.765   1.613   0.409
 6166SOL     OW19396   1.762   2.658   6.414
 6166SOL    HW119397   1.746   2.608   6.329
 6166SOL    HW219398   1.675   2.684   6.454
 6167SOL     OW19399   1.470   4.079   3.679
 6167SOL    HW119400   1.492   4.027   3.761
 6167SOL    HW219401   1.379   4.054   3.646
 6168SOL     OW19402   0.184   4.135   3.969
 6168SOL    HW119403   0.086   4.146   3.985
 6168SOL    HW219404   0.198   4.070   3.894
 6169SOL     OW19405   2.388   7.016   0.100
 6169SOL    HW119406   2.325   0.052   0.047
 6169SOL    HW219407   2.408   0.041   0.187
 6170SOL     OW19408   3.231   3.847   0.316
 6170SOL    HW119409   3.258   3.794   0.235
 6170SOL    HW219410   3.187   3.932   0.288
 6171SOL     OW19411   2.228   4.228   2.424
 6171SOL    HW119412   2.130   4.246   2.434
 6171SOL    HW219413   2.264   4.191   2.509
 6172SOL     OW19414   1.334   6.079   2.711
 6172SOL    HW119415   1.333   6.087   2.611
 6172SOL    HW219416   1.316   6.168   2.752
 6173SOL     OW19417   1.582   6.010   2.376
 6173SOL    HW119418   1.627   5.976   2.294
 6173SOL    HW219419   1.623   6.097   2.403
 6174SOL     OW19420   5.492   5.654   2.917
 6174SOL    HW119421   5.418   5.711   2.952
 6174SOL    HW219422   5.473   5.627   2.823
 6175SOL     OW19423   5.038   0.217   3.710
 6175SOL    HW119424   5.075   0.306   3.683
 6175SOL    HW219425   5.015   0.164   3.629
 6176SOL     OW19426   6.530   3.604   5.708
 6176SOL    HW119427   6.588   3.553   5.644
 6176SOL    HW219428   6.439   3.614   5.669
 6177SOL     OW19429   6.092   2.864   6.776
 6177SOL    HW119430   6.136   2.780   6.807
 6177SOL    HW219431   6.162   2.931   6.750
 6178SOL     OW19432   6.250   2.994   0.939
 6178SOL    HW119433   6.156   3.018   0.964
 6178SOL    HW219434   6.312   3.019   1.014
 6179SOL     OW19435   0.168   2.586   5.711
 6179SOL    HW119436   0.089   2.643   5.690
 6179SOL    HW219437   0.229   2.582   5.632
 6180SOL     OW19438   4.205   6.631   0.536
 6180SOL    HW119439   4.142   6.684   0.594
 6180SOL    HW219440   4.158   6.603   0.453
 6181SOL     OW19441   4.824   6.582   6.708
 6181SOL    HW119442   4.773   6.575   6.622
 6181SOL    HW219443   4.922   6.583   6.689
 6182SOL     OW19444   4.585   6.169   6.690
 6182SOL    HW119445   4.544   6.079   6.677
 6182SOL    HW219446   4.627   6.174   6.781
 6183SOL     OW19447   3.619   0.385   3.451
 6183SOL    HW119448   3.694   0.318   3.449
 6183SOL    HW219449   3.652   0.473   3.417
 6184SOL     OW19450   0.461   6.976   6.638
 6184SOL    HW119451   0.474   6.969   6.736
 6184SOL    HW219452   0.375   0.001   6.618
 6185SOL     OW19453   6.826   3.655   5.839
 6185SOL    HW119454   6.795   3.644   5.934
 6185SOL    HW219455   6.833   3.752   5.817
 6186SOL     OW19456   5.273   0.085   4.763
 6186SOL    HW119457   5.229   0.082   4.853
 6186SOL    HW219458   5.243   0.166   4.713
 6187SOL     OW19459   4.277   4.947   3.711
 6187SOL    HW119460   4.305   4.952   3.615
 6187SOL    HW219461   4.349   4.987   3.768
 6188SOL     OW19462   2.632   6.350   1.111
 6188SOL    HW119463   2.641   6.431   1.169
 6188SOL    HW219464   2.581   6.280   1.160
 6189SOL     OW19465   5.781   4.857   3.240
 6189SOL    HW119466   5.714   4.841   3.167
 6189SOL    HW219467   5.754   4.806   3.322
 6190SOL     OW19468   5.281   2.322   0.065
 6190SOL    HW119469   5.337   2.301   0.145
 6190SOL    HW219470   5.329   2.386   0.006
 6191SOL     OW19471   6.398   2.186   6.888
 6191SOL    HW119472   6.323   2.143   6.938
 6191SOL    HW219473   6.470   2.119   6.873
 6192SOL     OW19474   2.788   2.575   6.455
 6192SOL    HW119475   2.867   2.633   6.436
 6192SOL    HW219476   2.706   2.617   6.415
 6193SOL     OW19477   5.246   0.369   1.479
 6193SOL    HW119478   5.167   0.368   1.541
 6193SOL    HW219479   5.327   0.401   1.529
 6194SOL     OW19480   1.779   0.734   0.247
 6194SOL    HW119481   1.812   0.826   0.268
 6194SOL    HW219482   1.756   0.728   0.150
 6195SOL     OW19483   3.016   0.611   6.440
 6195SOL    HW119484   2.964   0.692   6.467
 6195SOL    HW219485   3.026   0.609   6.341
 6196SOL     OW19486   0.562   1.115   5.751
 6196SOL    HW119487   0.595   1.023   5.729
 6196SOL    HW219488   0.591   1.138   5.844
 6197SOL     OW19489   2.301   3.148   0.781
 6197SOL    HW119490   2.343   3.238   0.775
 6197SOL    HW219491   2.319   3.108   0.871
 6198SOL     OW19492   4.098   4.766   2.468
 6198SOL    HW119493   4.115   4.707   2.389
 6198SOL    HW219494   4.005   4.803   2.462
 6199SOL     OW19495   1.517   0.254   6.696
 6199SOL    HW119496   1.511   0.155   6.678
 6199SOL    HW219497   1.474   0.274   6.783
 6200SOL     OW19498   3.957   0.627   6.331
 6200SOL    HW119499   3.953   0.602   6.234
 6200SOL    HW219500   3.878   0.683   6.355
 6201SOL     OW19501   2.207   3.867   5.595
 6201SOL    HW119502   2.192   3.768   5.604
 6201SOL    HW219503   2.246   3.887   5.506
 6202SOL     OW19504   3.493   1.835   0.891
 6202SOL    HW119505   3.491   1.836   0.991
 6202SOL    HW219506   3.469   1.926   0.856
 6203SOL     OW19507   4.983   1.332   4.221
 6203SOL    HW119508   4.915   1.269   4.259
 6203SOL    HW219509   5.029   1.380   4.296
 6204SOL     OW19510   1.903   6.287   5.710
 6204SOL    HW119511   1.816   6.324   5.676
 6204SOL    HW219512   1.909   6.299   5.809
 6205SOL     OW19513   5.397   6.183   6.569
 6205SOL    HW119514   5.365   6.125   6.644
 6205SOL    HW219515   5.451   6.259   6.607
 6206SOL     OW19516   5.183   0.141   2.200
 6206SOL    HW119517   5.136   0.062   2.161
 6206SOL    HW219518   5.121   0.190   2.260
 6207SOL     OW19519   1.810   4.083   4.816
 6207SOL    HW119520   1.843   4.030   4.738
 6207SOL    HW219521   1.757   4.023   4.876
 6208SOL     OW19522   6.213   6.757   5.661
 6208SOL    HW119523   6.177   6.666   5.636
 6208SOL    HW219524   6.312   6.752   5.670
 6209SOL     OW19525   3.730   5.773   0.653
 6209SOL    HW119526   3.730   5.773   0.553
 6209SOL    HW219527   3.636   5.765   0.686
 6210SOL     OW19528   5.672   4.653   3.406
 6210SOL    HW119529   5.636   4.572   3.360
 6210SOL    HW219530   5.759   4.630   3.450
 6211SOL     OW19531   3.219   6.892   4.610
 6211SOL    HW119532   3.123   6.877   4.632
 6211SOL    HW219533   3.231   6.897   4.511
 6212SOL     OW19534   6.274   6.670   3.797
 6212SOL    HW119535   6.289   6.639   3.703
 6212SOL    HW219536   6.361   6.700   3.836
 6213SOL     OW19537   6.682   0.219   6.847
 6213SOL    HW119538   6.669   0.309   6.804
 6213SOL    HW219539   6.678   0.148   6.778
 6214SOL     OW19540   6.642   4.734   2.422
 6214SOL    HW119541   6.663   4.787   2.339
 6214SOL    HW219542   6.592   4.651   2.396
 6215SOL     OW19543   3.280   3.032   0.652
 6215SOL    HW119544   3.245   3.067   0.565
 6215SOL    HW219545   3.360   3.085   0.679
 6216SOL     OW19546   5.425   1.488   2.273
 6216SOL    HW119547   5.350   1.442   2.321
 6216SOL    HW219548   5.468   1.554   2.334
 6217SOL     OW19549   5.334   2.983   1.075
 6217SOL    HW119550   5.236   3.001   1.087
 6217SOL    HW219551   5.354   2.973   0.977
 6218SOL     OW19552   3.022   5.255   4.907
 6218SOL    HW119553   2.983   5.310   4.833
 6218SOL    HW219554   2.960   5.180   4.929
 6219SOL     OW19555   1.055   1.713   4.920
 6219SOL    HW119556   1.109   1.789   4.886
 6219SOL    HW219557   0.982   1.691   4.855
 6220SOL     OW19558   2.042   4.359   5.313
 6220SOL    HW119559   2.135   4.391   5.293
 6220SOL    HW219560   2.046   4.290   5.386
 6221SOL     OW19561   3.696   5.157   4.303
 6221SOL    HW119562   3.757   5.234   4.320
 6221SOL    HW219563   3.618   5.162   4.365
 6222SOL     OW19564   0.049   0.535   1.237
 6222SOL    HW119565   6.975   0.512   1.216
 6222SOL    HW219566   0.051   0.606   1.308
 6223SOL     OW19567   4.683   2.728   4.620
 6223SOL    HW119568   4.660   2.631   4.617
 6223SOL    HW219569   4.618   2.776   4.679
 6224SOL     OW19570   2.873   1.535   5.054
 6224SOL    HW119571   2.777   1.522   5.028
 6224SOL    HW219572   2.916   1.598   4.990
 6225SOL     OW19573   3.581   3.286   0.027
 6225SOL    HW119574   3.566   3.197   0.069
 6225SOL    HW219575   3.655   3.280   6.980
 6226SOL     OW19576   5.519   0.679   4.945
 6226SOL    HW119577   5.581   0.749   4.910
 6226SOL    HW219578   5.564   0.625   5.015
 6227SOL     OW19579   3.475   4.664   5.902
 6227SOL    HW119580   3.526   4.604   5.963
 6227SOL    HW219581   3.470   4.623   5.811
 6228SOL     OW19582   0.058   0.627   3.242
 6228SOL    HW119583   0.024   0.696   3.306
 6228SOL    HW219584   0.153   0.605   3.265
 6229SOL     OW19585   2.446   2.472   2.172
 6229SOL    HW119586   2.423   2.439   2.080
 6229SOL    HW219587   2.538   2.441   2.196
 6230SOL     OW19588   2.820   2.310   3.665
 6230SOL    HW119589   2.732   2.264   3.681
 6230SOL    HW219590   2.839   2.313   3.567
 6231SOL     OW19591   6.866   5.208   1.709
 6231SOL    HW119592   6.965   5.210   1.720
 6231SOL    HW219593   6.844   5.176   1.617
 6232SOL     OW19594   0.710   0.947   0.100
 6232SOL    HW119595   0.676   0.875   0.040
 6232SOL    HW219596   0.720   1.032   0.049
 6233SOL     OW19597   4.623   2.018   6.837
 6233SOL    HW119598   4.688   2.077   6.885
 6233SOL    HW219599   4.653   2.004   6.743
 6234SOL     OW19600   2.413   1.904   3.972
 6234SOL    HW119601   2.459   1.839   3.912
 6234SOL    HW219602   2.367   1.855   4.046
 6235SOL     OW19603   2.559   6.983   2.690
 6235SOL    HW119604   2.534   0.058   2.677
 6235SOL    HW219605   2.579   6.942   2.601
 6236SOL     OW19606   0.074   4.345   0.456
 6236SOL    HW119607   0.069   4.284   0.536
 6236SOL    HW219608   7.008   4.395   0.447
 6237SOL     OW19609   4.437   6.764   0.671
 6237SOL    HW119610   4.463   6.846   0.620
 6237SOL    HW219611   4.397   6.697   0.607
 6238SOL     OW19612   5.118   5.320   0.882
 6238SOL    HW119613   5.210   5.288   0.904
 6238SOL    HW219614   5.054   5.243   0.887
 6239SOL     OW19615   2.695   0.196   3.014
 6239SOL    HW119616   2.600   0.166   3.008
 6239SOL    HW219617   2.740   0.146   3.089
 6240SOL     OW19618   1.596   3.695   0.739
 6240SOL    HW119619   1.501   3.665   0.745
 6240SOL    HW219620   1.638   3.656   0.657
 6241SOL     OW19621   4.491   0.599   1.549
 6241SOL    HW119622   4.562   0.530   1.537
 6241SOL    HW219623   4.403   0.554   1.564
 6242SOL     OW19624   4.869   2.535   3.685
 6242SOL    HW119625   4.884   2.439   3.711
 6242SOL    HW219626   4.937   2.592   3.731
 6243SOL     OW19627   6.167   6.091   4.187
 6243SOL    HW119628   6.161   5.995   4.162
 6243SOL    HW219629   6.093   6.114   4.250
 6244SOL     OW19630   2.782   1.952   2.189
 6244SOL    HW119631   2.766   1.991   2.280
 6244SOL    HW219632   2.815   1.858   2.199
 6245SOL     OW19633   3.100   4.452   0.703
 6245SOL    HW119634   3.101   4.543   0.662
 6245SOL    HW219635   3.005   4.419   0.709
 6246SOL     OW19636   2.539   1.568   5.708
 6246SOL    HW119637   2.605   1.639   5.733
 6246SOL    HW219638   2.582   1.478   5.720
 6247SOL     OW19639   0.249   6.283   2.921
 6247SOL    HW119640   0.185   6.359   2.936
 6247SOL    HW219641   0.312   6.307   2.847
 6248SOL     OW19642   0.698   5.095   1.360
 6248SOL    HW119643   0.702   5.012   1.304
 6248SOL    HW219644   0.602   5.120   1.376
 6249SOL     OW19645   6.013   4.356   6.583
 6249SOL    HW119646   6.040   4.270   6.540
 6249SOL    HW219647   5.936   4.395   6.533
 6250SOL     OW19648   6.237   6.371   7.001
 6250SOL    HW119649   6.255   6.345   6.906
 6250SOL    HW219650   6.256   6.468   7.012
 6251SOL     OW19651   4.821   1.637   0.052
 6251SOL    HW119652   4.733   1.666   0.017
 6251SOL    HW219653   4.893   1.698   0.019
 6252SOL     OW19654   2.690   5.981   5.067
 6252SOL    HW119655   2.771   6.012   5.017
 6252SOL    HW219656   2.642   5.912   5.013
 6253SOL     OW19657   2.285   4.090   2.152
 6253SOL    HW119658   2.349   4.136   2.214
 6253SOL    HW219659   2.193   4.125   2.168
 6254SOL     OW19660   5.576   0.603   0.246
 6254SOL    HW119661   5.552   0.515   0.287
 6254SOL    HW219662   5.657   0.640   0.291
 6255SOL     OW19663   0.512   1.380   2.593
 6255SOL    HW119664   0.589   1.325   2.624
 6255SOL    HW219665   0.542   1.442   2.520
 6256SOL     OW19666   3.442   5.220   2.907
 6256SOL    HW119667   3.535   5.189   2.924
 6256SOL    HW219668   3.444   5.307   2.857
 6257SOL     OW19669   5.500   2.809   6.708
 6257SOL    HW119670   5.476   2.877   6.778
 6257SOL    HW219671   5.462   2.838   6.620
 6258SOL     OW19672   4.765   1.500   2.265
 6258SOL    HW119673   4.692   1.432   2.268
 6258SOL    HW219674   4.820   1.487   2.183
 6259SOL     OW19675   2.940   2.389   1.618
 6259SOL    HW119676   2.902   2.464   1.563
 6259SOL    HW219677   2.961   2.422   1.710
 6260SOL     OW19678   3.772   4.060   6.900
 6260SOL    HW119679   3.734   4.092   6.814
 6260SOL    HW219680   3.702   4.011   6.952
 6261SOL     OW19681   4.251   0.932   0.508
 6261SOL    HW119682   4.328   0.908   0.449
 6261SOL    HW219683   4.180   0.978   0.454
 6262SOL     OW19684   0.943   4.782   6.419
 6262SOL    HW119685   0.899   4.785   6.509
 6262SOL    HW219686   0.963   4.876   6.389
 6263SOL     OW19687   6.908   0.014   0.578
 6263SOL    HW119688   6.982   6.987   0.626
 6263SOL    HW219689   6.821   7.011   0.621
 6264SOL     OW19690   2.906   1.754   0.635
 6264SOL    HW119691   2.823   1.743   0.690
 6264SOL    HW219692   2.978   1.794   0.692
 6265SOL     OW19693   3.638   2.921   1.296
 6265SOL    HW119694   3.728   2.938   1.337
 6265SOL    HW219695   3.620   2.822   1.295
 6266SOL     OW19696   2.855   0.399   2.976
 6266SOL    HW119697   2.793   0.324   3.002
 6266SOL    HW219698   2.948   0.364   2.969
 6267SOL     OW19699   3.517   0.371   6.444
 6267SOL    HW119700   3.521   0.466   6.477
 6267SOL    HW219701   3.593   0.319   6.484
 6268SOL     OW19702   3.758   5.197   2.455
 6268SOL    HW119703   3.829   5.238   2.397
 6268SOL    HW219704   3.755   5.244   2.543
 6269SOL     OW19705   6.094   5.171   1.705
 6269SOL    HW119706   6.157   5.225   1.761
 6269SOL    HW219707   6.012   5.225   1.685
 6270SOL     OW19708   0.784   0.424   4.869
 6270SOL    HW119709   0.862   0.389   4.817
 6270SOL    HW219710   0.728   0.348   4.901
 6271SOL     OW19711   6.080   1.616   0.774
 6271SOL    HW119712   6.159   1.567   0.810
 6271SOL    HW219713   6.108   1.708   0.745
 6272SOL     OW19714   1.987   1.950   3.161
 6272SOL    HW119715   2.079   1.922   3.133
 6272SOL    HW219716   1.992   1.992   3.252
 6273SOL     OW19717   3.733   1.085   1.676
 6273SOL    HW119718   3.793   1.145   1.623
 6273SOL    HW219719   3.678   1.140   1.739
 6274SOL     OW19720   3.792   7.019   6.278
 6274SOL    HW119721   3.737   0.054   6.340
 6274SOL    HW219722   3.868   0.053   6.243
 6275SOL     OW19723   2.042   0.428   4.440
 6275SOL    HW119724   2.007   0.512   4.398
 6275SOL    HW219725   2.031   0.434   4.539
 6276SOL     OW19726   1.074   5.313   4.023
 6276SOL    HW119727   1.101   5.401   3.983
 6276SOL    HW219728   0.976   5.299   4.008
 6277SOL     OW19729   5.346   3.258   2.880
 6277SOL    HW119730   5.277   3.329   2.868
 6277SOL    HW219731   5.314   3.172   2.840
 6278SOL     OW19732   5.018   0.492   4.518
 6278SOL    HW119733   5.005   0.432   4.439
 6278SOL    HW219734   4.937   0.549   4.531
 6279SOL     OW19735   4.445   1.908   0.159
 6279SOL    HW119736   4.374   1.976   0.178
 6279SOL    HW219737   4.517   1.915   0.228
 6280SOL     OW19738   0.730   4.654   6.020
 6280SOL    HW119739   0.658   4.627   6.084
 6280SOL    HW219740   0.714   4.747   5.989
 6281SOL     OW19741   2.676   6.864   5.596
 6281SOL    HW119742   2.603   6.800   5.574
 6281SOL    HW219743   2.743   6.818   5.655
 6282SOL     OW19744   1.882   0.107   4.518
 6282SOL    HW119745   1.810   0.051   4.477
 6282SOL    HW219746   1.972   0.072   4.490
 6283SOL     OW19747   6.520   2.477   4.943
 6283SOL    HW119748   6.529   2.393   4.889
 6283SOL    HW219749   6.430   2.518   4.927
 6284SOL     OW19750   1.236   4.168   5.604
 6284SOL    HW119751   1.257   4.126   5.516
 6284SOL    HW219752   1.320   4.173   5.659
 6285SOL     OW19753   1.601   4.087   2.751
 6285SOL    HW119754   1.660   4.143   2.808
 6285SOL    HW219755   1.656   4.016   2.706
 6286SOL     OW19756   5.602   0.858   3.798
 6286SOL    HW119757   5.643   0.769   3.781
 6286SOL    HW219758   5.612   0.883   3.894
 6287SOL     OW19759   4.387   4.440   1.738
 6287SOL    HW119760   4.468   4.453   1.681
 6287SOL    HW219761   4.390   4.349   1.780
 6288SOL     OW19762   5.843   3.587   0.966
 6288SOL    HW119763   5.850   3.517   0.895
 6288SOL    HW219764   5.815   3.674   0.925
 6289SOL     OW19765   1.599   1.384   3.654
 6289SOL    HW119766   1.533   1.455   3.680
 6289SOL    HW219767   1.560   1.328   3.581
 6290SOL     OW19768   5.102   3.828   3.185
 6290SOL    HW119769   5.131   3.923   3.179
 6290SOL    HW219770   5.183   3.769   3.191
 6291SOL     OW19771   3.311   4.151   3.493
 6291SOL    HW119772   3.283   4.069   3.543
 6291SOL    HW219773   3.250   4.164   3.415
 6292SOL     OW19774   1.101   2.017   2.472
 6292SOL    HW119775   1.057   2.067   2.546
 6292SOL    HW219776   1.146   1.936   2.509
 6293SOL     OW19777   4.892   0.167   0.404
 6293SOL    HW119778   4.967   0.228   0.378
 6293SOL    HW219779   4.832   0.213   0.469
 6294SOL     OW19780   4.385   5.233   2.930
 6294SOL    HW119781   4.304   5.223   2.987
 6294SOL    HW219782   4.358   5.239   2.834
 6295SOL     OW19783   5.979   6.616   6.387
 6295SOL    HW119784   5.966   6.606   6.486
 6295SOL    HW219785   6.047   6.550   6.355
 6296SOL     OW19786   6.390   1.324   3.356
 6296SOL    HW119787   6.360   1.328   3.452
 6296SOL    HW219788   6.395   1.229   3.326
 6297SOL     OW19789   5.532   6.618   5.251
 6297SOL    HW119790   5.455   6.661   5.298
 6297SOL    HW219791   5.587   6.566   5.316
 6298SOL     OW19792   1.126   2.299   5.129
 6298SOL    HW119793   1.130   2.207   5.169
 6298SOL    HW219794   1.218   2.330   5.107
 6299SOL     OW19795   6.251   3.196   6.985
 6299SOL    HW119796   6.242   3.262   0.039
 6299SOL    HW219797   6.163   3.150   6.971
 6300SOL     OW19798   4.892   0.294   3.935
 6300SOL    HW119799   4.802   0.336   3.944
 6300SOL    HW219800   4.907   0.266   3.840
 6301SOL     OW19801   3.072   0.066   0.781
 6301SOL    HW119802   3.076   0.081   0.682
 6301SOL    HW219803   2.985   0.022   0.804
 6302SOL     OW19804   1.465   1.267   3.453
 6302SOL    HW119805   1.535   1.239   3.387
 6302SOL    HW219806   1.401   1.191   3.468
 6303SOL     OW19807   2.239   5.822   5.275
 6303SOL    HW119808   2.276   5.729   5.282
 6303SOL    HW219809   2.204   5.837   5.183
 6304SOL     OW19810   2.702   1.289   6.763
 6304SOL    HW119811   2.694   1.290   6.863
 6304SOL    HW219812   2.617   1.324   6.723
 6305SOL     OW19813   6.557   0.576   1.142
 6305SOL    HW119814   6.570   0.601   1.046
 6305SOL    HW219815   6.515   0.485   1.147
 6306SOL     OW19816   6.296   3.084   3.654
 6306SOL    HW119817   6.379   3.034   3.675
 6306SOL    HW219818   6.239   3.091   3.736
 6307SOL     OW19819   2.356   4.756   0.339
 6307SOL    HW119820   2.298   4.679   0.367
 6307SOL    HW219821   2.446   4.722   0.311
 6308SOL     OW19822   3.371   2.222   5.308
 6308SOL    HW119823   3.391   2.175   5.221
 6308SOL    HW219824   3.323   2.307   5.290
 6309SOL     OW19825   5.855   2.086   3.969
 6309SOL    HW119826   5.833   2.076   3.872
 6309SOL    HW219827   5.918   2.163   3.981
 6310SOL     OW19828   1.697   4.948   5.086
 6310SOL    HW119829   1.794   4.926   5.099
 6310SOL    HW219830   1.669   5.017   5.153
 6311SOL     OW19831   5.738   0.848   4.878
 6311SOL    HW119832   5.747   0.863   4.779
 6311SOL    HW219833   5.797   0.773   4.906
 6312SOL     OW19834   4.048   5.053   5.616
 6312SOL    HW119835   4.001   5.016   5.696
 6312SOL    HW219836   3.983   5.102   5.558
 6313SOL     OW19837   2.147   5.422   2.793
 6313SOL    HW119838   2.108   5.330   2.779
 6313SOL    HW219839   2.129   5.478   2.713
 6314SOL     OW19840   2.712   6.646   3.205
 6314SOL    HW119841   2.629   6.615   3.251
 6314SOL    HW219842   2.789   6.589   3.234
 6315SOL     OW19843   2.909   3.163   0.529
 6315SOL    HW119844   2.815   3.196   0.518
 6315SOL    HW219845   2.909   3.078   0.581
 6316SOL     OW19846   5.371   2.418   5.760
 6316SOL    HW119847   5.452   2.463   5.723
 6316SOL    HW219848   5.378   2.319   5.745
 6317SOL     OW19849   5.962   6.435   4.445
 6317SOL    HW119850   5.885   6.440   4.510
 6317SOL    HW219851   5.943   6.494   4.367
 6318SOL     OW19852   2.511   1.955   4.694
 6318SOL    HW119853   2.601   1.946   4.737
 6318SOL    HW219854   2.508   2.039   4.640
 6319SOL     OW19855   0.097   1.533   3.544
 6319SOL    HW119856   0.017   1.590   3.564
 6319SOL    HW219857   0.093   1.503   3.449
 6320SOL     OW19858   6.368   3.352   2.971
 6320SOL    HW119859   6.347   3.313   3.060
 6320SOL    HW219860   6.454   3.313   2.937
 6321SOL     OW19861   2.394   3.976   0.379
 6321SOL    HW119862   2.322   3.959   0.446
 6321SOL    HW219863   2.411   4.074   0.373
 6322SOL     OW19864   1.242   0.894   6.986
 6322SOL    HW119865   1.149   0.857   6.974
 6322SOL    HW219866   1.251   0.932   0.057
 6323SOL     OW19867   3.915   2.578   0.458
 6323SOL    HW119868   4.005   2.553   0.494
 6323SOL    HW219869   3.860   2.620   0.531
 6324SOL     OW19870   4.265   1.042   6.464
 6324SOL    HW119871   4.232   1.133   6.491
 6324SOL    HW219872   4.305   0.996   6.543
 6325SOL     OW19873   0.646   2.293   2.593
 6325SOL    HW119874   0.679   2.268   2.502
 6325SOL    HW219875   0.593   2.217   2.632
 6326SOL     OW19876   5.074   5.912   1.393
 6326SOL    HW119877   5.169   5.897   1.366
 6326SOL    HW219878   5.041   5.835   1.447
 6327SOL     OW19879   5.346   5.719   5.516
 6327SOL    HW119880   5.315   5.760   5.602
 6327SOL    HW219881   5.343   5.620   5.524
 6328SOL     OW19882   2.905   4.143   6.368
 6328SOL    HW119883   2.967   4.070   6.340
 6328SOL    HW219884   2.938   4.230   6.331
 6329SOL     OW19885   0.670   1.648   3.517
 6329SOL    HW119886   0.676   1.630   3.419
 6329SOL    HW219887   0.676   1.561   3.567
 6330SOL     OW19888   3.752   1.409   6.998
 6330SOL    HW119889   3.657   1.438   7.010
 6330SOL    HW219890   3.787   1.446   6.912
 6331SOL     OW19891   6.450   2.636   1.841
 6331SOL    HW119892   6.350   2.632   1.833
 6331SOL    HW219893   6.486   2.711   1.786
 6332SOL     OW19894   5.927   6.255   1.386
 6332SOL    HW119895   5.852   6.192   1.366
 6332SOL    HW219896   5.923   6.332   1.322
 6333SOL     OW19897   3.445   4.922   2.879
 6333SOL    HW119898   3.514   4.911   2.807
 6333SOL    HW219899   3.413   5.017   2.880
 6334SOL     OW19900   2.094   1.240   2.837
 6334SOL    HW119901   2.032   1.164   2.817
 6334SOL    HW219902   2.046   1.309   2.891
 6335SOL     OW19903   6.895   1.618   6.588
 6335SOL    HW119904   6.836   1.610   6.507
 6335SOL    HW219905   6.946   1.533   6.601
 6336SOL     OW19906   0.338   2.548   4.716
 6336SOL    HW119907   0.261   2.502   4.761
 6336SOL    HW219908   0.397   2.591   4.784
 6337SOL     OW19909   6.116   5.025   5.458
 6337SOL    HW119910   6.107   4.940   5.510
 6337SOL    HW219911   6.151   5.006   5.367
 6338SOL     OW19912   3.770   1.005   3.506
 6338SOL    HW119913   3.743   0.912   3.533
 6338SOL    HW219914   3.868   1.006   3.487
 6339SOL     OW19915   6.670   1.867   3.953
 6339SOL    HW119916   6.657   1.769   3.966
 6339SOL    HW219917   6.754   1.896   4.000
 6340SOL     OW19918   2.046   5.617   4.079
 6340SOL    HW119919   2.048   5.526   4.120
 6340SOL    HW219920   2.136   5.641   4.045
 6341SOL     OW19921   0.295   4.615   3.392
 6341SOL    HW119922   0.300   4.560   3.476
 6341SOL    HW219923   0.210   4.667   3.392
 6342SOL     OW19924   1.454   2.582   1.131
 6342SOL    HW119925   1.470   2.504   1.191
 6342SOL    HW219926   1.541   2.610   1.090
 6343SOL     OW19927   3.730   1.131   6.968
 6343SOL    HW119928   3.704   1.220   7.006
 6343SOL    HW219929   3.677   1.113   6.886
 6344SOL     OW19930   0.795   4.442   4.394
 6344SOL    HW119931   0.846   4.392   4.464
 6344SOL    HW219932   0.858   4.498   4.341
 6345SOL     OW19933   3.584   1.618   2.237
 6345SOL    HW119934   3.570   1.644   2.332
 6345SOL    HW219935   3.682   1.602   2.220
 6346SOL     OW19936   0.665   4.568   3.501
 6346SOL    HW119937   0.729   4.581   3.577
 6346SOL    HW219938   0.612   4.651   3.488
 6347SOL     OW19939   2.991   0.576   1.387
 6347SOL    HW119940   2.935   0.494   1.390
 6347SOL    HW219941   3.064   0.569   1.455
 6348SOL     OW19942   0.984   3.291   4.184
 6348SOL    HW119943   0.942   3.264   4.270
 6348SOL    HW219944   1.028   3.212   4.142
 6349SOL     OW19945   2.980   0.407   0.450
 6349SOL    HW119946   3.006   0.482   0.389
 6349SOL    HW219947   2.932   0.444   0.530
 6350SOL     OW19948   1.437   6.244   2.184
 6350SOL    HW119949   1.370   6.170   2.185
 6350SOL    HW219950   1.522   6.213   2.227
 6351SOL     OW19951   6.967   1.117   2.856
 6351SOL    HW119952   6.902   1.130   2.781
 6351SOL    HW219953   0.039   1.105   2.818
 6352SOL     OW19954   0.400   5.610   1.874
 6352SOL    HW119955   0.332   5.572   1.812
 6352SOL    HW219956   0.372   5.596   1.969
 6353SOL     OW19957   0.149   6.742   1.506
 6353SOL    HW119958   0.236   6.790   1.515
 6353SOL    HW219959   0.137   6.680   1.584
 6354SOL     OW19960   0.371   6.610   3.402
 6354SOL    HW119961   0.425   6.548   3.345
 6354SOL    HW219962   0.402   6.602   3.497
 6355SOL     OW19963   2.026   2.381   3.176
 6355SOL    HW119964   1.946   2.322   3.168
 6355SOL    HW219965   2.010   2.467   3.127
 6356SOL     OW19966   3.561   3.289   1.524
 6356SOL    HW119967   3.501   3.258   1.450
 6356SOL    HW219968   3.543   3.385   1.544
 6357SOL     OW19969   4.573   1.770   6.980
 6357SOL    HW119970   4.572   1.832   6.901
 6357SOL    HW219971   4.540   1.818   0.040
 6358SOL     OW19972   6.695   2.325   3.423
 6358SOL    HW119973   6.689   2.315   3.324
 6358SOL    HW219974   6.691   2.235   3.466
 6359SOL     OW19975   6.958   1.247   6.726
 6359SOL    HW119976   6.871   1.247   6.678
 6359SOL    HW219977   7.007   1.332   6.707
 6360SOL     OW19978   3.092   5.873   4.152
 6360SOL    HW119979   3.145   5.812   4.211
 6360SOL    HW219980   3.056   5.821   4.074
 6361SOL     OW19981   4.477   6.322   6.060
 6361SOL    HW119982   4.423   6.379   6.122
 6361SOL    HW219983   4.567   6.363   6.047
 6362SOL     OW19984   6.061   5.809   6.991
 6362SOL    HW119985   6.094   5.887   0.023
 6362SOL    HW219986   5.965   5.792   7.013
 6363SOL     OW19987   0.786   5.782   4.295
 6363SOL    HW119988   0.782   5.704   4.358
 6363SOL    HW219989   0.880   5.791   4.260
 6364SOL     OW19990   2.594   2.362   5.858
 6364SOL    HW119991   2.608   2.341   5.955
 6364SOL    HW219992   2.632   2.287   5.803
 6365SOL     OW19993   4.849   6.562   2.818
 6365SOL    HW119994   4.879   6.627   2.749
 6365SOL    HW219995   4.791   6.492   2.776
 6366SOL     OW19996   0.560   5.171   5.454
 6366SOL    HW119997   0.495   5.097   5.466
 6366SOL    HW219998   0.540   5.245   5.518
 6367SOL     OW19999   5.655   6.765   3.901
 6367SOL    HW120000   5.717   6.829   3.947
 6367SOL    HW220001   5.620   6.699   3.967
 6368SOL     OW20002   2.975   0.178   4.189
 6368SOL    HW120003   3.016   0.170   4.099
 6368SOL    HW220004   3.047   0.182   4.258
 6369SOL     OW20005   2.313   5.129   4.212
 6369SOL    HW120006   2.213   5.131   4.201
 6369SOL    HW220007   2.354   5.093   4.129
 6370SOL     OW20008   5.958   2.637   1.573
 6370SOL    HW120009   5.976   2.705   1.502
 6370SOL    HW220010   6.028   2.566   1.571
 6371SOL     OW20011   5.096   2.393   2.924
 6371SOL    HW120012   4.997   2.379   2.936
 6371SOL    HW220013   5.128   2.334   2.850
 6372SOL     OW20014   2.931   6.061   2.533
 6372SOL    HW120015   2.893   6.041   2.443
 6372SOL    HW220016   2.897   6.150   2.564
 6373SOL     OW20017   4.221   4.489   6.556
 6373SOL    HW120018   4.282   4.566   6.537
 6373SOL    HW220019   4.256   4.406   6.512
 6374SOL     OW20020   2.917   3.234   2.344
 6374SOL    HW120021   2.832   3.224   2.396
 6374SOL    HW220022   2.896   3.240   2.247
 6375SOL     OW20023   1.850   6.232   2.654
 6375SOL    HW120024   1.803   6.226   2.743
 6375SOL    HW220025   1.890   6.323   2.644
 6376SOL     OW20026   0.172   2.551   5.166
 6376SOL    HW120027   0.244   2.608   5.206
 6376SOL    HW220028   0.097   2.609   5.135
 6377SOL     OW20029   0.286   1.114   4.026
 6377SOL    HW120030   0.193   1.076   4.025
 6377SOL    HW220031   0.281   1.212   4.041
 6378SOL     OW20032   4.861   4.020   3.633
 6378SOL    HW120033   4.780   4.005   3.576
 6378SOL    HW220034   4.857   4.111   3.673
 6379SOL     OW20035   2.397   4.431   3.596
 6379SOL    HW120036   2.449   4.451   3.513
 6379SOL    HW220037   2.333   4.357   3.577
 6380SOL     OW20038   0.164   1.094   5.939
 6380SOL    HW120039   0.194   1.161   5.871
 6380SOL    HW220040   0.243   1.044   5.973
 6381SOL     OW20041   3.263   4.132   2.523
 6381SOL    HW120042   3.258   4.229   2.498
 6381SOL    HW220043   3.262   4.076   2.441
 6382SOL     OW20044   0.762   3.503   5.438
 6382SOL    HW120045   0.785   3.524   5.533
 6382SOL    HW220046   0.785   3.581   5.380
 6383SOL     OW20047   3.097   0.972   4.471
 6383SOL    HW120048   3.003   0.944   4.454
 6383SOL    HW220049   3.125   1.037   4.400
 6384SOL     OW20050   6.666   4.887   3.154
 6384SOL    HW120051   6.638   4.935   3.071
 6384SOL    HW220052   6.718   4.949   3.212
 6385SOL     OW20053   0.126   5.943   4.533
 6385SOL    HW120054   0.154   5.850   4.508
 6385SOL    HW220055   0.157   6.008   4.464
 6386SOL     OW20056   3.005   5.155   1.174
 6386SOL    HW120057   2.980   5.081   1.111
 6386SOL    HW220058   2.995   5.243   1.127
 6387SOL     OW20059   6.627   0.436   5.296
 6387SOL    HW120060   6.585   0.447   5.386
 6387SOL    HW220061   6.701   0.502   5.285
 6388SOL     OW20062   2.941   4.800   2.385
 6388SOL    HW120063   3.015   4.848   2.431
 6388SOL    HW220064   2.969   4.774   2.293
 6389SOL     OW20065   0.834   4.926   3.038
 6389SOL    HW120066   0.872   4.848   2.988
 6389SOL    HW220067   0.743   4.947   3.003
 6390SOL     OW20068   0.761   3.422   4.114
 6390SOL    HW120069   0.676   3.371   4.129
 6390SOL    HW220070   0.839   3.361   4.131
 6391SOL     OW20071   3.040   1.518   0.113
 6391SOL    HW120072   3.015   1.552   0.022
 6391SOL    HW220073   3.076   1.425   0.104
 6392SOL     OW20074   1.636   0.181   4.083
 6392SOL    HW120075   1.582   0.250   4.035
 6392SOL    HW220076   1.588   0.093   4.080
 6393SOL     OW20077   6.043   6.704   0.241
 6393SOL    HW120078   6.110   6.778   0.246
 6393SOL    HW220079   6.077   6.624   0.291
 6394SOL     OW20080   2.626   4.677   0.293
 6394SOL    HW120081   2.711   4.711   0.334
 6394SOL    HW220082   2.594   4.598   0.345
 6395SOL     OW20083   6.206   1.847   0.676
 6395SOL    HW120084   6.287   1.856   0.618
 6395SOL    HW220085   6.165   1.937   0.691
 6396SOL     OW20086   5.427   4.305   5.176
 6396SOL    HW120087   5.407   4.207   5.173
 6396SOL    HW220088   5.520   4.320   5.143
 6397SOL     OW20089   0.486   1.230   1.183
 6397SOL    HW120090   0.500   1.284   1.266
 6397SOL    HW220091   0.524   1.279   1.105
 6398SOL     OW20092   3.124   1.347   1.699
 6398SOL    HW120093   3.181   1.382   1.625
 6398SOL    HW220094   3.181   1.298   1.765
 6399SOL     OW20095   2.634   5.477   6.562
 6399SOL    HW120096   2.720   5.469   6.614
 6399SOL    HW220097   2.604   5.386   6.535
 6400SOL     OW20098   2.537   5.672   3.885
 6400SOL    HW120099   2.476   5.603   3.923
 6400SOL    HW220100   2.560   5.649   3.790
 6401SOL     OW20101   0.590   5.032   3.884
 6401SOL    HW120102   0.589   4.977   3.967
 6401SOL    HW220103   0.548   4.981   3.809
 6402SOL     OW20104   2.244   0.963   2.974
 6402SOL    HW120105   2.176   0.981   2.903
 6402SOL    HW220106   2.334   0.949   2.932
 6403SOL     OW20107   0.070   5.951   0.105
 6403SOL    HW120108   0.146   5.968   0.168
 6403SOL    HW220109   0.000   5.896   0.151
 6404SOL     OW20110   5.329   1.007   2.920
 6404SOL    HW120111   5.246   0.966   2.959
 6404SOL    HW220112   5.364   0.948   2.848
 6405SOL     OW20113   2.567   1.142   2.457
 6405SOL    HW120114   2.508   1.062   2.469
 6405SOL    HW220115   2.548   1.209   2.528
 6406SOL     OW20116   2.597   2.187   3.712
 6406SOL    HW120117   2.571   2.096   3.679
 6406SOL    HW220118   2.552   2.204   3.800
 6407SOL     OW20119   3.870   5.297   6.365
 6407SOL    HW120120   3.950   5.299   6.305
 6407SOL    HW220121   3.836   5.390   6.378
 6408SOL     OW20122   6.103   1.855   6.548
 6408SOL    HW120123   6.042   1.932   6.527
 6408SOL    HW220124   6.163   1.881   6.625
 6409SOL     OW20125   1.406   4.627   2.082
 6409SOL    HW120126   1.364   4.544   2.044
 6409SOL    HW220127   1.389   4.704   2.021
 6410SOL     OW20128   1.136   1.373   1.210
 6410SOL    HW120129   1.144   1.383   1.111
 6410SOL    HW220130   1.223   1.397   1.253
 6411SOL     OW20131   1.071   0.897   3.596
 6411SOL    HW120132   1.064   0.800   3.574
 6411SOL    HW220133   1.166   0.920   3.616
 6412SOL     OW20134   0.284   2.322   4.986
 6412SOL    HW120135   0.196   2.288   4.954
 6412SOL    HW220136   0.271   2.409   5.034
 6413SOL     OW20137   6.788   4.665   0.626
 6413SOL    HW120138   6.884   4.663   0.599
 6413SOL    HW220139   6.759   4.760   0.641
 6414SOL     OW20140   5.549   6.513   2.540
 6414SOL    HW120141   5.642   6.476   2.528
 6414SOL    HW220142   5.547   6.571   2.621
 6415SOL     OW20143   2.054   2.098   2.046
 6415SOL    HW120144   2.048   2.063   2.139
 6415SOL    HW220145   2.040   2.198   2.048
 6416SOL     OW20146   1.495   0.490   6.397
 6416SOL    HW120147   1.569   0.498   6.464
 6416SOL    HW220148   1.461   0.397   6.396
 6417SOL     OW20149   0.614   6.911   2.672
 6417SOL    HW120150   0.688   6.897   2.605
 6417SOL    HW220151   0.641   6.983   2.736
 6418SOL     OW20152   6.079   5.965   2.296
 6418SOL    HW120153   6.126   5.904   2.360
 6418SOL    HW220154   6.094   6.060   2.324
 6419SOL     OW20155   3.166   5.080   1.670
 6419SOL    HW120156   3.266   5.074   1.667
 6419SOL    HW220157   3.139   5.174   1.689
 6420SOL     OW20158   1.415   4.020   0.169
 6420SOL    HW120159   1.403   4.002   0.266
 6420SOL    HW220160   1.345   4.084   0.137
 6421SOL     OW20161   5.492   1.870   1.217
 6421SOL    HW120162   5.442   1.904   1.296
 6421SOL    HW220163   5.446   1.899   1.133
 6422SOL     OW20164   5.867   1.315   3.277
 6422SOL    HW120165   5.897   1.378   3.348
 6422SOL    HW220166   5.942   1.299   3.213
 6423SOL     OW20167   5.076   3.965   0.234
 6423SOL    HW120168   5.080   3.893   0.303
 6423SOL    HW220169   5.042   3.927   0.148
 6424SOL     OW20170   0.008   4.767   5.707
 6424SOL    HW120171   0.001   4.678   5.662
 6424SOL    HW220172   0.050   4.756   5.797
 6425SOL     OW20173   0.995   4.969   1.790
 6425SOL    HW120174   0.979   4.876   1.825
 6425SOL    HW220175   0.912   5.002   1.745
 6426SOL     OW20176   0.334   3.047   3.530
 6426SOL    HW120177   0.281   3.018   3.609
 6426SOL    HW220178   0.416   3.095   3.562
 6427SOL     OW20179   2.122   3.278   5.038
 6427SOL    HW120180   2.092   3.186   5.011
 6427SOL    HW220181   2.221   3.283   5.032
 6428SOL     OW20182   6.655   3.488   2.447
 6428SOL    HW120183   6.637   3.582   2.476
 6428SOL    HW220184   6.598   3.425   2.501
 6429SOL     OW20185   1.486   0.641   4.276
 6429SOL    HW120186   1.498   0.735   4.306
 6429SOL    HW220187   1.546   0.581   4.330
 6430SOL     OW20188   6.151   3.319   1.059
 6430SOL    HW120189   6.210   3.362   1.127
 6430SOL    HW220190   6.149   3.374   0.976
 6431SOL     OW20191   5.357   0.042   2.391
 6431SOL    HW120192   5.307   0.071   2.309
 6431SOL    HW220193   5.455   0.051   2.374
 6432SOL     OW20194   5.219   3.270   0.690
 6432SOL    HW120195   5.229   3.317   0.602
 6432SOL    HW220196   5.207   3.172   0.673
 6433SOL     OW20197   2.688   3.820   1.499
 6433SOL    HW120198   2.597   3.825   1.540
 6433SOL    HW220199   2.754   3.792   1.569
 6434SOL     OW20200   1.352   4.967   1.004
 6434SOL    HW120201   1.347   4.928   1.095
 6434SOL    HW220202   1.447   4.969   0.973
 6435SOL     OW20203   5.198   4.295   6.748
 6435SOL    HW120204   5.248   4.209   6.744
 6435SOL    HW220205   5.141   4.304   6.666
 6436SOL     OW20206   1.836   2.848   3.215
 6436SOL    HW120207   1.824   2.927   3.275
 6436SOL    HW220208   1.841   2.878   3.120
 6437SOL     OW20209   1.111   0.825   6.726
 6437SOL    HW120210   1.192   0.858   6.774
 6437SOL    HW220211   1.137   0.758   6.657
 6438SOL     OW20212   1.159   3.526   3.798
 6438SOL    HW120213   1.245   3.559   3.837
 6438SOL    HW220214   1.097   3.603   3.784
 6439SOL     OW20215   0.720   6.998   1.577
 6439SOL    HW120216   0.658   6.929   1.540
 6439SOL    HW220217   0.666   0.049   1.622
 6440SOL     OW20218   1.054   1.526   2.665
 6440SOL    HW120219   0.978   1.542   2.728
 6440SOL    HW220220   1.136   1.503   2.717
 6441SOL     OW20221   2.484   1.335   3.257
 6441SOL    HW120222   2.389   1.332   3.224
 6441SOL    HW220223   2.543   1.369   3.184
 6442SOL     OW20224   3.215   1.087   3.862
 6442SOL    HW120225   3.166   1.092   3.949
 6442SOL    HW220226   3.300   1.141   3.868
 6443SOL     OW20227   2.843   1.880   0.398
 6443SOL    HW120228   2.935   1.879   0.359
 6443SOL    HW220229   2.849   1.861   0.496
 6444SOL     OW20230   0.529   1.096   3.310
 6444SOL    HW120231   0.471   1.177   3.302
 6444SOL    HW220232   0.615   1.121   3.355
 6445SOL     OW20233   4.107   3.468   5.556
 6445SOL    HW120234   4.079   3.399   5.624
 6445SOL    HW220235   4.180   3.524   5.594
 6446SOL     OW20236   6.519   1.352   0.237
 6446SOL    HW120237   6.440   1.408   0.214
 6446SOL    HW220238   6.543   1.364   0.333
 6447SOL     OW20239   1.063   0.783   3.077
 6447SOL    HW120240   1.127   0.729   3.022
 6447SOL    HW220241   1.009   0.842   3.016
 6448SOL     OW20242   5.658   3.071   3.256
 6448SOL    HW120243   5.570   3.115   3.272
 6448SOL    HW220244   5.646   2.972   3.255
 6449SOL     OW20245   3.584   2.873   0.835
 6449SOL    HW120246   3.596   2.915   0.926
 6449SOL    HW220247   3.509   2.808   0.838
 6450SOL     OW20248   6.501   3.379   0.470
 6450SOL    HW120249   6.555   3.372   0.554
 6450SOL    HW220250   6.561   3.365   0.391
 6451SOL     OW20251   2.620   6.841   4.694
 6451SOL    HW120252   2.686   6.848   4.768
 6451SOL    HW220253   2.644   6.764   4.635
 6452SOL     OW20254   3.703   6.382   3.740
 6452SOL    HW120255   3.667   6.347   3.826
 6452SOL    HW220256   3.740   6.307   3.686
 6453SOL     OW20257   1.599   5.987   6.607
 6453SOL    HW120258   1.667   5.992   6.681
 6453SOL    HW220259   1.646   5.976   6.520
 6454SOL     OW20260   3.127   1.569   5.345
 6454SOL    HW120261   3.093   1.663   5.348
 6454SOL    HW220262   3.137   1.540   5.250
 6455SOL     OW20263   5.904   2.642   5.621
 6455SOL    HW120264   5.866   2.594   5.542
 6455SOL    HW220265   5.959   2.578   5.675
 6456SOL     OW20266   0.195   0.568   4.159
 6456SOL    HW120267   0.273   0.581   4.098
 6456SOL    HW220268   0.118   0.531   4.106
 6457SOL     OW20269   6.582   2.847   0.834
 6457SOL    HW120270   6.574   2.749   0.822
 6457SOL    HW220271   6.575   2.893   0.745
 6458SOL     OW20272   1.615   5.740   2.819
 6458SOL    HW120273   1.631   5.733   2.721
 6458SOL    HW220274   1.616   5.648   2.860
 6459SOL     OW20275   5.382   5.010   0.206
 6459SOL    HW120276   5.425   5.074   0.143
 6459SOL    HW220277   5.342   5.059   0.283
 6460SOL     OW20278   3.441   5.043   6.165
 6460SOL    HW120279   3.343   5.060   6.181
 6460SOL    HW220280   3.476   5.110   6.100
 6461SOL     OW20281   3.631   5.629   4.898
 6461SOL    HW120282   3.669   5.543   4.934
 6461SOL    HW220283   3.575   5.610   4.818
 6462SOL     OW20284   2.129   3.606   4.192
 6462SOL    HW120285   2.181   3.522   4.206
 6462SOL    HW220286   2.110   3.649   4.280
 6463SOL     OW20287   1.293   4.603   5.762
 6463SOL    HW120288   1.366   4.548   5.804
 6463SOL    HW220289   1.222   4.542   5.726
 6464SOL     OW20290   0.538   5.524   3.320
 6464SOL    HW120291   0.439   5.533   3.315
 6464SOL    HW220292   0.564   5.488   3.410
 6465SOL     OW20293   6.721   0.953   2.955
 6465SOL    HW120294   6.758   0.891   2.885
 6465SOL    HW220295   6.638   0.997   2.920
 6466SOL     OW20296   0.041   2.442   4.851
 6466SOL    HW120297   0.012   2.435   4.755
 6466SOL    HW220298   6.982   2.460   4.909
 6467SOL     OW20299   2.532   0.731   6.609
 6467SOL    HW120300   2.453   0.792   6.616
 6467SOL    HW220301   2.616   0.785   6.620
 6468SOL     OW20302   4.965   5.068   0.871
 6468SOL    HW120303   4.983   4.994   0.936
 6468SOL    HW220304   4.878   5.051   0.824
 6469SOL     OW20305   6.905   1.371   5.672
 6469SOL    HW120306   6.819   1.395   5.628
 6469SOL    HW220307   6.966   1.328   5.606
 6470SOL     OW20308   6.692   6.898   5.701
 6470SOL    HW120309   6.785   6.897   5.665
 6470SOL    HW220310   6.683   6.829   5.773
 6471SOL     OW20311   5.718   5.043   5.763
 6471SOL    HW120312   5.762   5.104   5.829
 6471SOL    HW220313   5.764   5.050   5.674
 6472SOL     OW20314   1.177   6.176   1.525
 6472SOL    HW120315   1.149   6.198   1.618
 6472SOL    HW220316   1.097   6.169   1.466
 6473SOL     OW20317   2.158   1.768   6.249
 6473SOL    HW120318   2.187   1.682   6.207
 6473SOL    HW220319   2.062   1.786   6.226
 6474SOL     OW20320   1.947   3.020   5.354
 6474SOL    HW120321   1.953   3.119   5.356
 6474SOL    HW220322   2.037   2.980   5.367
 6475SOL     OW20323   4.149   6.163   4.203
 6475SOL    HW120324   4.212   6.158   4.125
 6475SOL    HW220325   4.107   6.254   4.206
 6476SOL     OW20326   4.814   4.905   2.940
 6476SOL    HW120327   4.853   4.958   3.016
 6476SOL    HW220328   4.724   4.870   2.967
 6477SOL     OW20329   6.617   5.560   6.833
 6477SOL    HW120330   6.615   5.598   6.740
 6477SOL    HW220331   6.569   5.622   6.895
 6478SOL     OW20332   4.800   6.507   0.710
 6478SOL    HW120333   4.899   6.506   0.729
 6478SOL    HW220334   4.764   6.415   0.716
 6479SOL     OW20335   3.914   5.152   2.807
 6479SOL    HW120336   3.970   5.069   2.809
 6479SOL    HW220337   3.931   5.201   2.721
 6480SOL     OW20338   2.934   2.332   0.005
 6480SOL    HW120339   3.014   2.352   0.060
 6480SOL    HW220340   2.884   2.417   7.005
 6481SOL     OW20341   4.981   1.082   1.159
 6481SOL    HW120342   5.026   1.048   1.076
 6481SOL    HW220343   4.885   1.102   1.139
 6482SOL     OW20344   0.225   0.599   6.595
 6482SOL    HW120345   0.229   0.623   6.692
 6482SOL    HW220346   0.185   0.674   6.544
 6483SOL     OW20347   1.875   6.413   3.076
 6483SOL    HW120348   1.839   6.486   3.134
 6483SOL    HW220349   1.811   6.396   3.001
 6484SOL     OW20350   4.753   6.771   3.683
 6484SOL    HW120351   4.750   6.714   3.764
 6484SOL    HW220352   4.729   6.717   3.602
 6485SOL     OW20353   1.381   2.663   3.216
 6485SOL    HW120354   1.376   2.576   3.166
 6485SOL    HW220355   1.405   2.736   3.151
 6486SOL     OW20356   1.641   3.586   3.747
 6486SOL    HW120357   1.692   3.599   3.833
 6486SOL    HW220358   1.633   3.489   3.728
 6487SOL     OW20359   5.860   6.576   3.828
 6487SOL    HW120360   5.780   6.633   3.847
 6487SOL    HW220361   5.886   6.528   3.912
 6488SOL     OW20362   3.384   5.371   5.895
 6488SOL    HW120363   3.444   5.339   5.968
 6488SOL    HW220364   3.330   5.294   5.860
 6489SOL     OW20365   1.823   1.871   5.309
 6489SOL    HW120366   1.805   1.797   5.244
 6489SOL    HW220367   1.876   1.837   5.386
 6490SOL     OW20368   3.459   0.949   0.442
 6490SOL    HW120369   3.446   0.852   0.420
 6490SOL    HW220370   3.502   0.995   0.365
 6491SOL     OW20371   3.838   1.862   6.679
 6491SOL    HW120372   3.837   1.841   6.777
 6491SOL    HW220373   3.780   1.942   6.662
 6492SOL     OW20374   5.581   6.429   6.985
 6492SOL    HW120375   5.668   6.381   6.999
 6492SOL    HW220376   5.570   6.450   6.888
 6493SOL     OW20377   0.893   6.419   6.054
 6493SOL    HW120378   0.934   6.332   6.026
 6493SOL    HW220379   0.798   6.404   6.080
 6494SOL     OW20380   1.097   0.633   3.564
 6494SOL    HW120381   1.083   0.543   3.525
 6494SOL    HW220382   1.174   0.631   3.628
 6495SOL     OW20383   5.525   4.754   2.771
 6495SOL    HW120384   5.437   4.784   2.807
 6495SOL    HW220385   5.525   4.655   2.761
 6496SOL     OW20386   1.686   6.781   2.673
 6496SOL    HW120387   1.705   6.704   2.611
 6496SOL    HW220388   1.746   6.857   2.649
 6497SOL     OW20389   0.984   4.321   0.398
 6497SOL    HW120390   0.982   4.350   0.303
 6497SOL    HW220391   1.054   4.250   0.410
 6498SOL     OW20392   1.427   4.914   4.300
 6498SOL    HW120393   1.465   4.849   4.234
 6498SOL    HW220394   1.382   4.864   4.374
 6499SOL     OW20395   5.907   1.246   4.124
 6499SOL    HW120396   5.886   1.200   4.210
 6499SOL    HW220397   5.823   1.278   4.082
 6500SOL     OW20398   5.183   5.106   3.494
 6500SOL    HW120399   5.147   5.016   3.522
 6500SOL    HW220400   5.120   5.147   3.428
 6501SOL     OW20401   0.253   3.967   1.039
 6501SOL    HW120402   0.181   3.904   1.069
 6501SOL    HW220403   0.214   4.037   0.979
 6502SOL     OW20404   1.208   5.281   2.741
 6502SOL    HW120405   1.136   5.225   2.781
 6502SOL    HW220406   1.297   5.243   2.765
 6503SOL     OW20407   4.445   6.996   4.991
 6503SOL    HW120408   4.367   0.039   4.991
 6503SOL    HW220409   4.412   6.903   4.972
 6504SOL     OW20410   3.183   0.917   0.666
 6504SOL    HW120411   3.114   0.990   0.665
 6504SOL    HW220412   3.138   0.829   0.652
 6505SOL     OW20413   6.066   5.041   1.085
 6505SOL    HW120414   6.047   4.944   1.099
 6505SOL    HW220415   6.143   5.069   1.141
 6506SOL     OW20416   2.429   2.300   0.991
 6506SOL    HW120417   2.510   2.241   0.990
 6506SOL    HW220418   2.389   2.300   1.083
 6507SOL     OW20419   2.179   0.591   1.696
 6507SOL    HW120420   2.083   0.576   1.720
 6507SOL    HW220421   2.184   0.646   1.613
 6508SOL     OW20422   2.102   1.888   2.709
 6508SOL    HW120423   2.150   1.931   2.633
 6508SOL    HW220424   2.031   1.949   2.744
 6509SOL     OW20425   0.295   2.604   4.235
 6509SOL    HW120426   0.349   2.579   4.315
 6509SOL    HW220427   0.339   2.568   4.153
 6510SOL     OW20428   5.626   4.800   5.844
 6510SOL    HW120429   5.672   4.884   5.817
 6510SOL    HW220430   5.570   4.817   5.925
 6511SOL     OW20431   6.218   6.215   6.465
 6511SOL    HW120432   6.269   6.135   6.496
 6511SOL    HW220433   6.238   6.233   6.369
 6512SOL     OW20434   4.853   6.399   3.640
 6512SOL    HW120435   4.947   6.417   3.610
 6512SOL    HW220436   4.849   6.311   3.687
 6513SOL     OW20437   3.330   6.870   3.110
 6513SOL    HW120438   3.376   6.783   3.092
 6513SOL    HW220439   3.397   6.945   3.106
 6514SOL     OW20440   3.542   6.916   4.056
 6514SOL    HW120441   3.567   6.996   4.110
 6514SOL    HW220442   3.530   6.943   3.960
 6515SOL     OW20443   0.844   6.922   5.400
 6515SOL    HW120444   0.915   6.897   5.466
 6515SOL    HW220445   0.855   6.867   5.317
 6516SOL     OW20446   0.494   1.567   5.209
 6516SOL    HW120447   0.471   1.664   5.220
 6516SOL    HW220448   0.573   1.545   5.266
 6517SOL     OW20449   1.127   1.713   0.318
 6517SOL    HW120450   1.205   1.767   0.350
 6517SOL    HW220451   1.143   1.684   0.224
 6518SOL     OW20452   6.338   5.984   1.305
 6518SOL    HW120453   6.244   6.008   1.330
 6518SOL    HW220454   6.389   5.961   1.388
 6519SOL     OW20455   2.471   2.082   3.387
 6519SOL    HW120456   2.566   2.053   3.387
 6519SOL    HW220457   2.461   2.162   3.445
 6520SOL     OW20458   5.493   5.411   1.364
 6520SOL    HW120459   5.526   5.318   1.346
 6520SOL    HW220460   5.436   5.441   1.287
 6521SOL     OW20461   0.224   1.634   5.348
 6521SOL    HW120462   0.264   1.570   5.412
 6521SOL    HW220463   0.296   1.675   5.292
 6522SOL     OW20464   2.468   5.489   6.002
 6522SOL    HW120465   2.386   5.528   6.045
 6522SOL    HW220466   2.468   5.510   5.905
 6523SOL     OW20467   1.762   2.092   6.215
 6523SOL    HW120468   1.699   2.015   6.219
 6523SOL    HW220469   1.803   2.105   6.306
 6524SOL     OW20470   3.861   4.021   4.302
 6524SOL    HW120471   3.948   4.020   4.252
 6524SOL    HW220472   3.847   3.933   4.347
 6525SOL     OW20473   0.068   2.792   3.681
 6525SOL    HW120474   0.128   2.863   3.717
 6525SOL    HW220475   7.003   2.834   3.648
 6526SOL     OW20476   1.510   6.148   4.963
 6526SOL    HW120477   1.545   6.176   5.053
 6526SOL    HW220478   1.459   6.063   4.973
 6527SOL     OW20479   1.813   0.896   4.539
 6527SOL    HW120480   1.751   0.882   4.616
 6527SOL    HW220481   1.765   0.945   4.466
 6528SOL     OW20482   6.642   0.985   4.304
 6528SOL    HW120483   6.711   1.050   4.338
 6528SOL    HW220484   6.594   1.025   4.226
 6529SOL     OW20485   6.694   2.417   2.413
 6529SOL    HW120486   6.601   2.402   2.380
 6529SOL    HW220487   6.744   2.474   2.347
 6530SOL     OW20488   7.009   2.077   0.762
 6530SOL    HW120489   0.006   2.171   0.791
 6530SOL    HW220490   0.004   2.070   0.664
 6531SOL     OW20491   4.702   2.802   4.316
 6531SOL    HW120492   4.716   2.780   4.412
 6531SOL    HW220493   4.751   2.886   4.293
 6532SOL     OW20494   0.340   2.053   6.436
 6532SOL    HW120495   0.285   1.969   6.435
 6532SOL    HW220496   0.283   2.131   6.461
 6533SOL     OW20497   4.498   0.370   0.987
 6533SOL    HW120498   4.558   0.427   1.044
 6533SOL    HW220499   4.484   0.282   1.033
 6534SOL     OW20500   2.174   4.056   0.950
 6534SOL    HW120501   2.208   4.150   0.945
 6534SOL    HW220502   2.075   4.056   0.934
 6535SOL     OW20503   0.851   4.062   5.899
 6535SOL    HW120504   0.938   4.052   5.852
 6535SOL    HW220505   0.776   4.043   5.835
 6536SOL     OW20506   6.512   2.599   6.964
 6536SOL    HW120507   6.438   2.594   6.897
 6536SOL    HW220508   6.518   2.512   7.013
 6537SOL     OW20509   1.206   0.104   0.478
 6537SOL    HW120510   1.214   0.021   0.534
 6537SOL    HW220511   1.294   0.124   0.436
 6538SOL     OW20512   2.353   3.119   6.659
 6538SOL    HW120513   2.284   3.156   6.597
 6538SOL    HW220514   2.307   3.075   6.737
 6539SOL     OW20515   2.344   1.899   7.007
 6539SOL    HW120516   2.377   1.855   0.070
 6539SOL    HW220517   2.314   1.829   6.942
 6540SOL     OW20518   3.300   1.273   4.644
 6540SOL    HW120519   3.300   1.174   4.662
 6540SOL    HW220520   3.232   1.294   4.574
 6541SOL     OW20521   1.917   2.369   6.481
 6541SOL    HW120522   1.910   2.269   6.476
 6541SOL    HW220523   1.839   2.410   6.434
 6542SOL     OW20524   5.936   4.498   3.491
 6542SOL    HW120525   6.008   4.505   3.423
 6542SOL    HW220526   5.899   4.404   3.491
 6543SOL     OW20527   6.706   5.958   6.879
 6543SOL    HW120528   6.615   5.926   6.855
 6543SOL    HW220529   6.698   6.042   6.933
 6544SOL     OW20530   6.394   6.609   4.459
 6544SOL    HW120531   6.372   6.670   4.536
 6544SOL    HW220532   6.335   6.631   4.382
 6545SOL     OW20533   4.843   1.843   5.870
 6545SOL    HW120534   4.802   1.790   5.943
 6545SOL    HW220535   4.874   1.782   5.797
 6546SOL     OW20536   3.121   4.308   6.259
 6546SOL    HW120537   3.103   4.311   6.161
 6546SOL    HW220538   3.205   4.256   6.275
 6547SOL     OW20539   4.633   2.312   6.625
 6547SOL    HW120540   4.705   2.360   6.575
 6547SOL    HW220541   4.645   2.326   6.723
 6548SOL     OW20542   6.894   4.946   5.518
 6548SOL    HW120543   6.943   4.898   5.590
 6548SOL    HW220544   6.953   5.019   5.481
 6549SOL     OW20545   3.897   1.557   1.082
 6549SOL    HW120546   3.995   1.557   1.061
 6549SOL    HW220547   3.855   1.475   1.043
 6550SOL     OW20548   0.735   5.852   3.189
 6550SOL    HW120549   0.817   5.799   3.210
 6550SOL    HW220550   0.675   5.799   3.130
 6551SOL     OW20551   2.082   4.725   2.254
 6551SOL    HW120552   2.156   4.674   2.297
 6551SOL    HW220553   2.047   4.675   2.175
 6552SOL     OW20554   2.692   4.963   5.880
 6552SOL    HW120555   2.706   4.972   5.781
 6552SOL    HW220556   2.656   5.049   5.916
 6553SOL     OW20557   0.460   2.965   2.660
 6553SOL    HW120558   0.555   2.979   2.631
 6553SOL    HW220559   0.455   2.967   2.759
 6554SOL     OW20560   0.137   2.669   5.418
 6554SOL    HW120561   0.228   2.634   5.440
 6554SOL    HW220562   0.145   2.751   5.362
 6555SOL     OW20563   0.286   1.371   2.122
 6555SOL    HW120564   0.334   1.412   2.045
 6555SOL    HW220565   0.316   1.276   2.133
 6556SOL     OW20566   4.018   6.626   4.668
 6556SOL    HW120567   4.041   6.687   4.592
 6556SOL    HW220568   4.035   6.673   4.755
 6557SOL     OW20569   6.642   5.437   1.358
 6557SOL    HW120570   6.716   5.437   1.425
 6557SOL    HW220571   6.563   5.487   1.394
 6558SOL     OW20572   6.181   5.675   6.804
 6558SOL    HW120573   6.128   5.727   6.870
 6558SOL    HW220574   6.155   5.579   6.808
 6559SOL     OW20575   4.092   3.450   0.850
 6559SOL    HW120576   4.069   3.430   0.945
 6559SOL    HW220577   4.031   3.399   0.789
 6560SOL     OW20578   3.921   2.429   6.957
 6560SOL    HW120579   3.872   2.344   6.939
 6560SOL    HW220580   3.888   2.469   0.022
 6561SOL     OW20581   4.112   3.618   4.074
 6561SOL    HW120582   4.035   3.567   4.114
 6561SOL    HW220583   4.112   3.605   3.975
 6562SOL     OW20584   6.216   4.185   5.849
 6562SOL    HW120585   6.304   4.150   5.819
 6562SOL    HW220586   6.159   4.206   5.770
 6563SOL     OW20587   1.696   5.432   2.013
 6563SOL    HW120588   1.776   5.482   2.047
 6563SOL    HW220589   1.626   5.496   1.983
 6564SOL     OW20590   1.028   5.551   2.136
 6564SOL    HW120591   1.075   5.491   2.201
 6564SOL    HW220592   0.985   5.496   2.065
 6565SOL     OW20593   6.602   3.073   5.352
 6565SOL    HW120594   6.525   3.083   5.415
 6565SOL    HW220595   6.672   3.016   5.394
 6566SOL     OW20596   3.729   6.864   0.844
 6566SOL    HW120597   3.771   6.908   0.765
 6566SOL    HW220598   3.719   6.766   0.826
 6567SOL     OW20599   5.725   3.040   1.447
 6567SOL    HW120600   5.722   3.006   1.540
 6567SOL    HW220601   5.691   2.970   1.384
 6568SOL     OW20602   3.777   4.376   1.424
 6568SOL    HW120603   3.845   4.393   1.497
 6568SOL    HW220604   3.804   4.296   1.372
 6569SOL     OW20605   0.497   4.475   6.790
 6569SOL    HW120606   0.587   4.497   6.827
 6569SOL    HW220607   0.431   4.468   6.865
 6570SOL     OW20608   6.073   2.363   1.070
 6570SOL    HW120609   6.015   2.283   1.054
 6570SOL    HW220610   6.164   2.347   1.031
 6571SOL     OW20611   2.565   5.600   3.635
 6571SOL    HW120612   2.476   5.634   3.605
 6571SOL    HW220613   2.594   5.526   3.575
 6572SOL     OW20614   0.658   4.217   6.064
 6572SOL    HW120615   0.736   4.172   6.021
 6572SOL    HW220616   0.617   4.282   6.001
 6573SOL     OW20617   1.977   1.655   2.673
 6573SOL    HW120618   2.033   1.737   2.673
 6573SOL    HW220619   2.031   1.577   2.641
 6574SOL     OW20620   2.789   5.255   3.017
 6574SOL    HW120621   2.776   5.241   3.115
 6574SOL    HW220622   2.766   5.171   2.968
 6575SOL     OW20623   0.673   1.811   2.970
 6575SOL    HW120624   0.654   1.800   3.068
 6575SOL    HW220625   0.587   1.809   2.919
 6576SOL     OW20626   0.982   6.189   5.961
 6576SOL    HW120627   1.065   6.208   5.909
 6576SOL    HW220628   0.960   6.092   5.956
 6577SOL     OW20629   6.546   2.561   3.618
 6577SOL    HW120630   6.530   2.482   3.678
 6577SOL    HW220631   6.583   2.529   3.531
 6578SOL     OW20632   6.081   5.160   3.667
 6578SOL    HW120633   6.132   5.075   3.656
 6578SOL    HW220634   5.986   5.139   3.690
 6579SOL     OW20635   0.397   3.875   2.556
 6579SOL    HW120636   0.391   3.813   2.634
 6579SOL    HW220637   0.307   3.916   2.539
 6580SOL     OW20638   6.226   2.471   1.598
 6580SOL    HW120639   6.185   2.385   1.627
 6580SOL    HW220640   6.292   2.453   1.525
 6581SOL     OW20641   2.778   1.544   6.128
 6581SOL    HW120642   2.771   1.451   6.092
 6581SOL    HW220643   2.688   1.577   6.156
 6582SOL     OW20644   6.509   6.879   2.905
 6582SOL    HW120645   6.446   6.873   2.828
 6582SOL    HW220646   6.593   6.926   2.877
 6583SOL     OW20647   5.739   1.594   5.626
 6583SOL    HW120648   5.775   1.619   5.536
 6583SOL    HW220649   5.815   1.570   5.687
 6584SOL     OW20650   5.987   1.725   6.336
 6584SOL    HW120651   6.040   1.759   6.414
 6584SOL    HW220652   5.992   1.790   6.261
 6585SOL     OW20653   1.947   1.144   6.679
 6585SOL    HW120654   1.993   1.124   6.593
 6585SOL    HW220655   1.907   1.235   6.676
 6586SOL     OW20656   6.659   2.550   5.976
 6586SOL    HW120657   6.716   2.614   5.924
 6586SOL    HW220658   6.571   2.539   5.930
 6587SOL     OW20659   2.125   6.474   3.031
 6587SOL    HW120660   2.044   6.438   3.076
 6587SOL    HW220661   2.176   6.399   2.988
 6588SOL     OW20662   1.697   3.005   0.231
 6588SOL    HW120663   1.696   2.984   0.134
 6588SOL    HW220664   1.605   3.029   0.262
 6589SOL     OW20665   4.648   1.565   5.946
 6589SOL    HW120666   4.590   1.639   5.980
 6589SOL    HW220667   4.598   1.479   5.950
 6590SOL     OW20668   0.186   1.273   5.321
 6590SOL    HW120669   0.253   1.208   5.284
 6590SOL    HW220670   0.168   1.345   5.254
 6591SOL     OW20671   5.584   1.084   3.035
 6591SOL    HW120672   5.639   1.090   2.952
 6591SOL    HW220673   5.487   1.075   3.010
 6592SOL     OW20674   4.846   5.896   4.176
 6592SOL    HW120675   4.946   5.905   4.174
 6592SOL    HW220676   4.805   5.969   4.123
 6593SOL     OW20677   3.552   1.000   2.090
 6593SOL    HW120678   3.492   1.072   2.125
 6593SOL    HW220679   3.535   0.915   2.140
 6594SOL     OW20680   5.719   0.649   6.297
 6594SOL    HW120681   5.692   0.746   6.302
 6594SOL    HW220682   5.648   0.593   6.339
 6595SOL     OW20683   1.106   4.043   0.770
 6595SOL    HW120684   1.060   3.976   0.828
 6595SOL    HW220685   1.053   4.054   0.685
 6596SOL     OW20686   3.978   6.991   5.131
 6596SOL    HW120687   4.056   7.002   5.193
 6596SOL    HW220688   3.962   0.057   5.083
 6597SOL     OW20689   6.937   4.661   5.276
 6597SOL    HW120690   6.878   4.628   5.350
 6597SOL    HW220691   0.001   4.607   5.274
 6598SOL     OW20692   1.755   5.977   5.483
 6598SOL    HW120693   1.821   5.979   5.558
 6598SOL    HW220694   1.787   6.034   5.408
 6599SOL     OW20695   4.137   4.236   5.782
 6599SOL    HW120696   4.127   4.292   5.864
 6599SOL    HW220697   4.048   4.200   5.755
 6600SOL     OW20698   4.793   6.124   4.039
 6600SOL    HW120699   4.888   6.119   4.070
 6600SOL    HW220700   4.742   6.187   4.098
 6601SOL     OW20701   1.160   0.376   0.615
 6601SOL    HW120702   1.239   0.432   0.591
 6601SOL    HW220703   1.190   0.281   0.626
 6602SOL     OW20704   6.278   1.633   1.359
 6602SOL    HW120705   6.225   1.682   1.428
 6602SOL    HW220706   6.290   1.538   1.388
 6603SOL     OW20707   2.132   3.620   3.705
 6603SOL    HW120708   2.090   3.676   3.776
 6603SOL    HW220709   2.126   3.524   3.730
 6604SOL     OW20710   3.491   5.689   2.602
 6604SOL    HW120711   3.509   5.785   2.625
 6604SOL    HW220712   3.532   5.630   2.672
 6605SOL     OW20713   5.809   6.302   0.015
 6605SOL    HW120714   5.769   6.217   0.049
 6605SOL    HW220715   5.886   6.328   0.074
 6606SOL     OW20716   5.027   0.856   2.747
 6606SOL    HW120717   5.050   0.953   2.754
 6606SOL    HW220718   5.109   0.800   2.764
 6607SOL     OW20719   1.016   2.358   3.038
 6607SOL    HW120720   0.936   2.411   3.065
 6607SOL    HW220721   0.991   2.261   3.032
 6608SOL     OW20722   5.848   3.713   4.220
 6608SOL    HW120723   5.911   3.718   4.298
 6608SOL    HW220724   5.771   3.652   4.243
 6609SOL     OW20725   5.619   1.822   6.733
 6609SOL    HW120726   5.593   1.785   6.643
 6609SOL    HW220727   5.561   1.782   6.803
 6610SOL     OW20728   2.631   0.846   0.058
 6610SOL    HW120729   2.542   0.851   0.014
 6610SOL    HW220730   2.699   0.809   7.014
 6611SOL     OW20731   5.585   3.091   2.816
 6611SOL    HW120732   5.520   3.165   2.832
 6611SOL    HW220733   5.647   3.084   2.895
 6612SOL     OW20734   1.684   6.490   6.749
 6612SOL    HW120735   1.740   6.503   6.667
 6612SOL    HW220736   1.604   6.550   6.745
 6613SOL     OW20737   4.850   5.346   1.715
 6613SOL    HW120738   4.945   5.375   1.728
 6613SOL    HW220739   4.826   5.353   1.618
 6614SOL     OW20740   5.701   5.834   6.142
 6614SOL    HW120741   5.637   5.887   6.198
 6614SOL    HW220742   5.701   5.738   6.173
 6615SOL     OW20743   1.063   4.126   5.063
 6615SOL    HW120744   1.157   4.104   5.089
 6615SOL    HW220745   1.013   4.160   5.142
 6616SOL     OW20746   4.680   0.435   4.754
 6616SOL    HW120747   4.777   0.453   4.765
 6616SOL    HW220748   4.667   0.351   4.701
 6617SOL     OW20749   3.668   0.355   5.417
 6617SOL    HW120750   3.649   0.286   5.348
 6617SOL    HW220751   3.702   0.438   5.373
 6618SOL     OW20752   1.035   4.467   1.568
 6618SOL    HW120753   0.945   4.510   1.578
 6618SOL    HW220754   1.025   4.368   1.569
 6619SOL     OW20755   4.847   5.790   2.586
 6619SOL    HW120756   4.874   5.882   2.558
 6619SOL    HW220757   4.905   5.760   2.662
 6620SOL     OW20758   2.179   2.628   5.514
 6620SOL    HW120759   2.243   2.552   5.527
 6620SOL    HW220760   2.088   2.601   5.545
 6621SOL     OW20761   2.455   3.808   0.133
 6621SOL    HW120762   2.551   3.782   0.142
 6621SOL    HW220763   2.438   3.891   0.185
 6622SOL     OW20764   0.171   6.709   0.444
 6622SOL    HW120765   0.082   6.755   0.448
 6622SOL    HW220766   0.206   6.712   0.350
 6623SOL     OW20767   3.679   3.562   1.877
 6623SOL    HW120768   3.641   3.635   1.933
 6623SOL    HW220769   3.606   3.501   1.848
 6624SOL     OW20770   3.958   4.925   4.197
 6624SOL    HW120771   3.861   4.900   4.204
 6624SOL    HW220772   3.997   4.884   4.115
 6625SOL     OW20773   6.662   0.761   0.554
 6625SOL    HW120774   6.581   0.788   0.503
 6625SOL    HW220775   6.648   0.779   0.652
 6626SOL     OW20776   3.347   4.867   3.434
 6626SOL    HW120777   3.362   4.790   3.496
 6626SOL    HW220778   3.362   4.837   3.339
 6627SOL     OW20779   1.950   6.282   1.297
 6627SOL    HW120780   2.020   6.323   1.239
 6627SOL    HW220781   1.878   6.350   1.314
 6628SOL     OW20782   3.837   5.824   2.981
 6628SOL    HW120783   3.882   5.864   2.901
 6628SOL    HW220784   3.900   5.763   3.028
 6629SOL     OW20785   3.587   4.582   0.357
 6629SOL    HW120786   3.608   4.581   0.259
 6629SOL    HW220787   3.488   4.575   0.369
 6630SOL     OW20788   3.101   2.231   6.789
 6630SOL    HW120789   3.117   2.229   6.887
 6630SOL    HW220790   3.172   2.179   6.742
 6631SOL     OW20791   4.662   0.667   2.246
 6631SOL    HW120792   4.728   0.725   2.199
 6631SOL    HW220793   4.660   0.690   2.343
 6632SOL     OW20794   6.773   1.717   2.015
 6632SOL    HW120795   6.748   1.740   1.921
 6632SOL    HW220796   6.749   1.622   2.034
 6633SOL     OW20797   0.817   0.177   1.053
 6633SOL    HW120798   0.866   0.092   1.034
 6633SOL    HW220799   0.795   0.182   1.151
 6634SOL     OW20800   6.814   3.076   5.947
 6634SOL    HW120801   6.804   3.170   5.980
 6634SOL    HW220802   6.786   3.013   6.018
 6635SOL     OW20803   4.768   4.170   3.268
 6635SOL    HW120804   4.699   4.222   3.217
 6635SOL    HW220805   4.840   4.233   3.298
 6636SOL     OW20806   2.186   2.471   3.862
 6636SOL    HW120807   2.107   2.421   3.828
 6636SOL    HW220808   2.156   2.540   3.929
 6637SOL     OW20809   6.480   1.002   0.855
 6637SOL    HW120810   6.474   1.049   0.943
 6637SOL    HW220811   6.573   1.011   0.819
 6638SOL     OW20812   2.513   5.844   5.970
 6638SOL    HW120813   2.526   5.819   5.874
 6638SOL    HW220814   2.602   5.850   6.015
 6639SOL     OW20815   5.792   5.682   6.971
 6639SOL    HW120816   5.755   5.706   6.881
 6639SOL    HW220817   5.731   5.716   0.022
 6640SOL     OW20818   5.846   3.292   3.298
 6640SOL    HW120819   5.805   3.202   3.286
 6640SOL    HW220820   5.798   3.359   3.240
 6641SOL     OW20821   1.793   4.306   6.019
 6641SOL    HW120822   1.705   4.316   6.064
 6641SOL    HW220823   1.814   4.388   5.966
 6642SOL     OW20824   0.407   6.190   0.261
 6642SOL    HW120825   0.361   6.270   0.223
 6642SOL    HW220826   0.427   6.125   0.187
 6643SOL     OW20827   4.847   4.492   6.968
 6643SOL    HW120828   4.880   4.462   0.038
 6643SOL    HW220829   4.882   4.431   6.898
 6644SOL     OW20830   3.150   4.921   2.066
 6644SOL    HW120831   3.205   4.838   2.054
 6644SOL    HW220832   3.054   4.899   2.052
 6645SOL     OW20833   0.680   5.262   5.763
 6645SOL    HW120834   0.631   5.332   5.712
 6645SOL    HW220835   0.725   5.303   5.842
 6646SOL     OW20836   2.478   5.933   3.909
 6646SOL    HW120837   2.512   5.998   3.978
 6646SOL    HW220838   2.525   5.845   3.920
 6647SOL     OW20839   3.166   1.880   2.112
 6647SOL    HW120840   3.140   1.879   2.209
 6647SOL    HW220841   3.097   1.832   2.058
 6648SOL     OW20842   4.986   5.480   2.282
 6648SOL    HW120843   4.957   5.525   2.197
 6648SOL    HW220844   4.999   5.383   2.266
 6649SOL     OW20845   3.846   2.442   6.542
 6649SOL    HW120846   3.837   2.506   6.466
 6649SOL    HW220847   3.901   2.483   6.614
 6650SOL     OW20848   3.196   1.979   2.796
 6650SOL    HW120849   3.260   1.933   2.858
 6650SOL    HW220850   3.125   1.915   2.768
 6651SOL     OW20851   1.087   2.659   6.422
 6651SOL    HW120852   1.147   2.735   6.446
 6651SOL    HW220853   1.112   2.579   6.477
 6652SOL     OW20854   6.880   5.502   3.208
 6652SOL    HW120855   6.927   5.563   3.145
 6652SOL    HW220856   6.816   5.555   3.264
 6653SOL     OW20857   3.480   3.503   3.753
 6653SOL    HW120858   3.512   3.482   3.845
 6653SOL    HW220859   3.446   3.597   3.750
 6654SOL     OW20860   2.142   3.330   1.765
 6654SOL    HW120861   2.176   3.372   1.850
 6654SOL    HW220862   2.187   3.242   1.751
 6655SOL     OW20863   2.626   6.178   1.380
 6655SOL    HW120864   2.691   6.223   1.441
 6655SOL    HW220865   2.537   6.170   1.425
 6656SOL     OW20866   6.384   2.590   1.199
 6656SOL    HW120867   6.363   2.556   1.107
 6656SOL    HW220868   6.483   2.597   1.210
 6657SOL     OW20869   2.995   6.548   6.569
 6657SOL    HW120870   3.077   6.495   6.545
 6657SOL    HW220871   2.950   6.580   6.486
 6658SOL     OW20872   5.086   0.881   5.713
 6658SOL    HW120873   5.048   0.797   5.752
 6658SOL    HW220874   5.102   0.868   5.615
 6659SOL     OW20875   1.600   2.973   6.703
 6659SOL    HW120876   1.543   2.907   6.654
 6659SOL    HW220877   1.574   3.066   6.675
 6660SOL     OW20878   6.852   6.633   3.227
 6660SOL    HW120879   6.924   6.703   3.223
 6660SOL    HW220880   6.765   6.672   3.199
 6661SOL     OW20881   0.643   6.138   3.735
 6661SOL    HW120882   0.636   6.044   3.701
 6661SOL    HW220883   0.701   6.191   3.673
 6662SOL     OW20884   1.603   2.438   0.249
 6662SOL    HW120885   1.506   2.448   0.269
 6662SOL    HW220886   1.637   2.520   0.203
 6663SOL     OW20887   0.533   5.466   2.529
 6663SOL    HW120888   0.464   5.503   2.591
 6663SOL    HW220889   0.489   5.410   2.459
 6664SOL     OW20890   1.092   1.335   3.177
 6664SOL    HW120891   1.114   1.238   3.171
 6664SOL    HW220892   1.125   1.371   3.264
 6665SOL     OW20893   2.560   6.807   3.015
 6665SOL    HW120894   2.540   6.731   2.953
 6665SOL    HW220895   2.592   6.770   3.103
 6666SOL     OW20896   6.652   0.614   7.018
 6666SOL    HW120897   6.750   0.628   0.010
 6666SOL    HW220898   6.603   0.644   0.079
 6667SOL     OW20899   6.708   4.307   4.834
 6667SOL    HW120900   6.745   4.215   4.845
 6667SOL    HW220901   6.735   4.344   4.745
 6668SOL     OW20902   0.827   4.723   1.563
 6668SOL    HW120903   0.817   4.823   1.571
 6668SOL    HW220904   0.780   4.678   1.639
 6669SOL     OW20905   2.365   5.979   2.750
 6669SOL    HW120906   2.336   6.045   2.681
 6669SOL    HW220907   2.443   5.926   2.716
 6670SOL     OW20908   3.861   4.694   0.253
 6670SOL    HW120909   3.895   4.787   0.261
 6670SOL    HW220910   3.833   4.661   0.343
 6671SOL     OW20911   6.879   2.956   4.714
 6671SOL    HW120912   6.850   2.904   4.633
 6671SOL    HW220913   6.842   2.912   4.796
 6672SOL     OW20914   1.476   1.211   5.467
 6672SOL    HW120915   1.493   1.309   5.455
 6672SOL    HW220916   1.463   1.192   5.565
 6673SOL     OW20917   4.414   4.658   1.398
 6673SOL    HW120918   4.486   4.600   1.439
 6673SOL    HW220919   4.456   4.721   1.333
 6674SOL     OW20920   0.844   6.823   3.968
 6674SOL    HW120921   0.794   6.739   3.988
 6674SOL    HW220922   0.824   6.853   3.875
 6675SOL     OW20923   5.864   4.874   0.427
 6675SOL    HW120924   5.959   4.905   0.430
 6675SOL    HW220925   5.856   4.788   0.478
 6676SOL     OW20926   0.963   2.584   5.864
 6676SOL    HW120927   1.003   2.631   5.786
 6676SOL    HW220928   1.029   2.578   5.938
 6677SOL     OW20929   0.294   3.460   0.365
 6677SOL    HW120930   0.342   3.507   0.290
 6677SOL    HW220931   0.226   3.398   0.326
 6678SOL     OW20932   0.969   3.018   5.514
 6678SOL    HW120933   1.054   3.066   5.494
 6678SOL    HW220934   0.899   3.085   5.540
 6679SOL     OW20935   1.631   1.954   4.323
 6679SOL    HW120936   1.697   1.963   4.397
 6679SOL    HW220937   1.644   1.866   4.278
 6680SOL     OW20938   2.885   6.667   6.355
 6680SOL    HW120939   2.892   6.667   6.256
 6680SOL    HW220940   2.885   6.762   6.389
 6681SOL     OW20941   5.152   4.816   0.414
 6681SOL    HW120942   5.212   4.888   0.380
 6681SOL    HW220943   5.059   4.830   0.379
 6682SOL     OW20944   0.105   6.735   1.961
 6682SOL    HW120945   0.152   6.824   1.966
 6682SOL    HW220946   0.013   6.748   1.925
 6683SOL     OW20947   5.228   1.946   3.833
 6683SOL    HW120948   5.302   1.889   3.868
 6683SOL    HW220949   5.267   2.023   3.782
 6684SOL     OW20950   1.888   0.078   2.957
 6684SOL    HW120951   1.987   0.091   2.946
 6684SOL    HW220952   1.871   0.002   3.018
 6685SOL     OW20953   4.942   3.811   6.365
 6685SOL    HW120954   5.033   3.797   6.325
 6685SOL    HW220955   4.919   3.733   6.422
 6686SOL     OW20956   6.498   3.729   3.690
 6686SOL    HW120957   6.401   3.749   3.676
 6686SOL    HW220958   6.507   3.652   3.754
 6687SOL     OW20959   1.080   2.119   0.449
 6687SOL    HW120960   1.159   2.064   0.474
 6687SOL    HW220961   1.009   2.108   0.519
 6688SOL     OW20962   0.785   5.140   2.531
 6688SOL    HW120963   0.756   5.054   2.489
 6688SOL    HW220964   0.816   5.204   2.460
 6689SOL     OW20965   4.490   4.891   6.950
 6689SOL    HW120966   4.417   4.860   6.889
 6689SOL    HW220967   4.532   4.812   6.994
 6690SOL     OW20968   1.871   2.586   1.007
 6690SOL    HW120969   1.964   2.623   1.008
 6690SOL    HW220970   1.875   2.486   0.999
 6691SOL     OW20971   2.231   4.552   1.643
 6691SOL    HW120972   2.159   4.574   1.578
 6691SOL    HW220973   2.255   4.455   1.635
 6692SOL     OW20974   3.287   4.061   5.716
 6692SOL    HW120975   3.204   4.080   5.768
 6692SOL    HW220976   3.273   3.982   5.657
 6693SOL     OW20977   4.145   3.500   5.245
 6693SOL    HW120978   4.119   3.501   5.341
 6693SOL    HW220979   4.139   3.593   5.208
 6694SOL     OW20980   3.361   5.955   1.127
 6694SOL    HW120981   3.368   5.888   1.200
 6694SOL    HW220982   3.283   5.933   1.069
 6695SOL     OW20983   1.557   2.324   6.905
 6695SOL    HW120984   1.474   2.348   6.954
 6695SOL    HW220985   1.637   2.356   6.957
 6696SOL     OW20986   2.239   3.089   1.676
 6696SOL    HW120987   2.175   3.015   1.655
 6696SOL    HW220988   2.318   3.084   1.615
 6697SOL     OW20989   4.858   1.504   3.122
 6697SOL    HW120990   4.806   1.472   3.043
 6697SOL    HW220991   4.813   1.474   3.206
 6698SOL     OW20992   3.952   3.302   0.212
 6698SOL    HW120993   3.995   3.269   0.128
 6698SOL    HW220994   4.012   3.286   0.290
 6699SOL     OW20995   1.108   3.991   6.886
 6699SOL    HW120996   1.207   4.000   6.879
 6699SOL    HW220997   1.070   3.976   6.795
 6700SOL     OW20998   6.765   5.963   0.537
 6700SOL    HW120999   6.818   6.044   0.562
 6700SOL    HW221000   6.752   5.906   0.619
 6701SOL     OW21001   0.632   1.903   0.613
 6701SOL    HW121002   0.553   1.917   0.673
 6701SOL    HW221003   0.601   1.874   0.523
 6702SOL     OW21004   3.057   1.826   1.417
 6702SOL    HW121005   3.116   1.869   1.349
 6702SOL    HW221006   3.080   1.860   1.508
 6703SOL     OW21007   0.368   1.895   0.017
 6703SOL    HW121008   0.334   1.987   7.018
 6703SOL    HW221009   0.436   1.869   6.969
 6704SOL     OW21010   5.080   1.787   2.259
 6704SOL    HW121011   5.118   1.718   2.197
 6704SOL    HW221012   5.135   1.790   2.342
 6705SOL     OW21013   5.568   1.533   0.191
 6705SOL    HW121014   5.586   1.497   0.282
 6705SOL    HW221015   5.654   1.540   0.140
 6706SOL     OW21016   0.522   4.601   6.193
 6706SOL    HW121017   0.546   4.544   6.272
 6706SOL    HW221018   0.456   4.671   6.221
 6707SOL     OW21019   1.417   6.419   2.498
 6707SOL    HW121020   1.346   6.348   2.490
 6707SOL    HW221021   1.374   6.509   2.502
 6708SOL     OW21022   2.206   5.984   1.237
 6708SOL    HW121023   2.266   5.945   1.167
 6708SOL    HW221024   2.260   6.043   1.297
 6709SOL     OW21025   4.350   1.487   2.945
 6709SOL    HW121026   4.411   1.539   2.885
 6709SOL    HW221027   4.353   1.390   2.920
 6710SOL     OW21028   3.032   2.699   0.779
 6710SOL    HW121029   3.096   2.774   0.795
 6710SOL    HW221030   3.054   2.655   0.692
 6711SOL     OW21031   3.861   4.083   0.711
 6711SOL    HW121032   3.954   4.067   0.745
 6711SOL    HW221033   3.853   4.047   0.618
 6712SOL     OW21034   3.437   5.766   0.344
 6712SOL    HW121035   3.401   5.676   0.322
 6712SOL    HW221036   3.535   5.769   0.329
 6713SOL     OW21037   2.030   1.933   2.261
 6713SOL    HW121038   2.111   1.972   2.305
 6713SOL    HW221039   2.029   1.834   2.273
 6714SOL     OW21040   6.400   0.533   4.085
 6714SOL    HW121041   6.358   0.612   4.130
 6714SOL    HW221042   6.329   0.472   4.051
 6715SOL     OW21043   0.626   1.551   1.166
 6715SOL    HW121044   0.646   1.567   1.263
 6715SOL    HW221045   0.693   1.486   1.129
 6716SOL     OW21046   2.204   6.004   0.291
 6716SOL    HW121047   2.185   5.910   0.320
 6716SOL    HW221048   2.236   6.058   0.369
 6717SOL     OW21049   3.304   1.800   6.869
 6717SOL    HW121050   3.242   1.739   6.818
 6717SOL    HW221051   3.313   1.768   6.963
 6718SOL     OW21052   3.529   6.876   0.243
 6718SOL    HW121053   3.589   6.831   0.177
 6718SOL    HW221054   3.452   6.919   0.195
 6719SOL     OW21055   0.227   0.400   5.573
 6719SOL    HW121056   0.212   0.396   5.474
 6719SOL    HW221057   0.309   0.454   5.592
 6720SOL     OW21058   2.168   4.967   2.051
 6720SOL    HW121059   2.259   4.936   2.022
 6720SOL    HW221060   2.117   4.889   2.086
 6721SOL     OW21061   5.888   6.451   3.579
 6721SOL    HW121062   5.873   6.480   3.673
 6721SOL    HW221063   5.802   6.416   3.541
 6722SOL     OW21064   4.567   3.566   7.007
 6722SOL    HW121065   4.552   3.642   0.049
 6722SOL    HW221066   4.503   3.492   0.008
 6723SOL     OW21067   4.081   6.309   1.859
 6723SOL    HW121068   4.175   6.298   1.827
 6723SOL    HW221069   4.063   6.406   1.877
 6724SOL     OW21070   3.098   5.067   5.425
 6724SOL    HW121071   3.147   4.998   5.371
 6724SOL    HW221072   3.006   5.078   5.389
 6725SOL     OW21073   0.577   4.829   2.326
 6725SOL    HW121074   0.670   4.862   2.343
 6725SOL    HW221075   0.582   4.736   2.287
 6726SOL     OW21076   2.393   1.922   2.795
 6726SOL    HW121077   2.480   1.967   2.812
 6726SOL    HW221078   2.321   1.964   2.850
 6727SOL     OW21079   3.946   3.877   6.710
 6727SOL    HW121080   4.043   3.893   6.689
 6727SOL    HW221081   3.916   3.942   6.780
 6728SOL     OW21082   4.211   0.920   3.918
 6728SOL    HW121083   4.289   0.962   3.872
 6728SOL    HW221084   4.242   0.880   4.005
 6729SOL     OW21085   5.675   0.015   2.123
 6729SOL    HW121086   5.632   0.104   2.139
 6729SOL    HW221087   5.647   7.000   2.034
 6730SOL     OW21088   1.610   0.579   0.370
 6730SOL    HW121089   1.549   0.571   0.290
 6730SOL    HW221090   1.686   0.639   0.347
 6731SOL     OW21091   2.750   4.871   2.044
 6731SOL    HW121092   2.746   4.771   2.042
 6731SOL    HW221093   2.740   4.906   1.951
 6732SOL     OW21094   2.242   4.637   1.298
 6732SOL    HW121095   2.181   4.615   1.375
 6732SOL    HW221096   2.227   4.731   1.269
 6733SOL     OW21097   5.483   5.952   5.845
 6733SOL    HW121098   5.412   5.892   5.807
 6733SOL    HW221099   5.440   6.030   5.891
 6734SOL     OW21100   2.110   3.319   5.881
 6734SOL    HW121101   2.136   3.264   5.802
 6734SOL    HW221102   2.166   3.295   5.959
 6735SOL     OW21103   0.109   5.036   5.926
 6735SOL    HW121104   0.189   4.977   5.938
 6735SOL    HW221105   0.071   5.059   6.016
 6736SOL     OW21106   2.103   3.530   2.667
 6736SOL    HW121107   2.135   3.440   2.638
 6736SOL    HW221108   2.061   3.577   2.589
 6737SOL     OW21109   2.470   0.969   0.858
 6737SOL    HW121110   2.526   0.962   0.776
 6737SOL    HW221111   2.432   1.061   0.864
 6738SOL     OW21112   3.181   1.315   2.032
 6738SOL    HW121113   3.254   1.258   1.994
 6738SOL    HW221114   3.116   1.257   2.081
 6739SOL     OW21115   4.042   6.255   4.879
 6739SOL    HW121116   4.072   6.258   4.784
 6739SOL    HW221117   4.050   6.346   4.919
 6740SOL     OW21118   6.240   2.478   4.054
 6740SOL    HW121119   6.318   2.507   3.998
 6740SOL    HW221120   6.174   2.553   4.060
 6741SOL     OW21121   6.771   0.084   6.616
 6741SOL    HW121122   6.683   0.111   6.575
 6741SOL    HW221123   6.842   0.147   6.585
 6742SOL     OW21124   6.481   6.014   5.689
 6742SOL    HW121125   6.444   6.023   5.782
 6742SOL    HW221126   6.554   6.080   5.675
 6743SOL     OW21127   4.846   3.386   1.044
 6743SOL    HW121128   4.941   3.414   1.057
 6743SOL    HW221129   4.789   3.467   1.027
 6744SOL     OW21130   4.757   5.043   5.855
 6744SOL    HW121131   4.824   5.043   5.781
 6744SOL    HW221132   4.773   4.964   5.915
 6745SOL     OW21133   6.914   4.103   3.661
 6745SOL    HW121134   6.888   4.016   3.704
 6745SOL    HW221135   6.831   4.153   3.634
 6746SOL     OW21136   0.147   1.514   1.066
 6746SOL    HW121137   0.245   1.530   1.066
 6746SOL    HW221138   0.120   1.466   0.982
 6747SOL     OW21139   5.735   6.331   5.894
 6747SOL    HW121140   5.703   6.414   5.938
 6747SOL    HW221141   5.833   6.319   5.911
 6748SOL     OW21142   0.223   0.294   1.786
 6748SOL    HW121143   0.179   0.261   1.703
 6748SOL    HW221144   0.238   0.218   1.849
 6749SOL     OW21145   3.413   6.574   1.008
 6749SOL    HW121146   3.483   6.642   1.030
 6749SOL    HW221147   3.453   6.482   1.015
 6750SOL     OW21148   2.626   3.203   5.376
 6750SOL    HW121149   2.559   3.242   5.439
 6750SOL    HW221150   2.579   3.153   5.304
 6751SOL     OW21151   3.241   2.033   5.468
 6751SOL    HW121152   3.254   2.092   5.548
 6751SOL    HW221153   3.278   2.077   5.387
 6752SOL     OW21154   6.229   2.017   7.016
 6752SOL    HW121155   6.255   1.970   0.080
 6752SOL    HW221156   6.140   2.061   0.008
 6753SOL     OW21157   5.127   2.198   6.348
 6753SOL    HW121158   5.139   2.296   6.340
 6753SOL    HW221159   5.192   2.160   6.413
 6754SOL     OW21160   5.878   0.514   0.099
 6754SOL    HW121161   5.915   0.506   0.191
 6754SOL    HW221162   5.819   0.436   0.079
 6755SOL     OW21163   4.774   1.738   3.326
 6755SOL    HW121164   4.795   1.834   3.341
 6755SOL    HW221165   4.843   1.681   3.370
 6756SOL     OW21166   5.077   4.141   3.976
 6756SOL    HW121167   4.978   4.131   3.980
 6756SOL    HW221168   5.117   4.112   4.063
 6757SOL     OW21169   5.421   5.465   2.036
 6757SOL    HW121170   5.471   5.392   2.082
 6757SOL    HW221171   5.412   5.543   2.097
 6758SOL     OW21172   5.431   2.066   3.111
 6758SOL    HW121173   5.342   2.022   3.096
 6758SOL    HW221174   5.492   2.002   3.158
 6759SOL     OW21175   0.429   4.878   3.725
 6759SOL    HW121176   0.434   4.778   3.722
 6759SOL    HW221177   0.352   4.909   3.669
 6760SOL     OW21178   0.301   4.573   4.874
 6760SOL    HW121179   0.361   4.652   4.866
 6760SOL    HW221180   0.211   4.601   4.908
 6761SOL     OW21181   5.829   3.499   6.551
 6761SOL    HW121182   5.885   3.470   6.629
 6761SOL    HW221183   5.885   3.554   6.489
 6762SOL     OW21184   5.656   5.218   3.977
 6762SOL    HW121185   5.616   5.178   4.059
 6762SOL    HW221186   5.661   5.318   3.988
 6763SOL     OW21187   5.324   6.151   5.933
 6763SOL    HW121188   5.227   6.129   5.919
 6763SOL    HW221189   5.337   6.250   5.927
 6764SOL     OW21190   2.243   3.650   6.801
 6764SOL    HW121191   2.209   3.673   6.892
 6764SOL    HW221192   2.305   3.571   6.807
 6765SOL     OW21193   4.900   4.980   2.645
 6765SOL    HW121194   4.870   4.951   2.736
 6765SOL    HW221195   4.879   4.908   2.578
 6766SOL     OW21196   1.361   1.142   5.210
 6766SOL    HW121197   1.262   1.134   5.195
 6766SOL    HW221198   1.378   1.168   5.305
 6767SOL     OW21199   1.172   2.498   6.004
 6767SOL    HW121200   1.160   2.414   6.056
 6767SOL    HW221201   1.264   2.501   5.965
 6768SOL     OW21202   0.077   0.378   5.794
 6768SOL    HW121203   0.137   0.378   5.714
 6768SOL    HW221204   0.084   0.466   5.840
 6769SOL     OW21205   1.687   3.028   6.406
 6769SOL    HW121206   1.655   3.000   6.315
 6769SOL    HW221207   1.682   2.949   6.467
 6770SOL     OW21208   0.011   1.465   3.915
 6770SOL    HW121209   6.968   1.389   3.933
 6770SOL    HW221210   0.088   1.431   3.862
 6771SOL     OW21211   3.695   1.268   2.291
 6771SOL    HW121212   3.605   1.265   2.247
 6771SOL    HW221213   3.695   1.335   2.365
 6772SOL     OW21214   0.544   1.220   1.787
 6772SOL    HW121215   0.605   1.215   1.866
 6772SOL    HW221216   0.540   1.130   1.743
 6773SOL     OW21217   1.100   0.898   1.516
 6773SOL    HW121218   1.138   0.823   1.460
 6773SOL    HW221219   1.080   0.976   1.457
 6774SOL     OW21220   2.861   1.411   5.324
 6774SOL    HW121221   2.842   1.463   5.407
 6774SOL    HW221222   2.875   1.475   5.248
 6775SOL     OW21223   0.663   2.827   4.996
 6775SOL    HW121224   0.729   2.837   4.921
 6775SOL    HW221225   0.655   2.913   5.046
 6776SOL     OW21226   3.420   3.764   3.465
 6776SOL    HW121227   3.343   3.802   3.413
 6776SOL    HW221228   3.504   3.772   3.411
 6777SOL     OW21229   0.145   6.250   6.749
 6777SOL    HW121230   0.137   6.346   6.775
 6777SOL    HW221231   0.216   6.206   6.804
 6778SOL     OW21232   5.744   5.861   2.064
 6778SOL    HW121233   5.702   5.773   2.086
 6778SOL    HW221234   5.774   5.905   2.148
 6779SOL     OW21235   5.032   4.330   6.540
 6779SOL    HW121236   4.992   4.239   6.527
 6779SOL    HW221237   4.972   4.385   6.597
 6780SOL     OW21238   3.276   1.003   2.276
 6780SOL    HW121239   3.251   0.947   2.355
 6780SOL    HW221240   3.201   1.065   2.254
 6781SOL     OW21241   5.771   2.788   2.995
 6781SOL    HW121242   5.868   2.799   3.016
 6781SOL    HW221243   5.719   2.785   3.080
 6782SOL     OW21244   0.030   1.950   3.352
 6782SOL    HW121245   6.959   1.934   3.389
 6782SOL    HW221246   0.036   1.911   3.260
 6783SOL     OW21247   0.443   6.049   6.002
 6783SOL    HW121248   0.412   6.118   6.067
 6783SOL    HW221249   0.364   6.013   5.952
 6784SOL     OW21250   1.648   4.142   1.141
 6784SOL    HW121251   1.641   4.235   1.178
 6784SOL    HW221252   1.572   4.125   1.078
 6785SOL     OW21253   5.207   5.027   3.923
 6785SOL    HW121254   5.237   5.062   4.012
 6785SOL    HW221255   5.284   4.983   3.877
 6786SOL     OW21256   6.271   2.276   5.566
 6786SOL    HW121257   6.205   2.202   5.555
 6786SOL    HW221258   6.342   2.248   5.630
 6787SOL     OW21259   3.073   1.742   0.289
 6787SOL    HW121260   3.036   1.651   0.270
 6787SOL    HW221261   3.130   1.738   0.371
 6788SOL     OW21262   0.654   4.404   1.311
 6788SOL    HW121263   0.586   4.463   1.267
 6788SOL    HW221264   0.691   4.340   1.243
 6789SOL     OW21265   5.980   4.994   2.700
 6789SOL    HW121266   6.006   4.968   2.792
 6789SOL    HW221267   5.934   5.083   2.702
 6790SOL     OW21268   0.540   5.985   0.119
 6790SOL    HW121269   0.628   5.974   0.072
 6790SOL    HW221270   0.541   5.933   0.205
 6791SOL     OW21271   2.563   6.630   3.567
 6791SOL    HW121272   2.659   6.654   3.554
 6791SOL    HW221273   2.518   6.625   3.478
 6792SOL     OW21274   3.986   0.181   6.212
 6792SOL    HW121275   4.034   0.216   6.132
 6792SOL    HW221276   3.986   0.251   6.284
 6793SOL     OW21277   2.082   3.390   6.174
 6793SOL    HW121278   2.014   3.319   6.192
 6793SOL    HW221279   2.037   3.474   6.144
 6794SOL     OW21280   5.930   2.543   4.910
 6794SOL    HW121281   5.879   2.628   4.907
 6794SOL    HW221282   5.917   2.492   4.825
 6795SOL     OW21283   1.483   0.983   1.554
 6795SOL    HW121284   1.417   0.909   1.547
 6795SOL    HW221285   1.560   0.954   1.611
 6796SOL     OW21286   6.810   1.762   2.705
 6796SOL    HW121287   6.718   1.728   2.725
 6796SOL    HW221288   6.872   1.737   2.780
 6797SOL     OW21289   1.197   3.126   1.171
 6797SOL    HW121290   1.220   3.078   1.256
 6797SOL    HW221291   1.161   3.061   1.105
 6798SOL     OW21292   4.944   1.168   2.267
 6798SOL    HW121293   4.865   1.184   2.208
 6798SOL    HW221294   5.027   1.202   2.222
 6799SOL     OW21295   6.382   6.927   3.130
 6799SOL    HW121296   6.283   6.932   3.119
 6799SOL    HW221297   6.424   6.899   3.043
 6800SOL     OW21298   6.666   3.199   1.463
 6800SOL    HW121299   6.731   3.243   1.524
 6800SOL    HW221300   6.604   3.141   1.516
 6801SOL     OW21301   0.887   6.231   6.352
 6801SOL    HW121302   0.928   6.193   6.434
 6801SOL    HW221303   0.809   6.175   6.324
 6802SOL     OW21304   2.924   4.731   1.715
 6802SOL    HW121305   3.018   4.758   1.739
 6802SOL    HW221306   2.892   4.661   1.779
 6803SOL     OW21307   5.272   5.716   6.415
 6803SOL    HW121308   5.264   5.720   6.315
 6803SOL    HW221309   5.306   5.626   6.442
 6804SOL     OW21310   3.711   5.201   1.972
 6804SOL    HW121311   3.652   5.256   2.032
 6804SOL    HW221312   3.729   5.251   1.887
 6805SOL     OW21313   0.931   4.052   4.342
 6805SOL    HW121314   0.839   4.044   4.381
 6805SOL    HW221315   0.933   4.127   4.277
 6806SOL     OW21316   6.143   3.196   1.791
 6806SOL    HW121317   6.185   3.108   1.812
 6806SOL    HW221318   6.209   3.255   1.744
 6807SOL     OW21319   3.432   4.132   2.740
 6807SOL    HW121320   3.392   4.139   2.648
 6807SOL    HW221321   3.530   4.113   2.732
 6808SOL     OW21322   3.346   0.543   3.409
 6808SOL    HW121323   3.339   0.605   3.331
 6808SOL    HW221324   3.419   0.477   3.391
 6809SOL     OW21325   5.672   3.163   0.249
 6809SOL    HW121326   5.714   3.254   0.243
 6809SOL    HW221327   5.610   3.159   0.327
 6810SOL     OW21328   2.785   0.477   4.533
 6810SOL    HW121329   2.828   0.525   4.457
 6810SOL    HW221330   2.784   0.379   4.513
 6811SOL     OW21331   6.483   1.563   1.035
 6811SOL    HW121332   6.573   1.549   0.993
 6811SOL    HW221333   6.495   1.609   1.123
 6812SOL     OW21334   3.182   4.856   5.260
 6812SOL    HW121335   3.172   4.884   5.164
 6812SOL    HW221336   3.140   4.767   5.274
 6813SOL     OW21337   0.389   4.152   2.357
 6813SOL    HW121338   0.325   4.082   2.325
 6813SOL    HW221339   0.396   4.225   2.289
 6814SOL     OW21340   6.007   1.289   0.555
 6814SOL    HW121341   6.099   1.301   0.593
 6814SOL    HW221342   5.941   1.283   0.629
 6815SOL     OW21343   0.811   5.875   6.589
 6815SOL    HW121344   0.724   5.831   6.567
 6815SOL    HW221345   0.884   5.807   6.584
 6816SOL     OW21346   6.887   0.123   4.290
 6816SOL    HW121347   6.987   0.116   4.286
 6816SOL    HW221348   6.862   0.205   4.341
 6817SOL     OW21349   4.461   2.109   1.209
 6817SOL    HW121350   4.422   2.181   1.265
 6817SOL    HW221351   4.459   2.136   1.113
 6818SOL     OW21352   0.840   0.025   4.896
 6818SOL    HW121353   0.811   6.950   4.905
 6818SOL    HW221354   0.809   0.076   4.976
 6819SOL     OW21355   4.946   4.462   1.711
 6819SOL    HW121356   5.038   4.437   1.742
 6819SOL    HW221357   4.923   4.409   1.629
 6820SOL     OW21358   2.708   5.146   1.469
 6820SOL    HW121359   2.797   5.102   1.460
 6820SOL    HW221360   2.636   5.076   1.466
 6821SOL     OW21361   3.468   2.738   5.452
 6821SOL    HW121362   3.461   2.658   5.513
 6821SOL    HW221363   3.384   2.746   5.399
 6822SOL     OW21364   5.801   3.823   5.384
 6822SOL    HW121365   5.855   3.764   5.324
 6822SOL    HW221366   5.709   3.787   5.392
 6823SOL     OW21367   0.698   3.010   5.258
 6823SOL    HW121368   0.721   2.927   5.309
 6823SOL    HW221369   0.672   3.083   5.322
 6824SOL     OW21370   0.832   0.161   5.257
 6824SOL    HW121371   0.839   0.083   5.320
 6824SOL    HW221372   0.871   0.242   5.302
 6825SOL     OW21373   4.016   4.200   1.461
 6825SOL    HW121374   4.053   4.284   1.422
 6825SOL    HW221375   4.061   4.180   1.548
 6826SOL     OW21376   6.100   0.113   3.437
 6826SOL    HW121377   6.176   0.164   3.396
 6826SOL    HW221378   6.101   0.126   3.536
 6827SOL     OW21379   4.610   5.857   4.950
 6827SOL    HW121380   4.699   5.873   4.993
 6827SOL    HW221381   4.567   5.944   4.928
 6828SOL     OW21382   3.523   1.986   1.975
 6828SOL    HW121383   3.444   2.022   1.923
 6828SOL    HW221384   3.582   2.062   2.001
 6829SOL     OW21385   3.789   6.846   3.333
 6829SOL    HW121386   3.740   6.759   3.329
 6829SOL    HW221387   3.793   6.877   3.428
 6830SOL     OW21388   4.249   4.669   2.251
 6830SOL    HW121389   4.189   4.733   2.203
 6830SOL    HW221390   4.302   4.617   2.183
 6831SOL     OW21391   1.753   1.595   6.498
 6831SOL    HW121392   1.698   1.657   6.554
 6831SOL    HW221393   1.695   1.524   6.460
 6832SOL     OW21394   3.015   2.461   6.679
 6832SOL    HW121395   2.928   2.440   6.634
 6832SOL    HW221396   3.035   2.393   6.748
 6833SOL     OW21397   3.576   5.278   6.080
 6833SOL    HW121398   3.569   5.345   6.154
 6833SOL    HW221399   3.670   5.274   6.047
 6834SOL     OW21400   6.401   6.643   6.246
 6834SOL    HW121401   6.405   6.662   6.344
 6834SOL    HW221402   6.473   6.695   6.199
 6835SOL     OW21403   3.448   0.755   4.048
 6835SOL    HW121404   3.382   0.680   4.048
 6835SOL    HW221405   3.447   0.801   3.959
 6836SOL     OW21406   0.813   4.554   6.826
 6836SOL    HW121407   0.906   4.546   6.862
 6836SOL    HW221408   0.802   4.493   6.748
 6837SOL     OW21409   5.829   0.585   2.148
 6837SOL    HW121410   5.759   0.520   2.117
 6837SOL    HW221411   5.784   0.666   2.187
 6838SOL     OW21412   2.954   4.128   5.603
 6838SOL    HW121413   3.032   4.140   5.541
 6838SOL    HW221414   2.978   4.159   5.694
 6839SOL     OW21415   6.195   3.149   4.671
 6839SOL    HW121416   6.275   3.101   4.634
 6839SOL    HW221417   6.215   3.182   4.763
 6840SOL     OW21418   2.906   6.240   4.552
 6840SOL    HW121419   2.993   6.219   4.506
 6840SOL    HW221420   2.836   6.260   4.484
 6841SOL     OW21421   4.646   6.712   0.853
 6841SOL    HW121422   4.564   6.707   0.796
 6841SOL    HW221423   4.714   6.647   0.818
 6842SOL     OW21424   0.495   4.053   4.737
 6842SOL    HW121425   0.541   4.138   4.764
 6842SOL    HW221426   0.513   3.983   4.806
 6843SOL     OW21427   4.730   2.547   1.477
 6843SOL    HW121428   4.818   2.547   1.429
 6843SOL    HW221429   4.745   2.547   1.576
 6844SOL     OW21430   3.256   5.386   4.099
 6844SOL    HW121431   3.350   5.400   4.069
 6844SOL    HW221432   3.207   5.474   4.096
 6845SOL     OW21433   3.698   4.477   0.752
 6845SOL    HW121434   3.795   4.492   0.737
 6845SOL    HW221435   3.677   4.490   0.849
 6846SOL     OW21436   4.048   3.191   2.541
 6846SOL    HW121437   4.012   3.101   2.517
 6846SOL    HW221438   4.096   3.229   2.462
 6847SOL     OW21439   6.642   3.476   1.609
 6847SOL    HW121440   6.741   3.476   1.622
 6847SOL    HW221441   6.604   3.564   1.637
 6848SOL     OW21442   6.462   5.911   3.824
 6848SOL    HW121443   6.458   5.872   3.732
 6848SOL    HW221444   6.518   5.993   3.824
 6849SOL     OW21445   3.396   6.329   4.242
 6849SOL    HW121446   3.389   6.380   4.157
 6849SOL    HW221447   3.471   6.263   4.236
 6850SOL     OW21448   5.317   3.259   1.394
 6850SOL    HW121449   5.252   3.328   1.362
 6850SOL    HW221450   5.408   3.278   1.357
 6851SOL     OW21451   1.425   5.561   5.424
 6851SOL    HW121452   1.453   5.542   5.330
 6851SOL    HW221453   1.447   5.483   5.483
 6852SOL     OW21454   0.314   4.928   1.841
 6852SOL    HW121455   0.377   4.856   1.868
 6852SOL    HW221456   0.233   4.888   1.799
 6853SOL     OW21457   6.544   3.635   5.194
 6853SOL    HW121458   6.467   3.624   5.132
 6853SOL    HW221459   6.536   3.722   5.243
 6854SOL     OW21460   0.331   2.157   6.882
 6854SOL    HW121461   0.248   2.188   6.837
 6854SOL    HW221462   0.356   2.221   6.955
 6855SOL     OW21463   2.930   6.291   2.161
 6855SOL    HW121464   2.832   6.273   2.164
 6855SOL    HW221465   2.949   6.360   2.090
 6856SOL     OW21466   0.743   4.877   5.015
 6856SOL    HW121467   0.678   4.870   5.091
 6856SOL    HW221468   0.721   4.807   4.947
 6857SOL     OW21469   3.837   1.255   5.761
 6857SOL    HW121470   3.870   1.203   5.682
 6857SOL    HW221471   3.913   1.305   5.802
 6858SOL     OW21472   3.701   2.462   5.452
 6858SOL    HW121473   3.762   2.503   5.520
 6858SOL    HW221474   3.645   2.391   5.496
 6859SOL     OW21475   3.718   0.482   0.352
 6859SOL    HW121476   3.633   0.530   0.332
 6859SOL    HW221477   3.795   0.544   0.340
 6860SOL     OW21478   4.384   5.157   6.949
 6860SOL    HW121479   4.429   5.070   6.970
 6860SOL    HW221480   4.290   5.139   6.917
 6861SOL     OW21481   5.826   4.252   0.782
 6861SOL    HW121482   5.885   4.330   0.763
 6861SOL    HW221483   5.745   4.282   0.833
 6862SOL     OW21484   3.322   5.347   3.626
 6862SOL    HW121485   3.309   5.308   3.717
 6862SOL    HW221486   3.363   5.279   3.566
 6863SOL     OW21487   0.838   3.106   3.895
 6863SOL    HW121488   0.820   3.065   3.805
 6863SOL    HW221489   0.845   3.206   3.885
 6864SOL     OW21490   4.402   5.396   5.708
 6864SOL    HW121491   4.476   5.392   5.775
 6864SOL    HW221492   4.431   5.349   5.624
 6865SOL     OW21493   6.445   3.091   4.470
 6865SOL    HW121494   6.400   3.102   4.381
 6865SOL    HW221495   6.520   3.156   4.478
 6866SOL     OW21496   0.619   3.469   2.057
 6866SOL    HW121497   0.625   3.397   1.988
 6866SOL    HW221498   0.672   3.442   2.138
 6867SOL     OW21499   2.586   4.534   2.559
 6867SOL    HW121500   2.595   4.560   2.463
 6867SOL    HW221501   2.544   4.609   2.610
 6868SOL     OW21502   2.037   5.232   4.884
 6868SOL    HW121503   2.044   5.138   4.848
 6868SOL    HW221504   1.956   5.239   4.943
 6869SOL     OW21505   6.465   3.414   4.991
 6869SOL    HW121506   6.554   3.416   4.945
 6869SOL    HW221507   6.477   3.381   5.085
 6870SOL     OW21508   5.232   3.900   2.269
 6870SOL    HW121509   5.281   3.844   2.202
 6870SOL    HW221510   5.134   3.882   2.263
 6871SOL     OW21511   4.710   0.272   1.304
 6871SOL    HW121512   4.630   0.236   1.353
 6871SOL    HW221513   4.714   0.371   1.315
 6872SOL     OW21514   2.914   3.418   6.841
 6872SOL    HW121515   2.874   3.470   6.766
 6872SOL    HW221516   2.857   3.337   6.859
 6873SOL     OW21517   5.273   3.964   5.812
 6873SOL    HW121518   5.313   3.941   5.723
 6873SOL    HW221519   5.337   4.023   5.862
 6874SOL     OW21520   1.215   2.579   5.345
 6874SOL    HW121521   1.158   2.501   5.370
 6874SOL    HW221522   1.192   2.657   5.404
 6875SOL     OW21523   3.039   1.850   3.929
 6875SOL    HW121524   3.040   1.829   4.026
 6875SOL    HW221525   3.007   1.771   3.877
 6876SOL     OW21526   3.420   6.424   5.493
 6876SOL    HW121527   3.446   6.416   5.589
 6876SOL    HW221528   3.497   6.395   5.435
 6877SOL     OW21529   2.589   3.794   6.844
 6877SOL    HW121530   2.678   3.831   6.816
 6877SOL    HW221531   2.573   3.815   6.940
 6878SOL     OW21532   1.661   1.781   5.046
 6878SOL    HW121533   1.729   1.831   4.991
 6878SOL    HW221534   1.709   1.720   5.109
 6879SOL     OW21535   0.917   1.173   5.890
 6879SOL    HW121536   0.876   1.137   5.974
 6879SOL    HW221537   0.919   1.101   5.821
 6880SOL     OW21538   1.773   4.104   5.145
 6880SOL    HW121539   1.755   4.038   5.072
 6880SOL    HW221540   1.866   4.090   5.180
 6881SOL     OW21541   6.426   4.759   1.692
 6881SOL    HW121542   6.415   4.676   1.637
 6881SOL    HW221543   6.344   4.815   1.685
 6882SOL     OW21544   2.344   7.007   5.007
 6882SOL    HW121545   2.279   0.014   4.936
 6882SOL    HW221546   2.436   7.001   4.968
 6883SOL     OW21547   3.096   5.942   1.509
 6883SOL    HW121548   3.087   6.040   1.490
 6883SOL    HW221549   3.045   5.920   1.592
 6884SOL     OW21550   2.724   4.897   3.047
 6884SOL    HW121551   2.823   4.910   3.038
 6884SOL    HW221552   2.696   4.921   3.140
 6885SOL     OW21553   3.728   5.379   5.002
 6885SOL    HW121554   3.820   5.343   5.018
 6885SOL    HW221555   3.671   5.308   4.963
 6886SOL     OW21556   5.272   2.180   2.276
 6886SOL    HW121557   5.247   2.245   2.348
 6886SOL    HW221558   5.190   2.154   2.224
 6887SOL     OW21559   4.949   0.539   4.847
 6887SOL    HW121560   4.915   0.580   4.932
 6887SOL    HW221561   5.041   0.504   4.861
 6888SOL     OW21562   5.162   6.092   4.700
 6888SOL    HW121563   5.238   6.036   4.733
 6888SOL    HW221564   5.136   6.062   4.608
 6889SOL     OW21565   1.334   3.972   6.246
 6889SOL    HW121566   1.242   3.933   6.238
 6889SOL    HW221567   1.347   4.010   6.337
 6890SOL     OW21568   2.386   0.801   0.575
 6890SOL    HW121569   2.327   0.864   0.527
 6890SOL    HW221570   2.339   0.767   0.657
 6891SOL     OW21571   3.595   5.208   4.833
 6891SOL    HW121572   3.592   5.208   4.733
 6891SOL    HW221573   3.550   5.125   4.868
 6892SOL     OW21574   3.924   1.052   4.147
 6892SOL    HW121575   3.964   1.129   4.097
 6892SOL    HW221576   3.892   0.984   4.081
 6893SOL     OW21577   6.215   6.878   2.478
 6893SOL    HW121578   6.236   6.826   2.561
 6893SOL    HW221579   6.207   6.815   2.401
 6894SOL     OW21580   6.152   4.579   6.012
 6894SOL    HW121581   6.140   4.611   6.106
 6894SOL    HW221582   6.164   4.480   6.012
 6895SOL     OW21583   4.159   5.207   6.748
 6895SOL    HW121584   4.166   5.284   6.812
 6895SOL    HW221585   4.077   5.217   6.692
 6896SOL     OW21586   4.385   6.741   3.418
 6896SOL    HW121587   4.447   6.663   3.407
 6896SOL    HW221588   4.422   6.820   3.370
 6897SOL     OW21589   3.654   2.046   0.508
 6897SOL    HW121590   3.657   2.115   0.435
 6897SOL    HW221591   3.661   2.091   0.597
 6898SOL     OW21592   3.903   1.612   2.945
 6898SOL    HW121593   3.860   1.529   2.910
 6898SOL    HW221594   3.840   1.660   3.005
 6899SOL     OW21595   5.443   6.751   6.650
 6899SOL    HW121596   5.484   6.661   6.665
 6899SOL    HW221597   5.379   6.771   6.725
 6900SOL     OW21598   4.007   1.358   5.298
 6900SOL    HW121599   4.096   1.332   5.334
 6900SOL    HW221600   3.955   1.276   5.275
 6901SOL     OW21601   1.492   0.591   0.114
 6901SOL    HW121602   1.428   0.575   0.038
 6901SOL    HW221603   1.568   0.526   0.108
 6902SOL     OW21604   6.410   5.557   1.495
 6902SOL    HW121605   6.344   5.597   1.431
 6902SOL    HW221606   6.430   5.623   1.567
 6903SOL     OW21607   4.146   4.095   1.167
 6903SOL    HW121608   4.198   4.096   1.252
 6903SOL    HW221609   4.052   4.065   1.185
 6904SOL     OW21610   0.121   1.499   3.138
 6904SOL    HW121611   0.163   1.499   3.047
 6904SOL    HW221612   0.113   1.405   3.171
 6905SOL     OW21613   4.188   4.807   0.922
 6905SOL    HW121614   4.239   4.892   0.905
 6905SOL    HW221615   4.143   4.813   1.011
 6906SOL     OW21616   4.246   5.887   3.872
 6906SOL    HW121617   4.262   5.799   3.918
 6906SOL    HW221618   4.289   5.885   3.782
 6907SOL     OW21619   3.795   1.352   1.453
 6907SOL    HW121620   3.765   1.258   1.434
 6907SOL    HW221621   3.891   1.362   1.426
 6908SOL     OW21622   0.074   6.751   6.618
 6908SOL    HW121623   7.000   6.781   6.634
 6908SOL    HW221624   0.136   6.825   6.642
 6909SOL     OW21625   4.792   3.148   6.878
 6909SOL    HW121626   4.710   3.163   6.933
 6909SOL    HW221627   4.834   3.235   6.855
 6910SOL     OW21628   6.559   1.262   2.182
 6910SOL    HW121629   6.477   1.300   2.225
 6910SOL    HW221630   6.554   1.162   2.182
 6911SOL     OW21631   3.894   0.855   5.241
 6911SOL    HW121632   3.974   0.798   5.223
 6911SOL    HW221633   3.852   0.828   5.327
 6912SOL     OW21634   4.949   5.170   1.318
 6912SOL    HW121635   5.039   5.205   1.344
 6912SOL    HW221636   4.957   5.077   1.283
 6913SOL     OW21637   4.806   5.406   5.244
 6913SOL    HW121638   4.801   5.417   5.344
 6913SOL    HW221639   4.866   5.477   5.206
 6914SOL     OW21640   6.132   4.817   0.175
 6914SOL    HW121641   6.121   4.733   0.228
 6914SOL    HW221642   6.227   4.826   0.146
 6915SOL     OW21643   1.252   5.846   1.249
 6915SOL    HW121644   1.298   5.767   1.290
 6915SOL    HW221645   1.290   5.930   1.287
 6916SOL     OW21646   6.758   1.768   6.785
 6916SOL    HW121647   6.829   1.727   6.728
 6916SOL    HW221648   6.800   1.812   6.864
 6917SOL     OW21649   4.979   0.074   6.703
 6917SOL    HW121650   4.930   7.007   6.696
 6917SOL    HW221651   4.975   0.106   6.798
 6918SOL     OW21652   2.329   2.850   3.492
 6918SOL    HW121653   2.299   2.933   3.540
 6918SOL    HW221654   2.343   2.871   3.395
 6919SOL     OW21655   1.388   6.305   3.418
 6919SOL    HW121656   1.414   6.327   3.512
 6919SOL    HW221657   1.464   6.326   3.357
 6920SOL     OW21658   4.721   6.486   4.666
 6920SOL    HW121659   4.736   6.585   4.667
 6920SOL    HW221660   4.640   6.465   4.612
 6921SOL     OW21661   0.058   6.458   2.944
 6921SOL    HW121662   6.995   6.444   2.889
 6921SOL    HW221663   0.042   6.533   3.008
 6922SOL     OW21664   1.256   5.648   6.922
 6922SOL    HW121665   1.328   5.717   6.931
 6922SOL    HW221666   1.249   5.618   6.827
 6923SOL     OW21667   4.612   6.682   4.372
 6923SOL    HW121668   4.604   6.713   4.277
 6923SOL    HW221669   4.557   6.741   4.431
 6924SOL     OW21670   6.742   5.807   1.507
 6924SOL    HW121671   6.774   5.902   1.514
 6924SOL    HW221672   6.815   5.750   1.468
 6925SOL     OW21673   5.999   5.744   2.970
 6925SOL    HW121674   6.054   5.814   3.015
 6925SOL    HW221675   5.902   5.763   2.986
 6926SOL     OW21676   2.976   3.602   4.989
 6926SOL    HW121677   3.005   3.506   4.990
 6926SOL    HW221678   2.925   3.622   5.073
 6927SOL     OW21679   4.608   3.556   6.188
 6927SOL    HW121680   4.518   3.521   6.162
 6927SOL    HW221681   4.669   3.554   6.108
 6928SOL     OW21682   6.272   7.001   6.563
 6928SOL    HW121683   6.356   6.954   6.536
 6928SOL    HW221684   6.193   6.943   6.542
 6929SOL     OW21685   3.663   5.159   0.197
 6929SOL    HW121686   3.689   5.239   0.251
 6929SOL    HW221687   3.665   5.181   0.100
 6930SOL     OW21688   1.120   6.654   3.149
 6930SOL    HW121689   1.067   6.575   3.180
 6930SOL    HW221690   1.191   6.675   3.216
 6931SOL     OW21691   1.413   0.914   1.952
 6931SOL    HW121692   1.358   0.966   1.886
 6931SOL    HW221693   1.508   0.909   1.919
 6932SOL     OW21694   2.815   2.110   0.104
 6932SOL    HW121695   2.884   2.038   0.106
 6932SOL    HW221696   2.850   2.189   0.055
 6933SOL     OW21697   3.667   6.420   6.630
 6933SOL    HW121698   3.736   6.487   6.603
 6933SOL    HW221699   3.590   6.423   6.566
 6934SOL     OW21700   6.159   4.302   6.084
 6934SOL    HW121701   6.167   4.244   6.002
 6934SOL    HW221702   6.074   4.281   6.131
 6935SOL     OW21703   4.359   5.321   3.594
 6935SOL    HW121704   4.328   5.370   3.675
 6935SOL    HW221705   4.459   5.314   3.596
 6936SOL     OW21706   1.619   4.427   1.197
 6936SOL    HW121707   1.532   4.390   1.232
 6936SOL    HW221708   1.678   4.452   1.273
 6937SOL     OW21709   4.303   6.777   6.123
 6937SOL    HW121710   4.251   6.777   6.208
 6937SOL    HW221711   4.241   6.796   6.046
 6938SOL     OW21712   5.675   2.244   4.745
 6938SOL    HW121713   5.734   2.305   4.692
 6938SOL    HW221714   5.702   2.149   4.729
 6939SOL     OW21715   0.679   5.329   2.714
 6939SOL    HW121716   0.638   5.365   2.630
 6939SOL    HW221717   0.733   5.248   2.694
 6940SOL     OW21718   3.651   0.644   5.317
 6940SOL    HW121719   3.552   0.629   5.324
 6940SOL    HW221720   3.680   0.630   5.223
 6941SOL     OW21721   3.821   2.971   3.283
 6941SOL    HW121722   3.831   3.060   3.240
 6941SOL    HW221723   3.850   2.899   3.220
 6942SOL     OW21724   0.039   1.470   0.438
 6942SOL    HW121725   6.998   1.444   0.364
 6942SOL    HW221726   0.046   1.395   0.504
 6943SOL     OW21727   5.299   6.005   6.763
 6943SOL    HW121728   5.225   5.990   6.829
 6943SOL    HW221729   5.347   5.919   6.745
 6944SOL     OW21730   1.369   6.660   6.259
 6944SOL    HW121731   1.390   6.726   6.186
 6944SOL    HW221732   1.322   6.581   6.219
 6945SOL     OW21733   4.611   1.833   5.267
 6945SOL    HW121734   4.532   1.886   5.238
 6945SOL    HW221735   4.691   1.893   5.275
 6946SOL     OW21736   6.084   4.687   3.761
 6946SOL    HW121737   6.163   4.746   3.776
 6946SOL    HW221738   6.063   4.637   3.845
 6947SOL     OW21739   3.890   6.974   3.123
 6947SOL    HW121740   3.839   6.936   3.200
 6947SOL    HW221741   3.914   6.900   3.059
 6948SOL     OW21742   4.018   1.828   4.827
 6948SOL    HW121743   3.921   1.833   4.851
 6948SOL    HW221744   4.034   1.749   4.768
 6949SOL     OW21745   5.208   0.729   2.255
 6949SOL    HW121746   5.132   0.742   2.320
 6949SOL    HW221747   5.239   0.818   2.222
 6950SOL     OW21748   2.035   0.912   3.424
 6950SOL    HW121749   1.946   0.903   3.380
 6950SOL    HW221750   2.108   0.895   3.357
 6951SOL     OW21751   5.560   5.349   5.782
 6951SOL    HW121752   5.537   5.340   5.878
 6951SOL    HW221753   5.638   5.291   5.760
 6952SOL     OW21754   0.407   5.214   4.823
 6952SOL    HW121755   0.498   5.252   4.806
 6952SOL    HW221756   0.401   5.183   4.918
 6953SOL     OW21757   5.142   1.786   5.305
 6953SOL    HW121758   5.105   1.873   5.272
 6953SOL    HW221759   5.201   1.746   5.235
 6954SOL     OW21760   0.588   5.252   3.211
 6954SOL    HW121761   0.517   5.196   3.168
 6954SOL    HW221762   0.571   5.348   3.192
 6955SOL     OW21763   6.348   5.463   2.627
 6955SOL    HW121764   6.276   5.491   2.690
 6955SOL    HW221765   6.309   5.447   2.536
 6956SOL     OW21766   3.261   4.786   1.120
 6956SOL    HW121767   3.261   4.874   1.168
 6956SOL    HW221768   3.223   4.715   1.179
 6957SOL     OW21769   0.580   3.882   0.315
 6957SOL    HW121770   0.588   3.965   0.260
 6957SOL    HW221771   0.504   3.892   0.379
 6958SOL     OW21772   2.460   3.825   6.269
 6958SOL    HW121773   2.416   3.899   6.319
 6958SOL    HW221774   2.489   3.858   6.179
 6959SOL     OW21775   3.142   1.251   4.386
 6959SOL    HW121776   3.090   1.331   4.357
 6959SOL    HW221777   3.236   1.259   4.351
 6960SOL     OW21778   6.978   4.844   6.891
 6960SOL    HW121779   0.015   4.762   6.886
 6960SOL    HW221780   6.889   4.819   6.931
 6961SOL     OW21781   6.584   1.596   2.834
 6961SOL    HW121782   6.529   1.647   2.900
 6961SOL    HW221783   6.533   1.517   2.801
 6962SOL     OW21784   4.458   3.572   0.485
 6962SOL    HW121785   4.365   3.594   0.515
 6962SOL    HW221786   4.506   3.657   0.460
 6963SOL     OW21787   6.032   5.567   1.940
 6963SOL    HW121788   6.094   5.561   2.019
 6963SOL    HW221789   6.080   5.536   1.858
 6964SOL     OW21790   3.932   6.135   5.369
 6964SOL    HW121791   3.997   6.119   5.295
 6964SOL    HW221792   3.943   6.228   5.404
 6965SOL     OW21793   6.764   3.374   5.888
 6965SOL    HW121794   6.778   3.466   5.852
 6965SOL    HW221795   6.795   3.370   5.983
 6966SOL     OW21796   4.538   2.573   3.799
 6966SOL    HW121797   4.517   2.620   3.886
 6966SOL    HW221798   4.635   2.581   3.780
 6967SOL     OW21799   2.245   1.537   6.929
 6967SOL    HW121800   2.187   1.611   6.965
 6967SOL    HW221801   2.206   1.504   6.843
 6968SOL     OW21802   4.933   0.085   1.978
 6968SOL    HW121803   4.945   0.174   2.023
 6968SOL    HW221804   4.924   0.014   2.048
 6969SOL     OW21805   3.344   1.574   1.554
 6969SOL    HW121806   3.435   1.578   1.514
 6969SOL    HW221807   3.349   1.581   1.653
 6970SOL     OW21808   5.148   3.778   0.412
 6970SOL    HW121809   5.174   3.697   0.463
 6970SOL    HW221810   5.149   3.858   0.472
 6971SOL     OW21811   5.812   0.919   2.640
 6971SOL    HW121812   5.816   1.006   2.590
 6971SOL    HW221813   5.795   0.845   2.575
 6972SOL     OW21814   5.416   4.713   4.597
 6972SOL    HW121815   5.350   4.783   4.623
 6972SOL    HW221816   5.419   4.705   4.497
 6973SOL     OW21817   2.326   4.638   3.994
 6973SOL    HW121818   2.300   4.576   3.920
 6973SOL    HW221819   2.246   4.691   4.022
 6974SOL     OW21820   3.758   3.795   4.776
 6974SOL    HW121821   3.695   3.825   4.705
 6974SOL    HW221822   3.830   3.863   4.787
 6975SOL     OW21823   3.702   1.337   5.540
 6975SOL    HW121824   3.742   1.420   5.502
 6975SOL    HW221825   3.730   1.327   5.636
 6976SOL     OW21826   1.839   5.154   0.019
 6976SOL    HW121827   1.875   5.243   0.045
 6976SOL    HW221828   1.866   5.134   6.945
 6977SOL     OW21829   3.831   2.131   2.805
 6977SOL    HW121830   3.918   2.159   2.763
 6977SOL    HW221831   3.770   2.097   2.733
 6978SOL     OW21832   6.521   1.036   2.759
 6978SOL    HW121833   6.471   1.119   2.736
 6978SOL    HW221834   6.510   0.968   2.687
 6979SOL     OW21835   0.506   4.834   3.394
 6979SOL    HW121836   0.429   4.771   3.384
 6979SOL    HW221837   0.502   4.903   3.322
 6980SOL     OW21838   3.400   1.189   4.279
 6980SOL    HW121839   3.500   1.181   4.282
 6980SOL    HW221840   3.360   1.097   4.273
 6981SOL     OW21841   2.775   4.670   6.682
 6981SOL    HW121842   2.863   4.662   6.635
 6981SOL    HW221843   2.701   4.648   6.618
 6982SOL     OW21844   7.019   6.614   4.713
 6982SOL    HW121845   6.993   6.546   4.645
 6982SOL    HW221846   0.098   6.615   4.724
 6983SOL     OW21847   6.107   0.931   3.759
 6983SOL    HW121848   6.048   0.942   3.839
 6983SOL    HW221849   6.103   1.014   3.704
 6984SOL     OW21850   1.813   1.385   6.665
 6984SOL    HW121851   1.721   1.353   6.688
 6984SOL    HW221852   1.806   1.468   6.609
 6985SOL     OW21853   4.746   6.451   2.330
 6985SOL    HW121854   4.646   6.449   2.319
 6985SOL    HW221855   4.785   6.509   2.259
 6986SOL     OW21856   2.229   6.585   4.875
 6986SOL    HW121857   2.282   6.502   4.895
 6986SOL    HW221858   2.134   6.560   4.858
 6987SOL     OW21859   0.098   3.588   6.648
 6987SOL    HW121860   0.033   3.600   6.723
 6987SOL    HW221861   0.100   3.492   6.621
 6988SOL     OW21862   4.885   0.962   5.041
 6988SOL    HW121863   4.873   0.864   5.057
 6988SOL    HW221864   4.906   0.977   4.944
 6989SOL     OW21865   1.430   2.654   4.181
 6989SOL    HW121866   1.438   2.645   4.082
 6989SOL    HW221867   1.348   2.707   4.203
 6990SOL     OW21868   4.162   3.505   6.998
 6990SOL    HW121869   4.113   3.441   6.939
 6990SOL    HW221870   4.232   3.456   0.029
 6991SOL     OW21871   4.388   4.451   5.605
 6991SOL    HW121872   4.382   4.358   5.641
 6991SOL    HW221873   4.318   4.508   5.648
 6992SOL     OW21874   5.073   6.563   5.238
 6992SOL    HW121875   5.077   6.588   5.141
 6992SOL    HW221876   5.009   6.488   5.251
 6993SOL     OW21877   0.342   6.818   2.917
 6993SOL    HW121878   0.348   6.812   3.017
 6993SOL    HW221879   0.354   6.727   2.878
 6994SOL     OW21880   1.308   2.883   0.288
 6994SOL    HW121881   1.375   2.839   0.228
 6994SOL    HW221882   1.228   2.824   0.297
 6995SOL     OW21883   0.351   5.620   2.968
 6995SOL    HW121884   0.311   5.588   3.054
 6995SOL    HW221885   0.447   5.642   2.981
 6996SOL     OW21886   2.491   6.702   5.908
 6996SOL    HW121887   2.479   6.627   5.842
 6996SOL    HW221888   2.430   6.777   5.884
 6997SOL     OW21889   4.686   0.244   4.566
 6997SOL    HW121890   4.622   0.167   4.570
 6997SOL    HW221891   4.674   0.292   4.479
 6998SOL     OW21892   1.613   2.775   3.351
 6998SOL    HW121893   1.669   2.773   3.269
 6998SOL    HW221894   1.586   2.682   3.376
 6999SOL     OW21895   3.590   1.647   6.533
 6999SOL    HW121896   3.634   1.729   6.569
 6999SOL    HW221897   3.621   1.567   6.586
 7000SOL     OW21898   6.980   6.410   1.509
 7000SOL    HW121899   0.009   6.452   1.585
 7000SOL    HW221900   0.008   6.326   1.481
 7001SOL     OW21901   2.751   1.963   5.459
 7001SOL    HW121902   2.797   2.004   5.381
 7001SOL    HW221903   2.652   1.960   5.442
 7002SOL     OW21904   1.903   5.203   2.997
 7002SOL    HW121905   1.839   5.134   3.030
 7002SOL    HW221906   1.946   5.171   2.913
 7003SOL     OW21907   2.565   6.266   6.989
 7003SOL    HW121908   2.611   6.355   6.994
 7003SOL    HW221909   2.487   6.265   0.031
 7004SOL     OW21910   0.875   5.094   0.641
 7004SOL    HW121911   0.822   5.019   0.602
 7004SOL    HW221912   0.841   5.115   0.732
 7005SOL     OW21913   5.273   6.766   5.335
 7005SOL    HW121914   5.230   6.838   5.390
 7005SOL    HW221915   5.235   6.768   5.243
 7006SOL     OW21916   4.310   4.826   5.105
 7006SOL    HW121917   4.333   4.734   5.076
 7006SOL    HW221918   4.210   4.836   5.109
 7007SOL     OW21919   5.065   5.226   2.245
 7007SOL    HW121920   5.136   5.185   2.301
 7007SOL    HW221921   4.990   5.161   2.233
 7008SOL     OW21922   0.778   4.759   4.526
 7008SOL    HW121923   0.874   4.748   4.499
 7008SOL    HW221924   0.749   4.853   4.509
 7009SOL     OW21925   0.296   4.655   2.499
 7009SOL    HW121926   0.378   4.702   2.468
 7009SOL    HW221927   0.297   4.648   2.599
 7010SOL     OW21928   4.130   4.987   6.497
 7010SOL    HW121929   4.097   4.930   6.573
 7010SOL    HW221930   4.185   5.062   6.533
 7011SOL     OW21931   2.600   1.647   4.703
 7011SOL    HW121932   2.624   1.607   4.792
 7011SOL    HW221933   2.573   1.743   4.717
 7012SOL     OW21934   1.152   1.256   2.442
 7012SOL    HW121935   1.222   1.213   2.385
 7012SOL    HW221936   1.147   1.354   2.420
 7013SOL     OW21937   1.080   0.582   2.258
 7013SOL    HW121938   0.993   0.617   2.294
 7013SOL    HW221939   1.082   0.593   2.159
 7014SOL     OW21940   2.569   4.894   1.495
 7014SOL    HW121941   2.650   4.854   1.452
 7014SOL    HW221942   2.519   4.823   1.545
 7015SOL     OW21943   4.873   2.540   2.185
 7015SOL    HW121944   4.935   2.482   2.131
 7015SOL    HW221945   4.886   2.635   2.158
 7016SOL     OW21946   3.151   4.707   0.641
 7016SOL    HW121947   3.223   4.711   0.710
 7016SOL    HW221948   3.145   4.795   0.593
 7017SOL     OW21949   3.972   1.492   4.110
 7017SOL    HW121950   4.071   1.503   4.117
 7017SOL    HW221951   3.931   1.500   4.201
 7018SOL     OW21952   0.064   5.365   4.218
 7018SOL    HW121953   7.008   5.314   4.258
 7018SOL    HW221954   0.085   5.328   4.127
 7019SOL     OW21955   1.967   6.087   0.166
 7019SOL    HW121956   2.043   6.061   0.225
 7019SOL    HW221957   1.998   6.155   0.099
 7020SOL     OW21958   0.010   6.798   6.010
 7020SOL    HW121959   0.077   6.737   6.052
 7020SOL    HW221960   0.049   6.839   5.927
 7021SOL     OW21961   3.265   0.985   5.965
 7021SOL    HW121962   3.287   0.950   5.874
 7021SOL    HW221963   3.175   1.029   5.963
 7022SOL     OW21964   5.310   5.228   6.344
 7022SOL    HW121965   5.252   5.174   6.282
 7022SOL    HW221966   5.398   5.182   6.355
 7023SOL     OW21967   6.257   4.243   2.876
 7023SOL    HW121968   6.309   4.163   2.905
 7023SOL    HW221969   6.159   4.222   2.881
 7024SOL     OW21970   0.268   6.307   0.691
 7024SOL    HW121971   0.230   6.369   0.623
 7024SOL    HW221972   0.249   6.212   0.664
 7025SOL     OW21973   2.488   0.555   5.981
 7025SOL    HW121974   2.449   0.520   6.065
 7025SOL    HW221975   2.467   0.493   5.905
 7026SOL     OW21976   4.367   2.154   0.937
 7026SOL    HW121977   4.292   2.213   0.966
 7026SOL    HW221978   4.372   2.152   0.837
 7027SOL     OW21979   4.269   0.297   4.600
 7027SOL    HW121980   4.179   0.262   4.625
 7027SOL    HW221981   4.280   0.292   4.500
 7028SOL     OW21982   3.208   6.509   4.684
 7028SOL    HW121983   3.204   6.487   4.586
 7028SOL    HW221984   3.137   6.576   4.706
 7029SOL     OW21985   3.249   0.256   5.172
 7029SOL    HW121986   3.273   0.337   5.118
 7029SOL    HW221987   3.229   0.179   5.110
 7030SOL     OW21988   2.272   4.168   4.145
 7030SOL    HW121989   2.236   4.122   4.064
 7030SOL    HW221990   2.350   4.116   4.181
 7031SOL     OW21991   2.573   6.663   5.184
 7031SOL    HW121992   2.490   6.686   5.134
 7031SOL    HW221993   2.562   6.687   5.281
 7032SOL     OW21994   5.650   1.540   2.676
 7032SOL    HW121995   5.745   1.571   2.681
 7032SOL    HW221996   5.624   1.498   2.764
 7033SOL     OW21997   6.372   0.151   4.197
 7033SOL    HW121998   6.287   0.203   4.200
 7033SOL    HW221999   6.440   0.201   4.143
 7034SOL     OW22000   6.616   5.760   3.034
 7034SOL    HW122001   6.662   5.829   2.978
 7034SOL    HW222002   6.611   5.792   3.129
 7035SOL     OW22003   6.348   5.272   2.017
 7035SOL    HW122004   6.428   5.267   2.075
 7035SOL    HW222005   6.266   5.249   2.070
 7036SOL     OW22006   6.926   4.555   1.472
 7036SOL    HW122007   6.904   4.458   1.485
 7036SOL    HW222008   6.920   4.603   1.560
 7037SOL     OW22009   1.029   6.754   6.909
 7037SOL    HW122010   1.106   6.716   6.857
 7037SOL    HW222011   0.970   6.680   6.941
 7038SOL     OW22012   1.457   4.065   4.254
 7038SOL    HW122013   1.383   4.118   4.297
 7038SOL    HW222014   1.474   4.100   4.162
 7039SOL     OW22015   4.277   1.316   6.252
 7039SOL    HW122016   4.237   1.280   6.337
 7039SOL    HW222017   4.288   1.242   6.186
 7040SOL     OW22018   4.849   2.649   6.159
 7040SOL    HW122019   4.853   2.604   6.248
 7040SOL    HW222020   4.837   2.580   6.088
 7041SOL     OW22021   2.448   1.463   2.315
 7041SOL    HW122022   2.374   1.468   2.247
 7041SOL    HW222023   2.409   1.459   2.407
 7042SOL     OW22024   2.229   0.269   6.492
 7042SOL    HW122025   2.312   0.310   6.456
 7042SOL    HW222026   2.214   0.179   6.451
 7043SOL     OW22027   1.646   2.200   3.097
 7043SOL    HW122028   1.572   2.259   3.126
 7043SOL    HW222029   1.712   2.252   3.043
 7044SOL     OW22030   4.873   6.165   2.356
 7044SOL    HW122031   4.876   6.263   2.378
 7044SOL    HW222032   4.778   6.136   2.345
 7045SOL     OW22033   5.798   5.142   1.090
 7045SOL    HW122034   5.884   5.117   1.135
 7045SOL    HW222035   5.778   5.075   1.018
 7046SOL     OW22036   2.485   1.088   4.355
 7046SOL    HW122037   2.480   1.015   4.423
 7046SOL    HW222038   2.483   1.049   4.263
 7047SOL     OW22039   1.968   1.439   3.840
 7047SOL    HW122040   1.919   1.352   3.827
 7047SOL    HW222041   1.980   1.456   3.938
 7048SOL     OW22042   6.356   6.567   0.184
 7048SOL    HW122043   6.364   6.608   0.275
 7048SOL    HW222044   6.349   6.467   0.193
 7049SOL     OW22045   2.182   1.196   0.676
 7049SOL    HW122046   2.224   1.114   0.639
 7049SOL    HW222047   2.101   1.220   0.622
 7050SOL     OW22048   4.012   3.831   4.632
 7050SOL    HW122049   3.961   3.818   4.547
 7050SOL    HW222050   3.983   3.916   4.676
 7051SOL     OW22051   6.285   6.659   2.242
 7051SOL    HW122052   6.214   6.597   2.210
 7051SOL    HW222053   6.317   6.716   2.166
 7052SOL     OW22054   6.510   1.881   3.281
 7052SOL    HW122055   6.415   1.867   3.254
 7052SOL    HW222056   6.548   1.795   3.316
 7053SOL     OW22057   6.809   4.519   6.358
 7053SOL    HW122058   6.888   4.573   6.328
 7053SOL    HW222059   6.772   4.468   6.280
 7054SOL     OW22060   6.805   0.022   1.457
 7054SOL    HW122061   6.744   0.068   1.522
 7054SOL    HW222062   6.852   0.091   1.402
 7055SOL     OW22063   3.251   6.944   5.391
 7055SOL    HW122064   3.216   6.904   5.306
 7055SOL    HW222065   3.177   6.994   5.437
 7056SOL     OW22066   4.835   5.172   3.671
 7056SOL    HW122067   4.772   5.204   3.742
 7056SOL    HW222068   4.928   5.172   3.708
 7057SOL     OW22069   0.789   6.269   3.102
 7057SOL    HW122070   0.836   6.191   3.060
 7057SOL    HW222071   0.690   6.259   3.090
 7058SOL     OW22072   0.556   5.202   5.147
 7058SOL    HW122073   0.464   5.208   5.109
 7058SOL    HW222074   0.550   5.179   5.244
 7059SOL     OW22075   1.834   0.257   2.589
 7059SOL    HW122076   1.775   0.212   2.521
 7059SOL    HW222077   1.777   0.297   2.661
 7060SOL     OW22078   2.878   0.115   1.314
 7060SOL    HW122079   2.823   0.042   1.356
 7060SOL    HW222080   2.954   0.138   1.374
 7061SOL     OW22081   0.090   1.110   2.481
 7061SOL    HW122082   7.019   1.147   2.463
 7061SOL    HW222083   0.149   1.127   2.402
 7062SOL     OW22084   6.531   1.322   5.284
 7062SOL    HW122085   6.621   1.278   5.291
 7062SOL    HW222086   6.460   1.258   5.313
 7063SOL     OW22087   2.701   6.694   1.755
 7063SOL    HW122088   2.709   6.793   1.765
 7063SOL    HW222089   2.724   6.649   1.841
 7064SOL     OW22090   4.318   2.297   0.134
 7064SOL    HW122091   4.241   2.238   0.111
 7064SOL    HW222092   4.369   2.320   0.051
 7065SOL     OW22093   4.399   3.939   1.673
 7065SOL    HW122094   4.391   3.965   1.577
 7065SOL    HW222095   4.398   4.021   1.731
 7066SOL     OW22096   3.499   6.340   0.304
 7066SOL    HW122097   3.428   6.298   0.361
 7066SOL    HW222098   3.582   6.285   0.308
 7067SOL     OW22099   0.148   4.264   4.991
 7067SOL    HW122100   0.244   4.289   5.002
 7067SOL    HW222101   0.139   4.198   4.917
 7068SOL     OW22102   0.828   0.997   3.180
 7068SOL    HW122103   0.834   1.092   3.213
 7068SOL    HW222104   0.830   0.935   3.258
 7069SOL     OW22105   1.422   4.175   4.847
 7069SOL    HW122106   1.330   4.215   4.848
 7069SOL    HW222107   1.490   4.248   4.853
 7070SOL     OW22108   5.884   5.687   4.597
 7070SOL    HW122109   5.834   5.762   4.554
 7070SOL    HW222110   5.915   5.715   4.688
 7071SOL     OW22111   1.427   6.828   5.485
 7071SOL    HW122112   1.349   6.890   5.477
 7071SOL    HW222113   1.399   6.736   5.461
 7072SOL     OW22114   0.137   6.486   6.477
 7072SOL    HW122115   0.091   6.397   6.481
 7072SOL    HW222116   0.080   6.555   6.521
 7073SOL     OW22117   1.046   0.800   6.178
 7073SOL    HW122118   1.085   0.816   6.269
 7073SOL    HW222119   0.996   0.713   6.178
 7074SOL     OW22120   3.528   2.401   1.359
 7074SOL    HW122121   3.538   2.329   1.428
 7074SOL    HW222122   3.432   2.431   1.356
 7075SOL     OW22123   1.186   5.481   3.337
 7075SOL    HW122124   1.194   5.432   3.250
 7075SOL    HW222125   1.109   5.444   3.389
 7076SOL     OW22126   2.858   2.592   6.888
 7076SOL    HW122127   2.788   2.659   6.863
 7076SOL    HW222128   2.924   2.583   6.813
 7077SOL     OW22129   2.155   5.576   5.712
 7077SOL    HW122130   2.180   5.542   5.622
 7077SOL    HW222131   2.060   5.549   5.733
 7078SOL     OW22132   6.540   0.723   2.686
 7078SOL    HW122133   6.497   0.665   2.617
 7078SOL    HW222134   6.505   0.700   2.776
 7079SOL     OW22135   5.088   5.432   5.295
 7079SOL    HW122136   5.134   5.374   5.363
 7079SOL    HW222137   5.095   5.389   5.205
 7080SOL     OW22138   5.301   0.398   4.051
 7080SOL    HW122139   5.314   0.361   4.144
 7080SOL    HW222140   5.209   0.435   4.042
 7081SOL     OW22141   3.573   1.153   5.028
 7081SOL    HW122142   3.483   1.184   5.057
 7081SOL    HW222143   3.616   1.223   4.972
 7082SOL     OW22144   5.366   0.855   6.309
 7082SOL    HW122145   5.445   0.885   6.255
 7082SOL    HW222146   5.296   0.819   6.248
 7083SOL     OW22147   3.142   0.272   5.937
 7083SOL    HW122148   3.233   0.243   5.967
 7083SOL    HW222149   3.150   0.328   5.855
 7084SOL     OW22150   6.673   6.453   6.801
 7084SOL    HW122151   6.752   6.471   6.743
 7084SOL    HW222152   6.700   6.460   6.897
 7085SOL     OW22153   2.677   2.659   1.020
 7085SOL    HW122154   2.606   2.675   0.951
 7085SOL    HW222155   2.755   2.613   0.978
 7086SOL     OW22156   6.703   0.873   6.359
 7086SOL    HW122157   6.768   0.811   6.403
 7086SOL    HW222158   6.613   0.829   6.356
 7087SOL     OW22159   1.745   2.574   3.725
 7087SOL    HW122160   1.754   2.671   3.700
 7087SOL    HW222161   1.830   2.526   3.703
 7088SOL     OW22162   6.922   2.200   5.239
 7088SOL    HW122163   6.882   2.198   5.331
 7088SOL    HW222164   0.001   2.212   5.246
 7089SOL     OW22165   2.718   1.797   0.149
 7089SOL    HW122166   2.788   1.799   0.077
 7089SOL    HW222167   2.743   1.861   0.222
 7090SOL     OW22168   2.593   2.181   4.547
 7090SOL    HW122169   2.523   2.174   4.476
 7090SOL    HW222170   2.675   2.223   4.510
 7091SOL     OW22171   0.383   5.554   6.765
 7091SOL    HW122172   0.328   5.631   6.796
 7091SOL    HW222173   0.324   5.476   6.745
 7092SOL     OW22174   2.948   3.443   0.433
 7092SOL    HW122175   2.927   3.350   0.462
 7092SOL    HW222176   3.030   3.443   0.377
 7093SOL     OW22177   3.581   2.803   4.858
 7093SOL    HW122178   3.653   2.850   4.909
 7093SOL    HW222179   3.616   2.715   4.824
 7094SOL     OW22180   0.341   0.333   5.925
 7094SOL    HW122181   0.262   0.273   5.914
 7094SOL    HW222182   0.310   0.424   5.954
 7095SOL     OW22183   0.900   3.200   6.237
 7095SOL    HW122184   0.809   3.243   6.237
 7095SOL    HW222185   0.897   3.117   6.180
 7096SOL     OW22186   4.964   1.453   2.531
 7096SOL    HW122187   4.990   1.512   2.608
 7096SOL    HW222188   4.921   1.508   2.459
 7097SOL     OW22189   0.567   0.617   1.683
 7097SOL    HW122190   0.583   0.519   1.692
 7097SOL    HW222191   0.552   0.640   1.587
 7098SOL     OW22192   1.788   6.799   5.835
 7098SOL    HW122193   1.873   6.848   5.852
 7098SOL    HW222194   1.767   6.741   5.914
 7099SOL     OW22195   0.358   0.800   6.253
 7099SOL    HW122196   0.405   0.868   6.308
 7099SOL    HW222197   0.414   0.717   6.246
 7100SOL     OW22198   5.833   2.840   1.129
 7100SOL    HW122199   5.853   2.862   1.033
 7100SOL    HW222200   5.736   2.855   1.147
 7101SOL     OW22201   2.819   6.869   4.887
 7101SOL    HW122202   2.861   6.786   4.849
 7101SOL    HW222203   2.869   6.949   4.855
 7102SOL     OW22204   4.778   2.928   0.502
 7102SOL    HW122205   4.739   2.852   0.554
 7102SOL    HW222206   4.846   2.975   0.557
 7103SOL     OW22207   3.731   6.559   6.241
 7103SOL    HW122208   3.737   6.459   6.236
 7103SOL    HW222209   3.637   6.585   6.261
 7104SOL     OW22210   0.881   2.203   3.284
 7104SOL    HW122211   0.783   2.191   3.270
 7104SOL    HW222212   0.929   2.123   3.247
 7105SOL     OW22213   3.216   3.894   5.231
 7105SOL    HW122214   3.129   3.941   5.216
 7105SOL    HW222215   3.278   3.916   5.156
 7106SOL     OW22216   3.141   2.529   5.485
 7106SOL    HW122217   3.115   2.477   5.403
 7106SOL    HW222218   3.240   2.543   5.486
 7107SOL     OW22219   2.983   1.191   0.267
 7107SOL    HW122220   2.888   1.164   0.251
 7107SOL    HW222221   3.037   1.110   0.291
 7108SOL     OW22222   4.674   0.093   1.107
 7108SOL    HW122223   4.691   0.152   1.185
 7108SOL    HW222224   4.754   0.094   1.046
 7109SOL     OW22225   3.544   6.179   6.453
 7109SOL    HW122226   3.486   6.099   6.438
 7109SOL    HW222227   3.504   6.259   6.407
 7110SOL     OW22228   4.358   4.606   3.153
 7110SOL    HW122229   4.388   4.686   3.102
 7110SOL    HW222230   4.283   4.561   3.104
 7111SOL     OW22231   1.852   3.248   3.777
 7111SOL    HW122232   1.892   3.318   3.837
 7111SOL    HW222233   1.837   3.164   3.830
 7112SOL     OW22234   1.160   6.918   2.989
 7112SOL    HW122235   1.116   6.870   3.064
 7112SOL    HW222236   1.151   6.864   2.905
 7113SOL     OW22237   4.108   3.630   4.352
 7113SOL    HW122238   4.146   3.647   4.261
 7113SOL    HW222239   4.119   3.533   4.375
 7114SOL     OW22240   3.664   1.044   0.274
 7114SOL    HW122241   3.696   1.015   0.364
 7114SOL    HW222242   3.687   0.975   0.206
 7115SOL     OW22243   4.669   1.660   0.907
 7115SOL    HW122244   4.699   1.756   0.911
 7115SOL    HW222245   4.742   1.601   0.941
 7116SOL     OW22246   5.510   3.604   2.754
 7116SOL    HW122247   5.592   3.647   2.717
 7116SOL    HW222248   5.524   3.505   2.759
 7117SOL     OW22249   5.709   6.435   1.788
 7117SOL    HW122250   5.770   6.360   1.760
 7117SOL    HW222251   5.639   6.449   1.719
 7118SOL     OW22252   0.106   3.039   1.434
 7118SOL    HW122253   0.008   3.045   1.411
 7118SOL    HW222254   0.119   3.059   1.531
 7119SOL     OW22255   6.216   1.989   3.199
 7119SOL    HW122256   6.270   2.072   3.212
 7119SOL    HW222257   6.152   2.003   3.123
 7120SOL     OW22258   4.767   0.528   3.564
 7120SOL    HW122259   4.846   0.503   3.508
 7120SOL    HW222260   4.737   0.620   3.538
 7121SOL     OW22261   3.201   6.740   2.344
 7121SOL    HW122262   3.193   6.644   2.317
 7121SOL    HW222263   3.290   6.776   2.316
 7122SOL     OW22264   6.406   0.719   6.298
 7122SOL    HW122265   6.356   0.797   6.336
 7122SOL    HW222266   6.366   0.634   6.333
 7123SOL     OW22267   2.291   4.849   0.880
 7123SOL    HW122268   2.342   4.864   0.796
 7123SOL    HW222269   2.319   4.916   0.949
 7124SOL     OW22270   0.563   5.278   0.897
 7124SOL    HW122271   0.474   5.234   0.895
 7124SOL    HW222272   0.552   5.377   0.905
 7125SOL     OW22273   5.888   5.843   2.611
 7125SOL    HW122274   5.832   5.920   2.639
 7125SOL    HW222275   5.985   5.867   2.620
 7126SOL     OW22276   1.200   4.649   0.445
 7126SOL    HW122277   1.238   4.612   0.529
 7126SOL    HW222278   1.168   4.742   0.460
 7127SOL     OW22279   3.753   6.378   4.440
 7127SOL    HW122280   3.775   6.458   4.384
 7127SOL    HW222281   3.669   6.396   4.491
 7128SOL     OW22282   3.049   4.389   1.408
 7128SOL    HW122283   2.994   4.406   1.490
 7128SOL    HW222284   3.036   4.295   1.378
 7129SOL     OW22285   2.478   0.657   1.493
 7129SOL    HW122286   2.573   0.668   1.520
 7129SOL    HW222287   2.459   0.560   1.475
 7130SOL     OW22288   2.053   5.154   2.743
 7130SOL    HW122289   2.065   5.181   2.647
 7130SOL    HW222290   2.072   5.057   2.752
 7131SOL     OW22291   2.836   0.683   3.043
 7131SOL    HW122292   2.780   0.668   3.125
 7131SOL    HW222293   2.870   0.595   3.010
 7132SOL     OW22294   3.174   4.036   3.096
 7132SOL    HW122295   3.262   4.079   3.073
 7132SOL    HW222296   3.099   4.095   3.066
 7133SOL     OW22297   5.352   5.226   2.626
 7133SOL    HW122298   5.268   5.174   2.613
 7133SOL    HW222299   5.424   5.188   2.568
 7134SOL     OW22300   5.762   3.757   3.715
 7134SOL    HW122301   5.738   3.804   3.800
 7134SOL    HW222302   5.801   3.822   3.650
 7135SOL     OW22303   0.968   1.566   5.132
 7135SOL    HW122304   1.054   1.551   5.180
 7135SOL    HW222305   0.986   1.614   5.046
 7136SOL     OW22306   2.317   1.883   0.584
 7136SOL    HW122307   2.267   1.923   0.506
 7136SOL    HW222308   2.260   1.812   0.627
 7137SOL     OW22309   4.161   1.008   4.961
 7137SOL    HW122310   4.107   1.011   4.877
 7137SOL    HW222311   4.189   0.914   4.978
 7138SOL     OW22312   2.682   4.136   0.607
 7138SOL    HW122313   2.602   4.158   0.662
 7138SOL    HW222314   2.674   4.043   0.571
 7139SOL     OW22315   3.744   2.097   1.045
 7139SOL    HW122316   3.724   2.083   1.142
 7139SOL    HW222317   3.812   2.030   1.015
 7140SOL     OW22318   6.428   3.210   5.195
 7140SOL    HW122319   6.470   3.144   5.257
 7140SOL    HW222320   6.363   3.163   5.135
 7141SOL     OW22321   2.883   6.521   0.848
 7141SOL    HW122322   2.871   6.563   0.939
 7141SOL    HW222323   2.851   6.427   0.851
 7142SOL     OW22324   4.129   5.797   4.464
 7142SOL    HW122325   4.225   5.805   4.492
 7142SOL    HW222326   4.070   5.821   4.541
 7143SOL     OW22327   2.083   3.387   4.590
 7143SOL    HW122328   2.132   3.353   4.509
 7143SOL    HW222329   2.068   3.311   4.653
 7144SOL     OW22330   0.222   2.597   3.411
 7144SOL    HW122331   0.295   2.601   3.480
 7144SOL    HW222332   0.156   2.669   3.430
 7145SOL     OW22333   4.944   0.125   6.970
 7145SOL    HW122334   5.001   0.056   7.014
 7145SOL    HW222335   4.989   0.214   6.975
 7146SOL     OW22336   3.581   4.735   0.580
 7146SOL    HW122337   3.568   4.665   0.510
 7146SOL    HW222338   3.665   4.785   0.561
 7147SOL     OW22339   0.168   0.408   3.483
 7147SOL    HW122340   0.163   0.324   3.430
 7147SOL    HW222341   0.076   0.438   3.507
 7148SOL     OW22342   0.649   1.015   0.988
 7148SOL    HW122343   0.732   1.044   1.037
 7148SOL    HW222344   0.592   0.961   1.049
 7149SOL     OW22345   6.183   1.136   4.173
 7149SOL    HW122346   6.109   1.178   4.121
 7149SOL    HW222347   6.150   1.051   4.215
 7150SOL     OW22348   5.728   3.453   0.041
 7150SOL    HW122349   5.667   3.435   0.118
 7150SOL    HW222350   5.674   3.483   6.982
 7151SOL     OW22351   2.652   6.316   0.825
 7151SOL    HW122352   2.685   6.224   0.805
 7151SOL    HW222353   2.632   6.323   0.923
 7152SOL     OW22354   1.382   2.566   3.886
 7152SOL    HW122355   1.311   2.496   3.896
 7152SOL    HW222356   1.472   2.523   3.882
 7153SOL     OW22357   3.755   1.290   3.472
 7153SOL    HW122358   3.769   1.192   3.483
 7153SOL    HW222359   3.712   1.327   3.555
 7154SOL     OW22360   5.035   6.163   4.152
 7154SOL    HW122361   5.111   6.098   4.155
 7154SOL    HW222362   5.071   6.256   4.159
 7155SOL     OW22363   2.808   0.373   1.375
 7155SOL    HW122364   2.834   0.280   1.350
 7155SOL    HW222365   2.726   0.400   1.325
 7156SOL     OW22366   6.995   5.554   4.927
 7156SOL    HW122367   6.999   5.607   4.842
 7156SOL    HW222368   6.910   5.574   4.975
 7157SOL     OW22369   4.893   4.403   1.078
 7157SOL    HW122370   4.803   4.432   1.045
 7157SOL    HW222371   4.939   4.349   1.008
 7158SOL     OW22372   6.090   6.862   4.241
 7158SOL    HW122373   6.095   6.856   4.341
 7158SOL    HW222374   6.182   6.877   4.204
 7159SOL     OW22375   0.659   5.676   6.892
 7159SOL    HW122376   0.666   5.713   6.799
 7159SOL    HW222377   0.659   5.576   6.888
 7160SOL     OW22378   5.673   0.791   2.220
 7160SOL    HW122379   5.635   0.769   2.130
 7160SOL    HW222380   5.630   0.875   2.254
 7161SOL     OW22381   3.596   3.532   4.018
 7161SOL    HW122382   3.672   3.577   3.971
 7161SOL    HW222383   3.586   3.570   4.109
 7162SOL     OW22384   2.990   4.930   3.059
 7162SOL    HW122385   3.051   5.009   3.063
 7162SOL    HW222386   2.977   4.903   2.963
 7163SOL     OW22387   2.482   0.237   2.665
 7163SOL    HW122388   2.577   0.266   2.679
 7163SOL    HW222389   2.449   0.272   2.577
 7164SOL     OW22390   2.369   1.275   2.883
 7164SOL    HW122391   2.274   1.244   2.871
 7164SOL    HW222392   2.377   1.325   2.969
 7165SOL     OW22393   4.665   0.811   1.639
 7165SOL    HW122394   4.649   0.817   1.738
 7165SOL    HW222395   4.605   0.741   1.600
 7166SOL     OW22396   4.784   4.734   1.677
 7166SOL    HW122397   4.801   4.731   1.776
 7166SOL    HW222398   4.863   4.696   1.629
 7167SOL     OW22399   4.588   2.731   4.935
 7167SOL    HW122400   4.556   2.788   5.010
 7167SOL    HW222401   4.539   2.643   4.938
 7168SOL     OW22402   1.521   0.876   4.419
 7168SOL    HW122403   1.540   0.915   4.329
 7168SOL    HW222404   1.437   0.916   4.455
 7169SOL     OW22405   1.752   2.459   6.243
 7169SOL    HW122406   1.693   2.385   6.209
 7169SOL    HW222407   1.786   2.512   6.165
 7170SOL     OW22408   6.480   4.969   4.499
 7170SOL    HW122409   6.455   4.873   4.498
 7170SOL    HW222410   6.549   4.985   4.570
 7171SOL     OW22411   4.180   3.214   5.298
 7171SOL    HW122412   4.105   3.225   5.362
 7171SOL    HW222413   4.179   3.290   5.232
 7172SOL     OW22414   1.916   6.948   0.832
 7172SOL    HW122415   1.861   6.864   0.826
 7172SOL    HW222416   1.971   6.958   0.749
 7173SOL     OW22417   6.691   6.198   5.793
 7173SOL    HW122418   6.712   6.106   5.759
 7173SOL    HW222419   6.657   6.191   5.887
 7174SOL     OW22420   1.133   5.686   0.231
 7174SOL    HW122421   1.139   5.594   0.270
 7174SOL    HW222422   1.075   5.684   0.150
 7175SOL     OW22423   6.543   3.473   5.429
 7175SOL    HW122424   6.497   3.490   5.341
 7175SOL    HW222425   6.545   3.374   5.446
 7176SOL     OW22426   5.960   4.039   1.754
 7176SOL    HW122427   5.969   3.981   1.836
 7176SOL    HW222428   5.911   3.988   1.683
 7177SOL     OW22429   0.709   6.496   1.828
 7177SOL    HW122430   0.778   6.548   1.879
 7177SOL    HW222431   0.651   6.446   1.892
 7178SOL     OW22432   0.404   2.700   6.188
 7178SOL    HW122433   0.321   2.702   6.132
 7178SOL    HW222434   0.472   2.762   6.149
 7179SOL     OW22435   2.524   3.905   6.030
 7179SOL    HW122436   2.497   4.001   6.020
 7179SOL    HW222437   2.520   3.861   5.941
 7180SOL     OW22438   6.940   6.094   2.152
 7180SOL    HW122439   7.014   6.071   2.214
 7180SOL    HW222440   6.939   6.031   2.075
 7181SOL     OW22441   4.924   0.896   2.292
 7181SOL    HW122442   4.935   0.995   2.300
 7181SOL    HW222443   4.909   0.857   2.383
 7182SOL     OW22444   3.053   3.604   5.470
 7182SOL    HW122445   3.052   3.575   5.566
 7182SOL    HW222446   2.966   3.580   5.427
 7183SOL     OW22447   1.182   5.420   2.377
 7183SOL    HW122448   1.153   5.455   2.466
 7183SOL    HW222449   1.243   5.341   2.390
 7184SOL     OW22450   2.101   6.667   3.581
 7184SOL    HW122451   2.066   6.718   3.660
 7184SOL    HW222452   2.027   6.651   3.516
 7185SOL     OW22453   4.411   2.350   6.443
 7185SOL    HW122454   4.355   2.268   6.431
 7185SOL    HW222455   4.455   2.348   6.533
 7186SOL     OW22456   0.577   6.552   4.546
 7186SOL    HW122457   0.621   6.628   4.498
 7186SOL    HW222458   0.630   6.468   4.531
 7187SOL     OW22459   1.809   4.960   1.393
 7187SOL    HW122460   1.891   4.942   1.449
 7187SOL    HW222461   1.838   4.994   1.303
 7188SOL     OW22462   5.289   1.369   1.056
 7188SOL    HW122463   5.284   1.457   1.102
 7188SOL    HW222464   5.368   1.318   1.091
 7189SOL     OW22465   5.984   1.008   4.535
 7189SOL    HW122466   5.896   0.967   4.558
 7189SOL    HW222467   6.049   0.992   4.610
 7190SOL     OW22468   4.846   5.091   3.402
 7190SOL    HW122469   4.839   5.110   3.500
 7190SOL    HW222470   4.843   4.992   3.387
 7191SOL     OW22471   1.539   3.209   2.735
 7191SOL    HW122472   1.456   3.244   2.778
 7191SOL    HW222473   1.519   3.182   2.641
 7192SOL     OW22474   3.294   4.953   5.572
 7192SOL    HW122475   3.279   4.855   5.560
 7192SOL    HW222476   3.220   5.004   5.528
 7193SOL     OW22477   4.618   1.156   3.395
 7193SOL    HW122478   4.525   1.145   3.431
 7193SOL    HW222479   4.619   1.230   3.328
 7194SOL     OW22480   2.913   1.512   1.699
 7194SOL    HW122481   2.998   1.459   1.698
 7194SOL    HW222482   2.895   1.542   1.792
 7195SOL     OW22483   0.653   5.439   1.325
 7195SOL    HW122484   0.749   5.461   1.307
 7195SOL    HW222485   0.647   5.383   1.407
 7196SOL     OW22486   3.652   3.127   2.323
 7196SOL    HW122487   3.571   3.089   2.368
 7196SOL    HW222488   3.636   3.223   2.302
 7197SOL     OW22489   1.101   2.268   6.124
 7197SOL    HW122490   1.067   2.210   6.049
 7197SOL    HW222491   1.061   2.238   6.210
 7198SOL     OW22492   1.194   5.994   6.548
 7198SOL    HW122493   1.218   5.949   6.634
 7198SOL    HW222494   1.272   5.989   6.485
 7199SOL     OW22495   6.571   6.325   2.781
 7199SOL    HW122496   6.638   6.300   2.710
 7199SOL    HW222497   6.570   6.254   2.851
 7200SOL     OW22498   2.377   1.729   1.053
 7200SOL    HW122499   2.346   1.717   0.959
 7200SOL    HW222500   2.301   1.713   1.115
 7201SOL     OW22501   2.040   4.479   3.946
 7201SOL    HW122502   2.080   4.513   3.861
 7201SOL    HW222503   1.978   4.403   3.926
 7202SOL     OW22504   3.553   0.879   6.519
 7202SOL    HW122505   3.461   0.850   6.547
 7202SOL    HW222506   3.554   0.977   6.502
 7203SOL     OW22507   5.678   0.990   6.629
 7203SOL    HW122508   5.726   1.011   6.714
 7203SOL    HW222509   5.718   1.043   6.554
 7204SOL     OW22510   5.923   1.555   2.616
 7204SOL    HW122511   5.933   1.626   2.687
 7204SOL    HW222512   5.974   1.583   2.534
 7205SOL     OW22513   2.291   4.520   2.308
 7205SOL    HW122514   2.285   4.456   2.385
 7205SOL    HW222515   2.295   4.469   2.223
 7206SOL     OW22516   6.207   1.253   1.666
 7206SOL    HW122517   6.137   1.189   1.635
 7206SOL    HW222518   6.268   1.207   1.731
 7207SOL     OW22519   3.790   0.060   1.984
 7207SOL    HW122520   3.883   0.050   2.021
 7207SOL    HW222521   3.795   0.091   1.889
 7208SOL     OW22522   3.056   0.288   5.338
 7208SOL    HW122523   3.142   0.281   5.287
 7208SOL    HW222524   3.028   0.196   5.368
 7209SOL     OW22525   4.160   3.440   4.645
 7209SOL    HW122526   4.256   3.415   4.643
 7209SOL    HW222527   4.121   3.429   4.553
 7210SOL     OW22528   4.116   0.540   4.705
 7210SOL    HW122529   4.117   0.587   4.617
 7210SOL    HW222530   4.176   0.460   4.701
 7211SOL     OW22531   1.317   5.520   2.838
 7211SOL    HW122532   1.416   5.525   2.856
 7211SOL    HW222533   1.293   5.428   2.808
 7212SOL     OW22534   5.600   6.734   4.445
 7212SOL    HW122535   5.628   6.640   4.425
 7212SOL    HW222536   5.531   6.763   4.379
 7213SOL     OW22537   5.277   0.749   5.871
 7213SOL    HW122538   5.196   0.794   5.834
 7213SOL    HW222539   5.284   0.656   5.835
 7214SOL     OW22540   1.196   5.072   4.939
 7214SOL    HW122541   1.196   5.166   4.974
 7214SOL    HW222542   1.159   5.070   4.846
 7215SOL     OW22543   1.418   3.523   3.396
 7215SOL    HW122544   1.385   3.538   3.489
 7215SOL    HW222545   1.429   3.611   3.350
 7216SOL     OW22546   1.972   1.193   1.607
 7216SOL    HW122547   2.063   1.196   1.564
 7216SOL    HW222548   1.972   1.124   1.679
 7217SOL     OW22549   0.934   2.859   2.224
 7217SOL    HW122550   1.014   2.867   2.282
 7217SOL    HW222551   0.905   2.950   2.194
 7218SOL     OW22552   5.532   2.493   5.515
 7218SOL    HW122553   5.546   2.589   5.540
 7218SOL    HW222554   5.618   2.454   5.483
 7219SOL     OW22555   3.857   1.615   2.151
 7219SOL    HW122556   3.940   1.566   2.177
 7219SOL    HW222557   3.882   1.694   2.095
 7220SOL     OW22558   7.009   0.582   2.737
 7220SOL    HW122559   7.005   0.528   2.822
 7220SOL    HW222560   0.060   0.651   2.745
 7221SOL     OW22561   6.000   5.523   5.307
 7221SOL    HW122562   5.955   5.457   5.366
 7221SOL    HW222563   6.095   5.497   5.294
 7222SOL     OW22564   6.842   6.286   2.350
 7222SOL    HW122565   6.885   6.231   2.279
 7222SOL    HW222566   6.857   6.383   2.332
 7223SOL     OW22567   3.317   0.837   5.411
 7223SOL    HW122568   3.233   0.871   5.454
 7223SOL    HW222569   3.395   0.890   5.443
 7224SOL     OW22570   4.786   6.745   4.132
 7224SOL    HW122571   4.849   6.822   4.130
 7224SOL    HW222572   4.822   6.672   4.191
 7225SOL     OW22573   2.405   6.592   0.134
 7225SOL    HW122574   2.323   6.546   0.169
 7225SOL    HW222575   2.418   6.679   0.181
 7226SOL     OW22576   6.357   6.903   0.695
 7226SOL    HW122577   6.429   6.847   0.737
 7226SOL    HW222578   6.304   6.949   0.767
 7227SOL     OW22579   6.334   2.661   6.332
 7227SOL    HW122580   6.250   2.626   6.290
 7227SOL    HW222581   6.321   2.670   6.431
 7228SOL     OW22582   1.365   0.954   2.878
 7228SOL    HW122583   1.305   0.955   2.798
 7228SOL    HW222584   1.429   0.878   2.869
 7229SOL     OW22585   0.761   0.336   3.546
 7229SOL    HW122586   0.713   0.311   3.462
 7229SOL    HW222587   0.854   0.297   3.544
 7230SOL     OW22588   6.062   3.914   2.927
 7230SOL    HW122589   6.080   3.984   2.858
 7230SOL    HW222590   5.994   3.849   2.893
 7231SOL     OW22591   5.456   1.152   6.562
 7231SOL    HW122592   5.522   1.090   6.604
 7231SOL    HW222593   5.503   1.215   6.500
 7232SOL     OW22594   3.544   4.626   1.321
 7232SOL    HW122595   3.458   4.676   1.324
 7232SOL    HW222596   3.541   4.551   1.388
 7233SOL     OW22597   0.130   2.432   5.927
 7233SOL    HW122598   0.150   2.336   5.908
 7233SOL    HW222599   0.141   2.485   5.843
 7234SOL     OW22600   5.856   2.078   2.075
 7234SOL    HW122601   5.831   1.988   2.040
 7234SOL    HW222602   5.779   2.141   2.065
 7235SOL     OW22603   6.225   3.291   4.903
 7235SOL    HW122604   6.154   3.357   4.879
 7235SOL    HW222605   6.310   3.339   4.924
 7236SOL     OW22606   3.264   1.160   3.058
 7236SOL    HW122607   3.256   1.156   2.959
 7236SOL    HW222608   3.276   1.255   3.087
 7237SOL     OW22609   6.171   5.953   5.943
 7237SOL    HW122610   6.175   5.869   5.996
 7237SOL    HW222611   6.170   6.032   6.004
 7238SOL     OW22612   1.086   1.137   1.356
 7238SOL    HW122613   1.183   1.146   1.380
 7238SOL    HW222614   1.057   1.217   1.304
 7239SOL     OW22615   4.435   1.644   1.792
 7239SOL    HW122616   4.467   1.656   1.698
 7239SOL    HW222617   4.356   1.583   1.794
 7240SOL     OW22618   3.142   3.693   0.521
 7240SOL    HW122619   3.049   3.711   0.553
 7240SOL    HW222620   3.168   3.764   0.455
 7241SOL     OW22621   3.579   0.122   4.978
 7241SOL    HW122622   3.509   0.056   4.953
 7241SOL    HW222623   3.548   0.214   4.956
 7242SOL     OW22624   4.618   4.708   0.292
 7242SOL    HW122625   4.605   4.616   0.328
 7242SOL    HW222626   4.592   4.710   0.195
 7243SOL     OW22627   0.265   5.717   0.066
 7243SOL    HW122628   0.295   5.733   0.160
 7243SOL    HW222629   0.168   5.693   0.065
 7244SOL     OW22630   5.868   1.225   0.799
 7244SOL    HW122631   5.784   1.250   0.752
 7244SOL    HW222632   5.884   1.286   0.876
 7245SOL     OW22633   6.678   1.855   3.688
 7245SOL    HW122634   6.587   1.819   3.667
 7245SOL    HW222635   6.685   1.873   3.786
 7246SOL     OW22636   1.111   6.047   5.370
 7246SOL    HW122637   1.095   6.144   5.351
 7246SOL    HW222638   1.040   5.992   5.327
 7247SOL     OW22639   3.468   5.478   2.803
 7247SOL    HW122640   3.383   5.519   2.771
 7247SOL    HW222641   3.503   5.528   2.882
 7248SOL     OW22642   3.235   0.620   4.726
 7248SOL    HW122643   3.149   0.669   4.737
 7248SOL    HW222644   3.301   0.651   4.794
 7249SOL     OW22645   6.175   5.422   6.860
 7249SOL    HW122646   6.259   5.419   6.915
 7249SOL    HW222647   6.096   5.406   6.920
 7250SOL     OW22648   2.856   4.275   6.601
 7250SOL    HW122649   2.760   4.304   6.608
 7250SOL    HW222650   2.865   4.211   6.525
 7251SOL     OW22651   5.451   0.226   5.209
 7251SOL    HW122652   5.499   0.203   5.293
 7251SOL    HW222653   5.388   0.302   5.227
 7252SOL     OW22654   4.108   3.776   5.098
 7252SOL    HW122655   4.179   3.827   5.146
 7252SOL    HW222656   4.111   3.799   5.000
 7253SOL     OW22657   5.432   5.296   0.986
 7253SOL    HW122658   5.380   5.259   1.062
 7253SOL    HW222659   5.439   5.228   0.914
 7254SOL     OW22660   4.904   6.350   5.181
 7254SOL    HW122661   4.827   6.409   5.156
 7254SOL    HW222662   4.927   6.291   5.104
 7255SOL     OW22663   3.563   4.155   2.129
 7255SOL    HW122664   3.529   4.248   2.142
 7255SOL    HW222665   3.507   4.091   2.181
 7256SOL     OW22666   4.474   4.725   4.127
 7256SOL    HW122667   4.553   4.778   4.157
 7256SOL    HW222668   4.464   4.733   4.028
 7257SOL     OW22669   5.857   4.213   3.377
 7257SOL    HW122670   5.917   4.245   3.304
 7257SOL    HW222671   5.827   4.120   3.358
 7258SOL     OW22672   2.991   6.667   5.466
 7258SOL    HW122673   2.904   6.620   5.460
 7258SOL    HW222674   2.992   6.726   5.547
 7259SOL     OW22675   1.889   5.626   5.790
 7259SOL    HW122676   1.831   5.634   5.708
 7259SOL    HW222677   1.860   5.694   5.857
 7260SOL     OW22678   3.767   1.887   1.850
 7260SOL    HW122679   3.697   1.896   1.779
 7260SOL    HW222680   3.737   1.934   1.933
 7261SOL     OW22681   1.427   4.247   1.652
 7261SOL    HW122682   1.362   4.226   1.725
 7261SOL    HW222683   1.434   4.169   1.590
 7262SOL     OW22684   6.098   1.868   5.277
 7262SOL    HW122685   6.168   1.937   5.295
 7262SOL    HW222686   6.100   1.799   5.349
 7263SOL     OW22687   4.493   6.628   2.042
 7263SOL    HW122688   4.500   6.703   2.109
 7263SOL    HW222689   4.582   6.616   1.997
 7264SOL     OW22690   1.061   6.850   4.721
 7264SOL    HW122691   1.133   6.913   4.751
 7264SOL    HW222692   1.010   6.892   4.646
 7265SOL     OW22693   4.395   3.841   6.058
 7265SOL    HW122694   4.445   3.830   6.144
 7265SOL    HW222695   4.339   3.923   6.062
 7266SOL     OW22696   5.290   1.482   1.730
 7266SOL    HW122697   5.295   1.537   1.647
 7266SOL    HW222698   5.330   1.531   1.807
 7267SOL     OW22699   7.019   2.709   4.382
 7267SOL    HW122700   0.048   2.672   4.460
 7267SOL    HW222701   0.013   2.650   4.303
 7268SOL     OW22702   3.175   0.047   1.196
 7268SOL    HW122703   3.204   7.013   1.117
 7268SOL    HW222704   3.103   7.019   1.245
 7269SOL     OW22705   1.615   6.858   1.987
 7269SOL    HW122706   1.524   6.842   2.025
 7269SOL    HW222707   1.609   6.869   1.888
 7270SOL     OW22708   3.494   1.639   2.511
 7270SOL    HW122709   3.444   1.724   2.490
 7270SOL    HW222710   3.431   1.562   2.507
 7271SOL     OW22711   6.017   4.663   4.394
 7271SOL    HW122712   5.927   4.644   4.355
 7271SOL    HW222713   6.036   4.761   4.385
 7272SOL     OW22714   6.232   2.030   0.991
 7272SOL    HW122715   6.222   1.934   1.017
 7272SOL    HW222716   6.144   2.077   1.004
 7273SOL     OW22717   6.130   6.173   6.085
 7273SOL    HW122718   6.073   6.236   6.032
 7273SOL    HW222719   6.117   6.190   6.183
 7274SOL     OW22720   0.309   4.406   4.642
 7274SOL    HW122721   0.237   4.356   4.594
 7274SOL    HW222722   0.270   4.455   4.720
 7275SOL     OW22723   5.890   6.678   1.489
 7275SOL    HW122724   5.878   6.776   1.506
 7275SOL    HW222725   5.935   6.665   1.400
 7276SOL     OW22726   3.014   2.233   4.051
 7276SOL    HW122727   3.052   2.281   3.973
 7276SOL    HW222728   2.943   2.169   4.019
 7277SOL     OW22729   5.215   1.655   4.171
 7277SOL    HW122730   5.171   1.744   4.188
 7277SOL    HW222731   5.234   1.611   4.259
 7278SOL     OW22732   2.162   1.564   3.327
 7278SOL    HW122733   2.228   1.636   3.351
 7278SOL    HW222734   2.179   1.534   3.233
 7279SOL     OW22735   4.202   4.350   0.755
 7279SOL    HW122736   4.289   4.398   0.751
 7279SOL    HW222737   4.211   4.259   0.715
 7280SOL     OW22738   6.494   1.688   5.452
 7280SOL    HW122739   6.577   1.648   5.413
 7280SOL    HW222740   6.420   1.621   5.452
 7281SOL     OW22741   3.773   5.659   2.111
 7281SOL    HW122742   3.698   5.706   2.156
 7281SOL    HW222743   3.860   5.696   2.143
 7282SOL     OW22744   6.503   3.745   2.100
 7282SOL    HW122745   6.562   3.792   2.167
 7282SOL    HW222746   6.416   3.722   2.143
 7283SOL     OW22747   4.618   5.207   3.048
 7283SOL    HW122748   4.608   5.280   3.116
 7283SOL    HW222749   4.536   5.204   2.990
 7284SOL     OW22750   0.268   1.391   2.488
 7284SOL    HW122751   0.353   1.374   2.537
 7284SOL    HW222752   0.279   1.367   2.391
 7285SOL     OW22753   4.862   3.167   1.759
 7285SOL    HW122754   4.894   3.103   1.689
 7285SOL    HW222755   4.795   3.122   1.817
 7286SOL     OW22756   5.996   1.568   3.822
 7286SOL    HW122757   5.959   1.477   3.800
 7286SOL    HW222758   5.987   1.585   3.920
 7287SOL     OW22759   2.965   1.358   2.822
 7287SOL    HW122760   3.017   1.382   2.740
 7287SOL    HW222761   2.913   1.274   2.805
 7288SOL     OW22762   2.528   1.708   2.229
 7288SOL    HW122763   2.613   1.738   2.271
 7288SOL    HW222764   2.507   1.615   2.258
 7289SOL     OW22765   6.833   1.978   1.539
 7289SOL    HW122766   6.840   2.005   1.635
 7289SOL    HW222767   6.743   2.004   1.504
 7290SOL     OW22768   3.747   1.419   4.895
 7290SOL    HW122769   3.654   1.430   4.860
 7290SOL    HW222770   3.808   1.395   4.820
 7291SOL     OW22771   2.650   1.342   0.837
 7291SOL    HW122772   2.710   1.421   0.847
 7291SOL    HW222773   2.632   1.325   0.740
 7292SOL     OW22774   2.579   6.849   2.448
 7292SOL    HW122775   2.675   6.826   2.429
 7292SOL    HW222776   2.538   6.778   2.505
 7293SOL     OW22777   6.584   1.622   3.999
 7293SOL    HW122778   6.607   1.526   3.989
 7293SOL    HW222779   6.531   1.636   4.082
 7294SOL     OW22780   3.220   6.353   2.553
 7294SOL    HW122781   3.270   6.269   2.532
 7294SOL    HW222782   3.135   6.331   2.601
 7295SOL     OW22783   5.421   4.236   1.134
 7295SOL    HW122784   5.448   4.225   1.230
 7295SOL    HW222785   5.322   4.231   1.126
 7296SOL     OW22786   4.651   5.154   1.999
 7296SOL    HW122787   4.695   5.114   1.918
 7296SOL    HW222788   4.689   5.245   2.016
 7297SOL     OW22789   4.330   6.841   0.941
 7297SOL    HW122790   4.349   6.802   0.851
 7297SOL    HW222791   4.380   6.927   0.950
 7298SOL     OW22792   3.805   5.406   0.409
 7298SOL    HW122793   3.864   5.449   0.477
 7298SOL    HW222794   3.710   5.431   0.426
 7299SOL     OW22795   1.154   3.210   6.129
 7299SOL    HW122796   1.079   3.203   6.195
 7299SOL    HW222797   1.122   3.181   6.039
 7300SOL     OW22798   6.939   5.362   2.310
 7300SOL    HW122799   6.933   5.307   2.394
 7300SOL    HW222800   0.015   5.382   2.291
 7301SOL     OW22801   4.295   1.729   6.362
 7301SOL    HW122802   4.281   1.754   6.266
 7301SOL    HW222803   4.207   1.725   6.408
 7302SOL     OW22804   5.716   1.949   5.873
 7302SOL    HW122805   5.717   1.859   5.917
 7302SOL    HW222806   5.728   1.938   5.774
 7303SOL     OW22807   2.841   1.533   2.083
 7303SOL    HW122808   2.805   1.614   2.037
 7303SOL    HW222809   2.863   1.555   2.178
 7304SOL     OW22810   2.684   5.496   0.677
 7304SOL    HW122811   2.760   5.465   0.734
 7304SOL    HW222812   2.720   5.544   0.597
 7305SOL     OW22813   6.089   1.325   0.010
 7305SOL    HW122814   6.127   1.413   7.002
 7305SOL    HW222815   6.111   1.255   6.962
 7306SOL     OW22816   1.311   2.988   1.778
 7306SOL    HW122817   1.402   3.022   1.753
 7306SOL    HW222818   1.307   2.889   1.764
 7307SOL     OW22819   1.870   0.115   1.030
 7307SOL    HW122820   1.809   0.070   1.096
 7307SOL    HW222821   1.871   0.062   0.945
 7308SOL     OW22822   4.077   1.097   2.570
 7308SOL    HW122823   4.055   1.091   2.473
 7308SOL    HW222824   4.020   1.168   2.612
 7309SOL     OW22825   2.362   5.487   3.956
 7309SOL    HW122826   2.344   5.406   3.901
 7309SOL    HW222827   2.365   5.462   4.053
 7310SOL     OW22828   2.752   2.987   6.306
 7310SOL    HW122829   2.757   2.938   6.219
 7310SOL    HW222830   2.748   3.085   6.289
 7311SOL     OW22831   0.592   5.931   5.539
 7311SOL    HW122832   0.661   5.895   5.603
 7311SOL    HW222833   0.511   5.873   5.540
 7312SOL     OW22834   6.266   2.213   3.954
 7312SOL    HW122835   6.260   2.289   4.017
 7312SOL    HW222836   6.190   2.217   3.889
 7313SOL     OW22837   2.595   0.540   2.929
 7313SOL    HW122838   2.602   0.531   2.829
 7313SOL    HW222839   2.676   0.500   2.972
 7314SOL     OW22840   0.808   4.383   5.581
 7314SOL    HW122841   0.848   4.461   5.533
 7314SOL    HW222842   0.824   4.392   5.679
 7315SOL     OW22843   2.492   4.771   2.258
 7315SOL    HW122844   2.417   4.707   2.240
 7315SOL    HW222845   2.570   4.721   2.295
 7316SOL     OW22846   4.020   1.618   1.327
 7316SOL    HW122847   3.971   1.563   1.260
 7316SOL    HW222848   4.083   1.558   1.378
 7317SOL     OW22849   4.156   2.080   0.044
 7317SOL    HW122850   4.069   2.114   0.081
 7317SOL    HW222851   4.137   2.005   7.001
 7318SOL     OW22852   5.397   6.599   0.640
 7318SOL    HW122853   5.328   6.622   0.708
 7318SOL    HW222854   5.474   6.553   0.685
 7319SOL     OW22855   5.846   6.263   6.427
 7319SOL    HW122856   5.943   6.288   6.432
 7319SOL    HW222857   5.813   6.277   6.334
 7320SOL     OW22858   0.851   2.704   1.170
 7320SOL    HW122859   0.885   2.653   1.092
 7320SOL    HW222860   0.811   2.791   1.139
 7321SOL     OW22861   1.851   2.039   0.116
 7321SOL    HW122862   1.939   2.061   0.158
 7321SOL    HW222863   1.863   2.029   0.017
 7322SOL     OW22864   1.169   3.107   3.287
 7322SOL    HW122865   1.187   3.099   3.189
 7322SOL    HW222866   1.245   3.154   3.331
 7323SOL     OW22867   0.884   2.879   0.442
 7323SOL    HW122868   0.916   2.909   0.532
 7323SOL    HW222869   0.839   2.790   0.451
 7324SOL     OW22870   5.077   3.878   3.570
 7324SOL    HW122871   5.050   3.782   3.575
 7324SOL    HW222872   4.996   3.936   3.567
 7325SOL     OW22873   4.268   1.115   5.787
 7325SOL    HW122874   4.330   1.037   5.802
 7325SOL    HW222875   4.253   1.127   5.689
 7326SOL     OW22876   3.952   0.439   0.514
 7326SOL    HW122877   3.984   0.361   0.568
 7326SOL    HW222878   3.855   0.427   0.494
 7327SOL     OW22879   1.457   4.415   3.455
 7327SOL    HW122880   1.414   4.501   3.426
 7327SOL    HW222881   1.483   4.362   3.374
 7328SOL     OW22882   4.628   4.849   5.113
 7328SOL    HW122883   4.581   4.761   5.108
 7328SOL    HW222884   4.561   4.922   5.124
 7329SOL     OW22885   2.770   3.338   1.043
 7329SOL    HW122886   2.869   3.323   1.051
 7329SOL    HW222887   2.749   3.370   0.951
 7330SOL     OW22888   2.482   3.281   1.410
 7330SOL    HW122889   2.540   3.346   1.460
 7330SOL    HW222890   2.476   3.309   1.314
 7331SOL     OW22891   5.232   2.362   2.514
 7331SOL    HW122892   5.293   2.415   2.574
 7331SOL    HW222893   5.139   2.397   2.523
 7332SOL     OW22894   3.287   6.701   6.105
 7332SOL    HW122895   3.218   6.680   6.036
 7332SOL    HW222896   3.323   6.794   6.090
 7333SOL     OW22897   0.686   1.482   1.451
 7333SOL    HW122898   0.773   1.481   1.402
 7333SOL    HW222899   0.703   1.494   1.549
 7334SOL     OW22900   1.832   6.094   3.855
 7334SOL    HW122901   1.866   6.053   3.940
 7334SOL    HW222902   1.768   6.167   3.877
 7335SOL     OW22903   0.143   3.995   2.535
 7335SOL    HW122904   0.149   3.996   2.435
 7335SOL    HW222905   0.047   3.994   2.563
 7336SOL     OW22906   2.389   6.654   1.690
 7336SOL    HW122907   2.486   6.652   1.716
 7336SOL    HW222908   2.375   6.723   1.620
 7337SOL     OW22909   2.642   1.389   3.045
 7337SOL    HW122910   2.725   1.444   3.035
 7337SOL    HW222911   2.666   1.292   3.043
 7338SOL     OW22912   5.187   3.734   1.382
 7338SOL    HW122913   5.097   3.777   1.374
 7338SOL    HW222914   5.259   3.804   1.375
 7339SOL     OW22915   0.152   6.283   4.794
 7339SOL    HW122916   0.214   6.343   4.743
 7339SOL    HW222917   0.090   6.237   4.731
 7340SOL     OW22918   3.200   6.631   0.360
 7340SOL    HW122919   3.168   6.571   0.286
 7340SOL    HW222920   3.242   6.576   0.432
 7341SOL     OW22921   6.762   5.630   5.090
 7341SOL    HW122922   6.708   5.575   5.026
 7341SOL    HW222923   6.714   5.638   5.177
 7342SOL     OW22924   1.424   5.283   0.996
 7342SOL    HW122925   1.411   5.354   1.065
 7342SOL    HW222926   1.348   5.219   0.999
 7343SOL     OW22927   5.018   2.742   3.010
 7343SOL    HW122928   5.008   2.684   3.091
 7343SOL    HW222929   4.928   2.756   2.968
 7344SOL     OW22930   2.454   1.096   0.299
 7344SOL    HW122931   2.381   1.076   0.364
 7344SOL    HW222932   2.427   1.173   0.241
 7345SOL     OW22933   3.123   5.442   0.475
 7345SOL    HW122934   3.190   5.439   0.550
 7345SOL    HW222935   3.059   5.366   0.485
 7346SOL     OW22936   3.786   5.016   1.746
 7346SOL    HW122937   3.820   5.093   1.799
 7346SOL    HW222938   3.705   5.044   1.694
 7347SOL     OW22939   6.659   3.331   2.219
 7347SOL    HW122940   6.659   3.399   2.293
 7347SOL    HW222941   6.664   3.239   2.258
 7348SOL     OW22942   0.596   1.371   5.034
 7348SOL    HW122943   0.559   1.351   4.943
 7348SOL    HW222944   0.575   1.465   5.058
 7349SOL     OW22945   3.519   1.275   0.343
 7349SOL    HW122946   3.572   1.192   0.356
 7349SOL    HW222947   3.477   1.302   0.430
 7350SOL     OW22948   2.131   0.901   2.499
 7350SOL    HW122949   2.109   0.958   2.578
 7350SOL    HW222950   2.092   0.943   2.417
 7351SOL     OW22951   4.563   4.626   0.016
 7351SOL    HW122952   4.493   4.555   0.028
 7351SOL    HW222953   4.645   4.586   6.995
 7352SOL     OW22954   6.378   1.126   3.122
 7352SOL    HW122955   6.334   1.092   3.039
 7352SOL    HW222956   6.413   1.049   3.176
 7353SOL     OW22957   5.175   2.106   4.731
 7353SOL    HW122958   5.246   2.171   4.759
 7353SOL    HW222959   5.159   2.041   4.805
 7354SOL     OW22960   6.459   4.277   5.263
 7354SOL    HW122961   6.547   4.323   5.269
 7354SOL    HW222962   6.459   4.217   5.183
 7355SOL     OW22963   0.984   4.365   1.192
 7355SOL    HW122964   0.965   4.373   1.094
 7355SOL    HW222965   1.041   4.442   1.221
 7356SOL     OW22966   6.610   1.781   5.681
 7356SOL    HW122967   6.547   1.743   5.614
 7356SOL    HW222968   6.603   1.730   5.767
 7357SOL     OW22969   0.384   1.753   0.483
 7357SOL    HW122970   0.335   1.724   0.401
 7357SOL    HW222971   0.325   1.741   0.563
 7358SOL     OW22972   3.506   0.594   3.783
 7358SOL    HW122973   3.566   0.671   3.805
 7358SOL    HW222974   3.431   0.626   3.725
 7359SOL     OW22975   3.342   3.114   2.733
 7359SOL    HW122976   3.289   3.145   2.812
 7359SOL    HW222977   3.432   3.157   2.734
 7360SOL     OW22978   0.444   3.279   5.468
 7360SOL    HW122979   0.499   3.318   5.395
 7360SOL    HW222980   0.420   3.350   5.534
 7361SOL     OW22981   5.176   0.119   1.786
 7361SOL    HW122982   5.224   0.058   1.724
 7361SOL    HW222983   5.120   0.066   1.849
 7362SOL     OW22984   1.755   6.917   6.193
 7362SOL    HW122985   1.796   7.000   6.156
 7362SOL    HW222986   1.770   6.842   6.128
 7363SOL     OW22987   5.712   2.875   6.239
 7363SOL    HW122988   5.678   2.895   6.147
 7363SOL    HW222989   5.764   2.789   6.237
 7364SOL     OW22990   5.394   0.860   1.460
 7364SOL    HW122991   5.334   0.912   1.399
 7364SOL    HW222992   5.381   0.762   1.445
 7365SOL     OW22993   3.454   0.382   1.941
 7365SOL    HW122994   3.383   0.314   1.925
 7365SOL    HW222995   3.424   0.471   1.904
 7366SOL     OW22996   0.688   5.347   0.061
 7366SOL    HW122997   0.714   5.436   0.098
 7366SOL    HW222998   0.653   5.358   6.988
 7367SOL     OW22999   5.017   3.467   6.575
 7367SOL    HW123000   4.977   3.435   6.661
 7367SOL    HW223001   5.109   3.429   6.565
 7368SOL     OW23002   2.882   3.354   3.500
 7368SOL    HW123003   2.950   3.282   3.489
 7368SOL    HW223004   2.790   3.316   3.489
 7369SOL     OW23005   5.034   2.532   6.418
 7369SOL    HW123006   5.068   2.582   6.498
 7369SOL    HW223007   4.934   2.527   6.423
 7370SOL     OW23008   1.701   6.004   1.209
 7370SOL    HW123009   1.742   5.961   1.128
 7370SOL    HW223010   1.767   6.003   1.284
 7371SOL     OW23011   2.104   5.072   4.007
 7371SOL    HW123012   2.198   5.083   3.973
 7371SOL    HW223013   2.088   4.975   4.030
 7372SOL     OW23014   3.309   6.391   5.929
 7372SOL    HW123015   3.299   6.346   6.018
 7372SOL    HW223016   3.372   6.338   5.871
 7373SOL     OW23017   3.719   0.441   1.879
 7373SOL    HW123018   3.622   0.423   1.895
 7373SOL    HW223019   3.732   0.538   1.857
 7374SOL     OW23020   2.022   3.948   6.569
 7374SOL    HW123021   2.025   4.037   6.525
 7374SOL    HW223022   1.972   3.884   6.510
 7375SOL     OW23023   1.572   6.518   3.021
 7375SOL    HW123024   1.475   6.537   3.013
 7375SOL    HW223025   1.623   6.573   2.955
 7376SOL     OW23026   2.598   3.833   5.577
 7376SOL    HW123027   2.570   3.795   5.488
 7376SOL    HW223028   2.694   3.862   5.571
 7377SOL     OW23029   4.725   4.933   1.498
 7377SOL    HW123030   4.762   4.860   1.555
 7377SOL    HW223031   4.707   4.899   1.406
 7378SOL     OW23032   6.855   2.365   5.909
 7378SOL    HW123033   6.948   2.398   5.927
 7378SOL    HW223034   6.789   2.424   5.954
 7379SOL     OW23035   4.182   1.315   1.146
 7379SOL    HW123036   4.183   1.401   1.094
 7379SOL    HW223037   4.141   1.243   1.091
 7380SOL     OW23038   6.632   2.290   4.795
 7380SOL    HW123039   6.673   2.233   4.866
 7380SOL    HW223040   6.656   2.255   4.705
 7381SOL     OW23041   5.056   2.214   0.225
 7381SOL    HW123042   5.126   2.253   0.165
 7381SOL    HW223043   5.090   2.213   0.319
 7382SOL     OW23044   6.839   6.070   3.913
 7382SOL    HW123045   6.759   6.117   3.952
 7382SOL    HW223046   6.918   6.085   3.971
 7383SOL     OW23047   6.834   6.002   3.620
 7383SOL    HW123048   6.824   6.091   3.576
 7383SOL    HW223049   6.839   6.015   3.719
 7384SOL     OW23050   6.008   1.412   1.776
 7384SOL    HW123051   6.072   1.343   1.743
 7384SOL    HW223052   5.929   1.416   1.714
 7385SOL     OW23053   5.030   0.332   1.644
 7385SOL    HW123054   4.979   0.275   1.579
 7385SOL    HW223055   5.075   0.272   1.711
 7386SOL     OW23056   0.594   2.793   5.878
 7386SOL    HW123057   0.587   2.802   5.978
 7386SOL    HW223058   0.672   2.846   5.845
 7387SOL     OW23059   3.980   5.822   3.759
 7387SOL    HW123060   3.895   5.804   3.809
 7387SOL    HW223061   4.057   5.812   3.822
 7388SOL     OW23062   6.006   4.603   4.866
 7388SOL    HW123063   6.053   4.530   4.915
 7388SOL    HW223064   5.919   4.569   4.830
 7389SOL     OW23065   0.704   4.139   5.488
 7389SOL    HW123066   0.700   4.184   5.399
 7389SOL    HW223067   0.741   4.203   5.555
 7390SOL     OW23068   2.156   6.700   5.677
 7390SOL    HW123069   2.240   6.756   5.671
 7390SOL    HW223070   2.115   6.712   5.767
 7391SOL     OW23071   6.844   3.914   0.145
 7391SOL    HW123072   6.871   4.010   0.149
 7391SOL    HW223073   6.926   3.856   0.147
 7392SOL     OW23074   2.170   4.903   3.209
 7392SOL    HW123075   2.074   4.876   3.213
 7392SOL    HW223076   2.179   5.000   3.228
 7393SOL     OW23077   0.794   3.319   0.472
 7393SOL    HW123078   0.700   3.299   0.501
 7393SOL    HW223079   0.813   3.416   0.485
 7394SOL     OW23080   2.993   3.332   6.401
 7394SOL    HW123081   2.928   3.335   6.477
 7394SOL    HW223082   2.961   3.393   6.328
 7395SOL     OW23083   1.744   6.545   0.373
 7395SOL    HW123084   1.731   6.494   0.458
 7395SOL    HW223085   1.665   6.604   0.358
 7396SOL     OW23086   1.281   6.901   0.944
 7396SOL    HW123087   1.322   6.824   0.895
 7396SOL    HW223088   1.295   6.985   0.892
 7397SOL     OW23089   6.136   4.369   4.960
 7397SOL    HW123090   6.207   4.338   4.896
 7397SOL    HW223091   6.059   4.307   4.957
 7398SOL     OW23092   4.092   5.751   3.320
 7398SOL    HW123093   4.164   5.813   3.353
 7398SOL    HW223094   4.010   5.764   3.376
 7399SOL     OW23095   5.278   4.290   4.939
 7399SOL    HW123096   5.287   4.380   4.897
 7399SOL    HW223097   5.248   4.300   5.034
 7400SOL     OW23098   2.145   5.092   6.771
 7400SOL    HW123099   2.173   5.062   6.862
 7400SOL    HW223100   2.211   5.057   6.704
 7401SOL     OW23101   5.191   1.455   4.388
 7401SOL    HW123102   5.128   1.497   4.454
 7401SOL    HW223103   5.260   1.402   4.438
 7402SOL     OW23104   2.199   7.009   3.431
 7402SOL    HW123105   2.159   6.924   3.464
 7402SOL    HW223106   2.280   0.011   3.485
 7403SOL     OW23107   1.797   3.665   1.676
 7403SOL    HW123108   1.785   3.709   1.586
 7403SOL    HW223109   1.894   3.658   1.697
 7404SOL     OW23110   1.059   1.591   3.045
 7404SOL    HW123111   1.032   1.500   3.077
 7404SOL    HW223112   1.152   1.610   3.075
 7405SOL     OW23113   3.136   4.642   6.028
 7405SOL    HW123114   3.145   4.569   6.096
 7405SOL    HW223115   3.218   4.699   6.029
 7406SOL     OW23116   0.476   5.539   2.203
 7406SOL    HW123117   0.440   5.618   2.254
 7406SOL    HW223118   0.447   5.455   2.248
 7407SOL     OW23119   1.712   0.461   5.682
 7407SOL    HW123120   1.617   0.486   5.663
 7407SOL    HW223121   1.771   0.541   5.669
 7408SOL     OW23122   0.478   3.657   5.501
 7408SOL    HW123123   0.470   3.756   5.514
 7408SOL    HW223124   0.572   3.628   5.519
 7409SOL     OW23125   3.151   5.746   6.050
 7409SOL    HW123126   3.083   5.715   6.117
 7409SOL    HW223127   3.134   5.701   5.963
 7410SOL     OW23128   5.772   4.998   0.871
 7410SOL    HW123129   5.709   4.929   0.837
 7410SOL    HW223130   5.813   5.046   0.793
 7411SOL     OW23131   4.947   5.244   5.942
 7411SOL    HW123132   4.887   5.324   5.939
 7411SOL    HW223133   4.900   5.165   5.903
 7412SOL     OW23134   1.337   2.400   0.028
 7412SOL    HW123135   1.298   2.474   6.994
 7412SOL    HW223136   1.334   2.425   0.125
 7413SOL     OW23137   0.081   3.260   4.294
 7413SOL    HW123138   0.041   3.176   4.330
 7413SOL    HW223139   0.030   3.338   4.328
 7414SOL     OW23140   6.593   5.504   3.113
 7414SOL    HW123141   6.605   5.582   3.051
 7414SOL    HW223142   6.498   5.474   3.109
 7415SOL     OW23143   2.654   1.754   2.477
 7415SOL    HW123144   2.555   1.740   2.478
 7415SOL    HW223145   2.674   1.849   2.502
 7416SOL     OW23146   5.435   0.248   3.863
 7416SOL    HW123147   5.355   0.288   3.907
 7416SOL    HW223148   5.518   0.281   3.908
 7417SOL     OW23149   0.865   6.062   0.459
 7417SOL    HW123150   0.783   6.118   0.445
 7417SOL    HW223151   0.944   6.122   0.467
 7418SOL     OW23152   1.187   3.698   0.352
 7418SOL    HW123153   1.138   3.611   0.357
 7418SOL    HW223154   1.283   3.684   0.375
 7419SOL     OW23155   5.165   0.788   4.992
 7419SOL    HW123156   5.232   0.856   5.021
 7419SOL    HW223157   5.073   0.820   5.017
 7420SOL     OW23158   6.931   5.803   2.006
 7420SOL    HW123159   6.860   5.790   1.936
 7420SOL    HW223160   6.889   5.795   2.097
 7421SOL     OW23161   3.884   3.015   1.350
 7421SOL    HW123162   3.881   3.093   1.412
 7421SOL    HW223163   3.979   2.992   1.329
 7422SOL     OW23164   1.300   2.821   1.081
 7422SOL    HW123165   1.268   2.829   0.986
 7422SOL    HW223166   1.344   2.732   1.093
 7423SOL     OW23167   2.128   5.622   0.090
 7423SOL    HW123168   2.180   5.562   0.029
 7423SOL    HW223169   2.111   5.709   0.044
 7424SOL     OW23170   5.911   1.361   4.466
 7424SOL    HW123171   5.837   1.382   4.402
 7424SOL    HW223172   5.997   1.350   4.415
 7425SOL     OW23173   4.120   6.842   5.924
 7425SOL    HW123174   4.021   6.856   5.912
 7425SOL    HW223175   4.159   6.806   5.839
 7426SOL     OW23176   0.932   1.316   0.237
 7426SOL    HW123177   1.008   1.314   0.171
 7426SOL    HW223178   0.936   1.234   0.294
 7427SOL     OW23179   4.212   5.530   4.568
 7427SOL    HW123180   4.114   5.536   4.589
 7427SOL    HW223181   4.265   5.565   4.645
 7428SOL     OW23182   2.796   1.745   5.807
 7428SOL    HW123183   2.820   1.687   5.885
 7428SOL    HW223184   2.874   1.754   5.746
 7429SOL     OW23185   6.730   6.775   3.537
 7429SOL    HW123186   6.770   6.846   3.595
 7429SOL    HW223187   6.651   6.813   3.488
 7430SOL     OW23188   0.567   4.444   4.767
 7430SOL    HW123189   0.583   4.541   4.784
 7430SOL    HW223190   0.470   4.429   4.750
 7431SOL     OW23191   1.157   4.512   2.650
 7431SOL    HW123192   1.140   4.418   2.621
 7431SOL    HW223193   1.101   4.574   2.594
 7432SOL     OW23194   1.206   6.253   5.024
 7432SOL    HW123195   1.184   6.224   5.118
 7432SOL    HW223196   1.305   6.248   5.011
 7433SOL     OW23197   6.799   5.913   1.220
 7433SOL    HW123198   6.830   5.983   1.283
 7433SOL    HW223199   6.829   5.823   1.251
 7434SOL     OW23200   4.554   0.114   6.637
 7434SOL    HW123201   4.528   0.189   6.698
 7434SOL    HW223202   4.646   0.129   6.602
 7435SOL     OW23203   1.510   5.992   0.707
 7435SOL    HW123204   1.586   5.935   0.676
 7435SOL    HW223205   1.535   6.038   0.792
 7436SOL     OW23206   5.230   2.934   6.679
 7436SOL    HW123207   5.155   3.000   6.667
 7436SOL    HW223208   5.306   2.978   6.726
 7437SOL     OW23209   0.257   5.496   5.892
 7437SOL    HW123210   0.309   5.581   5.881
 7437SOL    HW223211   0.194   5.486   5.816
 7438SOL     OW23212   6.181   4.482   1.837
 7438SOL    HW123213   6.125   4.562   1.859
 7438SOL    HW223214   6.127   4.417   1.785
 7439SOL     OW23215   1.497   6.345   3.671
 7439SOL    HW123216   1.464   6.310   3.758
 7439SOL    HW223217   1.585   6.391   3.684
 7440SOL     OW23218   0.806   2.448   4.121
 7440SOL    HW123219   0.859   2.377   4.167
 7440SOL    HW223220   0.806   2.431   4.022
 7441SOL     OW23221   5.568   0.096   3.676
 7441SOL    HW123222   5.506   0.157   3.724
 7441SOL    HW223223   5.654   0.143   3.655
 7442SOL     OW23224   1.703   1.049   6.800
 7442SOL    HW123225   1.792   1.077   6.765
 7442SOL    HW223226   1.689   1.089   6.890
 7443SOL     OW23227   0.080   1.283   0.624
 7443SOL    HW123228   0.096   1.257   0.719
 7443SOL    HW223229   0.093   1.203   0.565
 7444SOL     OW23230   7.018   2.468   6.402
 7444SOL    HW123231   6.955   2.453   6.327
 7444SOL    HW223232   0.061   2.541   6.378
 7445SOL     OW23233   5.699   3.103   2.362
 7445SOL    HW123234   5.641   3.079   2.441
 7445SOL    HW223235   5.794   3.111   2.392
 7446SOL     OW23236   0.190   3.629   1.002
 7446SOL    HW123237   0.145   3.544   1.030
 7446SOL    HW223238   0.157   3.705   1.057
 7447SOL     OW23239   0.112   4.208   6.288
 7447SOL    HW123240   0.104   4.159   6.374
 7447SOL    HW223241   0.169   4.155   6.224
 7448SOL     OW23242   6.805   6.551   6.021
 7448SOL    HW123243   6.873   6.559   5.948
 7448SOL    HW223244   6.716   6.582   5.988
 7449SOL     OW23245   4.457   0.981   1.634
 7449SOL    HW123246   4.472   0.894   1.681
 7449SOL    HW223247   4.544   1.027   1.620
 7450SOL     OW23248   3.359   0.177   2.813
 7450SOL    HW123249   3.429   0.135   2.871
 7450SOL    HW223250   3.402   0.211   2.729
 7451SOL     OW23251   1.276   1.036   3.403
 7451SOL    HW123252   1.277   1.037   3.303
 7451SOL    HW223253   1.284   0.941   3.435
 7452SOL     OW23254   1.453   6.559   4.636
 7452SOL    HW123255   1.358   6.588   4.630
 7452SOL    HW223256   1.479   6.548   4.732
 7453SOL     OW23257   5.437   5.915   5.361
 7453SOL    HW123258   5.370   5.988   5.347
 7453SOL    HW223259   5.394   5.839   5.410
 7454SOL     OW23260   0.448   3.118   0.377
 7454SOL    HW123261   0.513   3.133   0.302
 7454SOL    HW223262   0.492   3.142   0.464
 7455SOL     OW23263   5.634   1.452   0.457
 7455SOL    HW123264   5.648   1.535   0.511
 7455SOL    HW223265   5.639   1.372   0.516
 7456SOL     OW23266   1.953   3.053   5.683
 7456SOL    HW123267   1.984   3.145   5.660
 7456SOL    HW223268   2.024   2.987   5.658
 7457SOL     OW23269   6.069   0.071   5.930
 7457SOL    HW123270   6.022   0.148   5.889
 7457SOL    HW223271   6.114   0.100   6.014
 7458SOL     OW23272   2.618   0.947   0.426
 7458SOL    HW123273   2.566   0.873   0.469
 7458SOL    HW223274   2.556   1.003   0.371
 7459SOL     OW23275   4.297   0.487   5.032
 7459SOL    HW123276   4.336   0.442   4.951
 7459SOL    HW223277   4.350   0.462   5.113
 7460SOL     OW23278   0.836   5.150   6.994
 7460SOL    HW123279   0.920   5.114   0.012
 7460SOL    HW223280   0.808   5.232   0.023
 7461SOL     OW23281   4.571   0.318   4.053
 7461SOL    HW123282   4.594   0.385   3.982
 7461SOL    HW223283   4.484   0.274   4.031
 7462SOL     OW23284   1.885   1.505   2.336
 7462SOL    HW123285   1.855   1.489   2.242
 7462SOL    HW223286   1.957   1.574   2.337
 7463SOL     OW23287   3.318   3.411   2.101
 7463SOL    HW123288   3.282   3.339   2.160
 7463SOL    HW223289   3.267   3.411   2.015
 7464SOL     OW23290   5.301   6.466   6.269
 7464SOL    HW123291   5.322   6.368   6.275
 7464SOL    HW223292   5.216   6.485   6.317
 7465SOL     OW23293   3.131   0.787   1.619
 7465SOL    HW123294   3.105   0.820   1.710
 7465SOL    HW223295   3.105   0.855   1.550
 7466SOL     OW23296   0.694   0.345   6.457
 7466SOL    HW123297   0.788   0.349   6.491
 7466SOL    HW223298   0.631   0.377   6.529
 7467SOL     OW23299   6.207   1.750   1.048
 7467SOL    HW123300   6.157   1.695   1.115
 7467SOL    HW223301   6.305   1.740   1.064
 7468SOL     OW23302   6.512   3.567   3.911
 7468SOL    HW123303   6.591   3.514   3.940
 7468SOL    HW223304   6.439   3.505   3.883
 7469SOL     OW23305   6.861   1.200   1.983
 7469SOL    HW123306   6.932   1.252   2.031
 7469SOL    HW223307   6.904   1.136   1.920
 7470SOL     OW23308   0.104   2.420   2.405
 7470SOL    HW123309   0.009   2.450   2.409
 7470SOL    HW223310   0.161   2.482   2.459
 7471SOL     OW23311   6.114   5.423   6.093
 7471SOL    HW123312   6.053   5.481   6.146
 7471SOL    HW223313   6.080   5.329   6.095
 7472SOL     OW23314   3.455   5.608   3.548
 7472SOL    HW123315   3.378   5.671   3.536
 7472SOL    HW223316   3.420   5.515   3.559
 7473SOL     OW23317   0.566   3.584   5.038
 7473SOL    HW123318   0.504   3.533   4.979
 7473SOL    HW223319   0.598   3.524   5.112
 7474SOL     OW23320   4.063   0.848   2.646
 7474SOL    HW123321   3.992   0.853   2.716
 7474SOL    HW223322   4.074   0.937   2.603
 7475SOL     OW23323   4.040   1.451   0.137
 7475SOL    HW123324   3.952   1.497   0.123
 7475SOL    HW223325   4.114   1.518   0.127
 7476SOL     OW23326   3.147   6.830   5.093
 7476SOL    HW123327   3.071   6.886   5.125
 7476SOL    HW223328   3.113   6.741   5.065
 7477SOL     OW23329   4.735   2.284   3.430
 7477SOL    HW123330   4.750   2.378   3.459
 7477SOL    HW223331   4.663   2.281   3.360
 7478SOL     OW23332   1.807   4.955   0.782
 7478SOL    HW123333   1.805   4.902   0.697
 7478SOL    HW223334   1.870   5.032   0.771
 7479SOL     OW23335   4.630   0.297   6.231
 7479SOL    HW123336   4.707   0.361   6.239
 7479SOL    HW223337   4.664   0.204   6.244
 7480SOL     OW23338   0.170   4.933   1.262
 7480SOL    HW123339   0.093   4.872   1.243
 7480SOL    HW223340   0.156   5.020   1.214
 7481SOL     OW23341   6.447   5.357   0.453
 7481SOL    HW123342   6.384   5.323   0.383
 7481SOL    HW223343   6.465   5.286   0.520
 7482SOL     OW23344   5.014   0.323   4.297
 7482SOL    HW123345   5.017   0.231   4.339
 7482SOL    HW223346   4.922   0.339   4.262
 7483SOL     OW23347   3.320   0.346   6.280
 7483SOL    HW123348   3.336   0.418   6.213
 7483SOL    HW223349   3.398   0.340   6.342
 7484SOL     OW23350   2.833   0.110   2.291
 7484SOL    HW123351   2.755   0.164   2.259
 7484SOL    HW223352   2.908   0.172   2.315
 7485SOL     OW23353   1.460   7.004   6.622
 7485SOL    HW123354   1.473   7.004   6.523
 7485SOL    HW223355   1.370   6.966   6.643
 7486SOL     OW23356   1.817   0.400   5.334
 7486SOL    HW123357   1.876   0.319   5.332
 7486SOL    HW223358   1.726   0.376   5.302
 7487SOL     OW23359   4.359   5.058   3.215
 7487SOL    HW123360   4.326   5.147   3.247
 7487SOL    HW223361   4.445   5.037   3.259
 7488SOL     OW23362   3.602   0.876   5.705
 7488SOL    HW123363   3.679   0.920   5.753
 7488SOL    HW223364   3.622   0.873   5.607
 7489SOL     OW23365   6.501   3.671   3.218
 7489SOL    HW123366   6.449   3.701   3.138
 7489SOL    HW223367   6.497   3.571   3.224
 7490SOL     OW23368   5.589   1.328   1.883
 7490SOL    HW123369   5.522   1.395   1.914
 7490SOL    HW223370   5.658   1.374   1.827
 7491SOL     OW23371   6.577   5.917   6.548
 7491SOL    HW123372   6.500   5.972   6.579
 7491SOL    HW223373   6.558   5.879   6.457
 7492SOL     OW23374   2.480   2.651   4.481
 7492SOL    HW123375   2.501   2.592   4.559
 7492SOL    HW223376   2.551   2.720   4.471
 7493SOL     OW23377   5.314   3.706   6.890
 7493SOL    HW123378   5.282   3.669   6.977
 7493SOL    HW223379   5.237   3.713   6.826
 7494SOL     OW23380   4.894   2.019   1.441
 7494SOL    HW123381   4.828   1.988   1.510
 7494SOL    HW223382   4.850   2.023   1.352
 7495SOL     OW23383   0.242   1.655   2.317
 7495SOL    HW123384   0.179   1.580   2.337
 7495SOL    HW223385   0.331   1.618   2.293
 7496SOL     OW23386   1.196   4.737   5.487
 7496SOL    HW123387   1.290   4.729   5.454
 7496SOL    HW223388   1.178   4.666   5.555
 7497SOL     OW23389   2.116   5.117   1.731
 7497SOL    HW123390   2.093   5.094   1.825
 7497SOL    HW223391   2.213   5.143   1.726
 7498SOL     OW23392   4.592   1.228   4.552
 7498SOL    HW123393   4.603   1.309   4.493
 7498SOL    HW223394   4.522   1.169   4.513
 7499SOL     OW23395   4.719   5.760   3.791
 7499SOL    HW123396   4.764   5.813   3.719
 7499SOL    HW223397   4.787   5.712   3.846
 7500SOL     OW23398   5.245   4.685   1.617
 7500SOL    HW123399   5.287   4.766   1.657
 7500SOL    HW223400   5.304   4.606   1.631
 7501SOL     OW23401   6.709   4.297   3.576
 7501SOL    HW123402   6.699   4.289   3.477
 7501SOL    HW223403   6.746   4.387   3.599
 7502SOL     OW23404   2.343   1.464   4.275
 7502SOL    HW123405   2.256   1.415   4.276
 7502SOL    HW223406   2.375   1.478   4.368
 7503SOL     OW23407   2.619   2.753   6.372
 7503SOL    HW123408   2.520   2.747   6.376
 7503SOL    HW223409   2.647   2.849   6.374
 7504SOL     OW23410   4.194   5.634   4.010
 7504SOL    HW123411   4.096   5.624   3.990
 7504SOL    HW223412   4.210   5.611   4.106
 7505SOL     OW23413   1.464   1.605   4.898
 7505SOL    HW123414   1.561   1.621   4.882
 7505SOL    HW223415   1.427   1.677   4.956
 7506SOL     OW23416   3.985   1.586   3.650
 7506SOL    HW123417   3.927   1.593   3.732
 7506SOL    HW223418   4.078   1.614   3.673
 7507SOL     OW23419   1.210   6.193   5.787
 7507SOL    HW123420   1.245   6.286   5.792
 7507SOL    HW223421   1.224   6.157   5.694
 7508SOL     OW23422   4.303   0.183   4.060
 7508SOL    HW123423   4.357   0.099   4.057
 7508SOL    HW223424   4.287   0.216   3.967
 7509SOL     OW23425   5.055   3.485   5.559
 7509SOL    HW123426   5.110   3.508   5.640
 7509SOL    HW223427   4.997   3.406   5.580
 7510SOL     OW23428   3.747   4.201   4.880
 7510SOL    HW123429   3.776   4.292   4.851
 7510SOL    HW223430   3.755   4.194   4.980
 7511SOL     OW23431   1.515   1.187   2.596
 7511SOL    HW123432   1.581   1.195   2.670
 7511SOL    HW223433   1.542   1.112   2.535
 7512SOL     OW23434   2.341   2.907   1.837
 7512SOL    HW123435   2.298   2.987   1.794
 7512SOL    HW223436   2.332   2.828   1.776
 7513SOL     OW23437   1.276   2.858   6.662
 7513SOL    HW123438   1.261   2.840   6.760
 7513SOL    HW223439   1.247   2.951   6.641
 7514SOL     OW23440   2.635   6.275   3.376
 7514SOL    HW123441   2.595   6.214   3.445
 7514SOL    HW223442   2.565   6.301   3.310
 7515SOL     OW23443   6.311   5.136   2.779
 7515SOL    HW123444   6.393   5.193   2.768
 7515SOL    HW223445   6.248   5.181   2.842
 7516SOL     OW23446   0.919   0.596   3.219
 7516SOL    HW123447   0.874   0.646   3.294
 7516SOL    HW223448   0.983   0.656   3.172
 7517SOL     OW23449   0.573   3.893   1.479
 7517SOL    HW123450   0.672   3.895   1.468
 7517SOL    HW223451   0.550   3.906   1.576
 7518SOL     OW23452   4.793   5.881   3.523
 7518SOL    HW123453   4.873   5.936   3.499
 7518SOL    HW223454   4.758   5.834   3.442
 7519SOL     OW23455   2.234   5.760   3.892
 7519SOL    HW123456   2.295   5.681   3.887
 7519SOL    HW223457   2.155   5.745   3.832
 7520SOL     OW23458   2.208   0.174   4.557
 7520SOL    HW123459   2.162   0.088   4.536
 7520SOL    HW223460   2.164   0.249   4.508
 7521SOL     OW23461   5.252   4.486   5.891
 7521SOL    HW123462   5.193   4.482   5.972
 7521SOL    HW223463   5.280   4.581   5.876
 7522SOL     OW23464   1.702   0.877   1.735
 7522SOL    HW123465   1.715   0.847   1.830
 7522SOL    HW223466   1.786   0.862   1.683
 7523SOL     OW23467   6.085   6.783   6.639
 7523SOL    HW123468   6.012   6.714   6.637
 7523SOL    HW223469   6.054   6.861   6.693
 7524SOL     OW23470   6.807   1.184   4.355
 7524SOL    HW123471   6.897   1.197   4.313
 7524SOL    HW223472   6.775   1.271   4.392
 7525SOL     OW23473   1.590   6.767   0.959
 7525SOL    HW123474   1.623   6.846   1.012
 7525SOL    HW223475   1.539   6.706   1.019
 7526SOL     OW23476   3.619   3.264   5.301
 7526SOL    HW123477   3.547   3.334   5.295
 7526SOL    HW223478   3.696   3.291   5.243
 7527SOL     OW23479   5.553   4.845   2.374
 7527SOL    HW123480   5.467   4.805   2.406
 7527SOL    HW223481   5.573   4.928   2.427
 7528SOL     OW23482   6.262   3.966   6.130
 7528SOL    HW123483   6.207   3.961   6.213
 7528SOL    HW223484   6.226   4.038   6.070
 7529SOL     OW23485   2.912   0.413   5.635
 7529SOL    HW123486   2.951   0.465   5.559
 7529SOL    HW223487   2.850   0.344   5.599
 7530SOL     OW23488   0.153   3.374   2.260
 7530SOL    HW123489   0.222   3.393   2.330
 7530SOL    HW223490   0.064   3.406   2.291
 7531SOL     OW23491   3.391   2.125   3.139
 7531SOL    HW123492   3.383   2.077   3.226
 7531SOL    HW223493   3.431   2.216   3.154
 7532SOL     OW23494   4.889   4.770   2.221
 7532SOL    HW123495   4.836   4.853   2.204
 7532SOL    HW223496   4.873   4.738   2.315
 7533SOL     OW23497   3.507   0.059   4.470
 7533SOL    HW123498   3.489   7.005   4.534
 7533SOL    HW223499   3.557   0.132   4.517
 7534SOL     OW23500   4.945   0.176   4.598
 7534SOL    HW123501   4.976   0.165   4.692
 7534SOL    HW223502   4.855   0.221   4.597
 7535SOL     OW23503   3.165   3.707   6.631
 7535SOL    HW123504   3.256   3.682   6.598
 7535SOL    HW223505   3.100   3.636   6.605
 7536SOL     OW23506   3.814   6.271   4.038
 7536SOL    HW123507   3.720   6.267   4.072
 7536SOL    HW223508   3.860   6.184   4.056
 7537SOL     OW23509   2.259   4.890   6.016
 7537SOL    HW123510   2.313   4.806   6.002
 7537SOL    HW223511   2.172   4.866   6.058
 7538SOL     OW23512   3.544   3.279   2.837
 7538SOL    HW123513   3.512   3.372   2.822
 7538SOL    HW223514   3.644   3.280   2.849
 7539SOL     OW23515   2.104   2.561   4.635
 7539SOL    HW123516   2.121   2.631   4.705
 7539SOL    HW223517   2.179   2.494   4.636
 7540SOL     OW23518   2.010   1.430   0.575
 7540SOL    HW123519   2.036   1.521   0.545
 7540SOL    HW223520   1.955   1.437   0.658
 7541SOL     OW23521   6.676   2.782   5.459
 7541SOL    HW123522   6.728   2.803   5.542
 7541SOL    HW223523   6.578   2.789   5.478
 7542SOL     OW23524   2.118   0.158   6.690
 7542SOL    HW123525   2.171   0.213   6.625
 7542SOL    HW223526   2.098   0.069   6.650
 7543SOL     OW23527   4.037   3.164   6.991
 7543SOL    HW123528   4.113   3.180   6.929
 7543SOL    HW223529   4.028   3.066   7.008
 7544SOL     OW23530   1.921   1.975   2.892
 7544SOL    HW123531   1.822   1.961   2.885
 7544SOL    HW223532   1.945   1.998   2.986
 7545SOL     OW23533   5.338   0.053   4.067
 7545SOL    HW123534   5.399   0.103   4.005
 7545SOL    HW223535   5.243   0.072   4.042
 7546SOL     OW23536   4.711   0.577   6.818
 7546SOL    HW123537   4.810   0.573   6.832
 7546SOL    HW223538   4.664   0.549   6.903
 7547SOL     OW23539   3.187   0.096   0.304
 7547SOL    HW123540   3.256   0.126   0.370
 7547SOL    HW223541   3.228   0.032   0.239
 7548SOL     OW23542   1.373   2.566   1.463
 7548SOL    HW123543   1.445   2.588   1.529
 7548SOL    HW223544   1.404   2.492   1.403
 7549SOL     OW23545   6.055   2.276   2.014
 7549SOL    HW123546   5.976   2.221   2.042
 7549SOL    HW223547   6.129   2.264   2.080
 7550SOL     OW23548   1.870   5.390   0.838
 7550SOL    HW123549   1.789   5.333   0.849
 7550SOL    HW223550   1.904   5.417   0.928
 7551SOL     OW23551   4.709   4.093   6.373
 7551SOL    HW123552   4.703   4.130   6.466
 7551SOL    HW223553   4.696   3.994   6.376
 7552SOL     OW23554   3.522   5.413   4.003
 7552SOL    HW123555   3.530   5.321   4.040
 7552SOL    HW223556   3.593   5.427   3.933
 7553SOL     OW23557   4.311   4.654   6.008
 7553SOL    HW123558   4.273   4.679   6.097
 7553SOL    HW223559   4.352   4.563   6.014
 7554SOL     OW23560   6.556   1.303   1.105
 7554SOL    HW123561   6.621   1.285   1.031
 7554SOL    HW223562   6.513   1.392   1.092
 7555SOL     OW23563   0.770   5.897   5.725
 7555SOL    HW123564   0.869   5.890   5.719
 7555SOL    HW223565   0.745   5.979   5.776
 7556SOL     OW23566   6.746   3.007   4.270
 7556SOL    HW123567   6.756   3.094   4.319
 7556SOL    HW223568   6.834   2.961   4.265
 7557SOL     OW23569   4.552   4.005   6.943
 7557SOL    HW123570   4.607   4.087   6.955
 7557SOL    HW223571   4.550   3.980   6.846
 7558SOL     OW23572   1.584   3.409   4.255
 7558SOL    HW123573   1.625   3.487   4.208
 7558SOL    HW223574   1.529   3.356   4.191
 7559SOL     OW23575   0.696   4.798   0.920
 7559SOL    HW123576   0.772   4.738   0.897
 7559SOL    HW223577   0.615   4.771   0.867
 7560SOL     OW23578   4.123   6.646   6.934
 7560SOL    HW123579   4.100   6.738   6.902
 7560SOL    HW223580   4.040   6.592   6.942
 7561SOL     OW23581   0.736   2.963   1.067
 7561SOL    HW123582   0.700   3.022   1.140
 7561SOL    HW223583   0.716   3.005   0.978
 7562SOL     OW23584   4.746   5.631   5.674
 7562SOL    HW123585   4.675   5.701   5.678
 7562SOL    HW223586   4.830   5.672   5.637
 7563SOL     OW23587   1.984   1.029   2.275
 7563SOL    HW123588   2.029   1.104   2.226
 7563SOL    HW223589   1.949   0.963   2.209
 7564SOL     OW23590   5.332   6.232   4.063
 7564SOL    HW123591   5.362   6.217   4.158
 7564SOL    HW223592   5.348   6.148   4.011
 7565SOL     OW23593   4.647   4.395   0.815
 7565SOL    HW123594   4.576   4.330   0.789
 7565SOL    HW223595   4.702   4.419   0.735
 7566SOL     OW23596   1.847   5.786   4.699
 7566SOL    HW123597   1.830   5.764   4.795
 7566SOL    HW223598   1.860   5.885   4.689
 7567SOL     OW23599   2.766   3.266   0.263
 7567SOL    HW123600   2.719   3.265   0.351
 7567SOL    HW223601   2.804   3.357   0.247
 7568SOL     OW23602   5.161   4.427   3.013
 7568SOL    HW123603   5.215   4.396   2.935
 7568SOL    HW223604   5.202   4.391   3.097
 7569SOL     OW23605   3.991   6.727   0.677
 7569SOL    HW123606   3.984   6.764   0.770
 7569SOL    HW223607   3.904   6.738   0.630
 7570SOL     OW23608   6.096   4.845   4.939
 7570SOL    HW123609   6.032   4.910   4.981
 7570SOL    HW223610   6.048   4.760   4.918
 7571SOL     OW23611   5.128   3.930   1.917
 7571SOL    HW123612   5.154   3.869   1.842
 7571SOL    HW223613   5.029   3.941   1.918
 7572SOL     OW23614   2.481   1.851   4.394
 7572SOL    HW123615   2.460   1.832   4.490
 7572SOL    HW223616   2.453   1.944   4.372
 7573SOL     OW23617   2.347   5.591   5.152
 7573SOL    HW123618   2.397   5.526   5.209
 7573SOL    HW223619   2.301   5.541   5.078
 7574SOL     OW23620   4.939   6.246   2.679
 7574SOL    HW123621   4.980   6.165   2.636
 7574SOL    HW223622   4.979   6.329   2.639
 7575SOL     OW23623   4.363   2.205   5.025
 7575SOL    HW123624   4.358   2.170   4.932
 7575SOL    HW223625   4.292   2.274   5.039
 7576SOL     OW23626   6.282   3.449   1.246
 7576SOL    HW123627   6.377   3.448   1.216
 7576SOL    HW223628   6.275   3.412   1.338
 7577SOL     OW23629   4.814   0.532   5.344
 7577SOL    HW123630   4.757   0.599   5.295
 7577SOL    HW223631   4.775   0.441   5.333
 7578SOL     OW23632   2.641   4.601   4.372
 7578SOL    HW123633   2.697   4.616   4.453
 7578SOL    HW223634   2.560   4.548   4.396
 7579SOL     OW23635   4.108   1.809   3.357
 7579SOL    HW123636   4.106   1.838   3.453
 7579SOL    HW223637   4.194   1.838   3.316
 7580SOL     OW23638   1.919   4.219   3.485
 7580SOL    HW123639   1.875   4.160   3.416
 7580SOL    HW223640   1.853   4.286   3.519
 7581SOL     OW23641   5.966   0.429   1.252
 7581SOL    HW123642   5.985   0.526   1.238
 7581SOL    HW223643   6.021   0.394   1.327
 7582SOL     OW23644   2.748   1.230   1.069
 7582SOL    HW123645   2.720   1.280   0.988
 7582SOL    HW223646   2.669   1.216   1.129
 7583SOL     OW23647   0.334   3.546   2.446
 7583SOL    HW123648   0.432   3.549   2.468
 7583SOL    HW223649   0.284   3.604   2.510
 7584SOL     OW23650   2.213   1.230   1.483
 7584SOL    HW123651   2.270   1.191   1.555
 7584SOL    HW223652   2.270   1.256   1.405
 7585SOL     OW23653   1.713   5.036   5.662
 7585SOL    HW123654   1.711   5.063   5.758
 7585SOL    HW223655   1.767   4.952   5.653
 7586SOL     OW23656   2.349   1.010   2.107
 7586SOL    HW123657   2.419   1.081   2.105
 7586SOL    HW223658   2.383   0.929   2.058
 7587SOL     OW23659   1.929   0.892   6.294
 7587SOL    HW123660   1.831   0.872   6.289
 7587SOL    HW223661   1.977   0.840   6.224
 7588SOL     OW23662   0.246   3.949   1.379
 7588SOL    HW123663   0.238   3.862   1.331
 7588SOL    HW223664   0.342   3.972   1.392
 7589SOL     OW23665   5.797   6.033   0.510
 7589SOL    HW123666   5.819   5.957   0.448
 7589SOL    HW223667   5.827   6.119   0.470
 7590SOL     OW23668   1.894   1.026   6.002
 7590SOL    HW123669   1.936   0.979   5.924
 7590SOL    HW223670   1.919   1.123   6.000
 7591SOL     OW23671   6.619   4.990   0.404
 7591SOL    HW123672   6.687   4.957   0.470
 7591SOL    HW223673   6.628   4.940   0.318
 7592SOL     OW23674   5.406   5.729   0.494
 7592SOL    HW123675   5.306   5.726   0.491
 7592SOL    HW223676   5.435   5.823   0.513
 7593SOL     OW23677   5.934   2.615   6.438
 7593SOL    HW123678   5.915   2.696   6.493
 7593SOL    HW223679   5.848   2.565   6.423
 7594SOL     OW23680   1.367   6.036   4.100
 7594SOL    HW123681   1.419   6.002   4.178
 7594SOL    HW223682   1.269   6.030   4.120
 7595SOL     OW23683   6.212   2.763   0.099
 7595SOL    HW123684   6.293   2.821   0.088
 7595SOL    HW223685   6.224   2.703   0.177
 7596SOL     OW23686   5.283   4.556   2.040
 7596SOL    HW123687   5.237   4.645   2.036
 7596SOL    HW223688   5.379   4.566   2.014
 7597SOL     OW23689   3.078   5.333   1.724
 7597SOL    HW123690   3.035   5.383   1.799
 7597SOL    HW223691   3.152   5.388   1.685
 7598SOL     OW23692   6.475   0.814   3.128
 7598SOL    HW123693   6.567   0.846   3.148
 7598SOL    HW223694   6.479   0.743   3.057
 7599SOL     OW23695   6.449   2.001   2.075
 7599SOL    HW123696   6.414   2.021   1.983
 7599SOL    HW223697   6.471   1.904   2.083
 7600SOL     OW23698   2.240   2.071   1.386
 7600SOL    HW123699   2.221   2.129   1.466
 7600SOL    HW223700   2.326   2.022   1.401
 7601SOL     OW23701   2.501   6.325   5.367
 7601SOL    HW123702   2.532   6.357   5.278
 7601SOL    HW223703   2.408   6.358   5.383
 7602SOL     OW23704   2.203   3.531   4.986
 7602SOL    HW123705   2.155   3.443   4.987
 7602SOL    HW223706   2.242   3.547   4.895
 7603SOL     OW23707   0.869   0.435   1.881
 7603SOL    HW123708   0.784   0.385   1.898
 7603SOL    HW223709   0.876   0.455   1.783
 7604SOL     OW23710   4.824   6.384   6.359
 7604SOL    HW123711   4.773   6.374   6.274
 7604SOL    HW223712   4.813   6.301   6.414
 7605SOL     OW23713   5.729   4.541   5.887
 7605SOL    HW123714   5.682   4.627   5.867
 7605SOL    HW223715   5.661   4.472   5.916
 7606SOL     OW23716   5.657   1.894   2.305
 7606SOL    HW123717   5.653   1.861   2.210
 7606SOL    HW223718   5.740   1.948   2.318
 7607SOL     OW23719   5.330   6.825   6.865
 7607SOL    HW123720   5.303   6.920   6.881
 7607SOL    HW223721   5.342   6.778   6.952
 7608SOL     OW23722   3.270   2.937   3.338
 7608SOL    HW123723   3.364   2.952   3.370
 7608SOL    HW223724   3.270   2.923   3.240
 7609SOL     OW23725   1.257   2.999   4.386
 7609SOL    HW123726   1.317   2.923   4.413
 7609SOL    HW223727   1.214   2.977   4.298
 7610SOL     OW23728   5.070   0.181   1.233
 7610SOL    HW123729   5.146   0.221   1.181
 7610SOL    HW223730   5.105   0.146   1.320
 7611SOL     OW23731   2.014   1.971   1.302
 7611SOL    HW123732   2.102   1.984   1.347
 7611SOL    HW223733   2.010   1.879   1.264
 7612SOL     OW23734   4.394   1.216   2.889
 7612SOL    HW123735   4.493   1.226   2.886
 7612SOL    HW223736   4.365   1.142   2.829
 7613SOL     OW23737   4.727   1.131   2.112
 7613SOL    HW123738   4.680   1.123   2.200
 7613SOL    HW223739   4.669   1.179   2.047
 7614SOL     OW23740   4.232   1.963   0.485
 7614SOL    HW123741   4.173   1.919   0.418
 7614SOL    HW223742   4.288   2.032   0.439
 7615SOL     OW23743   3.495   5.079   5.332
 7615SOL    HW123744   3.566   5.110   5.269
 7615SOL    HW223745   3.488   4.979   5.327
 7616SOL     OW23746   5.840   4.986   4.193
 7616SOL    HW123747   5.905   4.960   4.264
 7616SOL    HW223748   5.829   4.910   4.129
 7617SOL     OW23749   3.175   5.973   2.597
 7617SOL    HW123750   3.168   5.930   2.687
 7617SOL    HW223751   3.088   6.017   2.575
 7618SOL     OW23752   1.598   2.513   0.884
 7618SOL    HW123753   1.638   2.603   0.868
 7618SOL    HW223754   1.556   2.480   0.799
 7619SOL     OW23755   5.621   3.185   5.636
 7619SOL    HW123756   5.694   3.117   5.641
 7619SOL    HW223757   5.620   3.227   5.545
 7620SOL     OW23758   3.174   6.542   1.772
 7620SOL    HW123759   3.165   6.541   1.672
 7620SOL    HW223760   3.259   6.498   1.798
 7621SOL     OW23761   2.447   1.477   1.956
 7621SOL    HW123762   2.487   1.562   1.922
 7621SOL    HW223763   2.516   1.404   1.953
 7622SOL     OW23764   4.413   2.500   0.338
 7622SOL    HW123765   4.425   2.440   0.417
 7622SOL    HW223766   4.378   2.446   0.261
 7623SOL     OW23767   5.077   0.575   5.368
 7623SOL    HW123768   4.981   0.552   5.354
 7623SOL    HW223769   5.117   0.509   5.432
 7624SOL     OW23770   0.363   0.334   3.845
 7624SOL    HW123771   0.293   0.265   3.824
 7624SOL    HW223772   0.450   0.304   3.806
 7625SOL     OW23773   4.503   0.178   1.430
 7625SOL    HW123774   4.413   0.134   1.430
 7625SOL    HW223775   4.546   0.166   1.520
 7626SOL     OW23776   1.731   5.274   4.855
 7626SOL    HW123777   1.682   5.188   4.867
 7626SOL    HW223778   1.747   5.290   4.758
 7627SOL     OW23779   0.088   2.743   0.275
 7627SOL    HW123780   0.002   2.702   0.247
 7627SOL    HW223781   0.109   2.717   0.370
 7628SOL     OW23782   3.897   1.858   0.993
 7628SOL    HW123783   3.856   1.820   0.910
 7628SOL    HW223784   3.903   1.786   1.063
 7629SOL     OW23785   6.363   5.431   3.941
 7629SOL    HW123786   6.355   5.450   4.038
 7629SOL    HW223787   6.439   5.369   3.925
 7630SOL     OW23788   6.281   0.666   2.373
 7630SOL    HW123789   6.370   0.637   2.408
 7630SOL    HW223790   6.246   0.741   2.429
 7631SOL     OW23791   0.537   2.388   3.730
 7631SOL    HW123792   0.488   2.302   3.716
 7631SOL    HW223793   0.595   2.381   3.811
 7632SOL     OW23794   4.416   1.346   6.654
 7632SOL    HW123795   4.444   1.414   6.723
 7632SOL    HW223796   4.411   1.390   6.564
 7633SOL     OW23797   5.504   4.108   6.499
 7633SOL    HW123798   5.528   4.204   6.508
 7633SOL    HW223799   5.474   4.073   6.588
 7634SOL     OW23800   0.960   1.730   2.295
 7634SOL    HW123801   0.888   1.753   2.359
 7634SOL    HW223802   0.942   1.774   2.207
 7635SOL     OW23803   3.067   4.673   5.766
 7635SOL    HW123804   3.139   4.695   5.699
 7635SOL    HW223805   3.102   4.688   5.858
 7636SOL     OW23806   1.472   0.407   3.950
 7636SOL    HW123807   1.404   0.349   3.995
 7636SOL    HW223808   1.487   0.490   4.003
 7637SOL     OW23809   2.034   5.872   4.429
 7637SOL    HW123810   2.093   5.946   4.395
 7637SOL    HW223811   2.061   5.847   4.522
 7638SOL     OW23812   4.527   4.762   2.011
 7638SOL    HW123813   4.554   4.775   2.106
 7638SOL    HW223814   4.461   4.832   1.984
 7639SOL     OW23815   0.967   1.740   4.439
 7639SOL    HW123816   0.867   1.739   4.443
 7639SOL    HW223817   1.002   1.647   4.438
 7640SOL     OW23818   2.613   2.316   6.787
 7640SOL    HW123819   2.694   2.337   6.842
 7640SOL    HW223820   2.628   2.348   6.693
 7641SOL     OW23821   6.600   3.508   2.820
 7641SOL    HW123822   6.697   3.527   2.835
 7641SOL    HW223823   6.561   3.466   2.902
 7642SOL     OW23824   2.987   1.847   2.703
 7642SOL    HW123825   2.904   1.809   2.742
 7642SOL    HW223826   2.967   1.935   2.660
 7643SOL     OW23827   4.833   2.906   2.790
 7643SOL    HW123828   4.815   2.964   2.869
 7643SOL    HW223829   4.793   2.815   2.806
 7644SOL     OW23830   0.124   3.651   3.473
 7644SOL    HW123831   0.123   3.579   3.404
 7644SOL    HW223832   0.050   3.716   3.456
 7645SOL     OW23833   4.744   4.204   6.662
 7645SOL    HW123834   4.646   4.223   6.656
 7645SOL    HW223835   4.759   4.105   6.666
 7646SOL     OW23836   1.731   2.017   2.502
 7646SOL    HW123837   1.705   2.067   2.419
 7646SOL    HW223838   1.735   1.919   2.481
 7647SOL     OW23839   2.164   4.289   1.452
 7647SOL    HW123840   2.067   4.268   1.437
 7647SOL    HW223841   2.218   4.254   1.375
 7648SOL     OW23842   4.059   0.579   3.487
 7648SOL    HW123843   4.016   0.603   3.399
 7648SOL    HW223844   3.987   0.561   3.555
 7649SOL     OW23845   2.871   0.809   1.416
 7649SOL    HW123846   2.832   0.787   1.505
 7649SOL    HW223847   2.935   0.737   1.388
 7650SOL     OW23848   6.396   4.889   2.740
 7650SOL    HW123849   6.353   4.976   2.765
 7650SOL    HW223850   6.326   4.827   2.703
 7651SOL     OW23851   3.926   1.383   6.321
 7651SOL    HW123852   3.906   1.377   6.223
 7651SOL    HW223853   3.931   1.479   6.348
 7652SOL     OW23854   0.739   2.815   2.406
 7652SOL    HW123855   0.705   2.725   2.435
 7652SOL    HW223856   0.797   2.804   2.325
 7653SOL     OW23857   3.264   2.424   1.279
 7653SOL    HW123858   3.244   2.328   1.296
 7653SOL    HW223859   3.312   2.434   1.192
 7654SOL     OW23860   4.921   3.631   3.631
 7654SOL    HW123861   4.942   3.578   3.713
 7654SOL    HW223862   4.855   3.702   3.654
 7655SOL     OW23863   4.404   6.254   5.616
 7655SOL    HW123864   4.305   6.264   5.623
 7655SOL    HW223865   4.445   6.345   5.604
 7656SOL     OW23866   1.006   6.223   4.808
 7656SOL    HW123867   0.991   6.127   4.784
 7656SOL    HW223868   1.098   6.234   4.846
 7657SOL     OW23869   4.412   1.049   4.376
 7657SOL    HW123870   4.441   0.962   4.335
 7657SOL    HW223871   4.348   1.030   4.450
 7658SOL     OW23872   3.961   0.497   6.058
 7658SOL    HW123873   3.980   0.593   6.035
 7658SOL    HW223874   4.032   0.439   6.019
 7659SOL     OW23875   5.773   7.012   0.992
 7659SOL    HW123876   5.796   0.088   1.008
 7659SOL    HW223877   5.809   6.983   0.904
 7660SOL     OW23878   5.756   4.748   4.396
 7660SOL    HW123879   5.687   4.795   4.342
 7660SOL    HW223880   5.755   4.784   4.490
 7661SOL     OW23881   5.407   3.437   3.119
 7661SOL    HW123882   5.335   3.492   3.161
 7661SOL    HW223883   5.367   3.376   3.050
 7662SOL     OW23884   0.130   5.410   1.933
 7662SOL    HW123885   0.188   5.392   1.853
 7662SOL    HW223886   0.034   5.399   1.907
 7663SOL     OW23887   0.128   5.564   0.704
 7663SOL    HW123888   0.049   5.584   0.647
 7663SOL    HW223889   0.180   5.489   0.663
 7664SOL     OW23890   2.253   5.607   4.360
 7664SOL    HW123891   2.153   5.610   4.356
 7664SOL    HW223892   2.290   5.684   4.307
 7665SOL     OW23893   2.677   6.429   5.147
 7665SOL    HW123894   2.776   6.422   5.162
 7665SOL    HW223895   2.648   6.524   5.162
 7666SOL     OW23896   1.255   1.010   1.157
 7666SOL    HW123897   1.168   0.989   1.203
 7666SOL    HW223898   1.308   0.926   1.146
 7667SOL     OW23899   5.032   5.593   6.424
 7667SOL    HW123900   4.977   5.647   6.360
 7667SOL    HW223901   5.129   5.614   6.410
 7668SOL     OW23902   3.141   4.088   1.328
 7668SOL    HW123903   3.222   4.033   1.348
 7668SOL    HW223904   3.061   4.047   1.372
 7669SOL     OW23905   4.840   6.466   4.215
 7669SOL    HW123906   4.761   6.406   4.210
 7669SOL    HW223907   4.876   6.467   4.308
 7670SOL     OW23908   2.092   4.674   0.916
 7670SOL    HW123909   2.029   4.724   0.975
 7670SOL    HW223910   2.168   4.735   0.890
 7671SOL     OW23911   6.065   2.269   4.498
 7671SOL    HW123912   6.056   2.368   4.486
 7671SOL    HW223913   6.065   2.247   4.596
 7672SOL     OW23914   5.390   0.918   2.610
 7672SOL    HW123915   5.449   0.999   2.606
 7672SOL    HW223916   5.299   0.941   2.576
 7673SOL     OW23917   0.696   4.869   1.206
 7673SOL    HW123918   0.756   4.809   1.260
 7673SOL    HW223919   0.691   4.836   1.112
 7674SOL     OW23920   6.186   0.834   4.955
 7674SOL    HW123921   6.198   0.766   5.027
 7674SOL    HW223922   6.100   0.883   4.969
 7675SOL     OW23923   4.521   6.521   3.828
 7675SOL    HW123924   4.470   6.501   3.912
 7675SOL    HW223925   4.614   6.550   3.852
 7676SOL     OW23926   2.114   6.908   1.051
 7676SOL    HW123927   2.140   6.999   1.018
 7676SOL    HW223928   2.194   6.865   1.094
 7677SOL     OW23929   2.178   2.994   2.909
 7677SOL    HW123930   2.151   3.089   2.894
 7677SOL    HW223931   2.187   2.976   3.007
 7678SOL     OW23932   5.888   0.133   0.081
 7678SOL    HW123933   5.835   0.058   0.041
 7678SOL    HW223934   5.860   0.147   0.176
 7679SOL     OW23935   0.830   5.074   5.342
 7679SOL    HW123936   0.804   5.049   5.435
 7679SOL    HW223937   0.823   5.173   5.330
 7680SOL     OW23938   4.024   2.190   6.678
 7680SOL    HW123939   4.072   2.221   6.597
 7680SOL    HW223940   4.090   2.167   6.750
 7681SOL     OW23941   2.759   1.582   6.803
 7681SOL    HW123942   2.664   1.596   6.832
 7681SOL    HW223943   2.782   1.485   6.808
 7682SOL     OW23944   3.538   6.826   1.086
 7682SOL    HW123945   3.569   6.855   0.995
 7682SOL    HW223946   3.516   6.907   1.140
 7683SOL     OW23947   5.317   1.781   3.440
 7683SOL    HW123948   5.286   1.725   3.364
 7683SOL    HW223949   5.346   1.722   3.515
 7684SOL     OW23950   4.193   2.012   6.194
 7684SOL    HW123951   4.225   1.926   6.156
 7684SOL    HW223952   4.094   2.008   6.209
 7685SOL     OW23953   3.367   3.265   0.923
 7685SOL    HW123954   3.280   3.215   0.921
 7685SOL    HW223955   3.415   3.250   0.836
 7686SOL     OW23956   3.447   0.260   3.925
 7686SOL    HW123957   3.502   0.306   3.994
 7686SOL    HW223958   3.462   0.303   3.836
 7687SOL     OW23959   4.909   5.033   5.628
 7687SOL    HW123960   4.851   4.952   5.620
 7687SOL    HW223961   4.920   5.075   5.538
 7688SOL     OW23962   6.859   6.424   4.211
 7688SOL    HW123963   6.910   6.500   4.250
 7688SOL    HW223964   6.820   6.368   4.284
 7689SOL     OW23965   4.004   6.376   4.558
 7689SOL    HW123966   4.012   6.470   4.592
 7689SOL    HW223967   3.913   6.362   4.521
 7690SOL     OW23968   0.381   5.935   3.418
 7690SOL    HW123969   0.383   5.867   3.345
 7690SOL    HW223970   0.286   5.959   3.439
 7691SOL     OW23971   5.105   3.953   4.778
 7691SOL    HW123972   5.033   3.940   4.846
 7691SOL    HW223973   5.188   3.906   4.808
 7692SOL     OW23974   2.256   6.732   1.924
 7692SOL    HW123975   2.184   6.666   1.944
 7692SOL    HW223976   2.293   6.714   1.832
 7693SOL     OW23977   5.437   1.702   6.943
 7693SOL    HW123978   5.428   1.604   6.961
 7693SOL    HW223979   5.346   1.742   6.930
 7694SOL     OW23980   0.068   4.926   4.480
 7694SOL    HW123981   0.139   4.974   4.530
 7694SOL    HW223982   0.109   4.875   4.404
 7695SOL     OW23983   4.162   0.574   0.054
 7695SOL    HW123984   4.138   0.560   0.150
 7695SOL    HW223985   4.129   0.496   0.000
 7696SOL     OW23986   0.771   2.971   5.758
 7696SOL    HW123987   0.779   2.976   5.658
 7696SOL    HW223988   0.740   3.059   5.794
 7697SOL     OW23989   3.994   1.821   1.710
 7697SOL    HW123990   3.965   1.849   1.618
 7697SOL    HW223991   3.928   1.855   1.777
 7698SOL     OW23992   6.865   3.576   5.591
 7698SOL    HW123993   6.836   3.602   5.683
 7698SOL    HW223994   6.878   3.658   5.536
 7699SOL     OW23995   2.216   4.916   6.990
 7699SOL    HW123996   2.313   4.931   7.006
 7699SOL    HW223997   2.201   4.823   6.959
 7700SOL     OW23998   5.138   6.450   4.976
 7700SOL    HW123999   5.062   6.405   4.929
 7700SOL    HW224000   5.182   6.386   5.039
 7701SOL     OW24001   5.950   1.709   4.954
 7701SOL    HW124002   5.955   1.760   5.040
 7701SOL    HW224003   6.023   1.641   4.951
 7702SOL     OW24004   2.299   6.574   6.121
 7702SOL    HW124005   2.304   6.640   6.047
 7702SOL    HW224006   2.389   6.564   6.164
 7703SOL     OW24007   0.195   1.829   6.454
 7703SOL    HW124008   0.207   1.730   6.444
 7703SOL    HW224009   0.112   1.857   6.405
 7704SOL     OW24010   4.700   4.221   0.241
 7704SOL    HW124011   4.795   4.202   0.263
 7704SOL    HW224012   4.641   4.176   0.309
 7705SOL     OW24013   3.261   5.146   4.936
 7705SOL    HW124014   3.317   5.211   4.987
 7705SOL    HW224015   3.169   5.185   4.923
 7706SOL     OW24016   6.810   0.979   4.946
 7706SOL    HW124017   6.754   1.029   4.880
 7706SOL    HW224018   6.843   0.894   4.904
 7707SOL     OW24019   0.412   4.856   5.956
 7707SOL    HW124020   0.425   4.819   6.047
 7707SOL    HW224021   0.460   4.943   5.948
 7708SOL     OW24022   4.297   6.747   4.621
 7708SOL    HW124023   4.236   6.793   4.557
 7708SOL    HW224024   4.344   6.672   4.575
 7709SOL     OW24025   3.856   2.162   1.772
 7709SOL    HW124026   3.791   2.225   1.816
 7709SOL    HW224027   3.846   2.071   1.811
 7710SOL     OW24028   2.489   1.582   6.805
 7710SOL    HW124029   2.483   1.652   6.734
 7710SOL    HW224030   2.402   1.575   6.853
 7711SOL     OW24031   5.656   6.761   6.257
 7711SOL    HW124032   5.703   6.730   6.339
 7711SOL    HW224033   5.674   6.859   6.243
 7712SOL     OW24034   5.257   5.653   1.286
 7712SOL    HW124035   5.241   5.649   1.188
 7712SOL    HW224036   5.180   5.611   1.334
 7713SOL     OW24037   1.523   4.773   6.793
 7713SOL    HW124038   1.435   4.727   6.805
 7713SOL    HW224039   1.592   4.729   6.850
 7714SOL     OW24040   5.438   4.589   3.708
 7714SOL    HW124041   5.397   4.514   3.760
 7714SOL    HW224042   5.535   4.571   3.694
 7715SOL     OW24043   4.415   1.327   0.813
 7715SOL    HW124044   4.387   1.297   0.722
 7715SOL    HW224045   4.399   1.425   0.822
 7716SOL     OW24046   4.571   2.207   3.115
 7716SOL    HW124047   4.546   2.277   3.049
 7716SOL    HW224048   4.656   2.162   3.086
 7717SOL     OW24049   3.678   1.036   6.229
 7717SOL    HW124050   3.681   1.074   6.137
 7717SOL    HW224051   3.759   1.065   6.280
 7718SOL     OW24052   3.086   6.093   3.911
 7718SOL    HW124053   3.062   6.034   3.988
 7718SOL    HW224054   3.014   6.162   3.898
 7719SOL     OW24055   6.503   1.908   4.207
 7719SOL    HW124056   6.560   1.990   4.205
 7719SOL    HW224057   6.435   1.916   4.279
 7720SOL     OW24058   5.852   5.763   1.850
 7720SOL    HW124059   5.806   5.808   1.927
 7720SOL    HW224060   5.921   5.699   1.885
 7721SOL     OW24061   1.538   4.339   2.594
 7721SOL    HW124062   1.523   4.406   2.667
 7721SOL    HW224063   1.557   4.250   2.635
 7722SOL     OW24064   6.945   5.139   4.400
 7722SOL    HW124065   6.852   5.103   4.385
 7722SOL    HW224066   7.006   5.063   4.424
 7723SOL     OW24067   6.539   3.375   0.150
 7723SOL    HW124068   6.615   3.328   0.105
 7723SOL    HW224069   6.481   3.418   0.081
 7724SOL     OW24070   1.885   4.778   1.099
 7724SOL    HW124071   1.830   4.746   1.177
 7724SOL    HW224072   1.837   4.852   1.052
 7725SOL     OW24073   5.001   3.413   4.720
 7725SOL    HW124074   4.929   3.470   4.762
 7725SOL    HW224075   5.035   3.458   4.637
 7726SOL     OW24076   6.689   4.610   3.567
 7726SOL    HW124077   6.590   4.596   3.566
 7726SOL    HW224078   6.710   4.699   3.608
 7727SOL     OW24079   6.778   2.430   1.754
 7727SOL    HW124080   6.681   2.419   1.776
 7727SOL    HW224081   6.816   2.505   1.808
 7728SOL     OW24082   2.687   2.406   2.675
 7728SOL    HW124083   2.668   2.336   2.607
 7728SOL    HW224084   2.643   2.492   2.647
 7729SOL     OW24085   5.549   2.215   0.675
 7729SOL    HW124086   5.512   2.291   0.622
 7729SOL    HW224087   5.511   2.216   0.768
 7730SOL     OW24088   5.404   0.566   2.122
 7730SOL    HW124089   5.333   0.623   2.163
 7730SOL    HW224090   5.453   0.517   2.195
 7731SOL     OW24091   6.408   1.399   6.253
 7731SOL    HW124092   6.434   1.341   6.330
 7731SOL    HW224093   6.331   1.358   6.205
 7732SOL     OW24094   4.339   5.031   0.835
 7732SOL    HW124095   4.403   5.093   0.880
 7732SOL    HW224096   4.384   4.984   0.760
 7733SOL     OW24097   3.366   0.119   2.445
 7733SOL    HW124098   3.346   0.024   2.469
 7733SOL    HW224099   3.450   0.148   2.491
 7734SOL     OW24100   1.754   1.745   3.227
 7734SOL    HW124101   1.770   1.725   3.324
 7734SOL    HW224102   1.795   1.833   3.204
 7735SOL     OW24103   5.232   4.139   0.068
 7735SOL    HW124104   5.147   4.192   0.062
 7735SOL    HW224105   5.222   4.069   0.138
 7736SOL     OW24106   6.587   4.660   6.375
 7736SOL    HW124107   6.668   4.602   6.386
 7736SOL    HW224108   6.593   4.736   6.440
 7737SOL     OW24109   5.080   1.205   0.550
 7737SOL    HW124110   5.169   1.247   0.536
 7737SOL    HW224111   5.008   1.274   0.539
 7738SOL     OW24112   2.585   5.179   6.694
 7738SOL    HW124113   2.506   5.233   6.665
 7738SOL    HW224114   2.645   5.234   6.752
 7739SOL     OW24115   6.304   3.316   1.485
 7739SOL    HW124116   6.283   3.220   1.470
 7739SOL    HW224117   6.397   3.326   1.519
 7740SOL     OW24118   0.421   6.770   3.173
 7740SOL    HW124119   0.520   6.777   3.164
 7740SOL    HW224120   0.398   6.729   3.261
 7741SOL     OW24121   2.700   5.747   4.468
 7741SOL    HW124122   2.618   5.695   4.444
 7741SOL    HW224123   2.766   5.686   4.514
 7742SOL     OW24124   6.364   0.933   3.629
 7742SOL    HW124125   6.282   0.940   3.685
 7742SOL    HW224126   6.388   0.836   3.618
 7743SOL     OW24127   4.601   2.578   3.255
 7743SOL    HW124128   4.636   2.625   3.336
 7743SOL    HW224129   4.557   2.492   3.282
 7744SOL     OW24130   6.904   0.277   4.956
 7744SOL    HW124131   6.839   0.251   4.884
 7744SOL    HW224132   6.997   0.266   4.923
 7745SOL     OW24133   4.617   3.720   5.591
 7745SOL    HW124134   4.697   3.675   5.632
 7745SOL    HW224135   4.537   3.662   5.605
 7746SOL     OW24136   1.844   0.983   0.327
 7746SOL    HW124137   1.840   0.977   0.427
 7746SOL    HW224138   1.914   1.049   0.300
 7747SOL     OW24139   5.709   5.706   0.672
 7747SOL    HW124140   5.727   5.796   0.711
 7747SOL    HW224141   5.617   5.675   0.700
 7748SOL     OW24142   3.330   3.675   0.102
 7748SOL    HW124143   3.287   3.708   0.019
 7748SOL    HW224144   3.430   3.678   0.091
 7749SOL     OW24145   6.080   3.177   6.015
 7749SOL    HW124146   6.059   3.080   6.005
 7749SOL    HW224147   6.114   3.196   6.107
 7750SOL     OW24148   5.989   4.713   2.519
 7750SOL    HW124149   5.937   4.652   2.580
 7750SOL    HW224150   5.951   4.805   2.525
 7751SOL     OW24151   0.325   2.550   2.179
 7751SOL    HW124152   0.416   2.568   2.214
 7751SOL    HW224153   0.287   2.469   2.224
 7752SOL     OW24154   4.844   2.051   3.369
 7752SOL    HW124155   4.789   2.129   3.396
 7752SOL    HW224156   4.939   2.079   3.358
 7753SOL     OW24157   3.504   1.778   4.759
 7753SOL    HW124158   3.447   1.817   4.832
 7753SOL    HW224159   3.464   1.798   4.670
 7754SOL     OW24160   5.291   6.357   2.239
 7754SOL    HW124161   5.359   6.429   2.253
 7754SOL    HW224162   5.337   6.274   2.208
 7755SOL     OW24163   0.462   5.213   4.276
 7755SOL    HW124164   0.450   5.116   4.255
 7755SOL    HW224165   0.401   5.240   4.350
 7756SOL     OW24166   2.748   5.054   2.228
 7756SOL    HW124167   2.741   4.980   2.161
 7756SOL    HW224168   2.844   5.068   2.251
 7757SOL     OW24169   0.403   4.277   2.111
 7757SOL    HW124170   0.351   4.240   2.034
 7757SOL    HW224171   0.416   4.375   2.098
 7758SOL     OW24172   1.460   1.497   5.436
 7758SOL    HW124173   1.550   1.535   5.457
 7758SOL    HW224174   1.447   1.492   5.337
 7759SOL     OW24175   2.821   2.242   1.052
 7759SOL    HW124176   2.740   2.186   1.040
 7759SOL    HW224177   2.809   2.330   1.006
 7760SOL     OW24178   4.938   3.096   0.195
 7760SOL    HW124179   4.948   3.039   0.113
 7760SOL    HW224180   5.002   3.065   0.265
 7761SOL     OW24181   4.956   5.666   3.912
 7761SOL    HW124182   5.008   5.589   3.875
 7761SOL    HW224183   4.919   5.641   4.001
 7762SOL     OW24184   5.768   1.461   2.069
 7762SOL    HW124185   5.789   1.458   2.167
 7762SOL    HW224186   5.775   1.370   2.030
 7763SOL     OW24187   2.571   0.309   4.095
 7763SOL    HW124188   2.562   0.359   4.009
 7763SOL    HW224189   2.620   0.223   4.079
 7764SOL     OW24190   2.148   3.942   5.859
 7764SOL    HW124191   2.189   3.967   5.771
 7764SOL    HW224192   2.149   4.020   5.920
 7765SOL     OW24193   5.598   3.067   4.690
 7765SOL    HW124194   5.643   3.128   4.625
 7765SOL    HW224195   5.559   3.120   4.765
 7766SOL     OW24196   6.107   4.115   6.482
 7766SOL    HW124197   6.140   4.096   6.574
 7766SOL    HW224198   6.101   4.029   6.430
 7767SOL     OW24199   3.202   0.620   4.031
 7767SOL    HW124200   3.114   0.665   4.045
 7767SOL    HW224201   3.205   0.579   3.941
 7768SOL     OW24202   4.059   5.293   3.669
 7768SOL    HW124203   4.000   5.374   3.663
 7768SOL    HW224204   4.153   5.323   3.688
 7769SOL     OW24205   3.857   2.597   5.625
 7769SOL    HW124206   3.942   2.555   5.595
 7769SOL    HW224207   3.868   2.697   5.626
 7770SOL     OW24208   1.793   2.784   4.264
 7770SOL    HW124209   1.718   2.845   4.240
 7770SOL    HW224210   1.805   2.715   4.193
 7771SOL     OW24211   2.472   3.361   6.399
 7771SOL    HW124212   2.427   3.450   6.403
 7771SOL    HW224213   2.406   3.288   6.417
 7772SOL     OW24214   5.570   6.934   1.907
 7772SOL    HW124215   5.541   7.002   1.840
 7772SOL    HW224216   5.502   6.860   1.910
 7773SOL     OW24217   2.823   6.100   0.238
 7773SOL    HW124218   2.737   6.111   0.289
 7773SOL    HW224219   2.897   6.145   0.288
 7774SOL     OW24220   4.798   1.220   2.566
 7774SOL    HW124221   4.866   1.180   2.628
 7774SOL    HW224222   4.837   1.302   2.523
 7775SOL     OW24223   2.729   2.037   1.474
 7775SOL    HW124224   2.665   2.091   1.420
 7775SOL    HW224225   2.753   1.954   1.423
 7776SOL     OW24226   1.854   1.216   4.380
 7776SOL    HW124227   1.840   1.289   4.313
 7776SOL    HW224228   1.894   1.136   4.335
 7777SOL     OW24229   5.849   5.965   4.135
 7777SOL    HW124230   5.949   5.972   4.128
 7777SOL    HW224231   5.824   5.870   4.151
 7778SOL     OW24232   6.870   4.684   3.100
 7778SOL    HW124233   6.794   4.744   3.125
 7778SOL    HW224234   6.956   4.725   3.129
 7779SOL     OW24235   4.782   6.072   1.898
 7779SOL    HW124236   4.731   6.146   1.942
 7779SOL    HW224237   4.718   6.006   1.860
 7780SOL     OW24238   5.869   6.223   5.100
 7780SOL    HW124239   5.904   6.307   5.143
 7780SOL    HW224240   5.830   6.164   5.171
 7781SOL     OW24241   1.735   2.991   0.930
 7781SOL    HW124242   1.823   2.995   0.882
 7781SOL    HW224243   1.724   3.072   0.987
 7782SOL     OW24244   5.094   2.847   4.767
 7782SOL    HW124245   5.186   2.880   4.788
 7782SOL    HW224246   5.026   2.903   4.816
 7783SOL     OW24247   1.665   6.487   4.470
 7783SOL    HW124248   1.723   6.551   4.421
 7783SOL    HW224249   1.607   6.537   4.536
 7784SOL     OW24250   1.758   2.015   1.851
 7784SOL    HW124251   1.676   2.056   1.809
 7784SOL    HW224252   1.769   1.921   1.818
 7785SOL     OW24253   6.743   6.437   3.367
 7785SOL    HW124254   6.786   6.520   3.331
 7785SOL    HW224255   6.660   6.417   3.314
 7786SOL     OW24256   4.272   1.290   5.379
 7786SOL    HW124257   4.334   1.328   5.447
 7786SOL    HW224258   4.323   1.272   5.294
 7787SOL     OW24259   2.729   2.331   1.797
 7787SOL    HW124260   2.790   2.296   1.726
 7787SOL    HW224261   2.780   2.340   1.883
 7788SOL     OW24262   0.396   4.781   1.333
 7788SOL    HW124263   0.432   4.852   1.393
 7788SOL    HW224264   0.308   4.810   1.295
 7789SOL     OW24265   3.106   1.173   5.665
 7789SOL    HW124266   3.201   1.152   5.645
 7789SOL    HW224267   3.071   1.109   5.734
 7790SOL     OW24268   4.195   4.554   1.529
 7790SOL    HW124269   4.277   4.569   1.475
 7790SOL    HW224270   4.216   4.566   1.626
 7791SOL     OW24271   2.977   5.696   2.999
 7791SOL    HW124272   2.961   5.684   2.901
 7791SOL    HW224273   3.048   5.632   3.029
 7792SOL     OW24274   0.569   1.669   3.190
 7792SOL    HW124275   0.543   1.595   3.129
 7792SOL    HW224276   0.491   1.729   3.206
 7793SOL     OW24277   5.222   0.526   0.323
 7793SOL    HW124278   5.166   0.444   0.310
 7793SOL    HW224279   5.186   0.600   0.266
 7794SOL     OW24280   1.147   0.152   2.922
 7794SOL    HW124281   1.148   0.057   2.954
 7794SOL    HW224282   1.088   0.159   2.842
 7795SOL     OW24283   3.339   4.572   0.464
 7795SOL    HW124284   3.351   4.581   0.562
 7795SOL    HW224285   3.250   4.529   0.444
 7796SOL     OW24286   3.224   2.739   0.133
 7796SOL    HW124287   3.252   2.816   0.075
 7796SOL    HW224288   3.219   2.769   0.228
 7797SOL     OW24289   0.735   6.060   3.365
 7797SOL    HW124290   0.740   5.975   3.313
 7797SOL    HW224291   0.672   6.124   3.320
 7798SOL     OW24292   1.354   3.611   0.656
 7798SOL    HW124293   1.375   3.635   0.561
 7798SOL    HW224294   1.258   3.628   0.675
 7799SOL     OW24295   3.043   5.943   3.642
 7799SOL    HW124296   3.063   6.017   3.706
 7799SOL    HW224297   2.945   5.927   3.638
 7800SOL     OW24298   0.491   6.560   2.238
 7800SOL    HW124299   0.476   6.653   2.203
 7800SOL    HW224300   0.555   6.564   2.314
 7801SOL     OW24301   1.249   1.847   2.026
 7801SOL    HW124302   1.257   1.943   2.001
 7801SOL    HW224303   1.165   1.832   2.078
 7802SOL     OW24304   6.919   3.413   4.450
 7802SOL    HW124305   6.952   3.411   4.545
 7802SOL    HW224306   6.907   3.508   4.422
 7803SOL     OW24307   2.915   2.487   5.685
 7803SOL    HW124308   2.877   2.395   5.694
 7803SOL    HW224309   3.003   2.482   5.638
 7804SOL     OW24310   3.522   2.121   5.075
 7804SOL    HW124311   3.550   2.063   5.151
 7804SOL    HW224312   3.603   2.147   5.022
 7805SOL     OW24313   5.436   3.071   6.792
 7805SOL    HW124314   5.445   3.065   6.892
 7805SOL    HW224315   5.457   3.164   6.763
 7806SOL     OW24316   6.965   1.484   5.902
 7806SOL    HW124317   6.951   1.402   5.958
 7806SOL    HW224318   6.937   1.466   5.808
 7807SOL     OW24319   2.025   4.903   6.179
 7807SOL    HW124320   1.967   4.979   6.147
 7807SOL    HW224321   2.073   4.931   6.262
 7808SOL     OW24322   6.949   3.831   3.422
 7808SOL    HW124323   6.980   3.841   3.328
 7808SOL    HW224324   6.852   3.806   3.423
 7809SOL     OW24325   4.807   5.459   2.519
 7809SOL    HW124326   4.861   5.434   2.599
 7809SOL    HW224327   4.867   5.497   2.449
 7810SOL     OW24328   2.536   6.596   6.279
 7810SOL    HW124329   2.489   6.669   6.330
 7810SOL    HW224330   2.609   6.636   6.225
 7811SOL     OW24331   1.419   6.179   3.027
 7811SOL    HW124332   1.405   6.091   2.981
 7811SOL    HW224333   1.349   6.244   2.998
 7812SOL     OW24334   3.029   1.424   5.965
 7812SOL    HW124335   3.109   1.484   5.967
 7812SOL    HW224336   2.996   1.415   5.871
 7813SOL     OW24337   5.321   0.574   0.617
 7813SOL    HW124338   5.398   0.512   0.635
 7813SOL    HW224339   5.320   0.599   0.520
 7814SOL     OW24340   6.203   2.961   2.563
 7814SOL    HW124341   6.226   3.040   2.620
 7814SOL    HW224342   6.179   2.993   2.471
 7815SOL     OW24343   5.337   5.123   5.056
 7815SOL    HW124344   5.413   5.089   5.111
 7815SOL    HW224345   5.253   5.075   5.083
 7816SOL     OW24346   0.492   1.695   5.469
 7816SOL    HW124347   0.521   1.739   5.554
 7816SOL    HW224348   0.499   1.595   5.478
 7817SOL     OW24349   4.056   2.671   0.148
 7817SOL    HW124350   4.087   2.655   0.242
 7817SOL    HW224351   3.971   2.620   0.132
 7818SOL     OW24352   6.073   0.624   3.112
 7818SOL    HW124353   6.081   0.525   3.099
 7818SOL    HW224354   5.983   0.655   3.081
 7819SOL     OW24355   1.376   3.148   4.615
 7819SOL    HW124356   1.439   3.214   4.575
 7819SOL    HW224357   1.314   3.114   4.545
 7820SOL     OW24358   1.104   0.738   4.825
 7820SOL    HW124359   1.029   0.795   4.859
 7820SOL    HW224360   1.182   0.797   4.801
 7821SOL     OW24361   4.025   6.259   0.317
 7821SOL    HW124362   4.061   6.181   0.368
 7821SOL    HW224363   4.051   6.251   0.221
 7822SOL     OW24364   0.002   1.111   5.094
 7822SOL    HW124365   6.941   1.081   5.045
 7822SOL    HW224366   0.019   1.208   5.075
 7823SOL     OW24367   2.637   3.469   5.313
 7823SOL    HW124368   2.644   3.374   5.282
 7823SOL    HW224369   2.543   3.487   5.343
 7824SOL     OW24370   5.166   3.447   2.846
 7824SOL    HW124371   5.195   3.543   2.847
 7824SOL    HW224372   5.069   3.442   2.824
 7825SOL     OW24373   3.575   3.411   2.218
 7825SOL    HW124374   3.636   3.389   2.143
 7825SOL    HW224375   3.484   3.431   2.182
 7826SOL     OW24376   6.792   0.554   1.256
 7826SOL    HW124377   6.699   0.553   1.219
 7826SOL    HW224378   6.787   0.552   1.356
 7827SOL     OW24379   4.596   3.380   0.785
 7827SOL    HW124380   4.649   3.365   0.702
 7827SOL    HW224381   4.506   3.336   0.776
 7828SOL     OW24382   0.177   5.774   0.459
 7828SOL    HW124383   0.224   5.700   0.410
 7828SOL    HW224384   0.101   5.736   0.512
 7829SOL     OW24385   4.027   3.296   3.137
 7829SOL    HW124386   4.089   3.340   3.072
 7829SOL    HW224387   3.996   3.209   3.099
 7830SOL     OW24388   5.721   3.792   0.186
 7830SOL    HW124389   5.777   3.753   0.259
 7830SOL    HW224390   5.637   3.739   0.176
 7831SOL     OW24391   1.835   2.762   6.746
 7831SOL    HW124392   1.883   2.737   6.831
 7831SOL    HW224393   1.768   2.833   6.765
 7832SOL     OW24394   2.319   2.511   4.990
 7832SOL    HW124395   2.321   2.467   5.080
 7832SOL    HW224396   2.247   2.469   4.934
 7833SOL     OW24397   1.346   6.661   0.823
 7833SOL    HW124398   1.391   6.606   0.893
 7833SOL    HW224399   1.262   6.614   0.794
 7834SOL     OW24400   6.692   0.150   1.666
 7834SOL    HW124401   6.622   0.137   1.736
 7834SOL    HW224402   6.704   0.247   1.649
 7835SOL     OW24403   2.716   2.126   4.188
 7835SOL    HW124404   2.720   2.081   4.099
 7835SOL    HW224405   2.733   2.058   4.260
 7836SOL     OW24406   2.056   0.743   6.598
 7836SOL    HW124407   2.052   0.695   6.686
 7836SOL    HW224408   1.984   0.812   6.595
 7837SOL     OW24409   4.777   6.217   2.896
 7837SOL    HW124410   4.827   6.192   2.814
 7837SOL    HW224411   4.696   6.270   2.872
 7838SOL     OW24412   3.154   6.662   4.212
 7838SOL    HW124413   3.083   6.618   4.156
 7838SOL    HW224414   3.181   6.749   4.170
 7839SOL     OW24415   7.019   4.914   3.794
 7839SOL    HW124416   6.961   4.995   3.787
 7839SOL    HW224417   0.084   4.930   3.743
 7840SOL     OW24418   5.154   2.958   5.449
 7840SOL    HW124419   5.212   2.893   5.399
 7840SOL    HW224420   5.152   2.933   5.546
 7841SOL     OW24421   1.272   1.672   6.546
 7841SOL    HW124422   1.322   1.755   6.523
 7841SOL    HW224423   1.216   1.645   6.468
 7842SOL     OW24424   2.730   0.758   2.140
 7842SOL    HW124425   2.695   0.698   2.068
 7842SOL    HW224426   2.829   0.769   2.128
 7843SOL     OW24427   6.818   3.224   1.123
 7843SOL    HW124428   6.870   3.276   1.190
 7843SOL    HW224429   6.723   3.216   1.153
 7844SOL     OW24430   3.684   1.195   4.208
 7844SOL    HW124431   3.779   1.192   4.240
 7844SOL    HW224432   3.682   1.169   4.111
 7845SOL     OW24433   1.091   0.646   3.941
 7845SOL    HW124434   1.173   0.701   3.928
 7845SOL    HW224435   1.056   0.661   4.034
 7846SOL     OW24436   3.576   6.547   2.262
 7846SOL    HW124437   3.523   6.519   2.341
 7846SOL    HW224438   3.516   6.586   2.193
 7847SOL     OW24439   6.886   0.768   0.379
 7847SOL    HW124440   6.927   0.676   0.378
 7847SOL    HW224441   6.823   0.776   0.456
 7848SOL     OW24442   4.469   4.181   0.706
 7848SOL    HW124443   4.373   4.156   0.699
 7848SOL    HW224444   4.512   4.127   0.778
 7849SOL     OW24445   5.664   3.885   5.039
 7849SOL    HW124446   5.746   3.844   5.080
 7849SOL    HW224447   5.676   3.889   4.940
 7850SOL     OW24448   0.537   1.300   4.488
 7850SOL    HW124449   0.570   1.301   4.393
 7850SOL    HW224450   0.470   1.227   4.498
 7851SOL     OW24451   4.637   6.859   0.391
 7851SOL    HW124452   4.661   6.783   0.452
 7851SOL    HW224453   4.648   6.945   0.441
 7852SOL     OW24454   1.828   6.936   6.975
 7852SOL    HW124455   1.749   6.875   6.967
 7852SOL    HW224456   1.907   6.894   6.931
 7853SOL     OW24457   2.007   2.977   0.848
 7853SOL    HW124458   1.965   3.006   0.762
 7853SOL    HW224459   2.033   3.058   0.902
 7854SOL     OW24460   3.403   4.163   3.004
 7854SOL    HW124461   3.487   4.152   3.058
 7854SOL    HW224462   3.424   4.149   2.907
 7855SOL     OW24463   3.627   0.061   5.547
 7855SOL    HW124464   3.725   0.052   5.527
 7855SOL    HW224465   3.610   0.148   5.593
 7856SOL     OW24466   4.356   3.483   6.097
 7856SOL    HW124467   4.300   3.536   6.032
 7856SOL    HW224468   4.296   3.433   6.159
 7857SOL     OW24469   0.935   2.244   4.510
 7857SOL    HW124470   0.896   2.336   4.513
 7857SOL    HW224471   0.911   2.200   4.423
 7858SOL     OW24472   6.271   4.794   3.079
 7858SOL    HW124473   6.186   4.742   3.079
 7858SOL    HW224474   6.344   4.739   3.118
 7859SOL     OW24475   0.970   6.102   6.589
 7859SOL    HW124476   1.065   6.076   6.568
 7859SOL    HW224477   0.917   6.020   6.610
 7860SOL     OW24478   3.526   0.188   1.605
 7860SOL    HW124479   3.448   0.197   1.667
 7860SOL    HW224480   3.601   0.247   1.637
 7861SOL     OW24481   5.767   4.138   0.496
 7861SOL    HW124482   5.763   4.039   0.498
 7861SOL    HW224483   5.791   4.173   0.586
 7862SOL     OW24484   3.290   4.531   1.456
 7862SOL    HW124485   3.373   4.475   1.450
 7862SOL    HW224486   3.211   4.477   1.426
 7863SOL     OW24487   5.924   5.662   2.376
 7863SOL    HW124488   5.902   5.759   2.385
 7863SOL    HW224489   5.940   5.622   2.466
 7864SOL     OW24490   0.369   5.836   4.076
 7864SOL    HW124491   0.318   5.764   4.123
 7864SOL    HW224492   0.439   5.795   4.017
 7865SOL     OW24493   3.236   0.840   2.474
 7865SOL    HW124494   3.138   0.822   2.466
 7865SOL    HW224495   3.257   0.865   2.568
 7866SOL     OW24496   2.447   2.442   3.819
 7866SOL    HW124497   2.449   2.506   3.742
 7866SOL    HW224498   2.352   2.430   3.850
 7867SOL     OW24499   5.593   4.169   2.468
 7867SOL    HW124500   5.512   4.163   2.410
 7867SOL    HW224501   5.566   4.196   2.560
 7868SOL     OW24502   5.372   6.957   1.090
 7868SOL    HW124503   5.353   7.002   1.177
 7868SOL    HW224504   5.321   7.003   1.017
 7869SOL     OW24505   6.629   2.032   3.485
 7869SOL    HW124506   6.627   1.973   3.566
 7869SOL    HW224507   6.583   1.987   3.409
 7870SOL     OW24508   0.091   6.700   3.107
 7870SOL    HW124509   0.184   6.733   3.094
 7870SOL    HW224510   0.090   6.632   3.181
 7871SOL     OW24511   5.519   3.224   3.862
 7871SOL    HW124512   5.550   3.272   3.780
 7871SOL    HW224513   5.572   3.254   3.941
 7872SOL     OW24514   6.748   3.420   3.968
 7872SOL    HW124515   6.779   3.402   3.874
 7872SOL    HW224516   6.798   3.361   4.031
 7873SOL     OW24517   6.957   5.204   5.282
 7873SOL    HW124518   6.875   5.259   5.295
 7873SOL    HW224519   6.931   5.110   5.261
 7874SOL     OW24520   6.284   1.293   0.502
 7874SOL    HW124521   6.334   1.373   0.536
 7874SOL    HW224522   6.246   1.313   0.411
 7875SOL     OW24523   4.628   3.566   6.749
 7875SOL    HW124524   4.573   3.592   6.828
 7875SOL    HW224525   4.667   3.475   6.764
 7876SOL     OW24526   6.500   0.605   4.760
 7876SOL    HW124527   6.504   0.701   4.733
 7876SOL    HW224528   6.500   0.598   4.859
 7877SOL     OW24529   6.582   2.427   2.656
 7877SOL    HW124530   6.494   2.474   2.656
 7877SOL    HW224531   6.615   2.419   2.562
 7878SOL     OW24532   4.615   4.145   1.359
 7878SOL    HW124533   4.528   4.150   1.408
 7878SOL    HW224534   4.605   4.187   1.269
 7879SOL     OW24535   5.112   0.859   5.445
 7879SOL    HW124536   5.104   0.759   5.444
 7879SOL    HW224537   5.031   0.899   5.401
 7880SOL     OW24538   0.870   6.676   6.186
 7880SOL    HW124539   0.818   6.729   6.118
 7880SOL    HW224540   0.894   6.587   6.147
 7881SOL     OW24541   0.588   5.389   3.559
 7881SOL    HW124542   0.619   5.295   3.551
 7881SOL    HW224543   0.627   5.430   3.642
 7882SOL     OW24544   0.918   4.300   1.883
 7882SOL    HW124545   0.925   4.330   1.978
 7882SOL    HW224546   0.895   4.378   1.825
 7883SOL     OW24547   3.581   2.074   3.486
 7883SOL    HW124548   3.629   2.066   3.574
 7883SOL    HW224549   3.640   2.123   3.422
 7884SOL     OW24550   0.752   3.968   4.613
 7884SOL    HW124551   0.731   4.056   4.655
 7884SOL    HW224552   0.680   3.945   4.547
 7885SOL     OW24553   5.529   5.525   3.480
 7885SOL    HW124554   5.489   5.478   3.401
 7885SOL    HW224555   5.511   5.623   3.473
 7886SOL     OW24556   4.864   3.313   3.156
 7886SOL    HW124557   4.876   3.411   3.175
 7886SOL    HW224558   4.878   3.261   3.240
 7887SOL     OW24559   2.065   2.811   1.312
 7887SOL    HW124560   2.110   2.898   1.293
 7887SOL    HW224561   2.120   2.736   1.274
 7888SOL     OW24562   6.020   1.102   4.884
 7888SOL    HW124563   6.005   1.097   4.983
 7888SOL    HW224564   6.098   1.161   4.865
 7889SOL     OW24565   5.774   4.794   0.184
 7889SOL    HW124566   5.674   4.801   0.188
 7889SOL    HW224567   5.813   4.830   0.269
 7890SOL     OW24568   2.188   3.288   4.349
 7890SOL    HW124569   2.229   3.202   4.379
 7890SOL    HW224570   2.147   3.275   4.258
 7891SOL     OW24571   6.477   1.648   4.248
 7891SOL    HW124572   6.495   1.744   4.227
 7891SOL    HW224573   6.381   1.637   4.273
 7892SOL     OW24574   0.800   1.409   5.274
 7892SOL    HW124575   0.772   1.326   5.227
 7892SOL    HW224576   0.858   1.464   5.214
 7893SOL     OW24577   5.513   0.294   6.904
 7893SOL    HW124578   5.564   0.367   6.948
 7893SOL    HW224579   5.566   0.258   6.827
 7894SOL     OW24580   3.448   1.904   5.985
 7894SOL    HW124581   3.481   1.935   6.075
 7894SOL    HW224582   3.361   1.856   5.996
 7895SOL     OW24583   5.265   6.752   2.894
 7895SOL    HW124584   5.230   6.746   2.987
 7895SOL    HW224585   5.297   6.845   2.877
 7896SOL     OW24586   2.505   2.427   0.777
 7896SOL    HW124587   2.458   2.398   0.861
 7896SOL    HW224588   2.457   2.391   0.697
 7897SOL     OW24589   3.750   2.616   0.683
 7897SOL    HW124590   3.656   2.641   0.701
 7897SOL    HW224591   3.810   2.694   0.700
 7898SOL     OW24592   5.384   6.546   3.389
 7898SOL    HW124593   5.398   6.641   3.363
 7898SOL    HW224594   5.355   6.493   3.309
 7899SOL     OW24595   6.395   4.559   4.037
 7899SOL    HW124596   6.384   4.462   4.056
 7899SOL    HW224597   6.483   4.591   4.073
 7900SOL     OW24598   0.970   3.697   1.188
 7900SOL    HW124599   1.063   3.671   1.217
 7900SOL    HW224600   0.953   3.662   1.097
 7901SOL     OW24601   0.393   1.427   6.640
 7901SOL    HW124602   0.460   1.499   6.662
 7901SOL    HW224603   0.339   1.456   6.560
 7902SOL     OW24604   1.455   0.032   2.608
 7902SOL    HW124605   1.507   7.010   2.533
 7902SOL    HW224606   1.367   7.006   2.618
 7903SOL     OW24607   2.431   2.187   4.976
 7903SOL    HW124608   2.351   2.195   4.916
 7903SOL    HW224609   2.513   2.217   4.927
 7904SOL     OW24610   4.697   1.566   2.680
 7904SOL    HW124611   4.602   1.592   2.660
 7904SOL    HW224612   4.759   1.629   2.632
 7905SOL     OW24613   5.150   1.549   0.780
 7905SOL    HW124614   5.248   1.546   0.760
 7905SOL    HW224615   5.120   1.459   0.814
 7906SOL     OW24616   1.135   5.337   0.890
 7906SOL    HW124617   1.041   5.358   0.918
 7906SOL    HW224618   1.147   5.237   0.889
 7907SOL     OW24619   6.142   6.841   2.815
 7907SOL    HW124620   6.192   6.768   2.769
 7907SOL    HW224621   6.073   6.879   2.752
 7908SOL     OW24622   0.550   0.140   6.317
 7908SOL    HW124623   0.618   0.213   6.305
 7908SOL    HW224624   0.542   0.118   6.414
 7909SOL     OW24625   5.548   4.506   2.492
 7909SOL    HW124626   5.573   4.577   2.558
 7909SOL    HW224627   5.454   4.521   2.460
 7910SOL     OW24628   0.644   3.925   6.621
 7910SOL    HW124629   0.589   4.002   6.653
 7910SOL    HW224630   0.597   3.879   6.547
 7911SOL     OW24631   0.227   4.442   6.379
 7911SOL    HW124632   0.190   4.360   6.334
 7911SOL    HW224633   0.314   4.419   6.424
 7912SOL     OW24634   6.515   5.072   1.095
 7912SOL    HW124635   6.430   5.081   1.147
 7912SOL    HW224636   6.559   4.985   1.118
 7913SOL     OW24637   1.224   4.641   0.931
 7913SOL    HW124638   1.235   4.723   0.875
 7913SOL    HW224639   1.163   4.661   1.007
 7914SOL     OW24640   0.009   6.768   4.956
 7914SOL    HW124641   0.029   6.751   4.859
 7914SOL    HW224642   7.001   6.863   4.968
 7915SOL     OW24643   3.876   5.529   2.794
 7915SOL    HW124644   3.959   5.552   2.743
 7915SOL    HW224645   3.848   5.607   2.850
 7916SOL     OW24646   0.851   7.015   4.595
 7916SOL    HW124647   0.920   0.031   4.532
 7916SOL    HW224648   0.849   0.051   4.677
 7917SOL     OW24649   3.860   2.723   1.383
 7917SOL    HW124650   3.766   2.693   1.369
 7917SOL    HW224651   3.864   2.790   1.457
 7918SOL     OW24652   2.286   2.237   3.659
 7918SOL    HW124653   2.318   2.202   3.747
 7918SOL    HW224654   2.355   2.300   3.622
 7919SOL     OW24655   1.717   6.349   4.774
 7919SOL    HW124656   1.799   6.294   4.761
 7919SOL    HW224657   1.644   6.315   4.714
 7920SOL     OW24658   4.870   0.566   1.008
 7920SOL    HW124659   4.807   0.639   1.033
 7920SOL    HW224660   4.827   0.477   1.027
 7921SOL     OW24661   6.005   2.622   1.004
 7921SOL    HW124662   5.961   2.681   1.071
 7921SOL    HW224663   6.024   2.533   1.044
 7922SOL     OW24664   2.270   6.178   1.867
 7922SOL    HW124665   2.331   6.206   1.793
 7922SOL    HW224666   2.182   6.225   1.857
 7923SOL     OW24667   5.254   0.896   0.194
 7923SOL    HW124668   5.214   0.946   0.271
 7923SOL    HW224669   5.268   0.959   0.118
 7924SOL     OW24670   6.732   6.469   0.421
 7924SOL    HW124671   6.669   6.410   0.371
 7924SOL    HW224672   6.815   6.482   0.368
 7925SOL     OW24673   1.584   5.584   6.671
 7925SOL    HW124674   1.646   5.561   6.597
 7925SOL    HW224675   1.517   5.510   6.684
 7926SOL     OW24676   5.050   5.660   0.142
 7926SOL    HW124677   5.111   5.708   0.205
 7926SOL    HW224678   4.985   5.604   0.194
 7927SOL     OW24679   4.224   6.874   2.441
 7927SOL    HW124680   4.298   6.875   2.508
 7927SOL    HW224681   4.250   6.927   2.361
 7928SOL     OW24682   5.605   2.031   3.419
 7928SOL    HW124683   5.634   2.102   3.356
 7928SOL    HW224684   5.567   1.954   3.367
 7929SOL     OW24685   4.253   4.249   6.445
 7929SOL    HW124686   4.315   4.239   6.367
 7929SOL    HW224687   4.159   4.259   6.411
 7930SOL     OW24688   4.256   5.965   6.383
 7930SOL    HW124689   4.320   6.006   6.318
 7930SOL    HW224690   4.190   5.908   6.334
 7931SOL     OW24691   4.224   2.471   1.229
 7931SOL    HW124692   4.186   2.378   1.231
 7931SOL    HW224693   4.299   2.478   1.294
 7932SOL     OW24694   1.703   4.018   2.157
 7932SOL    HW124695   1.702   3.920   2.178
 7932SOL    HW224696   1.616   4.059   2.183
 7933SOL     OW24697   0.974   1.769   6.821
 7933SOL    HW124698   0.943   1.846   6.767
 7933SOL    HW224699   0.907   1.749   6.893
 7934SOL     OW24700   0.756   5.547   0.985
 7934SOL    HW124701   0.811   5.625   1.013
 7934SOL    HW224702   0.665   5.579   0.959
 7935SOL     OW24703   4.843   3.046   3.022
 7935SOL    HW124704   4.942   3.037   3.029
 7935SOL    HW224705   4.814   3.134   3.060
 7936SOL     OW24706   2.829   5.579   3.502
 7936SOL    HW124707   2.825   5.534   3.413
 7936SOL    HW224708   2.856   5.512   3.572
 7937SOL     OW24709   3.117   0.741   6.821
 7937SOL    HW124710   3.101   0.645   6.844
 7937SOL    HW224711   3.148   0.791   6.902
 7938SOL     OW24712   2.689   6.454   4.206
 7938SOL    HW124713   2.717   6.550   4.198
 7938SOL    HW224714   2.636   6.428   4.126
 7939SOL     OW24715   0.490   1.414   3.869
 7939SOL    HW124716   0.484   1.318   3.845
 7939SOL    HW224717   0.584   1.435   3.898
 7940SOL     OW24718   5.334   1.013   3.913
 7940SOL    HW124719   5.359   1.110   3.913
 7940SOL    HW224720   5.382   0.967   3.838
 7941SOL     OW24721   3.898   6.983   1.016
 7941SOL    HW124722   3.804   6.981   0.981
 7941SOL    HW224723   3.896   7.005   1.114
 7942SOL     OW24724   1.290   5.018   0.651
 7942SOL    HW124725   1.240   5.045   0.734
 7942SOL    HW224726   1.378   4.979   0.676
 7943SOL     OW24727   1.291   6.045   5.986
 7943SOL    HW124728   1.363   5.986   5.951
 7943SOL    HW224729   1.261   6.108   5.915
 7944SOL     OW24730   1.626   2.642   1.600
 7944SOL    HW124731   1.715   2.623   1.639
 7944SOL    HW224732   1.566   2.683   1.669
 7945SOL     OW24733   6.217   4.456   3.695
 7945SOL    HW124734   6.253   4.472   3.787
 7945SOL    HW224735   6.140   4.518   3.679
 7946SOL     OW24736   3.860   1.170   6.611
 7946SOL    HW124737   3.914   1.233   6.554
 7946SOL    HW224738   3.763   1.183   6.591
 7947SOL     OW24739   0.266   3.706   6.438
 7947SOL    HW124740   0.189   3.680   6.496
 7947SOL    HW224741   0.252   3.669   6.346
 7948SOL     OW24742   1.745   4.858   2.629
 7948SOL    HW124743   1.840   4.858   2.659
 7948SOL    HW224744   1.740   4.875   2.530
 7949SOL     OW24745   3.247   6.097   6.707
 7949SOL    HW124746   3.211   6.147   6.628
 7949SOL    HW224747   3.330   6.048   6.680
 7950SOL     OW24748   5.614   4.575   5.356
 7950SOL    HW124749   5.587   4.480   5.340
 7950SOL    HW224750   5.664   4.581   5.443
 7951SOL     OW24751   4.091   5.800   2.451
 7951SOL    HW124752   4.116   5.847   2.366
 7951SOL    HW224753   3.996   5.819   2.473
 7952SOL     OW24754   6.143   4.657   6.292
 7952SOL    HW124755   6.217   4.609   6.340
 7952SOL    HW224756   6.097   4.720   6.355
 7953SOL     OW24757   1.979   0.038   0.588
 7953SOL    HW124758   1.897   0.073   0.543
 7953SOL    HW224759   2.002   0.098   0.665
 7954SOL     OW24760   4.222   4.098   6.703
 7954SOL    HW124761   4.128   4.111   6.734
 7954SOL    HW224762   4.240   4.157   6.624
 7955SOL     OW24763   1.573   1.733   6.648
 7955SOL    HW124764   1.647   1.793   6.678
 7955SOL    HW224765   1.497   1.788   6.613
 7956SOL     OW24766   6.483   6.333   0.598
 7956SOL    HW124767   6.469   6.315   0.696
 7956SOL    HW224768   6.575   6.371   0.585
 7957SOL     OW24769   4.759   1.149   5.889
 7957SOL    HW124770   4.690   1.152   5.817
 7957SOL    HW224771   4.733   1.211   5.963
 7958SOL     OW24772   5.788   2.626   0.283
 7958SOL    HW124773   5.829   2.691   0.220
 7958SOL    HW224774   5.860   2.568   0.323
 7959SOL     OW24775   6.435   1.907   6.489
 7959SOL    HW124776   6.371   1.915   6.564
 7959SOL    HW224777   6.388   1.925   6.402
 7960SOL     OW24778   0.386   0.990   5.353
 7960SOL    HW124779   0.474   1.033   5.374
 7960SOL    HW224780   0.367   0.998   5.255
 7961SOL     OW24781   6.588   6.297   0.242
 7961SOL    HW124782   6.601   6.273   0.146
 7961SOL    HW224783   6.604   6.217   0.300
 7962SOL     OW24784   5.629   6.804   5.500
 7962SOL    HW124785   5.625   6.821   5.401
 7962SOL    HW224786   5.724   6.787   5.527
 7963SOL     OW24787   6.524   6.765   4.217
 7963SOL    HW124788   6.561   6.821   4.291
 7963SOL    HW224789   6.576   6.680   4.210
 7964SOL     OW24790   6.982   3.997   2.123
 7964SOL    HW124791   7.002   3.947   2.039
 7964SOL    HW224792   6.898   4.049   2.112
 7965SOL     OW24793   4.336   2.777   6.204
 7965SOL    HW124794   4.246   2.761   6.245
 7965SOL    HW224795   4.334   2.753   6.107
 7966SOL     OW24796   4.914   3.701   4.797
 7966SOL    HW124797   5.012   3.681   4.803
 7966SOL    HW224798   4.872   3.690   4.887
 7967SOL     OW24799   1.681   4.045   1.408
 7967SOL    HW124800   1.736   4.124   1.433
 7967SOL    HW224801   1.651   4.054   1.313
 7968SOL     OW24802   0.501   2.619   4.912
 7968SOL    HW124803   0.559   2.697   4.936
 7968SOL    HW224804   0.473   2.572   4.995
 7969SOL     OW24805   4.120   5.897   6.614
 7969SOL    HW124806   4.125   5.974   6.551
 7969SOL    HW224807   4.109   5.930   6.708
 7970SOL     OW24808   6.280   3.019   3.088
 7970SOL    HW124809   6.366   3.014   3.036
 7970SOL    HW224810   6.213   3.072   3.036
 7971SOL     OW24811   2.593   1.542   0.150
 7971SOL    HW124812   2.606   1.641   0.139
 7971SOL    HW224813   2.647   1.510   0.228
 7972SOL     OW24814   3.867   4.021   3.927
 7972SOL    HW124815   3.947   3.995   3.980
 7972SOL    HW224816   3.796   3.950   3.936
 7973SOL     OW24817   6.541   4.524   2.658
 7973SOL    HW124818   6.485   4.595   2.701
 7973SOL    HW224819   6.563   4.551   2.564
 7974SOL     OW24820   6.958   2.783   6.053
 7974SOL    HW124821   6.892   2.810   6.123
 7974SOL    HW224822   6.910   2.762   5.967
 7975SOL     OW24823   5.617   0.262   0.983
 7975SOL    HW124824   5.582   0.169   0.990
 7975SOL    HW224825   5.693   0.265   0.918
 7976SOL     OW24826   0.613   0.632   0.946
 7976SOL    HW124827   0.683   0.561   0.946
 7976SOL    HW224828   0.645   0.711   0.894
 7977SOL     OW24829   5.554   5.788   3.851
 7977SOL    HW124830   5.470   5.734   3.842
 7977SOL    HW224831   5.538   5.864   3.913
 7978SOL     OW24832   0.258   4.246   1.647
 7978SOL    HW124833   0.288   4.206   1.734
 7978SOL    HW224834   0.337   4.279   1.596
 7979SOL     OW24835   1.898   2.158   4.754
 7979SOL    HW124836   1.843   2.222   4.809
 7979SOL    HW224837   1.912   2.197   4.663
 7980SOL     OW24838   4.182   5.615   0.237
 7980SOL    HW124839   4.195   5.547   0.309
 7980SOL    HW224840   4.271   5.646   0.204
 7981SOL     OW24841   1.793   4.649   3.707
 7981SOL    HW124842   1.797   4.744   3.739
 7981SOL    HW224843   1.784   4.588   3.786
 7982SOL     OW24844   6.289   1.193   5.392
 7982SOL    HW124845   6.268   1.208   5.489
 7982SOL    HW224846   6.219   1.134   5.351
 7983SOL     OW24847   4.444   0.758   1.850
 7983SOL    HW124848   4.449   0.741   1.948
 7983SOL    HW224849   4.352   0.735   1.817
 7984SOL     OW24850   0.512   2.280   2.963
 7984SOL    HW124851   0.415   2.265   2.982
 7984SOL    HW224852   0.528   2.267   2.865
 7985SOL     OW24853   2.761   2.917   5.443
 7985SOL    HW124854   2.764   2.945   5.539
 7985SOL    HW224855   2.666   2.913   5.412
 7986SOL     OW24856   3.676   0.760   4.207
 7986SOL    HW124857   3.741   0.782   4.135
 7986SOL    HW224858   3.585   0.746   4.167
 7987SOL     OW24859   0.866   3.655   0.059
 7987SOL    HW124860   0.814   3.599   7.015
 7987SOL    HW224861   0.957   3.617   0.071
 7988SOL     OW24862   6.544   0.962   2.134
 7988SOL    HW124863   6.633   0.923   2.108
 7988SOL    HW224864   6.484   0.963   2.054
 7989SOL     OW24865   0.205   4.481   0.750
 7989SOL    HW124866   0.249   4.451   0.835
 7989SOL    HW224867   0.197   4.403   0.688
 7990SOL     OW24868   4.559   5.767   5.455
 7990SOL    HW124869   4.650   5.803   5.432
 7990SOL    HW224870   4.535   5.796   5.548
 7991SOL     OW24871   5.956   1.098   5.135
 7991SOL    HW124872   5.886   1.051   5.189
 7991SOL    HW224873   5.952   1.196   5.155
 7992SOL     OW24874   2.503   6.686   6.685
 7992SOL    HW124875   2.552   6.732   6.759
 7992SOL    HW224876   2.425   6.637   6.723
 7993SOL     OW24877   6.377   5.804   0.432
 7993SOL    HW124878   6.343   5.749   0.356
 7993SOL    HW224879   6.321   5.887   0.440
 7994SOL     OW24880   5.888   6.997   3.788
 7994SOL    HW124881   5.917   6.924   3.850
 7994SOL    HW224882   5.856   6.957   3.702
 7995SOL     OW24883   0.733   5.033   1.657
 7995SOL    HW124884   0.728   5.082   1.569
 7995SOL    HW224885   0.649   5.047   1.708
 7996SOL     OW24886   3.239   0.208   3.263
 7996SOL    HW124887   3.143   0.236   3.259
 7996SOL    HW224888   3.298   0.287   3.250
 7997SOL     OW24889   1.330   1.415   6.098
 7997SOL    HW124890   1.359   1.339   6.156
 7997SOL    HW224891   1.275   1.380   6.022
 7998SOL     OW24892   2.228   0.963   0.427
 7998SOL    HW124893   2.216   0.904   0.347
 7998SOL    HW224894   2.196   1.055   0.405
 7999SOL     OW24895   1.088   0.068   4.478
 7999SOL    HW124896   1.127   0.158   4.498
 7999SOL    HW224897   1.088   0.052   4.379
 8000SOL     OW24898   3.960   5.442   0.177
 8000SOL    HW124899   4.033   5.508   0.195
 8000SOL    HW224900   3.904   5.431   0.259
 8001SOL     OW24901   4.058   5.794   1.000
 8001SOL    HW124902   4.146   5.780   1.044
 8001SOL    HW224903   3.995   5.839   1.064
 8002SOL     OW24904   0.916   0.139   5.795
 8002SOL    HW124905   0.840   0.180   5.845
 8002SOL    HW224906   0.987   0.112   5.859
 8003SOL     OW24907   2.369   5.560   2.357
 8003SOL    HW124908   2.420   5.474   2.368
 8003SOL    HW224909   2.368   5.609   2.444
 8004SOL     OW24910   1.218   2.881   4.134
 8004SOL    HW124911   1.165   2.824   4.071
 8004SOL    HW224912   1.300   2.913   4.087
 8005SOL     OW24913   2.310   0.360   2.927
 8005SOL    HW124914   2.391   0.351   2.869
 8005SOL    HW224915   2.336   0.345   3.023
 8006SOL     OW24916   3.843   4.675   5.260
 8006SOL    HW124917   3.807   4.583   5.249
 8006SOL    HW224918   3.800   4.719   5.338
 8007SOL     OW24919   6.719   0.483   0.473
 8007SOL    HW124920   6.751   0.564   0.522
 8007SOL    HW224921   6.665   0.512   0.394
 8008SOL     OW24922   5.464   6.495   0.218
 8008SOL    HW124923   5.492   6.516   0.124
 8008SOL    HW224924   5.539   6.449   0.265
 8009SOL     OW24925   5.480   1.407   6.973
 8009SOL    HW124926   5.500   1.437   0.046
 8009SOL    HW224927   5.385   1.378   6.967
 8010SOL     OW24928   3.008   0.963   5.844
 8010SOL    HW124929   2.915   0.989   5.871
 8010SOL    HW224930   3.012   0.864   5.830
 8011SOL     OW24931   3.907   2.218   3.202
 8011SOL    HW124932   3.816   2.200   3.164
 8011SOL    HW224933   3.975   2.218   3.129
 8012SOL     OW24934   6.192   1.638   4.256
 8012SOL    HW124935   6.115   1.600   4.205
 8012SOL    HW224936   6.179   1.737   4.267
 8013SOL     OW24937   3.033   1.135   2.207
 8013SOL    HW124938   2.965   1.066   2.232
 8013SOL    HW224939   2.992   1.226   2.214
 8014SOL     OW24940   2.260   2.191   2.682
 8014SOL    HW124941   2.272   2.101   2.641
 8014SOL    HW224942   2.234   2.182   2.778
 8015SOL     OW24943   3.437   6.763   5.238
 8015SOL    HW124944   3.373   6.710   5.294
 8015SOL    HW224945   3.421   6.742   5.142
 8016SOL     OW24946   3.339   1.943   4.890
 8016SOL    HW124947   3.425   1.988   4.916
 8016SOL    HW224948   3.282   2.007   4.839
 8017SOL     OW24949   6.489   5.949   0.879
 8017SOL    HW124950   6.537   5.868   0.845
 8017SOL    HW224951   6.537   5.984   0.960
 8018SOL     OW24952   4.033   1.937   6.858
 8018SOL    HW124953   4.013   1.840   6.873
 8018SOL    HW224954   4.066   1.951   6.765
 8019SOL     OW24955   2.819   3.428   0.748
 8019SOL    HW124956   2.811   3.457   0.653
 8019SOL    HW224957   2.914   3.435   0.777
 8020SOL     OW24958   0.685   0.916   5.586
 8020SOL    HW124959   0.654   0.990   5.526
 8020SOL    HW224960   0.662   0.828   5.545
 8021SOL     OW24961   1.367   2.117   1.189
 8021SOL    HW124962   1.288   2.153   1.140
 8021SOL    HW224963   1.338   2.046   1.253
 8022SOL     OW24964   5.167   1.250   2.093
 8022SOL    HW124965   5.118   1.291   2.017
 8022SOL    HW224966   5.249   1.204   2.059
 8023SOL     OW24967   4.855   6.071   1.464
 8023SOL    HW124968   4.864   6.082   1.563
 8023SOL    HW224969   4.934   6.020   1.429
 8024SOL     OW24970   2.412   1.097   6.517
 8024SOL    HW124971   2.358   1.119   6.436
 8024SOL    HW224972   2.438   1.182   6.563
 8025SOL     OW24973   1.319   5.790   1.945
 8025SOL    HW124974   1.228   5.753   1.965
 8025SOL    HW224975   1.310   5.878   1.898
 8026SOL     OW24976   0.546   6.262   6.619
 8026SOL    HW124977   0.572   6.217   6.705
 8026SOL    HW224978   0.503   6.195   6.558
 8027SOL     OW24979   3.307   0.782   6.602
 8027SOL    HW124980   3.330   0.815   6.694
 8027SOL    HW224981   3.214   0.747   6.601
 8028SOL     OW24982   3.161   5.723   5.420
 8028SOL    HW124983   3.211   5.645   5.458
 8028SOL    HW224984   3.151   5.712   5.321
 8029SOL     OW24985   0.647   6.988   0.043
 8029SOL    HW124986   0.649   0.017   0.130
 8029SOL    HW224987   0.727   7.015   7.009
 8030SOL     OW24988   0.790   4.107   0.875
 8030SOL    HW124989   0.694   4.087   0.859
 8030SOL    HW224990   0.846   4.030   0.845
 8031SOL     OW24991   6.912   0.407   3.542
 8031SOL    HW124992   6.887   0.484   3.600
 8031SOL    HW224993   6.910   0.436   3.446
 8032SOL     OW24994   6.714   2.871   1.128
 8032SOL    HW124995   6.615   2.877   1.141
 8032SOL    HW224996   6.740   2.921   1.045
 8033SOL     OW24997   4.493   3.813   1.043
 8033SOL    HW124998   4.406   3.773   1.012
 8033SOL    HW224999   4.483   3.844   1.138
 8034SOL     OW25000   6.460   0.295   5.946
 8034SOL    HW125001   6.506   0.212   5.913
 8034SOL    HW225002   6.529   0.365   5.966
 8035SOL     OW25003   6.299   1.574   3.324
 8035SOL    HW125004   6.313   1.634   3.403
 8035SOL    HW225005   6.348   1.488   3.338
 8036SOL     OW25006   5.419   2.647   4.305
 8036SOL    HW125007   5.466   2.714   4.248
 8036SOL    HW225008   5.424   2.557   4.262
 8037SOL     OW25009   1.635   1.754   5.624
 8037SOL    HW125010   1.612   1.834   5.568
 8037SOL    HW225011   1.563   1.685   5.614
 8038SOL     OW25012   0.222   5.075   2.112
 8038SOL    HW125013   0.123   5.076   2.123
 8038SOL    HW225014   0.245   5.073   2.014
 8039SOL     OW25015   1.024   2.322   5.420
 8039SOL    HW125016   0.935   2.351   5.385
 8039SOL    HW225017   1.082   2.293   5.343
 8040SOL     OW25018   1.579   5.284   6.908
 8040SOL    HW125019   1.534   5.260   6.994
 8040SOL    HW225020   1.586   5.203   6.849
 8041SOL     OW25021   3.330   1.407   3.088
 8041SOL    HW125022   3.400   1.381   3.021
 8041SOL    HW225023   3.292   1.497   3.064
 8042SOL     OW25024   4.394   4.200   5.706
 8042SOL    HW125025   4.296   4.216   5.720
 8042SOL    HW225026   4.418   4.112   5.745
 8043SOL     OW25027   5.076   5.424   6.624
 8043SOL    HW125028   5.051   5.484   6.548
 8043SOL    HW225029   5.168   5.388   6.609
 8044SOL     OW25030   2.612   3.434   1.721
 8044SOL    HW125031   2.533   3.430   1.782
 8044SOL    HW225032   2.617   3.524   1.678
 8045SOL     OW25033   6.714   2.723   3.733
 8045SOL    HW125034   6.666   2.647   3.688
 8045SOL    HW225035   6.751   2.692   3.821
 8046SOL     OW25036   6.916   4.825   2.189
 8046SOL    HW125037   6.969   4.800   2.271
 8046SOL    HW225038   6.941   4.765   2.114
 8047SOL     OW25039   3.250   6.213   6.980
 8047SOL    HW125040   3.247   6.176   6.888
 8047SOL    HW225041   3.157   6.216   7.018
 8048SOL     OW25042   3.767   2.400   6.171
 8048SOL    HW125043   3.717   2.329   6.220
 8048SOL    HW225044   3.817   2.360   6.095
 8049SOL     OW25045   1.579   2.084   0.529
 8049SOL    HW125046   1.519   2.162   0.547
 8049SOL    HW225047   1.602   2.082   0.432
 8050SOL     OW25048   0.821   5.038   5.620
 8050SOL    HW125049   0.779   5.113   5.671
 8050SOL    HW225050   0.920   5.053   5.615
 8051SOL     OW25051   4.393   5.866   3.622
 8051SOL    HW125052   4.473   5.926   3.624
 8051SOL    HW225053   4.351   5.870   3.531
 8052SOL     OW25054   2.867   1.704   2.280
 8052SOL    HW125055   2.963   1.685   2.298
 8052SOL    HW225056   2.817   1.709   2.366
 8053SOL     OW25057   2.057   2.570   6.574
 8053SOL    HW125058   2.018   2.482   6.548
 8053SOL    HW225059   1.984   2.637   6.585
 8054SOL     OW25060   4.699   3.354   5.379
 8054SOL    HW125061   4.704   3.418   5.302
 8054SOL    HW225062   4.609   3.311   5.381
 8055SOL     OW25063   5.838   0.842   0.130
 8055SOL    HW125064   5.787   0.782   0.192
 8055SOL    HW225065   5.923   0.797   0.103
 8056SOL     OW25066   2.593   0.704   4.080
 8056SOL    HW125067   2.581   0.693   3.981
 8056SOL    HW225068   2.635   0.622   4.118
 8057SOL     OW25069   3.002   2.100   1.833
 8057SOL    HW125070   2.990   2.173   1.900
 8057SOL    HW225071   2.913   2.074   1.795
 8058SOL     OW25072   3.371   6.640   2.068
 8058SOL    HW125073   3.293   6.659   2.008
 8058SOL    HW225074   3.456   6.669   2.022
 8059SOL     OW25075   3.226   2.387   5.859
 8059SOL    HW125076   3.214   2.298   5.902
 8059SOL    HW225077   3.185   2.458   5.917
 8060SOL     OW25078   6.228   0.516   6.422
 8060SOL    HW125079   6.187   0.525   6.513
 8060SOL    HW225080   6.155   0.516   6.353
 8061SOL     OW25081   0.519   0.423   2.449
 8061SOL    HW125082   0.504   0.381   2.538
 8061SOL    HW225083   0.469   0.510   2.444
 8062SOL     OW25084   4.202   5.561   5.627
 8062SOL    HW125085   4.279   5.502   5.651
 8062SOL    HW225086   4.198   5.573   5.528
 8063SOL     OW25087   3.329   4.883   3.145
 8063SOL    HW125088   3.237   4.919   3.157
 8063SOL    HW225089   3.367   4.917   3.059
 8064SOL     OW25090   6.332   1.886   0.210
 8064SOL    HW125091   6.300   1.823   0.280
 8064SOL    HW225092   6.429   1.906   0.226
 8065SOL     OW25093   4.029   5.858   6.281
 8065SOL    HW125094   3.977   5.943   6.275
 8065SOL    HW225095   3.967   5.783   6.307
 8066SOL     OW25096   0.371   6.778   5.746
 8066SOL    HW125097   0.271   6.774   5.741
 8066SOL    HW225098   0.409   6.775   5.653
 8067SOL     OW25099   5.068   2.278   3.493
 8067SOL    HW125100   5.025   2.267   3.582
 8067SOL    HW225101   5.138   2.208   3.480
 8068SOL     OW25102   5.738   4.047   1.365
 8068SOL    HW125103   5.775   4.094   1.285
 8068SOL    HW225104   5.804   3.980   1.399
 8069SOL     OW25105   2.387   4.745   3.255
 8069SOL    HW125106   2.300   4.792   3.238
 8069SOL    HW225107   2.372   4.672   3.322
 8070SOL     OW25108   4.590   4.445   0.384
 8070SOL    HW125109   4.510   4.399   0.423
 8070SOL    HW225110   4.634   4.385   0.317
 8071SOL     OW25111   2.306   0.290   5.955
 8071SOL    HW125112   2.283   0.272   5.859
 8071SOL    HW225113   2.225   0.325   6.003
 8072SOL     OW25114   1.882   1.685   5.757
 8072SOL    HW125115   1.880   1.777   5.796
 8072SOL    HW225116   1.790   1.645   5.759
 8073SOL     OW25117   4.440   0.704   6.839
 8073SOL    HW125118   4.539   0.702   6.826
 8073SOL    HW225119   4.418   0.732   6.932
 8074SOL     OW25120   1.624   1.104   6.126
 8074SOL    HW125121   1.688   1.067   6.058
 8074SOL    HW225122   1.563   1.031   6.157
 8075SOL     OW25123   0.110   6.882   0.682
 8075SOL    HW125124   0.104   6.783   0.689
 8075SOL    HW225125   0.170   6.917   0.753
 8076SOL     OW25126   0.037   6.206   0.343
 8076SOL    HW125127   0.103   6.133   0.360
 8076SOL    HW225128   6.998   6.216   0.423
 8077SOL     OW25129   4.763   4.373   0.577
 8077SOL    HW125130   4.702   4.408   0.505
 8077SOL    HW225131   4.752   4.274   0.584
 8078SOL     OW25132   0.265   1.330   1.726
 8078SOL    HW125133   0.277   1.408   1.788
 8078SOL    HW225134   0.319   1.253   1.759
 8079SOL     OW25135   1.622   1.255   5.852
 8079SOL    HW125136   1.604   1.238   5.949
 8079SOL    HW225137   1.545   1.221   5.798
 8080SOL     OW25138   0.945   3.218   2.928
 8080SOL    HW125139   0.868   3.161   2.956
 8080SOL    HW225140   1.021   3.159   2.898
 8081SOL     OW25141   5.634   5.967   5.089
 8081SOL    HW125142   5.685   5.903   5.146
 8081SOL    HW225143   5.609   6.048   5.143
 8082SOL     OW25144   3.619   1.624   3.156
 8082SOL    HW125145   3.654   1.536   3.188
 8082SOL    HW225146   3.692   1.692   3.157
 8083SOL     OW25147   5.835   2.104   4.457
 8083SOL    HW125148   5.911   2.165   4.436
 8083SOL    HW225149   5.851   2.060   4.546
 8084SOL     OW25150   3.636   1.529   6.015
 8084SOL    HW125151   3.561   1.522   5.949
 8084SOL    HW225152   3.602   1.563   6.102
 8085SOL     OW25153   1.834   6.263   4.470
 8085SOL    HW125154   1.862   6.250   4.375
 8085SOL    HW225155   1.778   6.345   4.477
 8086SOL     OW25156   6.761   0.539   2.027
 8086SOL    HW125157   6.682   0.553   1.966
 8086SOL    HW225158   6.828   0.480   1.982
 8087SOL     OW25159   0.821   0.586   0.308
 8087SOL    HW125160   0.831   0.602   0.406
 8087SOL    HW225161   0.767   0.503   0.294
 8088SOL     OW25162   6.233   0.198   4.876
 8088SOL    HW125163   6.318   0.153   4.903
 8088SOL    HW225164   6.253   0.288   4.837
 8089SOL     OW25165   6.492   2.253   5.736
 8089SOL    HW125166   6.464   2.233   5.829
 8089SOL    HW225167   6.583   2.214   5.719
 8090SOL     OW25168   4.101   2.106   5.196
 8090SOL    HW125169   4.016   2.054   5.199
 8090SOL    HW225170   4.154   2.080   5.115
 8091SOL     OW25171   1.702   5.262   4.028
 8091SOL    HW125172   1.716   5.361   4.033
 8091SOL    HW225173   1.676   5.227   4.118
 8092SOL     OW25174   4.758   1.847   6.228
 8092SOL    HW125175   4.797   1.939   6.218
 8092SOL    HW225176   4.830   1.784   6.258
 8093SOL     OW25177   3.389   5.755   2.133
 8093SOL    HW125178   3.367   5.773   2.038
 8093SOL    HW225179   3.336   5.816   2.192
 8094SOL     OW25180   1.859   4.513   4.294
 8094SOL    HW125181   1.935   4.462   4.253
 8094SOL    HW225182   1.782   4.451   4.309
 8095SOL     OW25183   1.468   4.787   5.396
 8095SOL    HW125184   1.441   4.883   5.407
 8095SOL    HW225185   1.528   4.760   5.471
 8096SOL     OW25186   1.265   6.236   1.088
 8096SOL    HW125187   1.222   6.325   1.081
 8096SOL    HW225188   1.230   6.188   1.169
 8097SOL     OW25189   4.455   6.140   5.866
 8097SOL    HW125190   4.452   6.198   5.784
 8097SOL    HW225191   4.437   6.195   5.947
 8098SOL     OW25192   1.860   6.099   5.032
 8098SOL    HW125193   1.779   6.043   5.019
 8098SOL    HW225194   1.869   6.163   4.956
 8099SOL     OW25195   2.414   4.625   2.939
 8099SOL    HW125196   2.481   4.641   3.011
 8099SOL    HW225197   2.323   4.652   2.971
 8100SOL     OW25198   0.387   0.958   6.881
 8100SOL    HW125199   0.393   1.052   6.849
 8100SOL    HW225200   0.383   0.957   6.981
 8101SOL     OW25201   3.137   5.914   0.961
 8101SOL    HW125202   3.053   5.939   1.010
 8101SOL    HW225203   3.133   5.951   0.868
 8102SOL     OW25204   1.802   3.145   4.704
 8102SOL    HW125205   1.747   3.214   4.657
 8102SOL    HW225206   1.741   3.075   4.742
 8103SOL     OW25207   3.051   1.007   1.481
 8103SOL    HW125208   2.997   0.943   1.426
 8103SOL    HW225209   2.997   1.089   1.499
 8104SOL     OW25210   2.115   5.751   0.348
 8104SOL    HW125211   2.084   5.702   0.430
 8104SOL    HW225212   2.137   5.685   0.277
 8105SOL     OW25213   6.855   0.152   3.210
 8105SOL    HW125214   6.838   0.249   3.227
 8105SOL    HW225215   6.768   0.104   3.201
 8106SOL     OW25216   1.839   0.125   6.069
 8106SOL    HW125217   1.759   0.177   6.100
 8106SOL    HW225218   1.891   0.181   6.004
 8107SOL     OW25219   1.646   6.397   6.156
 8107SOL    HW125220   1.681   6.389   6.250
 8107SOL    HW225221   1.589   6.317   6.136
 8108SOL     OW25222   0.994   1.120   6.844
 8108SOL    HW125223   1.052   1.040   6.859
 8108SOL    HW225224   0.923   1.098   6.777
 8109SOL     OW25225   6.404   3.219   0.759
 8109SOL    HW125226   6.322   3.274   0.772
 8109SOL    HW225227   6.383   3.123   0.777
 8110SOL     OW25228   3.895   5.108   1.503
 8110SOL    HW125229   3.909   5.066   1.593
 8110SOL    HW225230   3.801   5.093   1.473
 8111SOL     OW25231   6.318   1.218   2.557
 8111SOL    HW125232   6.361   1.162   2.486
 8111SOL    HW225233   6.222   1.190   2.568
 8112SOL     OW25234   1.629   3.626   6.075
 8112SOL    HW125235   1.694   3.693   6.040
 8112SOL    HW225236   1.545   3.629   6.021
 8113SOL     OW25237   5.507   3.260   5.983
 8113SOL    HW125238   5.559   3.292   6.062
 8113SOL    HW225239   5.552   3.289   5.899
 8114SOL     OW25240   1.823   4.370   1.786
 8114SOL    HW125241   1.921   4.353   1.778
 8114SOL    HW225242   1.784   4.306   1.852
 8115SOL     OW25243   2.520   1.618   6.217
 8115SOL    HW125244   2.439   1.566   6.190
 8115SOL    HW225245   2.529   1.617   6.317
 8116SOL     OW25246   3.966   3.463   1.299
 8116SOL    HW125247   3.945   3.382   1.354
 8116SOL    HW225248   3.947   3.546   1.351
 8117SOL     OW25249   2.351   6.909   3.216
 8117SOL    HW125250   2.294   6.958   3.281
 8117SOL    HW225251   2.312   6.818   3.199
 8118SOL     OW25252   6.241   3.242   0.527
 8118SOL    HW125253   6.205   3.216   0.438
 8118SOL    HW225254   6.340   3.229   0.529
 8119SOL     OW25255   6.042   6.342   0.213
 8119SOL    HW125256   6.109   6.321   0.285
 8119SOL    HW225257   6.090   6.366   0.129
 8120SOL     OW25258   2.920   6.728   1.242
 8120SOL    HW125259   3.016   6.742   1.264
 8120SOL    HW225260   2.906   6.633   1.215
 8121SOL     OW25261   0.914   3.623   2.837
 8121SOL    HW125262   0.962   3.702   2.875
 8121SOL    HW225263   0.899   3.555   2.909
 8122SOL     OW25264   0.824   4.643   1.306
 8122SOL    HW125265   0.770   4.560   1.322
 8122SOL    HW225266   0.848   4.685   1.393
 8123SOL     OW25267   0.421   1.566   6.983
 8123SOL    HW125268   0.518   1.564   6.959
 8123SOL    HW225269   0.398   1.656   0.000
 8124SOL     OW25270   5.304   4.519   4.795
 8124SOL    HW125271   5.278   4.577   4.873
 8124SOL    HW225272   5.365   4.569   4.735
 8125SOL     OW25273   1.580   6.072   3.201
 8125SOL    HW125274   1.643   6.021   3.143
 8125SOL    HW225275   1.503   6.106   3.147
 8126SOL     OW25276   3.509   4.925   4.477
 8126SOL    HW125277   3.478   4.863   4.405
 8126SOL    HW225278   3.604   4.906   4.499
 8127SOL     OW25279   3.484   2.830   0.293
 8127SOL    HW125280   3.476   2.744   0.243
 8127SOL    HW225281   3.530   2.814   0.380
 8128SOL     OW25282   3.661   3.086   1.685
 8128SOL    HW125283   3.632   2.990   1.685
 8128SOL    HW225284   3.598   3.140   1.631
 8129SOL     OW25285   1.820   2.844   2.525
 8129SOL    HW125286   1.873   2.837   2.441
 8129SOL    HW225287   1.853   2.776   2.591
 8130SOL     OW25288   1.151   5.355   6.831
 8130SOL    HW125289   1.063   5.390   6.799
 8130SOL    HW225290   1.176   5.400   6.917
 8131SOL     OW25291   1.849   3.864   6.792
 8131SOL    HW125292   1.830   3.779   6.744
 8131SOL    HW225293   1.941   3.895   6.770
 8132SOL     OW25294   0.184   0.083   5.262
 8132SOL    HW125295   0.118   0.054   5.331
 8132SOL    HW225296   0.170   0.180   5.241
 8133SOL     OW25297   3.840   5.134   0.445
 8133SOL    HW125298   3.784   5.114   0.525
 8133SOL    HW225299   3.840   5.233   0.429
 8134SOL     OW25300   5.875   1.231   6.161
 8134SOL    HW125301   5.780   1.242   6.129
 8134SOL    HW225302   5.904   1.316   6.205
 8135SOL     OW25303   2.172   0.160   1.779
 8135SOL    HW125304   2.247   0.223   1.760
 8135SOL    HW225305   2.103   0.208   1.834
 8136SOL     OW25306   4.780   4.380   1.947
 8136SOL    HW125307   4.810   4.431   1.866
 8136SOL    HW225308   4.681   4.386   1.955
 8137SOL     OW25309   3.956   1.346   4.725
 8137SOL    HW125310   4.008   1.321   4.807
 8137SOL    HW225311   3.928   1.264   4.676
 8138SOL     OW25312   5.265   1.247   1.578
 8138SOL    HW125313   5.263   1.325   1.641
 8138SOL    HW225314   5.176   1.203   1.576
 8139SOL     OW25315   0.828   2.285   3.847
 8139SOL    HW125316   0.892   2.222   3.891
 8139SOL    HW225317   0.802   2.249   3.758
 8140SOL     OW25318   3.781   0.880   2.728
 8140SOL    HW125319   3.683   0.871   2.743
 8140SOL    HW225320   3.800   0.968   2.684
 8141SOL     OW25321   4.804   4.870   4.741
 8141SOL    HW125322   4.849   4.843   4.656
 8141SOL    HW225323   4.729   4.806   4.760
 8142SOL     OW25324   6.579   6.000   0.335
 8142SOL    HW125325   6.516   5.929   0.367
 8142SOL    HW225326   6.648   6.017   0.405
 8143SOL     OW25327   6.002   3.501   4.881
 8143SOL    HW125328   6.006   3.601   4.873
 8143SOL    HW225329   5.988   3.476   4.977
 8144SOL     OW25330   5.918   6.702   6.055
 8144SOL    HW125331   5.921   6.668   6.149
 8144SOL    HW225332   6.010   6.725   6.024
 8145SOL     OW25333   5.709   5.997   2.761
 8145SOL    HW125334   5.666   5.911   2.786
 8145SOL    HW225335   5.740   6.044   2.844
 8146SOL     OW25336   3.061   1.219   4.055
 8146SOL    HW125337   3.111   1.200   4.139
 8146SOL    HW225338   3.024   1.312   4.058
 8147SOL     OW25339   5.021   0.729   3.927
 8147SOL    HW125340   5.112   0.707   3.893
 8147SOL    HW225341   4.987   0.810   3.879
 8148SOL     OW25342   5.356   3.733   3.445
 8148SOL    HW125343   5.418   3.674   3.497
 8148SOL    HW225344   5.285   3.770   3.506
 8149SOL     OW25345   4.552   4.442   3.265
 8149SOL    HW125346   4.611   4.412   3.190
 8149SOL    HW225347   4.488   4.512   3.231
 8150SOL     OW25348   0.456   5.464   1.136
 8150SOL    HW125349   0.543   5.467   1.185
 8150SOL    HW225350   0.427   5.369   1.126
 8151SOL     OW25351   1.254   1.689   5.135
 8151SOL    HW125352   1.322   1.748   5.178
 8151SOL    HW225353   1.201   1.742   5.069
 8152SOL     OW25354   1.361   1.482   3.929
 8152SOL    HW125355   1.273   1.468   3.884
 8152SOL    HW225356   1.352   1.555   3.997
 8153SOL     OW25357   2.065   6.793   0.559
 8153SOL    HW125358   2.085   6.744   0.644
 8153SOL    HW225359   2.078   6.891   0.573
 8154SOL     OW25360   1.821   6.808   3.709
 8154SOL    HW125361   1.771   6.815   3.796
 8154SOL    HW225362   1.917   6.829   3.724
 8155SOL     OW25363   3.067   3.116   3.453
 8155SOL    HW125364   3.071   3.127   3.553
 8155SOL    HW225365   3.118   3.035   3.427
 8156SOL     OW25366   6.413   0.303   6.342
 8156SOL    HW125367   6.474   0.370   6.302
 8156SOL    HW225368   6.338   0.349   6.389
 8157SOL     OW25369   6.139   3.346   6.535
 8157SOL    HW125370   6.067   3.291   6.577
 8157SOL    HW225371   6.148   3.322   6.439
 8158SOL     OW25372   1.619   5.639   2.209
 8158SOL    HW125373   1.529   5.630   2.252
 8158SOL    HW225374   1.611   5.692   2.125
 8159SOL     OW25375   1.687   5.934   2.132
 8159SOL    HW125376   1.769   5.968   2.087
 8159SOL    HW225377   1.630   5.884   2.066
 8160SOL     OW25378   4.218   2.382   1.888
 8160SOL    HW125379   4.205   2.283   1.882
 8160SOL    HW225380   4.158   2.420   1.958
 8161SOL     OW25381   4.907   1.393   0.511
 8161SOL    HW125382   4.869   1.395   0.418
 8161SOL    HW225383   4.917   1.486   0.545
 8162SOL     OW25384   5.502   0.462   1.581
 8162SOL    HW125385   5.595   0.492   1.563
 8162SOL    HW225386   5.481   0.475   1.678
 8163SOL     OW25387   2.259   4.123   5.337
 8163SOL    HW125388   2.316   4.074   5.271
 8163SOL    HW225389   2.303   4.120   5.427
 8164SOL     OW25390   4.611   2.099   1.550
 8164SOL    HW125391   4.560   2.130   1.631
 8164SOL    HW225392   4.628   2.176   1.489
 8165SOL     OW25393   2.065   4.930   1.537
 8165SOL    HW125394   2.088   4.993   1.612
 8165SOL    HW225395   2.124   4.948   1.459
 8166SOL     OW25396   3.052   6.936   2.149
 8166SOL    HW125397   3.060   6.868   2.221
 8166SOL    HW225398   3.135   6.991   2.145
 8167SOL     OW25399   5.106   2.718   3.809
 8167SOL    HW125400   5.115   2.736   3.711
 8167SOL    HW225401   5.089   2.804   3.857
 8168SOL     OW25402   3.314   0.893   2.735
 8168SOL    HW125403   3.364   0.958   2.793
 8168SOL    HW225404   3.354   0.802   2.746
 8169SOL     OW25405   4.796   4.277   6.188
 8169SOL    HW125406   4.753   4.218   6.256
 8169SOL    HW225407   4.841   4.220   6.119
 8170SOL     OW25408   0.648   5.748   3.820
 8170SOL    HW125409   0.628   5.821   3.754
 8170SOL    HW225410   0.601   5.664   3.793
 8171SOL     OW25411   0.887   1.484   5.898
 8171SOL    HW125412   0.887   1.388   5.928
 8171SOL    HW225413   0.851   1.489   5.805
 8172SOL     OW25414   6.947   6.155   0.665
 8172SOL    HW125415   6.871   6.137   0.727
 8172SOL    HW225416   0.013   6.140   0.712
 8173SOL     OW25417   5.472   2.845   6.434
 8173SOL    HW125418   5.505   2.882   6.347
 8173SOL    HW225419   5.435   2.754   6.419
 8174SOL     OW25420   5.586   0.477   2.289
 8174SOL    HW125421   5.650   0.409   2.253
 8174SOL    HW225422   5.558   0.452   2.381
 8175SOL     OW25423   0.874   3.848   6.114
 8175SOL    HW125424   0.798   3.904   6.082
 8175SOL    HW225425   0.839   3.760   6.148
 8176SOL     OW25426   2.639   5.909   3.255
 8176SOL    HW125427   2.718   5.910   3.193
 8176SOL    HW225428   2.670   5.892   3.348
 8177SOL     OW25429   1.321   0.086   6.177
 8177SOL    HW125430   1.328   7.017   6.134
 8177SOL    HW225431   1.329   0.077   6.277
 8178SOL     OW25432   1.887   6.755   6.388
 8178SOL    HW125433   1.819   6.808   6.338
 8178SOL    HW225434   1.966   6.738   6.329
 8179SOL     OW25435   3.148   1.274   0.078
 8179SOL    HW125436   3.097   1.235   0.154
 8179SOL    HW225437   3.234   1.224   0.067
 8180SOL     OW25438   4.689   5.599   4.734
 8180SOL    HW125439   4.630   5.664   4.782
 8180SOL    HW225440   4.749   5.554   4.800
 8181SOL     OW25441   2.590   2.264   2.480
 8181SOL    HW125442   2.636   2.288   2.395
 8181SOL    HW225443   2.494   2.241   2.461
 8182SOL     OW25444   3.870   2.288   5.933
 8182SOL    HW125445   3.946   2.267   5.872
 8182SOL    HW225446   3.802   2.214   5.929
 8183SOL     OW25447   1.778   3.411   4.588
 8183SOL    HW125448   1.854   3.376   4.534
 8183SOL    HW225449   1.813   3.468   4.662
 8184SOL     OW25450   6.203   5.994   5.673
 8184SOL    HW125451   6.301   6.004   5.656
 8184SOL    HW225452   6.185   6.003   5.771
 8185SOL     OW25453   1.344   1.763   3.279
 8185SOL    HW125454   1.356   1.853   3.237
 8185SOL    HW225455   1.317   1.697   3.210
 8186SOL     OW25456   3.569   4.789   6.212
 8186SOL    HW125457   3.501   4.726   6.252
 8186SOL    HW225458   3.522   4.854   6.152
 8187SOL     OW25459   1.408   1.658   5.901
 8187SOL    HW125460   1.423   1.591   5.973
 8187SOL    HW225461   1.355   1.616   5.827
 8188SOL     OW25462   5.795   4.037   2.574
 8188SOL    HW125463   5.708   4.081   2.552
 8188SOL    HW225464   5.843   4.016   2.489
 8189SOL     OW25465   6.129   4.633   2.325
 8189SOL    HW125466   6.077   4.673   2.401
 8189SOL    HW225467   6.094   4.670   2.238
 8190SOL     OW25468   5.267   3.635   2.572
 8190SOL    HW125469   5.275   3.661   2.668
 8190SOL    HW225470   5.342   3.675   2.520
 8191SOL     OW25471   0.679   5.171   2.216
 8191SOL    HW125472   0.697   5.255   2.267
 8191SOL    HW225473   0.619   5.112   2.271
 8192SOL     OW25474   1.602   3.763   1.196
 8192SOL    HW125475   1.672   3.781   1.127
 8192SOL    HW225476   1.523   3.821   1.179
 8193SOL     OW25477   3.375   0.548   6.064
 8193SOL    HW125478   3.350   0.639   6.095
 8193SOL    HW225479   3.373   0.545   5.964
 8194SOL     OW25480   1.681   0.794   0.650
 8194SOL    HW125481   1.770   0.830   0.624
 8194SOL    HW225482   1.614   0.814   0.578
 8195SOL     OW25483   6.277   0.217   0.767
 8195SOL    HW125484   6.350   0.180   0.709
 8195SOL    HW225485   6.243   0.145   0.827
 8196SOL     OW25486   2.340   0.481   6.205
 8196SOL    HW125487   2.256   0.437   6.172
 8196SOL    HW225488   2.316   0.551   6.273
 8197SOL     OW25489   0.978   6.992   0.295
 8197SOL    HW125490   0.932   6.930   0.359
 8197SOL    HW225491   1.010   0.052   0.344
 8198SOL     OW25492   4.157   6.159   2.742
 8198SOL    HW125493   4.195   6.157   2.835
 8198SOL    HW225494   4.166   6.251   2.704
 8199SOL     OW25495   6.102   3.891   0.626
 8199SOL    HW125496   6.053   3.940   0.698
 8199SOL    HW225497   6.104   3.947   0.543
 8200SOL     OW25498   4.761   3.596   1.462
 8200SOL    HW125499   4.734   3.638   1.548
 8200SOL    HW225500   4.814   3.513   1.481
 8201SOL     OW25501   6.314   1.295   4.593
 8201SOL    HW125502   6.413   1.308   4.588
 8201SOL    HW225503   6.270   1.365   4.536
 8202SOL     OW25504   1.605   4.202   3.993
 8202SOL    HW125505   1.614   4.124   3.931
 8202SOL    HW225506   1.541   4.268   3.954
 8203SOL     OW25507   6.285   3.951   1.119
 8203SOL    HW125508   6.246   3.859   1.117
 8203SOL    HW225509   6.215   4.017   1.093
 8204SOL     OW25510   3.479   7.016   0.494
 8204SOL    HW125511   3.513   6.987   0.404
 8204SOL    HW225512   3.464   6.936   0.551
 8205SOL     OW25513   5.760   5.672   3.420
 8205SOL    HW125514   5.718   5.739   3.359
 8205SOL    HW225515   5.689   5.633   3.479
 8206SOL     OW25516   4.218   1.907   4.263
 8206SOL    HW125517   4.153   1.916   4.188
 8206SOL    HW225518   4.289   1.977   4.255
 8207SOL     OW25519   3.112   6.452   0.169
 8207SOL    HW125520   3.069   6.446   0.078
 8207SOL    HW225521   3.087   6.371   0.222
 8208SOL     OW25522   1.538   5.041   5.938
 8208SOL    HW125523   1.501   4.957   5.900
 8208SOL    HW225524   1.478   5.075   6.010
 8209SOL     OW25525   0.886   6.521   5.383
 8209SOL    HW125526   0.925   6.532   5.474
 8209SOL    HW225527   0.916   6.597   5.325
 8210SOL     OW25528   3.304   1.611   0.064
 8210SOL    HW125529   3.357   1.583   0.144
 8210SOL    HW225530   3.207   1.610   0.085
 8211SOL     OW25531   2.995   3.316   4.759
 8211SOL    HW125532   3.018   3.222   4.733
 8211SOL    HW225533   2.938   3.315   4.840
 8212SOL     OW25534   3.560   6.427   1.405
 8212SOL    HW125535   3.492   6.358   1.379
 8212SOL    HW225536   3.519   6.518   1.403
 8213SOL     OW25537   4.161   4.183   1.684
 8213SOL    HW125538   4.106   4.116   1.732
 8213SOL    HW225539   4.247   4.197   1.733
 8214SOL     OW25540   4.062   5.152   4.344
 8214SOL    HW125541   4.034   5.074   4.289
 8214SOL    HW225542   4.020   5.235   4.307
 8215SOL     OW25543   3.254   5.907   6.310
 8215SOL    HW125544   3.320   5.970   6.269
 8215SOL    HW225545   3.228   5.838   6.242
 8216SOL     OW25546   5.685   4.743   1.571
 8216SOL    HW125547   5.737   4.693   1.502
 8216SOL    HW225548   5.690   4.694   1.658
 8217SOL     OW25549   2.238   6.456   3.701
 8217SOL    HW125550   2.215   6.541   3.654
 8217SOL    HW225551   2.235   6.380   3.635
 8218SOL     OW25552   2.927   6.073   4.946
 8218SOL    HW125553   2.937   6.172   4.948
 8218SOL    HW225554   2.998   6.031   5.003
 8219SOL     OW25555   4.101   3.134   2.079
 8219SOL    HW125556   4.138   3.224   2.058
 8219SOL    HW225557   4.147   3.065   2.023
 8220SOL     OW25558   3.123   3.782   4.837
 8220SOL    HW125559   3.119   3.874   4.876
 8220SOL    HW225560   3.052   3.725   4.878
 8221SOL     OW25561   5.899   4.191   3.026
 8221SOL    HW125562   5.803   4.218   3.030
 8221SOL    HW225563   5.916   4.140   2.942
 8222SOL     OW25564   6.766   2.980   0.658
 8222SOL    HW125565   6.804   2.978   0.750
 8222SOL    HW225566   6.817   2.917   0.599
 8223SOL     OW25567   2.123   6.343   6.161
 8223SOL    HW125568   2.171   6.257   6.181
 8223SOL    HW225569   2.189   6.418   6.158
 8224SOL     OW25570   5.233   1.003   6.758
 8224SOL    HW125571   5.315   0.994   6.814
 8224SOL    HW225572   5.165   1.058   6.806
 8225SOL     OW25573   5.807   2.261   0.105
 8225SOL    HW125574   5.873   2.284   0.175
 8225SOL    HW225575   5.741   2.335   0.095
 8226SOL     OW25576   3.771   0.906   0.059
 8226SOL    HW125577   3.778   0.856   6.993
 8226SOL    HW225578   3.756   1.003   0.040
 8227SOL     OW25579   4.073   2.112   2.644
 8227SOL    HW125580   4.068   2.073   2.552
 8227SOL    HW225581   4.163   2.152   2.658
 8228SOL     OW25582   2.844   7.020   4.554
 8228SOL    HW125583   2.761   0.052   4.532
 8228SOL    HW225584   2.837   6.928   4.516
 8229SOL     OW25585   4.511   4.140   0.444
 8229SOL    HW125586   4.424   4.122   0.398
 8229SOL    HW225587   4.493   4.163   0.540
 8230SOL     OW25588   5.817   0.334   5.986
 8230SOL    HW125589   5.747   0.404   5.968
 8230SOL    HW225590   5.880   0.329   5.909
 8231SOL     OW25591   2.779   1.055   2.276
 8231SOL    HW125592   2.737   1.089   2.360
 8231SOL    HW225593   2.722   0.982   2.237
 8232SOL     OW25594   3.525   5.585   3.281
 8232SOL    HW125595   3.544   5.487   3.271
 8232SOL    HW225596   3.504   5.605   3.377
 8233SOL     OW25597   1.673   0.830   6.266
 8233SOL    HW125598   1.629   0.875   6.344
 8233SOL    HW225599   1.605   0.807   6.197
 8234SOL     OW25600   1.519   2.341   0.681
 8234SOL    HW125601   1.450   2.413   0.677
 8234SOL    HW225602   1.602   2.373   0.636
 8235SOL     OW25603   0.783   0.787   1.309
 8235SOL    HW125604   0.784   0.804   1.407
 8235SOL    HW225605   0.815   0.694   1.290
 8236SOL     OW25606   1.170   0.106   1.652
 8236SOL    HW125607   1.238   0.168   1.690
 8236SOL    HW225608   1.135   0.142   1.566
 8237SOL     OW25609   3.808   4.704   6.097
 8237SOL    HW125610   3.882   4.766   6.069
 8237SOL    HW225611   3.735   4.757   6.141
 8238SOL     OW25612   0.409   5.083   1.409
 8238SOL    HW125613   0.330   5.061   1.466
 8238SOL    HW225614   0.384   5.155   1.344
 8239SOL     OW25615   1.851   1.552   6.061
 8239SOL    HW125616   1.815   1.550   5.968
 8239SOL    HW225617   1.894   1.464   6.082
 8240SOL     OW25618   3.559   3.397   4.761
 8240SOL    HW125619   3.512   3.451   4.691
 8240SOL    HW225620   3.613   3.459   4.819
 8241SOL     OW25621   1.991   3.324   5.597
 8241SOL    HW125622   1.944   3.411   5.581
 8241SOL    HW225623   2.046   3.301   5.517
 8242SOL     OW25624   0.593   3.266   2.449
 8242SOL    HW125625   0.539   3.209   2.387
 8242SOL    HW225626   0.661   3.209   2.496
 8243SOL     OW25627   1.097   5.618   3.920
 8243SOL    HW125628   1.181   5.673   3.921
 8243SOL    HW225629   1.023   5.671   3.879
 8244SOL     OW25630   6.727   1.170   3.525
 8244SOL    HW125631   6.727   1.269   3.509
 8244SOL    HW225632   6.794   1.147   3.596
 8245SOL     OW25633   5.498   2.663   2.362
 8245SOL    HW125634   5.569   2.732   2.346
 8245SOL    HW225635   5.450   2.644   2.276
 8246SOL     OW25636   1.805   5.318   6.689
 8246SOL    HW125637   1.825   5.223   6.711
 8246SOL    HW225638   1.721   5.347   6.734
 8247SOL     OW25639   3.043   5.320   2.856
 8247SOL    HW125640   3.091   5.392   2.906
 8247SOL    HW225641   2.948   5.314   2.889
 8248SOL     OW25642   6.555   5.304   4.277
 8248SOL    HW125643   6.475   5.332   4.223
 8248SOL    HW225644   6.540   5.328   4.373
 8249SOL     OW25645   3.171   1.189   6.660
 8249SOL    HW125646   3.126   1.244   6.730
 8249SOL    HW225647   3.126   1.203   6.572
 8250SOL     OW25648   0.966   1.968   6.655
 8250SOL    HW125649   1.063   1.970   6.681
 8250SOL    HW225650   0.943   2.053   6.609
 8251SOL     OW25651   0.864   2.221   5.103
 8251SOL    HW125652   0.962   2.229   5.085
 8251SOL    HW225653   0.815   2.296   5.057
 8252SOL     OW25654   0.743   1.648   6.479
 8252SOL    HW125655   0.777   1.738   6.452
 8252SOL    HW225656   0.711   1.599   6.398
 8253SOL     OW25657   4.648   5.741   6.894
 8253SOL    HW125658   4.734   5.784   6.924
 8253SOL    HW225659   4.666   5.687   6.812
 8254SOL     OW25660   6.241   5.261   0.266
 8254SOL    HW125661   6.287   5.281   0.180
 8254SOL    HW225662   6.279   5.177   0.306
 8255SOL     OW25663   2.465   0.409   5.313
 8255SOL    HW125664   2.556   0.450   5.302
 8255SOL    HW225665   2.395   0.475   5.285
 8256SOL     OW25666   1.242   5.423   4.818
 8256SOL    HW125667   1.316   5.404   4.882
 8256SOL    HW225668   1.210   5.517   4.830
 8257SOL     OW25669   5.193   4.072   3.060
 8257SOL    HW125670   5.150   4.058   2.970
 8257SOL    HW225671   5.290   4.093   3.048
 8258SOL     OW25672   0.256   2.823   3.150
 8258SOL    HW125673   0.162   2.821   3.186
 8258SOL    HW225674   0.305   2.743   3.185
 8259SOL     OW25675   5.688   2.027   4.169
 8259SOL    HW125676   5.729   2.038   4.079
 8259SOL    HW225677   5.741   1.961   4.222
 8260SOL     OW25678   5.349   2.660   1.030
 8260SOL    HW125679   5.417   2.675   0.958
 8260SOL    HW225680   5.284   2.736   1.030
 8261SOL     OW25681   5.366   1.624   2.894
 8261SOL    HW125682   5.296   1.553   2.898
 8261SOL    HW225683   5.386   1.646   2.798
 8262SOL     OW25684   5.570   3.551   1.802
 8262SOL    HW125685   5.527   3.614   1.867
 8262SOL    HW225686   5.599   3.468   1.850
 8263SOL     OW25687   6.689   1.420   5.542
 8263SOL    HW125688   6.637   1.393   5.461
 8263SOL    HW225689   6.627   1.464   5.607
 8264SOL     OW25690   3.086   0.434   2.565
 8264SOL    HW125691   3.056   0.352   2.516
 8264SOL    HW225692   3.101   0.412   2.662
 8265SOL     OW25693   5.077   6.000   0.569
 8265SOL    HW125694   5.127   5.976   0.653
 8265SOL    HW225695   4.991   5.950   0.567
 8266SOL     OW25696   3.404   0.902   3.809
 8266SOL    HW125697   3.406   0.883   3.710
 8266SOL    HW225698   3.320   0.949   3.832
 8267SOL     OW25699   2.141   3.256   2.622
 8267SOL    HW125700   2.097   3.271   2.534
 8267SOL    HW225701   2.126   3.162   2.652
 8268SOL     OW25702   3.195   4.401   6.534
 8268SOL    HW125703   3.148   4.364   6.454
 8268SOL    HW225704   3.226   4.326   6.592
 8269SOL     OW25705   6.531   2.987   4.745
 8269SOL    HW125706   6.542   2.914   4.678
 8269SOL    HW225707   6.578   2.962   4.829
 8270SOL     OW25708   4.543   5.897   6.688
 8270SOL    HW125709   4.605   5.844   6.745
 8270SOL    HW225710   4.513   5.842   6.610
 8271SOL     OW25711   3.212   6.995   6.469
 8271SOL    HW125712   3.118   0.000   6.447
 8271SOL    HW225713   3.212   6.904   6.512
 8272SOL     OW25714   1.423   0.876   2.243
 8272SOL    HW125715   1.426   0.877   2.143
 8272SOL    HW225716   1.457   0.789   2.277
 8273SOL     OW25717   4.056   0.784   6.929
 8273SOL    HW125718   3.970   0.805   6.976
 8273SOL    HW225719   4.107   0.717   6.981
 8274SOL     OW25720   5.297   6.421   5.597
 8274SOL    HW125721   5.289   6.419   5.497
 8274SOL    HW225722   5.378   6.371   5.625
 8275SOL     OW25723   5.227   1.123   4.566
 8275SOL    HW125724   5.169   1.102   4.487
 8275SOL    HW225725   5.278   1.041   4.592
 8276SOL     OW25726   6.199   2.369   6.846
 8276SOL    HW125727   6.121   2.310   6.822
 8276SOL    HW225728   6.280   2.313   6.859
 8277SOL     OW25729   1.482   0.002   0.475
 8277SOL    HW125730   1.570   6.977   0.461
 8277SOL    HW225731   1.420   6.961   0.523
 8278SOL     OW25732   2.863   1.035   0.901
 8278SOL    HW125733   2.812   1.099   0.958
 8278SOL    HW225734   2.920   0.976   0.959
 8279SOL     OW25735   4.169   5.781   5.118
 8279SOL    HW125736   4.176   5.709   5.188
 8279SOL    HW225737   4.243   5.846   5.130
 8280SOL     OW25738   5.326   3.762   6.578
 8280SOL    HW125739   5.400   3.750   6.645
 8280SOL    HW225740   5.260   3.687   6.588
 8281SOL     OW25741   2.774   5.644   6.965
 8281SOL    HW125742   2.690   5.642   6.911
 8281SOL    HW225743   2.776   5.727   0.001
 8282SOL     OW25744   2.745   3.200   1.687
 8282SOL    HW125745   2.674   3.131   1.699
 8282SOL    HW225746   2.708   3.290   1.707
 8283SOL     OW25747   0.572   0.187   3.681
 8283SOL    HW125748   0.518   0.113   3.641
 8283SOL    HW225749   0.623   0.234   3.608
 8284SOL     OW25750   4.043   1.565   1.701
 8284SOL    HW125751   4.092   1.556   1.615
 8284SOL    HW225752   4.017   1.660   1.715
 8285SOL     OW25753   1.637   4.155   0.116
 8285SOL    HW125754   1.716   4.106   0.079
 8285SOL    HW225755   1.568   4.089   0.148
 8286SOL     OW25756   6.395   2.772   5.571
 8286SOL    HW125757   6.404   2.678   5.603
 8286SOL    HW225758   6.298   2.794   5.558
 8287SOL     OW25759   2.182   0.832   3.618
 8287SOL    HW125760   2.223   0.908   3.670
 8287SOL    HW225761   2.117   0.869   3.552
 8288SOL     OW25762   1.733   6.892   3.118
 8288SOL    HW125763   1.652   6.944   3.145
 8288SOL    HW225764   1.705   6.817   3.058
 8289SOL     OW25765   5.695   0.611   6.748
 8289SOL    HW125766   5.625   0.671   6.711
 8289SOL    HW225767   5.708   0.533   6.686
 8290SOL     OW25768   4.569   2.858   1.694
 8290SOL    HW125769   4.597   2.933   1.753
 8290SOL    HW225770   4.550   2.777   1.749
 8291SOL     OW25771   5.113   6.038   6.214
 8291SOL    HW125772   5.017   6.067   6.225
 8291SOL    HW225773   5.116   5.953   6.161
 8292SOL     OW25774   0.740   2.462   4.989
 8292SOL    HW125775   0.765   2.467   4.892
 8292SOL    HW225776   0.803   2.518   5.043
 8293SOL     OW25777   2.762   5.307   3.896
 8293SOL    HW125778   2.706   5.237   3.853
 8293SOL    HW225779   2.734   5.317   3.992
 8294SOL     OW25780   5.022   4.105   5.891
 8294SOL    HW125781   5.116   4.076   5.874
 8294SOL    HW225782   5.016   4.205   5.884
 8295SOL     OW25783   5.033   4.425   2.432
 8295SOL    HW125784   5.009   4.370   2.352
 8295SOL    HW225785   5.038   4.521   2.407
 8296SOL     OW25786   3.741   6.561   2.507
 8296SOL    HW125787   3.784   6.471   2.519
 8296SOL    HW225788   3.692   6.563   2.420
 8297SOL     OW25789   5.884   4.564   2.774
 8297SOL    HW125790   5.797   4.523   2.802
 8297SOL    HW225791   5.910   4.635   2.840
 8298SOL     OW25792   0.131   0.096   0.239
 8298SOL    HW125793   0.162   0.064   0.329
 8298SOL    HW225794   0.033   0.081   0.231
 8299SOL     OW25795   1.042   3.045   0.072
 8299SOL    HW125796   1.062   2.953   0.106
 8299SOL    HW225797   0.992   3.096   0.141
 8300SOL     OW25798   6.014   5.203   4.177
 8300SOL    HW125799   5.958   5.126   4.150
 8300SOL    HW225800   6.045   5.253   4.095
 8301SOL     OW25801   5.869   6.274   0.421
 8301SOL    HW125802   5.942   6.291   0.355
 8301SOL    HW225803   5.791   6.333   0.401
 8302SOL     OW25804   3.714   6.933   5.288
 8302SOL    HW125805   3.780   6.936   5.362
 8302SOL    HW225806   3.761   6.912   5.202
 8303SOL     OW25807   0.374   5.337   2.351
 8303SOL    HW125808   0.382   5.238   2.348
 8303SOL    HW225809   0.279   5.363   2.334
 8304SOL     OW25810   6.182   4.020   3.293
 8304SOL    HW125811   6.196   4.040   3.196
 8304SOL    HW225812   6.165   4.105   3.342
 8305SOL     OW25813   5.260   7.005   6.082
 8305SOL    HW125814   5.285   0.023   6.171
 8305SOL    HW225815   5.310   0.032   6.009
 8306SOL     OW25816   6.328   1.359   3.606
 8306SOL    HW125817   6.322   1.427   3.679
 8306SOL    HW225818   6.390   1.285   3.634
 8307SOL     OW25819   1.619   3.665   3.106
 8307SOL    HW125820   1.654   3.597   3.171
 8307SOL    HW225821   1.577   3.741   3.156
 8308SOL     OW25822   1.320   5.805   0.923
 8308SOL    HW125823   1.281   5.851   1.003
 8308SOL    HW225824   1.296   5.854   0.840
 8309SOL     OW25825   5.886   5.256   4.413
 8309SOL    HW125826   5.909   5.215   4.325
 8309SOL    HW225827   5.869   5.354   4.400
 8310SOL     OW25828   1.918   0.546   1.784
 8310SOL    HW125829   1.961   0.476   1.841
 8310SOL    HW225830   1.850   0.502   1.724
 8311SOL     OW25831   4.629   5.712   3.184
 8311SOL    HW125832   4.720   5.751   3.200
 8311SOL    HW225833   4.612   5.641   3.252
 8312SOL     OW25834   6.046   1.640   0.188
 8312SOL    HW125835   6.064   1.557   0.241
 8312SOL    HW225836   6.038   1.718   0.251
 8313SOL     OW25837   5.933   2.257   5.525
 8313SOL    HW125838   5.873   2.319   5.575
 8313SOL    HW225839   5.966   2.185   5.586
 8314SOL     OW25840   4.635   6.298   4.207
 8314SOL    HW125841   4.555   6.331   4.157
 8314SOL    HW225842   4.606   6.260   4.295
 8315SOL     OW25843   3.810   2.981   4.899
 8315SOL    HW125844   3.835   3.017   4.989
 8315SOL    HW225845   3.867   3.024   4.829
 8316SOL     OW25846   2.482   1.956   5.373
 8316SOL    HW125847   2.476   2.056   5.365
 8316SOL    HW225848   2.392   1.918   5.392
 8317SOL     OW25849   1.449   1.836   4.015
 8317SOL    HW125850   1.412   1.896   3.945
 8317SOL    HW225851   1.528   1.786   3.979
 8318SOL     OW25852   3.954   6.575   5.939
 8318SOL    HW125853   4.049   6.570   5.908
 8318SOL    HW225854   3.942   6.656   5.995
 8319SOL     OW25855   1.943   5.523   6.154
 8319SOL    HW125856   1.896   5.440   6.186
 8319SOL    HW225857   1.877   5.598   6.151
 8320SOL     OW25858   3.874   3.498   5.418
 8320SOL    HW125859   3.799   3.565   5.420
 8320SOL    HW225860   3.933   3.513   5.498
 8321SOL     OW25861   0.570   0.272   0.478
 8321SOL    HW125862   0.600   0.332   0.551
 8321SOL    HW225863   0.472   0.283   0.463
 8322SOL     OW25864   0.820   0.183   0.536
 8322SOL    HW125865   0.891   0.230   0.482
 8322SOL    HW225866   0.730   0.209   0.501
 8323SOL     OW25867   5.815   4.478   0.024
 8323SOL    HW125868   5.876   4.556   0.034
 8323SOL    HW225869   5.721   4.511   0.012
 8324SOL     OW25870   5.554   6.942   0.170
 8324SOL    HW125871   5.631   6.920   0.109
 8324SOL    HW225872   5.570   6.903   0.260
 8325SOL     OW25873   1.345   6.865   4.969
 8325SOL    HW125874   1.264   6.879   5.026
 8325SOL    HW225875   1.351   6.768   4.943
 8326SOL     OW25876   2.022   3.047   6.900
 8326SOL    HW125877   2.077   3.047   6.984
 8326SOL    HW225878   2.022   2.955   6.860
 8327SOL     OW25879   0.959   5.948   4.737
 8327SOL    HW125880   0.871   5.902   4.750
 8327SOL    HW225881   0.978   5.955   4.639
 8328SOL     OW25882   1.086   6.736   0.202
 8328SOL    HW125883   1.022   6.690   0.140
 8328SOL    HW225884   1.055   6.829   0.218
 8329SOL     OW25885   1.698   2.800   4.699
 8329SOL    HW125886   1.758   2.819   4.621
 8329SOL    HW225887   1.630   2.872   4.708
 8330SOL     OW25888   2.928   0.829   6.609
 8330SOL    HW125889   2.924   0.927   6.588
 8330SOL    HW225890   2.964   0.816   6.701
 8331SOL     OW25891   1.924   2.403   6.773
 8331SOL    HW125892   1.996   2.470   6.793
 8331SOL    HW225893   1.916   2.392   6.674
 8332SOL     OW25894   6.718   3.975   1.765
 8332SOL    HW125895   6.697   4.038   1.840
 8332SOL    HW225896   6.641   3.912   1.752
 8333SOL     OW25897   1.886   4.037   0.035
 8333SOL    HW125898   1.884   3.978   6.975
 8333SOL    HW225899   1.939   3.994   0.107
 8334SOL     OW25900   3.026   1.833   5.348
 8334SOL    HW125901   3.101   1.876   5.398
 8334SOL    HW225902   2.970   1.905   5.306
 8335SOL     OW25903   5.496   5.030   5.581
 8335SOL    HW125904   5.436   4.958   5.617
 8335SOL    HW225905   5.560   5.059   5.653
 8336SOL     OW25906   1.038   4.045   3.632
 8336SOL    HW125907   1.134   4.016   3.625
 8336SOL    HW225908   0.981   3.988   3.573
 8337SOL     OW25909   6.489   1.153   3.709
 8337SOL    HW125910   6.545   1.119   3.784
 8337SOL    HW225911   6.439   1.077   3.667
 8338SOL     OW25912   3.147   5.182   0.846
 8338SOL    HW125913   3.245   5.188   0.864
 8338SOL    HW225914   3.104   5.270   0.863
 8339SOL     OW25915   5.934   0.181   1.530
 8339SOL    HW125916   5.920   0.280   1.530
 8339SOL    HW225917   6.001   0.158   1.600
 8340SOL     OW25918   6.361   2.273   6.237
 8340SOL    HW125919   6.332   2.233   6.324
 8340SOL    HW225920   6.306   2.354   6.218
 8341SOL     OW25921   3.891   1.266   0.607
 8341SOL    HW125922   3.805   1.277   0.657
 8341SOL    HW225923   3.897   1.172   0.572
 8342SOL     OW25924   4.652   0.469   0.038
 8342SOL    HW125925   4.743   0.497   0.070
 8342SOL    HW225926   4.587   0.474   0.114
 8343SOL     OW25927   5.823   5.181   3.747
 8343SOL    HW125928   5.769   5.176   3.831
 8343SOL    HW225929   5.771   5.226   3.675
 8344SOL     OW25930   1.428   4.863   6.507
 8344SOL    HW125931   1.464   4.820   6.589
 8344SOL    HW225932   1.334   4.833   6.491
 8345SOL     OW25933   5.353   0.234   3.482
 8345SOL    HW125934   5.410   0.224   3.400
 8345SOL    HW225935   5.411   0.260   3.559
 8346SOL     OW25936   5.691   3.030   4.391
 8346SOL    HW125937   5.591   3.028   4.381
 8346SOL    HW225938   5.717   3.113   4.441
 8347SOL     OW25939   2.263   1.803   6.758
 8347SOL    HW125940   2.336   1.810   6.690
 8347SOL    HW225941   2.177   1.781   6.712
 8348SOL     OW25942   3.073   5.894   1.950
 8348SOL    HW125943   3.016   5.834   2.006
 8348SOL    HW225944   3.087   5.981   1.997
 8349SOL     OW25945   5.673   6.321   2.044
 8349SOL    HW125946   5.625   6.235   2.026
 8349SOL    HW225947   5.656   6.385   1.969
 8350SOL     OW25948   1.746   1.500   0.221
 8350SOL    HW125949   1.805   1.444   0.163
 8350SOL    HW225950   1.699   1.568   0.166
 8351SOL     OW25951   0.075   2.549   2.927
 8351SOL    HW125952   0.015   2.484   2.882
 8351SOL    HW225953   0.058   2.548   3.026
 8352SOL     OW25954   2.645   5.693   0.259
 8352SOL    HW125955   2.669   5.771   0.201
 8352SOL    HW225956   2.568   5.644   0.217
 8353SOL     OW25957   1.229   5.579   1.400
 8353SOL    HW125958   1.243   5.496   1.454
 8353SOL    HW225959   1.185   5.555   1.314
 8354SOL     OW25960   3.696   0.632   3.287
 8354SOL    HW125961   3.648   0.653   3.202
 8354SOL    HW225962   3.792   0.659   3.279
 8355SOL     OW25963   3.132   5.672   6.879
 8355SOL    HW125964   3.187   5.650   6.799
 8355SOL    HW225965   3.079   5.754   6.862
 8356SOL     OW25966   2.585   4.831   0.711
 8356SOL    HW125967   2.668   4.831   0.767
 8356SOL    HW225968   2.601   4.885   0.628
 8357SOL     OW25969   4.795   6.713   5.295
 8357SOL    HW125970   4.865   6.721   5.367
 8357SOL    HW225971   4.736   6.635   5.315
 8358SOL     OW25972   1.488   0.931   5.097
 8358SOL    HW125973   1.566   0.938   5.159
 8358SOL    HW225974   1.419   0.998   5.123
 8359SOL     OW25975   4.273   1.787   6.094
 8359SOL    HW125976   4.211   1.756   6.022
 8359SOL    HW225977   4.366   1.794   6.056
 8360SOL     OW25978   4.311   0.277   0.320
 8360SOL    HW125979   4.243   0.350   0.328
 8360SOL    HW225980   4.265   0.189   0.316
 8361SOL     OW25981   4.156   1.257   6.768
 8361SOL    HW125982   4.147   1.176   6.826
 8361SOL    HW225983   4.245   1.299   6.783
 8362SOL     OW25984   0.154   3.835   1.622
 8362SOL    HW125985   0.099   3.908   1.663
 8362SOL    HW225986   0.195   3.869   1.537
 8363SOL     OW25987   1.804   3.000   1.298
 8363SOL    HW125988   1.860   3.072   1.338
 8363SOL    HW225989   1.846   2.967   1.213
 8364SOL     OW25990   0.016   2.536   4.102
 8364SOL    HW125991   0.113   2.524   4.083
 8364SOL    HW225992   6.997   2.450   4.133
 8365SOL     OW25993   1.696   2.179   2.276
 8365SOL    HW125994   1.710   2.175   2.177
 8365SOL    HW225995   1.721   2.269   2.310
 8366SOL     OW25996   5.255   4.810   2.322
 8366SOL    HW125997   5.159   4.826   2.298
 8366SOL    HW225998   5.278   4.714   2.307
 8367SOL     OW25999   1.808   4.680   4.078
 8367SOL    HW126000   1.860   4.626   4.012
 8367SOL    HW226001   1.829   4.648   4.171
 8368SOL     OW26002   6.069   6.406   5.746
 8368SOL    HW126003   6.148   6.412   5.686
 8368SOL    HW226004   6.021   6.319   5.729
 8369SOL     OW26005   2.649   6.759   0.291
 8369SOL    HW126006   2.745   6.788   0.294
 8369SOL    HW226007   2.598   6.818   0.229
 8370SOL     OW26008   2.831   3.878   6.740
 8370SOL    HW126009   2.813   3.933   6.658
 8370SOL    HW226010   2.924   3.897   6.773
 8371SOL     OW26011   2.516   4.340   5.832
 8371SOL    HW126012   2.439   4.389   5.872
 8371SOL    HW226013   2.512   4.347   5.732
 8372SOL     OW26014   2.136   6.685   0.806
 8372SOL    HW126015   2.055   6.633   0.833
 8372SOL    HW226016   2.151   6.760   0.871
 8373SOL     OW26017   5.980   1.532   4.106
 8373SOL    HW126018   5.925   1.570   4.180
 8373SOL    HW226019   5.968   1.433   4.102
 8374SOL     OW26020   6.748   0.751   4.207
 8374SOL    HW126021   6.697   0.830   4.242
 8374SOL    HW226022   6.817   0.783   4.141
 8375SOL     OW26023   2.626   1.539   4.951
 8375SOL    HW126024   2.603   1.443   4.970
 8375SOL    HW226025   2.559   1.599   4.995
 8376SOL     OW26026   0.558   1.889   3.824
 8376SOL    HW126027   0.627   1.912   3.755
 8376SOL    HW226028   0.490   1.828   3.785
 8377SOL     OW26029   4.698   5.282   6.990
 8377SOL    HW126030   4.685   5.231   6.905
 8377SOL    HW226031   4.764   5.356   6.974
 8378SOL     OW26032   4.746   5.960   4.418
 8378SOL    HW126033   4.671   6.025   4.430
 8378SOL    HW226034   4.753   5.934   4.322
 8379SOL     OW26035   5.944   2.059   1.696
 8379SOL    HW126036   5.856   2.101   1.718
 8379SOL    HW226037   6.017   2.124   1.715
 8380SOL     OW26038   6.982   6.177   0.972
 8380SOL    HW126039   0.026   6.131   1.034
 8380SOL    HW226040   6.904   6.118   0.955
 8381SOL     OW26041   0.328   1.370   2.818
 8381SOL    HW126042   0.248   1.401   2.767
 8381SOL    HW226043   0.411   1.387   2.765
 8382SOL     OW26044   1.450   0.788   1.169
 8382SOL    HW126045   1.459   0.827   1.077
 8382SOL    HW226046   1.474   0.691   1.167
 8383SOL     OW26047   2.755   0.364   6.235
 8383SOL    HW126048   2.688   0.383   6.163
 8383SOL    HW226049   2.834   0.316   6.195
 8384SOL     OW26050   1.157   3.741   3.362
 8384SOL    HW126051   1.198   3.650   3.360
 8384SOL    HW226052   1.064   3.736   3.324
 8385SOL     OW26053   4.340   3.086   1.467
 8385SOL    HW126054   4.426   3.040   1.445
 8385SOL    HW226055   4.284   3.095   1.384
 8386SOL     OW26056   2.516   6.145   1.689
 8386SOL    HW126057   2.546   6.066   1.741
 8386SOL    HW226058   2.587   6.216   1.691
 8387SOL     OW26059   0.999   1.548   3.475
 8387SOL    HW126060   0.966   1.550   3.380
 8387SOL    HW226061   1.068   1.477   3.485
 8388SOL     OW26062   4.559   5.630   0.477
 8388SOL    HW126063   4.520   5.542   0.506
 8388SOL    HW226064   4.658   5.623   0.471
 8389SOL     OW26065   0.713   2.983   4.104
 8389SOL    HW126066   0.738   3.033   4.021
 8389SOL    HW226067   0.616   2.962   4.102
 8390SOL     OW26068   2.622   0.350   5.795
 8390SOL    HW126069   2.663   0.344   5.704
 8390SOL    HW226070   2.618   0.260   5.837
 8391SOL     OW26071   5.869   5.953   0.761
 8391SOL    HW126072   5.864   6.004   0.676
 8391SOL    HW226073   5.961   5.916   0.772
 8392SOL     OW26074   4.936   6.648   5.797
 8392SOL    HW126075   5.032   6.635   5.774
 8392SOL    HW226076   4.926   6.651   5.897
 8393SOL     OW26077   0.123   5.440   2.761
 8393SOL    HW126078   0.159   5.533   2.750
 8393SOL    HW226079   0.198   5.376   2.775
 8394SOL     OW26080   0.282   1.725   3.206
 8394SOL    HW126081   0.216   1.787   3.165
 8394SOL    HW226082   0.250   1.630   3.196
 8395SOL     OW26083   1.204   6.480   5.226
 8395SOL    HW126084   1.143   6.403   5.242
 8395SOL    HW226085   1.232   6.519   5.314
 8396SOL     OW26086   4.177   3.047   1.236
 8396SOL    HW126087   4.106   3.042   1.166
 8396SOL    HW226088   4.266   3.062   1.192
 8397SOL     OW26089   2.211   5.047   3.680
 8397SOL    HW126090   2.244   4.964   3.724
 8397SOL    HW226091   2.112   5.044   3.672
 8398SOL     OW26092   5.165   1.462   0.203
 8398SOL    HW126093   5.247   1.512   0.232
 8398SOL    HW226094   5.087   1.492   0.258
 8399SOL     OW26095   5.635   5.771   0.173
 8399SOL    HW126096   5.646   5.719   0.257
 8399SOL    HW226097   5.554   5.829   0.180
 8400SOL     OW26098   5.984   0.187   4.521
 8400SOL    HW126099   6.058   0.176   4.586
 8400SOL    HW226100   5.907   0.128   4.548
 8401SOL     OW26101   2.839   4.177   6.029
 8401SOL    HW126102   2.818   4.218   6.118
 8401SOL    HW226103   2.827   4.245   5.957
 8402SOL     OW26104   4.715   1.334   6.618
 8402SOL    HW126105   4.621   1.304   6.636
 8402SOL    HW226106   4.722   1.433   6.631
 8403SOL     OW26107   1.250   1.848   4.559
 8403SOL    HW126108   1.216   1.842   4.653
 8403SOL    HW226109   1.191   1.795   4.499
 8404SOL     OW26110   4.507   5.097   5.221
 8404SOL    HW126111   4.606   5.113   5.220
 8404SOL    HW226112   4.461   5.173   5.176
 8405SOL     OW26113   1.389   2.409   5.083
 8405SOL    HW126114   1.352   2.437   4.994
 8405SOL    HW226115   1.465   2.345   5.069
 8406SOL     OW26116   5.144   3.514   1.057
 8406SOL    HW126117   5.223   3.500   0.998
 8406SOL    HW226118   5.165   3.483   1.150
 8407SOL     OW26119   4.991   3.298   2.507
 8407SOL    HW126120   5.086   3.283   2.534
 8407SOL    HW226121   4.986   3.314   2.409
 8408SOL     OW26122   4.598   2.656   4.099
 8408SOL    HW126123   4.624   2.697   4.186
 8408SOL    HW226124   4.616   2.720   4.025
 8409SOL     OW26125   0.701   1.842   4.072
 8409SOL    HW126126   0.797   1.861   4.051
 8409SOL    HW226127   0.644   1.867   3.994
 8410SOL     OW26128   2.736   6.347   2.522
 8410SOL    HW126129   2.669   6.341   2.595
 8410SOL    HW226130   2.721   6.273   2.456
 8411SOL     OW26131   1.899   3.124   3.321
 8411SOL    HW126132   1.979   3.181   3.308
 8411SOL    HW226133   1.901   3.083   3.413
 8412SOL     OW26134   6.109   3.078   2.345
 8412SOL    HW126135   6.092   3.018   2.267
 8412SOL    HW226136   6.161   3.158   2.315
 8413SOL     OW26137   2.511   4.614   1.505
 8413SOL    HW126138   2.512   4.575   1.596
 8413SOL    HW226139   2.420   4.604   1.465
 8414SOL     OW26140   5.044   6.770   2.561
 8414SOL    HW126141   5.045   6.854   2.616
 8414SOL    HW226142   5.119   6.711   2.589
 8415SOL     OW26143   6.985   3.575   1.597
 8415SOL    HW126144   6.947   3.666   1.583
 8415SOL    HW226145   7.004   3.561   1.695
 8416SOL     OW26146   5.105   3.987   2.544
 8416SOL    HW126147   5.186   3.946   2.501
 8416SOL    HW226148   5.029   3.922   2.539
 8417SOL     OW26149   2.193   5.910   6.334
 8417SOL    HW126150   2.156   5.818   6.315
 8417SOL    HW226151   2.281   5.902   6.381
 8418SOL     OW26152   6.003   5.477   2.578
 8418SOL    HW126153   5.955   5.421   2.646
 8418SOL    HW226154   6.064   5.541   2.624
 8419SOL     OW26155   4.239   6.755   3.663
 8419SOL    HW126156   4.290   6.761   3.576
 8419SOL    HW226157   4.142   6.742   3.643
 8420SOL     OW26158   3.747   1.944   5.705
 8420SOL    HW126159   3.732   2.004   5.783
 8420SOL    HW226160   3.761   1.998   5.622
 8421SOL     OW26161   1.572   6.613   1.815
 8421SOL    HW126162   1.610   6.587   1.726
 8421SOL    HW226163   1.533   6.705   1.809
 8422SOL     OW26164   3.826   6.380   1.417
 8422SOL    HW126165   3.731   6.349   1.415
 8422SOL    HW226166   3.873   6.339   1.495
 8423SOL     OW26167   2.024   4.012   1.326
 8423SOL    HW126168   1.956   4.069   1.372
 8423SOL    HW226169   1.992   3.991   1.233
 8424SOL     OW26170   3.133   2.008   2.391
 8424SOL    HW126171   3.098   2.057   2.471
 8424SOL    HW226172   3.110   2.058   2.308
 8425SOL     OW26173   6.070   5.067   6.959
 8425SOL    HW126174   5.971   5.074   6.959
 8425SOL    HW226175   6.103   5.042   0.030
 8426SOL     OW26176   4.074   3.499   2.380
 8426SOL    HW126177   4.036   3.591   2.373
 8426SOL    HW226178   4.018   3.435   2.328
 8427SOL     OW26179   2.198   3.293   6.423
 8427SOL    HW126180   2.134   3.328   6.355
 8427SOL    HW226181   2.198   3.353   6.503
 8428SOL     OW26182   5.643   4.616   1.855
 8428SOL    HW126183   5.615   4.579   1.944
 8428SOL    HW226184   5.739   4.644   1.859
 8429SOL     OW26185   2.151   0.061   2.954
 8429SOL    HW126186   2.139   6.986   2.927
 8429SOL    HW226187   2.229   0.068   3.016
 8430SOL     OW26188   5.074   4.244   3.263
 8430SOL    HW126189   5.097   4.201   3.175
 8430SOL    HW226190   5.105   4.185   3.338
 8431SOL     OW26191   2.890   4.034   1.448
 8431SOL    HW126192   2.805   4.080   1.474
 8431SOL    HW226193   2.869   3.955   1.390
 8432SOL     OW26194   4.938   6.545   0.388
 8432SOL    HW126195   4.861   6.483   0.402
 8432SOL    HW226196   4.906   6.628   0.342
 8433SOL     OW26197   1.450   1.238   4.760
 8433SOL    HW126198   1.508   1.166   4.799
 8433SOL    HW226199   1.497   1.280   4.682
 8434SOL     OW26200   5.727   6.226   6.190
 8434SOL    HW126201   5.796   6.160   6.161
 8434SOL    HW226202   5.666   6.247   6.113
 8435SOL     OW26203   4.921   2.584   1.288
 8435SOL    HW126204   4.985   2.507   1.285
 8435SOL    HW226205   4.971   2.668   1.310
 8436SOL     OW26206   3.517   4.389   1.442
 8436SOL    HW126207   3.614   4.368   1.430
 8436SOL    HW226208   3.465   4.348   1.367
 8437SOL     OW26209   7.014   2.119   1.334
 8437SOL    HW126210   6.980   2.051   1.399
 8437SOL    HW226211   0.050   2.186   1.383
 8438SOL     OW26212   2.115   6.599   1.357
 8438SOL    HW126213   2.092   6.543   1.436
 8438SOL    HW226214   2.032   6.634   1.315
 8439SOL     OW26215   5.980   6.511   2.275
 8439SOL    HW126216   5.941   6.596   2.239
 8439SOL    HW226217   5.907   6.455   2.315
 8440SOL     OW26218   0.246   1.954   3.547
 8440SOL    HW126219   0.180   1.955   3.471
 8440SOL    HW226220   0.204   1.911   3.627
 8441SOL     OW26221   4.624   4.848   1.246
 8441SOL    HW126222   4.591   4.930   1.294
 8441SOL    HW226223   4.643   4.871   1.151
 8442SOL     OW26224   1.420   3.546   0.334
 8442SOL    HW126225   1.479   3.610   0.285
 8442SOL    HW226226   1.475   3.472   0.372
 8443SOL     OW26227   1.132   1.548   2.401
 8443SOL    HW126228   1.104   1.532   2.496
 8443SOL    HW226229   1.085   1.628   2.365
 8444SOL     OW26230   4.380   0.075   2.920
 8444SOL    HW126231   4.325   0.151   2.885
 8444SOL    HW226232   4.323   0.016   2.977
 8445SOL     OW26233   4.094   5.657   2.081
 8445SOL    HW126234   4.157   5.586   2.112
 8445SOL    HW226235   4.073   5.643   1.985
 8446SOL     OW26236   6.757   4.851   3.646
 8446SOL    HW126237   6.850   4.884   3.630
 8446SOL    HW226238   6.699   4.876   3.569
 8447SOL     OW26239   4.952   3.045   1.303
 8447SOL    HW126240   4.918   3.138   1.291
 8447SOL    HW226241   4.961   3.026   1.401
 8448SOL     OW26242   0.622   2.860   6.155
 8448SOL    HW126243   0.714   2.879   6.122
 8448SOL    HW226244   0.618   2.876   6.254
 8449SOL     OW26245   1.375   1.914   5.259
 8449SOL    HW126246   1.393   1.944   5.165
 8449SOL    HW226247   1.460   1.919   5.312
 8450SOL     OW26248   2.589   4.994   2.438
 8450SOL    HW126249   2.511   4.942   2.404
 8450SOL    HW226250   2.646   5.023   2.361
 8451SOL     OW26251   4.456   3.292   0.337
 8451SOL    HW126252   4.530   3.225   0.350
 8451SOL    HW226253   4.432   3.331   0.426
 8452SOL     OW26254   6.619   5.715   0.825
 8452SOL    HW126255   6.579   5.664   0.749
 8452SOL    HW226256   6.716   5.731   0.807
 8453SOL     OW26257   0.616   4.726   5.517
 8453SOL    HW126258   0.705   4.681   5.521
 8453SOL    HW226259   0.567   4.712   5.604
 8454SOL     OW26260   1.818   6.725   4.441
 8454SOL    HW126261   1.762   6.765   4.513
 8454SOL    HW226262   1.913   6.722   4.470
 8455SOL     OW26263   6.401   2.378   1.014
 8455SOL    HW126264   6.475   2.311   1.010
 8455SOL    HW226265   6.367   2.397   0.922
 8456SOL     OW26266   5.640   5.899   3.271
 8456SOL    HW126267   5.698   5.978   3.285
 8456SOL    HW226268   5.544   5.928   3.268
 8457SOL     OW26269   6.529   6.427   6.540
 8457SOL    HW126270   6.434   6.398   6.544
 8457SOL    HW226271   6.569   6.424   6.632
 8458SOL     OW26272   1.270   1.837   1.727
 8458SOL    HW126273   1.274   1.887   1.813
 8458SOL    HW226274   1.256   1.739   1.746
 8459SOL     OW26275   2.910   5.491   2.506
 8459SOL    HW126276   2.817   5.513   2.476
 8459SOL    HW226277   2.916   5.394   2.528
 8460SOL     OW26278   4.017   1.020   0.331
 8460SOL    HW126279   3.994   1.065   0.245
 8460SOL    HW226280   3.936   0.975   0.369
 8461SOL     OW26281   5.409   3.961   2.726
 8461SOL    HW126282   5.407   4.059   2.747
 8461SOL    HW226283   5.365   3.910   2.800
 8462SOL     OW26284   2.542   4.208   0.374
 8462SOL    HW126285   2.548   4.307   0.388
 8462SOL    HW226286   2.567   4.161   0.459
 8463SOL     OW26287   6.553   0.888   6.890
 8463SOL    HW126288   6.587   0.828   6.818
 8463SOL    HW226289   6.630   0.919   6.947
 8464SOL     OW26290   6.998   3.678   6.261
 8464SOL    HW126291   0.043   3.605   6.281
 8464SOL    HW226292   6.976   3.727   6.346
 8465SOL     OW26293   4.990   3.178   0.851
 8465SOL    HW126294   4.923   3.247   0.878
 8465SOL    HW226295   5.076   3.222   0.825
 8466SOL     OW26296   6.125   1.484   5.593
 8466SOL    HW126297   6.079   1.412   5.542
 8466SOL    HW226298   6.094   1.483   5.688
 8467SOL     OW26299   3.454   1.393   0.589
 8467SOL    HW126300   3.449   1.478   0.641
 8467SOL    HW226301   3.375   1.336   0.611
 8468SOL     OW26302   5.932   3.311   0.143
 8468SOL    HW126303   5.859   3.361   0.097
 8468SOL    HW226304   5.974   3.368   0.213
 8469SOL     OW26305   4.388   3.293   5.907
 8469SOL    HW126306   4.383   3.373   5.967
 8469SOL    HW226307   4.473   3.244   5.924
 8470SOL     OW26308   1.199   5.245   1.258
 8470SOL    HW126309   1.148   5.173   1.306
 8470SOL    HW226310   1.139   5.322   1.239
 8471SOL     OW26311   3.687   1.895   4.424
 8471SOL    HW126312   3.752   1.823   4.448
 8471SOL    HW226313   3.730   1.961   4.363
 8472SOL     OW26314   6.134   1.762   5.594
 8472SOL    HW126315   6.115   1.763   5.693
 8472SOL    HW226316   6.146   1.668   5.564
 8473SOL     OW26317   5.012   4.256   6.981
 8473SOL    HW126318   4.942   4.194   6.945
 8473SOL    HW226319   5.078   4.277   6.909
 8474SOL     OW26320   3.975   3.971   3.479
 8474SOL    HW126321   3.920   3.994   3.559
 8474SOL    HW226322   4.046   4.041   3.465
 8475SOL     OW26323   6.842   2.840   2.589
 8475SOL    HW126324   6.796   2.774   2.649
 8475SOL    HW226325   6.894   2.905   2.644
 8476SOL     OW26326   6.031   1.102   1.567
 8476SOL    HW126327   5.958   1.044   1.604
 8476SOL    HW226328   6.019   1.112   1.468
 8477SOL     OW26329   5.415   6.718   1.615
 8477SOL    HW126330   5.346   6.659   1.573
 8477SOL    HW226331   5.506   6.683   1.592
 8478SOL     OW26332   6.797   0.709   5.726
 8478SOL    HW126333   6.848   0.700   5.640
 8478SOL    HW226334   6.828   0.638   5.790
 8479SOL     OW26335   1.304   2.500   0.697
 8479SOL    HW126336   1.211   2.480   0.665
 8479SOL    HW226337   1.357   2.540   0.622
 8480SOL     OW26338   4.101   3.756   6.953
 8480SOL    HW126339   4.139   3.666   6.975
 8480SOL    HW226340   4.141   3.789   6.868
 8481SOL     OW26341   4.361   2.074   3.254
 8481SOL    HW126342   4.430   2.110   3.191
 8481SOL    HW226343   4.302   2.148   3.285
 8482SOL     OW26344   4.565   0.633   0.811
 8482SOL    HW126345   4.494   0.572   0.776
 8482SOL    HW226346   4.574   0.620   0.910
 8483SOL     OW26347   3.662   4.922   2.678
 8483SOL    HW126348   3.666   4.882   2.586
 8483SOL    HW226349   3.726   4.999   2.683
 8484SOL     OW26350   5.145   5.618   4.710
 8484SOL    HW126351   5.167   5.633   4.806
 8484SOL    HW226352   5.048   5.640   4.694
 8485SOL     OW26353   3.285   2.096   0.293
 8485SOL    HW126354   3.239   2.169   0.345
 8485SOL    HW226355   3.298   2.016   0.351
 8486SOL     OW26356   6.495   2.528   3.178
 8486SOL    HW126357   6.505   2.542   3.277
 8486SOL    HW226358   6.492   2.617   3.132
 8487SOL     OW26359   0.003   1.835   6.215
 8487SOL    HW126360   6.983   1.762   6.159
 8487SOL    HW226361   6.964   1.915   6.214
 8488SOL     OW26362   4.731   5.108   1.722
 8488SOL    HW126363   4.731   5.059   1.635
 8488SOL    HW226364   4.788   5.190   1.714
 8489SOL     OW26365   5.853   2.085   1.394
 8489SOL    HW126366   5.808   1.996   1.404
 8489SOL    HW226367   5.875   2.122   1.484
 8490SOL     OW26368   3.207   0.468   6.586
 8490SOL    HW126369   3.275   0.426   6.526
 8490SOL    HW226370   3.150   0.530   6.532
 8491SOL     OW26371   2.925   5.624   1.690
 8491SOL    HW126372   2.942   5.721   1.700
 8491SOL    HW226373   2.976   5.573   1.760
 8492SOL     OW26374   6.202   6.400   4.534
 8492SOL    HW126375   6.107   6.411   4.504
 8492SOL    HW226376   6.262   6.456   4.478
 8493SOL     OW26377   4.968   1.376   6.799
 8493SOL    HW126378   4.876   1.390   6.834
 8493SOL    HW226379   4.983   1.434   6.719
 8494SOL     OW26380   6.641   4.894   2.203
 8494SOL    HW126381   6.725   4.875   2.152
 8494SOL    HW226382   6.651   4.980   2.253
 8495SOL     OW26383   6.616   5.358   6.261
 8495SOL    HW126384   6.526   5.347   6.218
 8495SOL    HW226385   6.639   5.274   6.312
 8496SOL     OW26386   5.266   3.030   2.130
 8496SOL    HW126387   5.223   2.976   2.203
 8496SOL    HW226388   5.285   3.122   2.164
 8497SOL     OW26389   6.562   0.545   3.362
 8497SOL    HW126390   6.560   0.472   3.431
 8497SOL    HW226391   6.583   0.504   3.272
 8498SOL     OW26392   4.614   6.935   3.935
 8498SOL    HW126393   4.665   6.994   3.872
 8498SOL    HW226394   4.672   6.858   3.962
 8499SOL     OW26395   5.643   6.387   5.382
 8499SOL    HW126396   5.716   6.454   5.368
 8499SOL    HW226397   5.622   6.379   5.479
 8500SOL     OW26398   0.916   0.576   6.050
 8500SOL    HW126399   0.895   0.621   5.962
 8500SOL    HW226400   0.835   0.527   6.082
 8501SOL     OW26401   1.529   1.460   6.649
 8501SOL    HW126402   1.547   1.420   6.560
 8501SOL    HW226403   1.517   1.559   6.640
 8502SOL     OW26404   0.512   4.107   6.778
 8502SOL    HW126405   0.506   4.106   6.877
 8502SOL    HW226406   0.420   4.093   6.739
 8503SOL     OW26407   4.958   0.869   4.727
 8503SOL    HW126408   4.966   0.781   4.774
 8503SOL    HW226409   4.921   0.854   4.635
 8504SOL     OW26410   1.357   0.300   1.751
 8504SOL    HW126411   1.287   0.335   1.813
 8504SOL    HW226412   1.442   0.285   1.802
 8505SOL     OW26413   5.291   3.314   2.565
 8505SOL    HW126414   5.385   3.310   2.600
 8505SOL    HW226415   5.262   3.410   2.560
 8506SOL     OW26416   1.450   0.862   6.105
 8506SOL    HW126417   1.401   0.796   6.161
 8506SOL    HW226418   1.389   0.936   6.078
 8507SOL     OW26419   3.292   6.178   5.444
 8507SOL    HW126420   3.352   6.251   5.476
 8507SOL    HW226421   3.219   6.164   5.511
 8508SOL     OW26422   3.131   1.562   6.733
 8508SOL    HW126423   3.130   1.590   6.637
 8508SOL    HW226424   3.090   1.472   6.742
 8509SOL     OW26425   5.646   2.060   2.912
 8509SOL    HW126426   5.597   2.051   2.826
 8509SOL    HW226427   5.581   2.053   2.988
 8510SOL     OW26428   0.045   2.195   4.460
 8510SOL    HW126429   0.054   2.095   4.451
 8510SOL    HW226430   7.015   2.230   4.381
 8511SOL     OW26431   5.479   2.086   2.677
 8511SOL    HW126432   5.514   2.176   2.649
 8511SOL    HW226433   5.450   2.035   2.596
 8512SOL     OW26434   1.787   6.647   6.066
 8512SOL    HW126435   1.877   6.611   6.091
 8512SOL    HW226436   1.717   6.579   6.091
 8513SOL     OW26437   4.792   6.892   6.639
 8513SOL    HW126438   4.811   6.801   6.676
 8513SOL    HW226439   4.770   6.884   6.542
 8514SOL     OW26440   2.915   6.094   4.212
 8514SOL    HW126441   2.925   5.994   4.208
 8514SOL    HW226442   3.000   6.134   4.246
 8515SOL     OW26443   5.695   1.709   0.559
 8515SOL    HW126444   5.677   1.804   0.532
 8515SOL    HW226445   5.787   1.684   0.530
 8516SOL     OW26446   0.174   1.930   2.392
 8516SOL    HW126447   0.193   1.835   2.365
 8516SOL    HW226448   0.106   1.931   2.465
 8517SOL     OW26449   0.911   3.559   0.517
 8517SOL    HW126450   0.975   3.523   0.449
 8517SOL    HW226451   0.853   3.629   0.476
 8518SOL     OW26452   2.949   5.614   0.242
 8518SOL    HW126453   2.862   5.590   0.285
 8518SOL    HW226454   2.975   5.543   0.176
 8519SOL     OW26455   1.702   5.273   2.719
 8519SOL    HW126456   1.775   5.255   2.784
 8519SOL    HW226457   1.741   5.306   2.633
 8520SOL     OW26458   3.692   6.909   6.764
 8520SOL    HW126459   3.744   6.882   6.683
 8520SOL    HW226460   3.695   7.009   6.775
 8521SOL     OW26461   1.021   0.273   0.342
 8521SOL    HW126462   1.063   0.330   0.272
 8521SOL    HW226463   1.092   0.235   0.401
 8522SOL     OW26464   2.282   6.296   4.685
 8522SOL    HW126465   2.310   6.314   4.779
 8522SOL    HW226466   2.355   6.326   4.623
 8523SOL     OW26467   1.366   6.805   0.109
 8523SOL    HW126468   1.321   6.716   0.119
 8523SOL    HW226469   1.298   6.877   0.110
 8524SOL     OW26470   1.803   2.110   6.491
 8524SOL    HW126471   1.803   2.011   6.509
 8524SOL    HW226472   1.733   2.154   6.547
 8525SOL     OW26473   4.945   3.135   3.393
 8525SOL    HW126474   4.929   3.191   3.474
 8525SOL    HW226475   5.041   3.140   3.366
 8526SOL     OW26476   1.788   3.219   2.425
 8526SOL    HW126477   1.878   3.213   2.468
 8526SOL    HW226478   1.795   3.195   2.329
 8527SOL     OW26479   4.064   6.983   4.074
 8527SOL    HW126480   3.975   6.950   4.105
 8527SOL    HW226481   4.072   0.061   4.091
 8528SOL     OW26482   4.978   2.927   6.970
 8528SOL    HW126483   4.912   2.991   6.931
 8528SOL    HW226484   4.954   2.834   6.944
 8529SOL     OW26485   0.341   5.111   6.942
 8529SOL    HW126486   0.434   5.081   6.921
 8529SOL    HW226487   0.309   5.066   0.004
 8530SOL     OW26488   1.422   3.530   5.715
 8530SOL    HW126489   1.513   3.500   5.743
 8530SOL    HW226490   1.422   3.555   5.618
 8531SOL     OW26491   4.088   4.858   2.138
 8531SOL    HW126492   4.011   4.903   2.183
 8531SOL    HW226493   4.145   4.927   2.094
 8532SOL     OW26494   1.437   4.296   7.008
 8532SOL    HW126495   1.394   4.226   6.951
 8532SOL    HW226496   1.510   4.255   0.042
 8533SOL     OW26497   3.639   0.296   5.700
 8533SOL    HW126498   3.676   0.353   5.627
 8533SOL    HW226499   3.555   0.337   5.735
 8534SOL     OW26500   1.808   2.822   2.920
 8534SOL    HW126501   1.723   2.862   2.956
 8534SOL    HW226502   1.840   2.876   2.842
 8535SOL     OW26503   6.647   3.215   4.670
 8535SOL    HW126504   6.741   3.215   4.703
 8535SOL    HW226505   6.601   3.132   4.700
 8536SOL     OW26506   6.892   0.839   3.989
 8536SOL    HW126507   6.940   0.925   4.006
 8536SOL    HW226508   6.956   0.772   3.952
 8537SOL     OW26509   5.725   7.014   2.833
 8537SOL    HW126510   5.723   6.963   2.747
 8537SOL    HW226511   5.693   6.956   2.908
 8538SOL     OW26512   5.623   0.714   5.315
 8538SOL    HW126513   5.544   0.766   5.282
 8538SOL    HW226514   5.598   0.618   5.324
 8539SOL     OW26515   0.112   3.544   3.012
 8539SOL    HW126516   0.126   3.532   2.914
 8539SOL    HW226517   0.195   3.515   3.061
 8540SOL     OW26518   4.087   0.355   6.938
 8540SOL    HW126519   4.108   0.352   6.840
 8540SOL    HW226520   4.137   0.282   6.985
 8541SOL     OW26521   3.154   6.293   5.225
 8541SOL    HW126522   3.212   6.269   5.147
 8541SOL    HW226523   3.170   6.228   5.300
 8542SOL     OW26524   1.509   5.888   5.892
 8542SOL    HW126525   1.603   5.870   5.920
 8542SOL    HW226526   1.507   5.914   5.796
 8543SOL     OW26527   2.791   2.847   6.051
 8543SOL    HW126528   2.839   2.804   5.975
 8543SOL    HW226529   2.693   2.825   6.046
 8544SOL     OW26530   5.601   5.215   5.429
 8544SOL    HW126531   5.696   5.228   5.458
 8544SOL    HW226532   5.552   5.164   5.499
 8545SOL     OW26533   2.534   0.073   6.441
 8545SOL    HW126534   2.602   0.139   6.472
 8545SOL    HW226535   2.468   0.120   6.381
 8546SOL     OW26536   4.502   1.036   3.086
 8546SOL    HW126537   4.482   0.978   3.007
 8546SOL    HW226538   4.599   1.029   3.109
 8547SOL     OW26539   5.635   6.584   5.972
 8547SOL    HW126540   5.707   6.638   6.015
 8547SOL    HW226541   5.574   6.645   5.920
 8548SOL     OW26542   0.890   3.778   4.742
 8548SOL    HW126543   0.841   3.850   4.691
 8548SOL    HW226544   0.981   3.767   4.703
 8549SOL     OW26545   1.254   0.294   4.133
 8549SOL    HW126546   1.172   0.256   4.175
 8549SOL    HW226547   1.248   0.393   4.132
 8550SOL     OW26548   6.769   5.322   6.001
 8550SOL    HW126549   6.785   5.349   6.096
 8550SOL    HW226550   6.725   5.398   5.952
 8551SOL     OW26551   2.258   0.567   5.591
 8551SOL    HW126552   2.168   0.527   5.577
 8551SOL    HW226553   2.256   0.664   5.564
 8552SOL     OW26554   2.761   1.281   2.032
 8552SOL    HW126555   2.788   1.376   2.047
 8552SOL    HW226556   2.765   1.231   2.119
 8553SOL     OW26557   5.323   3.770   0.145
 8553SOL    HW126558   5.401   3.826   0.115
 8553SOL    HW226559   5.240   3.824   0.141
 8554SOL     OW26560   2.207   0.767   0.243
 8554SOL    HW126561   2.164   0.742   0.156
 8554SOL    HW226562   2.294   0.719   0.253
 8555SOL     OW26563   3.800   1.886   4.001
 8555SOL    HW126564   3.716   1.867   4.052
 8555SOL    HW226565   3.797   1.980   3.966
 8556SOL     OW26566   0.727   5.718   6.305
 8556SOL    HW126567   0.814   5.668   6.308
 8556SOL    HW226568   0.679   5.706   6.393
 8557SOL     OW26569   6.901   0.717   6.510
 8557SOL    HW126570   6.878   0.757   6.599
 8557SOL    HW226571   6.987   0.757   6.478
 8558SOL     OW26572   2.531   6.031   4.184
 8558SOL    HW126573   2.583   6.097   4.239
 8558SOL    HW226574   2.576   5.942   4.188
 8559SOL     OW26575   1.953   4.606   2.612
 8559SOL    HW126576   1.883   4.559   2.559
 8559SOL    HW226577   2.038   4.609   2.558
 8560SOL     OW26578   2.835   4.357   0.653
 8560SOL    HW126579   2.796   4.266   0.637
 8560SOL    HW226580   2.762   4.421   0.676
 8561SOL     OW26581   3.672   0.344   3.100
 8561SOL    HW126582   3.712   0.387   3.019
 8561SOL    HW226583   3.736   0.352   3.176
 8562SOL     OW26584   5.441   2.248   0.269
 8562SOL    HW126585   5.479   2.166   0.227
 8562SOL    HW226586   5.516   2.308   0.299
 8563SOL     OW26587   3.191   4.965   2.472
 8563SOL    HW126588   3.274   4.995   2.424
 8563SOL    HW226589   3.183   5.016   2.558
 8564SOL     OW26590   4.268   6.820   0.091
 8564SOL    HW126591   4.170   6.839   0.080
 8564SOL    HW226592   4.318   6.852   0.011
 8565SOL     OW26593   1.786   4.603   1.367
 8565SOL    HW126594   1.736   4.685   1.339
 8565SOL    HW226595   1.732   4.553   1.435
 8566SOL     OW26596   3.171   0.835   2.057
 8566SOL    HW126597   3.200   0.850   2.151
 8566SOL    HW226598   3.124   0.917   2.024
 8567SOL     OW26599   1.731   2.636   2.730
 8567SOL    HW126600   1.790   2.557   2.711
 8567SOL    HW226601   1.782   2.703   2.784
 8568SOL     OW26602   6.223   0.240   6.098
 8568SOL    HW126603   6.284   0.278   6.030
 8568SOL    HW226604   6.265   0.247   6.189
 8569SOL     OW26605   4.414   2.167   0.372
 8569SOL    HW126606   4.514   2.167   0.363
 8569SOL    HW226607   4.375   2.230   0.305
 8570SOL     OW26608   2.452   2.225   1.746
 8570SOL    HW126609   2.545   2.232   1.712
 8570SOL    HW226610   2.444   2.278   1.831
 8571SOL     OW26611   1.645   0.672   2.915
 8571SOL    HW126612   1.573   0.647   2.849
 8571SOL    HW226613   1.603   0.696   3.002
 8572SOL     OW26614   2.680   4.225   5.607
 8572SOL    HW126615   2.774   4.196   5.627
 8572SOL    HW226616   2.679   4.324   5.589
 8573SOL     OW26617   3.435   6.399   0.054
 8573SOL    HW126618   3.453   6.398   0.153
 8573SOL    HW226619   3.342   6.365   0.038
 8574SOL     OW26620   4.617   0.642   5.561
 8574SOL    HW126621   4.640   0.720   5.620
 8574SOL    HW226622   4.701   0.603   5.524
 8575SOL     OW26623   3.327   6.024   3.851
 8575SOL    HW126624   3.329   5.924   3.853
 8575SOL    HW226625   3.233   6.056   3.865
 8576SOL     OW26626   1.329   4.789   4.518
 8576SOL    HW126627   1.401   4.739   4.566
 8576SOL    HW226628   1.314   4.877   4.563
 8577SOL     OW26629   2.093   1.639   0.907
 8577SOL    HW126630   2.101   1.540   0.906
 8577SOL    HW226631   2.162   1.678   0.845
 8578SOL     OW26632   0.290   0.232   6.832
 8578SOL    HW126633   0.342   0.154   6.867
 8578SOL    HW226634   0.217   0.199   6.773
 8579SOL     OW26635   2.682   6.496   2.268
 8579SOL    HW126636   2.592   6.492   2.225
 8579SOL    HW226637   2.682   6.439   2.350
 8580SOL     OW26638   1.749   0.497   1.576
 8580SOL    HW126639   1.835   0.478   1.528
 8580SOL    HW226640   1.683   0.423   1.557
 8581SOL     OW26641   3.353   4.666   0.878
 8581SOL    HW126642   3.442   4.709   0.858
 8581SOL    HW226643   3.303   4.722   0.944
 8582SOL     OW26644   3.817   5.174   5.484
 8582SOL    HW126645   3.750   5.133   5.423
 8582SOL    HW226646   3.867   5.246   5.436
 8583SOL     OW26647   3.968   6.670   2.674
 8583SOL    HW126648   4.048   6.624   2.634
 8583SOL    HW226649   3.887   6.648   2.621
 8584SOL     OW26650   6.576   1.331   4.582
 8584SOL    HW126651   6.612   1.311   4.674
 8584SOL    HW226652   6.620   1.414   4.547
 8585SOL     OW26653   5.405   3.000   3.068
 8585SOL    HW126654   5.439   2.985   2.975
 8585SOL    HW226655   5.384   2.911   3.110
 8586SOL     OW26656   6.708   6.518   0.049
 8586SOL    HW126657   6.678   6.458   0.123
 8586SOL    HW226658   6.629   6.562   0.007
 8587SOL     OW26659   0.294   2.267   0.158
 8587SOL    HW126660   0.323   2.331   0.087
 8587SOL    HW226661   0.261   2.318   0.238
 8588SOL     OW26662   2.778   1.105   5.617
 8588SOL    HW126663   2.750   1.201   5.622
 8588SOL    HW226664   2.765   1.062   5.706
 8589SOL     OW26665   5.988   3.185   6.690
 8589SOL    HW126666   5.998   3.152   6.784
 8589SOL    HW226667   5.932   3.122   6.637
 8590SOL     OW26668   0.730   0.837   4.073
 8590SOL    HW126669   0.752   0.749   4.114
 8590SOL    HW226670   0.715   0.825   3.975
 8591SOL     OW26671   6.923   4.439   6.652
 8591SOL    HW126672   6.993   4.502   6.617
 8591SOL    HW226673   6.884   4.388   6.576
 8592SOL     OW26674   0.427   1.628   4.594
 8592SOL    HW126675   0.343   1.576   4.606
 8592SOL    HW226676   0.462   1.654   4.684
 8593SOL     OW26677   5.203   1.439   6.945
 8593SOL    HW126678   5.165   1.477   0.009
 8593SOL    HW226679   5.130   1.400   6.890
 8594SOL     OW26680   6.290   3.502   6.246
 8594SOL    HW126681   6.323   3.597   6.250
 8594SOL    HW226682   6.193   3.502   6.220
 8595SOL     OW26683   6.168   6.291   3.019
 8595SOL    HW126684   6.134   6.385   3.013
 8595SOL    HW226685   6.113   6.240   3.084
 8596SOL     OW26686   0.305   1.387   4.187
 8596SOL    HW126687   0.386   1.445   4.196
 8596SOL    HW226688   0.327   1.294   4.216
 8597SOL     OW26689   6.214   2.981   5.684
 8597SOL    HW126690   6.181   2.928   5.606
 8597SOL    HW226691   6.311   2.964   5.698
 8598SOL     OW26692   6.150   6.989   5.019
 8598SOL    HW126693   6.066   6.998   5.072
 8598SOL    HW226694   6.172   0.056   4.975
 8599SOL     OW26695   6.803   3.870   4.011
 8599SOL    HW126696   6.843   3.960   4.028
 8599SOL    HW226697   6.815   3.812   4.092
 8600SOL     OW26698   4.833   2.055   0.519
 8600SOL    HW126699   4.909   1.998   0.486
 8600SOL    HW226700   4.781   2.004   0.588
 8601SOL     OW26701   6.873   6.246   3.483
 8601SOL    HW126702   6.805   6.312   3.453
 8601SOL    HW226703   6.946   6.240   3.416
 8602SOL     OW26704   1.911   6.342   6.007
 8602SOL    HW126705   1.838   6.368   6.071
 8602SOL    HW226706   1.997   6.335   6.057
 8603SOL     OW26707   1.202   0.341   0.132
 8603SOL    HW126708   1.120   0.302   0.091
 8603SOL    HW226709   1.277   0.336   0.067
 8604SOL     OW26710   0.993   4.518   6.113
 8604SOL    HW126711   0.899   4.545   6.096
 8604SOL    HW226712   1.055   4.592   6.087
 8605SOL     OW26713   6.764   4.338   4.509
 8605SOL    HW126714   6.834   4.303   4.446
 8605SOL    HW226715   6.675   4.300   4.483
 8606SOL     OW26716   1.685   2.482   0.537
 8606SOL    HW126717   1.716   2.499   0.444
 8606SOL    HW226718   1.743   2.532   0.602
 8607SOL     OW26719   2.231   4.248   1.713
 8607SOL    HW126720   2.153   4.216   1.767
 8607SOL    HW226721   2.211   4.236   1.615
 8608SOL     OW26722   1.597   5.485   2.881
 8608SOL    HW126723   1.633   5.438   2.800
 8608SOL    HW226724   1.663   5.478   2.956
 8609SOL     OW26725   4.319   1.510   4.449
 8609SOL    HW126726   4.404   1.493   4.400
 8609SOL    HW226727   4.339   1.561   4.533
 8610SOL     OW26728   6.956   6.310   3.200
 8610SOL    HW126729   6.864   6.343   3.176
 8610SOL    HW226730   7.013   6.388   3.227
 8611SOL     OW26731   2.769   1.044   4.643
 8611SOL    HW126732   2.697   0.994   4.692
 8611SOL    HW226733   2.732   1.129   4.606
 8612SOL     OW26734   3.292   2.915   3.954
 8612SOL    HW126735   3.295   2.831   3.899
 8612SOL    HW226736   3.353   2.983   3.915
 8613SOL     OW26737   4.100   3.462   2.681
 8613SOL    HW126738   4.043   3.384   2.654
 8613SOL    HW226739   4.148   3.497   2.600
 8614SOL     OW26740   1.123   2.616   3.222
 8614SOL    HW126741   1.222   2.617   3.218
 8614SOL    HW226742   1.089   2.709   3.238
 8615SOL     OW26743   3.512   1.521   4.738
 8615SOL    HW126744   3.518   1.620   4.735
 8615SOL    HW226745   3.532   1.484   4.647
 8616SOL     OW26746   5.707   4.474   3.717
 8616SOL    HW126747   5.692   4.491   3.815
 8616SOL    HW226748   5.805   4.470   3.699
 8617SOL     OW26749   2.270   0.354   3.557
 8617SOL    HW126750   2.204   0.311   3.496
 8617SOL    HW226751   2.223   0.386   3.640
 8618SOL     OW26752   5.927   3.868   1.528
 8618SOL    HW126753   5.923   3.809   1.609
 8618SOL    HW226754   5.979   3.822   1.456
 8619SOL     OW26755   4.726   5.169   0.411
 8619SOL    HW126756   4.775   5.192   0.327
 8619SOL    HW226757   4.630   5.197   0.402
 8620SOL     OW26758   2.336   0.528   4.512
 8620SOL    HW126759   2.297   0.579   4.435
 8620SOL    HW226760   2.262   0.487   4.565
 8621SOL     OW26761   5.690   2.911   1.684
 8621SOL    HW126762   5.741   2.848   1.744
 8621SOL    HW226763   5.609   2.945   1.732
 8622SOL     OW26764   6.941   5.212   2.545
 8622SOL    HW126765   6.927   5.264   2.629
 8622SOL    HW226766   7.005   5.137   2.562
 8623SOL     OW26767   1.411   3.256   3.999
 8623SOL    HW126768   1.322   3.295   4.023
 8623SOL    HW226769   1.440   3.292   3.910
 8624SOL     OW26770   3.091   4.035   4.891
 8624SOL    HW126771   3.144   4.116   4.865
 8624SOL    HW226772   3.015   4.063   4.950
 8625SOL     OW26773   3.974   2.795   5.258
 8625SOL    HW126774   3.882   2.765   5.279
 8625SOL    HW226775   4.027   2.719   5.220
 8626SOL     OW26776   3.943   2.774   1.105
 8626SOL    HW126777   3.915   2.774   1.201
 8626SOL    HW226778   3.881   2.716   1.052
 8627SOL     OW26779   1.788   1.174   2.770
 8627SOL    HW126780   1.729   1.246   2.806
 8627SOL    HW226781   1.829   1.205   2.684
 8628SOL     OW26782   0.584   6.371   0.693
 8628SOL    HW126783   0.628   6.394   0.607
 8628SOL    HW226784   0.488   6.399   0.690
 8629SOL     OW26785   6.919   6.714   5.323
 8629SOL    HW126786   6.842   6.728   5.262
 8629SOL    HW226787   6.986   6.654   5.280
 8630SOL     OW26788   4.837   2.851   2.228
 8630SOL    HW126789   4.836   2.882   2.323
 8630SOL    HW226790   4.789   2.919   2.171
 8631SOL     OW26791   2.518   6.224   6.679
 8631SOL    HW126792   2.550   6.232   6.773
 8631SOL    HW226793   2.535   6.309   6.630
 8632SOL     OW26794   5.533   4.983   4.422
 8632SOL    HW126795   5.565   5.050   4.356
 8632SOL    HW226796   5.587   4.990   4.506
 8633SOL     OW26797   5.980   4.033   5.317
 8633SOL    HW126798   5.883   4.017   5.334
 8633SOL    HW226799   6.010   4.114   5.368
 8634SOL     OW26800   4.899   3.399   0.173
 8634SOL    HW126801   4.983   3.424   0.222
 8634SOL    HW226802   4.893   3.299   0.168
 8635SOL     OW26803   5.651   2.546   6.456
 8635SOL    HW126804   5.660   2.567   6.553
 8635SOL    HW226805   5.561   2.576   6.423
 8636SOL     OW26806   4.607   6.799   1.581
 8636SOL    HW126807   4.546   6.864   1.626
 8636SOL    HW226808   4.568   6.771   1.494
 8637SOL     OW26809   2.363   1.888   6.405
 8637SOL    HW126810   2.294   1.842   6.349
 8637SOL    HW226811   2.368   1.984   6.378
 8638SOL     OW26812   4.901   2.852   3.398
 8638SOL    HW126813   4.878   2.945   3.369
 8638SOL    HW226814   4.831   2.819   3.462
 8639SOL     OW26815   3.622   3.635   0.143
 8639SOL    HW126816   3.642   3.563   0.209
 8639SOL    HW226817   3.692   3.637   0.072
 8640SOL     OW26818   3.025   3.068   0.915
 8640SOL    HW126819   3.015   3.165   0.936
 8640SOL    HW226820   2.945   3.037   0.864
 8641SOL     OW26821   4.417   4.992   1.970
 8641SOL    HW126822   4.485   5.064   1.985
 8641SOL    HW226823   4.406   4.977   1.871
 8642SOL     OW26824   1.214   5.317   3.070
 8642SOL    HW126825   1.184   5.242   3.011
 8642SOL    HW226826   1.148   5.393   3.064
 8643SOL     OW26827   3.753   6.234   1.187
 8643SOL    HW126828   3.810   6.285   1.251
 8643SOL    HW226829   3.686   6.179   1.237
 8644SOL     OW26830   6.393   1.947   5.965
 8644SOL    HW126831   6.454   1.960   6.043
 8644SOL    HW226832   6.343   1.861   5.976
 8645SOL     OW26833   5.580   5.227   2.838
 8645SOL    HW126834   5.618   5.135   2.843
 8645SOL    HW226835   5.499   5.226   2.778
 8646SOL     OW26836   6.665   2.161   4.563
 8646SOL    HW126837   6.593   2.218   4.525
 8646SOL    HW226838   6.703   2.102   4.491
 8647SOL     OW26839   2.175   5.476   1.601
 8647SOL    HW126840   2.258   5.420   1.599
 8647SOL    HW226841   2.153   5.500   1.696
 8648SOL     OW26842   4.966   4.602   0.541
 8648SOL    HW126843   4.930   4.691   0.514
 8648SOL    HW226844   4.889   4.541   0.562
 8649SOL     OW26845   5.670   0.690   1.243
 8649SOL    HW126846   5.625   0.780   1.244
 8649SOL    HW226847   5.612   0.624   1.198
 8650SOL     OW26848   2.514   6.646   5.558
 8650SOL    HW126849   2.440   6.643   5.491
 8650SOL    HW226850   2.496   6.579   5.631
 8651SOL     OW26851   4.288   2.717   1.722
 8651SOL    HW126852   4.356   2.675   1.783
 8651SOL    HW226853   4.334   2.762   1.646
 8652SOL     OW26854   1.426   2.842   3.766
 8652SOL    HW126855   1.359   2.856   3.693
 8652SOL    HW226856   1.399   2.764   3.823
 8653SOL     OW26857   6.280   1.950   6.739
 8653SOL    HW126858   6.221   1.971   6.817
 8653SOL    HW226859   6.375   1.966   6.764
 8654SOL     OW26860   0.581   4.684   2.663
 8654SOL    HW126861   0.497   4.661   2.712
 8654SOL    HW226862   0.607   4.606   2.605
 8655SOL     OW26863   6.984   0.326   4.618
 8655SOL    HW126864   6.898   0.278   4.632
 8655SOL    HW226865   0.032   0.263   4.584
 8656SOL     OW26866   4.679   6.818   1.120
 8656SOL    HW126867   4.678   6.790   1.024
 8656SOL    HW226868   4.656   6.915   1.127
 8657SOL     OW26869   3.708   1.401   2.849
 8657SOL    HW126870   3.672   1.343   2.922
 8657SOL    HW226871   3.679   1.366   2.761
 8658SOL     OW26872   5.620   4.333   0.938
 8658SOL    HW126873   5.544   4.311   0.999
 8658SOL    HW226874   5.607   4.424   0.899
 8659SOL     OW26875   2.968   1.009   2.577
 8659SOL    HW126876   2.921   1.042   2.658
 8659SOL    HW226877   2.932   0.918   2.552
 8660SOL     OW26878   0.773   4.596   1.791
 8660SOL    HW126879   0.818   4.586   1.880
 8660SOL    HW226880   0.700   4.527   1.783
 8661SOL     OW26881   6.607   3.837   2.373
 8661SOL    HW126882   6.602   3.877   2.465
 8661SOL    HW226883   6.531   3.774   2.360
 8662SOL     OW26884   1.862   3.831   3.846
 8662SOL    HW126885   1.889   3.890   3.770
 8662SOL    HW226886   1.940   3.819   3.908
 8663SOL     OW26887   4.031   5.289   2.571
 8663SOL    HW126888   4.095   5.278   2.494
 8663SOL    HW226889   4.073   5.346   2.641
 8664SOL     OW26890   3.930   6.028   3.380
 8664SOL    HW126891   3.911   5.932   3.403
 8664SOL    HW226892   3.896   6.087   3.452
 8665SOL     OW26893   5.605   3.491   6.404
 8665SOL    HW126894   5.679   3.480   6.470
 8665SOL    HW226895   5.570   3.585   6.410
 8666SOL     OW26896   4.889   0.056   2.435
 8666SOL    HW126897   4.879   0.153   2.456
 8666SOL    HW226898   4.799   0.011   2.440
 8667SOL     OW26899   4.799   2.135   2.660
 8667SOL    HW126900   4.718   2.176   2.618
 8667SOL    HW226901   4.877   2.142   2.596
 8668SOL     OW26902   4.758   2.462   4.887
 8668SOL    HW126903   4.726   2.371   4.912
 8668SOL    HW226904   4.695   2.530   4.926
 8669SOL     OW26905   6.732   6.321   6.166
 8669SOL    HW126906   6.688   6.337   6.254
 8669SOL    HW226907   6.753   6.409   6.123
 8670SOL     OW26908   6.480   4.656   5.629
 8670SOL    HW126909   6.447   4.678   5.721
 8670SOL    HW226910   6.519   4.738   5.587
 8671SOL     OW26911   0.935   3.428   3.112
 8671SOL    HW126912   0.953   3.368   3.034
 8671SOL    HW226913   1.020   3.471   3.141
 8672SOL     OW26914   0.252   1.083   2.255
 8672SOL    HW126915   0.339   1.109   2.299
 8672SOL    HW226916   0.271   1.045   2.164
 8673SOL     OW26917   0.630   2.427   1.490
 8673SOL    HW126918   0.638   2.522   1.460
 8673SOL    HW226919   0.591   2.424   1.582
 8674SOL     OW26920   0.184   3.970   3.448
 8674SOL    HW126921   0.090   3.947   3.475
 8674SOL    HW226922   0.190   4.067   3.426
 8675SOL     OW26923   4.128   2.235   4.784
 8675SOL    HW126924   4.101   2.244   4.688
 8675SOL    HW226925   4.129   2.326   4.826
 8676SOL     OW26926   5.488   1.599   0.909
 8676SOL    HW126927   5.586   1.618   0.919
 8676SOL    HW226928   5.451   1.564   0.995
 8677SOL     OW26929   2.351   6.935   5.819
 8677SOL    HW126930   2.382   7.009   5.879
 8677SOL    HW226931   2.347   6.968   5.725
 8678SOL     OW26932   1.662   2.155   0.278
 8678SOL    HW126933   1.741   2.117   0.231
 8678SOL    HW226934   1.667   2.254   0.278
 8679SOL     OW26935   1.379   2.047   6.265
 8679SOL    HW126936   1.323   2.019   6.187
 8679SOL    HW226937   1.370   2.146   6.278
 8680SOL     OW26938   6.844   1.016   0.269
 8680SOL    HW126939   6.845   0.922   0.301
 8680SOL    HW226940   6.752   1.042   0.241
 8681SOL     OW26941   5.457   6.257   1.427
 8681SOL    HW126942   5.439   6.338   1.371
 8681SOL    HW226943   5.462   6.176   1.368
 8682SOL     OW26944   1.812   0.730   1.940
 8682SOL    HW126945   1.852   0.675   1.867
 8682SOL    HW226946   1.846   0.699   2.029
 8683SOL     OW26947   2.422   4.871   4.816
 8683SOL    HW126948   2.443   4.774   4.821
 8683SOL    HW226949   2.482   4.915   4.748
 8684SOL     OW26950   2.322   4.594   4.591
 8684SOL    HW126951   2.306   4.531   4.667
 8684SOL    HW226952   2.349   4.542   4.510
 8685SOL     OW26953   4.789   2.414   4.586
 8685SOL    HW126954   4.824   2.428   4.678
 8685SOL    HW226955   4.864   2.382   4.527
 8686SOL     OW26956   1.017   5.087   3.208
 8686SOL    HW126957   0.957   5.011   3.230
 8686SOL    HW226958   0.963   5.167   3.182
 8687SOL     OW26959   5.398   4.393   5.644
 8687SOL    HW126960   5.357   4.432   5.726
 8687SOL    HW226961   5.326   4.371   5.578
 8688SOL     OW26962   1.210   3.811   4.949
 8688SOL    HW126963   1.195   3.727   4.896
 8688SOL    HW226964   1.188   3.890   4.892
 8689SOL     OW26965   4.108   3.377   6.567
 8689SOL    HW126966   4.058   3.452   6.611
 8689SOL    HW226967   4.106   3.297   6.627
 8690SOL     OW26968   1.486   2.652   2.638
 8690SOL    HW126969   1.447   2.712   2.708
 8690SOL    HW226970   1.585   2.649   2.649
 8691SOL     OW26971   3.605   2.588   5.776
 8691SOL    HW126972   3.629   2.630   5.864
 8691SOL    HW226973   3.688   2.571   5.723
 8692SOL     OW26974   4.397   1.990   5.194
 8692SOL    HW126975   4.326   1.921   5.179
 8692SOL    HW226976   4.381   2.067   5.131
 8693SOL     OW26977   6.940   0.013   6.140
 8693SOL    HW126978   6.961   6.962   6.074
 8693SOL    HW226979   6.895   0.089   6.093
 8694SOL     OW26980   5.121   2.945   5.069
 8694SOL    HW126981   5.050   2.957   5.139
 8694SOL    HW226982   5.087   2.884   4.998
 8695SOL     OW26983   3.756   4.510   0.121
 8695SOL    HW126984   3.796   4.583   0.176
 8695SOL    HW226985   3.799   4.423   0.143
 8696SOL     OW26986   2.993   5.402   5.667
 8696SOL    HW126987   2.973   5.391   5.569
 8696SOL    HW226988   3.051   5.327   5.698
 8697SOL     OW26989   1.823   3.592   5.564
 8697SOL    HW126990   1.809   3.691   5.569
 8697SOL    HW226991   1.756   3.546   5.623
 8698SOL     OW26992   4.670   5.474   6.196
 8698SOL    HW126993   4.580   5.506   6.167
 8698SOL    HW226994   4.731   5.553   6.209
 8699SOL     OW26995   1.654   2.619   0.004
 8699SOL    HW126996   1.581   2.559   6.991
 8699SOL    HW226997   1.741   2.570   0.001
 8700SOL     OW26998   1.539   0.677   4.008
 8700SOL    HW126999   1.461   0.739   4.004
 8700SOL    HW227000   1.557   0.653   4.104
 8701SOL     OW27001   1.254   2.641   6.935
 8701SOL    HW127002   1.171   2.671   6.887
 8701SOL    HW227003   1.319   2.717   6.939
 8702SOL     OW27004   5.392   4.649   0.943
 8702SOL    HW127005   5.365   4.711   0.869
 8702SOL    HW227006   5.487   4.666   0.968
 8703SOL     OW27007   2.679   5.806   0.743
 8703SOL    HW127008   2.700   5.779   0.648
 8703SOL    HW227009   2.696   5.729   0.804
 8704SOL     OW27010   0.704   1.161   5.130
 8704SOL    HW127011   0.712   1.211   5.043
 8704SOL    HW227012   0.689   1.064   5.111
 8705SOL     OW27013   3.854   2.160   6.907
 8705SOL    HW127014   3.894   2.079   6.949
 8705SOL    HW227015   3.894   2.175   6.817
 8706SOL     OW27016   4.972   3.184   6.394
 8706SOL    HW127017   4.962   3.094   6.437
 8706SOL    HW227018   4.936   3.180   6.301
 8707SOL     OW27019   2.437   1.442   4.578
 8707SOL    HW127020   2.471   1.523   4.626
 8707SOL    HW227021   2.359   1.405   4.627
 8708SOL     OW27022   5.630   2.800   0.439
 8708SOL    HW127023   5.670   2.725   0.387
 8708SOL    HW227024   5.687   2.881   0.430
 8709SOL     OW27025   5.634   6.873   5.187
 8709SOL    HW127026   5.570   6.942   5.152
 8709SOL    HW227027   5.588   6.784   5.192
 8710SOL     OW27028   1.962   1.707   3.427
 8710SOL    HW127029   1.929   1.650   3.501
 8710SOL    HW227030   2.009   1.650   3.359
 8711SOL     OW27031   1.346   1.568   1.751
 8711SOL    HW127032   1.412   1.616   1.808
 8711SOL    HW227033   1.363   1.469   1.755
 8712SOL     OW27034   1.151   3.798   5.419
 8712SOL    HW127035   1.065   3.811   5.469
 8712SOL    HW227036   1.131   3.753   5.332
 8713SOL     OW27037   0.442   3.555   1.083
 8713SOL    HW127038   0.365   3.595   1.034
 8713SOL    HW227039   0.466   3.467   1.042
 8714SOL     OW27040   6.732   5.321   6.779
 8714SOL    HW127041   6.680   5.401   6.808
 8714SOL    HW227042   6.768   5.337   6.687
 8715SOL     OW27043   1.757   3.802   1.900
 8715SOL    HW127044   1.829   3.769   1.961
 8715SOL    HW227045   1.745   3.738   1.824
 8716SOL     OW27046   6.545   0.327   1.999
 8716SOL    HW127047   6.518   0.258   1.932
 8716SOL    HW227048   6.553   0.416   1.953
 8717SOL     OW27049   2.685   2.971   0.039
 8717SOL    HW127050   2.672   2.889   7.003
 8717SOL    HW227051   2.614   2.974   0.109
 8718SOL     OW27052   2.522   4.771   6.488
 8718SOL    HW127053   2.582   4.841   6.524
 8718SOL    HW227054   2.569   4.721   6.415
 8719SOL     OW27055   3.480   0.879   4.495
 8719SOL    HW127056   3.410   0.817   4.459
 8719SOL    HW227057   3.569   0.834   4.493
 8720SOL     OW27058   0.117   4.919   5.065
 8720SOL    HW127059   0.200   4.887   5.110
 8720SOL    HW227060   0.140   4.985   4.994
 8721SOL     OW27061   0.387   7.011   6.944
 8721SOL    HW127062   0.484   7.013   6.968
 8721SOL    HW227063   0.337   6.960   7.015
 8722SOL     OW27064   3.192   1.030   0.393
 8722SOL    HW127065   3.135   1.030   0.475
 8722SOL    HW227066   3.287   1.012   0.418
 8723SOL     OW27067   3.719   6.951   2.884
 8723SOL    HW127068   3.766   6.863   2.883
 8723SOL    HW227069   3.786   0.004   2.876
 8724SOL     OW27070   3.638   1.360   4.423
 8724SOL    HW127071   3.604   1.308   4.501
 8724SOL    HW227072   3.640   1.302   4.341
 8725SOL     OW27073   0.062   6.808   3.779
 8725SOL    HW127074   0.028   6.775   3.867
 8725SOL    HW227075   0.036   6.745   3.706
 8726SOL     OW27076   6.962   1.344   0.881
 8726SOL    HW127077   0.026   1.292   0.898
 8726SOL    HW227078   6.963   1.379   0.787
 8727SOL     OW27079   5.071   6.496   6.412
 8727SOL    HW127080   5.054   6.595   6.405
 8727SOL    HW227081   4.988   6.447   6.385
 8728SOL     OW27082   6.344   0.207   4.485
 8728SOL    HW127083   6.341   0.304   4.506
 8728SOL    HW227084   6.330   0.193   4.387
 8729SOL     OW27085   5.541   6.033   6.294
 8729SOL    HW127086   5.625   6.085   6.280
 8729SOL    HW227087   5.465   6.096   6.310
 8730SOL     OW27088   4.823   5.373   1.429
 8730SOL    HW127089   4.723   5.378   1.434
 8730SOL    HW227090   4.851   5.279   1.413
 8731SOL     OW27091   6.297   1.566   3.781
 8731SOL    HW127092   6.205   1.607   3.789
 8731SOL    HW227093   6.335   1.553   3.873
 8732SOL     OW27094   5.824   6.919   6.922
 8732SOL    HW127095   5.772   6.899   6.838
 8732SOL    HW227096   5.843   6.834   6.971
 8733SOL     OW27097   6.420   4.274   2.640
 8733SOL    HW127098   6.349   4.267   2.710
 8733SOL    HW227099   6.457   4.367   2.638
 8734SOL     OW27100   0.645   4.132   1.926
 8734SOL    HW127101   0.741   4.162   1.921
 8734SOL    HW227102   0.628   4.087   2.013
 8735SOL     OW27103   6.996   2.703   5.105
 8735SOL    HW127104   6.934   2.653   5.045
 8735SOL    HW227105   6.956   2.710   5.197
 8736SOL     OW27106   1.171   6.218   3.275
 8736SOL    HW127107   1.266   6.238   3.298
 8736SOL    HW227108   1.159   6.118   3.271
 8737SOL     OW27109   1.072   5.879   0.442
 8737SOL    HW127110   1.066   5.804   0.377
 8737SOL    HW227111   0.990   5.937   0.435
 8738SOL     OW27112   1.545   3.040   3.383
 8738SOL    HW127113   1.539   2.940   3.392
 8738SOL    HW227114   1.537   3.065   3.286
 8739SOL     OW27115   5.552   4.827   4.841
 8739SOL    HW127116   5.565   4.924   4.863
 8739SOL    HW227117   5.493   4.819   4.760
 8740SOL     OW27118   3.030   0.817   4.703
 8740SOL    HW127119   3.036   0.866   4.616
 8740SOL    HW227120   2.968   0.866   4.764
 8741SOL     OW27121   0.822   1.283   3.183
 8741SOL    HW127122   0.914   1.321   3.191
 8741SOL    HW227123   0.795   1.282   3.087
 8742SOL     OW27124   2.965   1.797   1.918
 8742SOL    HW127125   2.879   1.836   1.885
 8742SOL    HW227126   3.035   1.807   1.847
 8743SOL     OW27127   0.845   2.793   1.650
 8743SOL    HW127128   0.893   2.866   1.602
 8743SOL    HW227129   0.835   2.818   1.747
 8744SOL     OW27130   3.431   4.272   5.676
 8744SOL    HW127131   3.382   4.186   5.689
 8744SOL    HW227132   3.521   4.266   5.720
 8745SOL     OW27133   5.939   1.533   5.816
 8745SOL    HW127134   5.965   1.463   5.883
 8745SOL    HW227135   5.951   1.624   5.855
 8746SOL     OW27136   4.211   4.634   5.671
 8746SOL    HW127137   4.265   4.714   5.696
 8746SOL    HW227138   4.189   4.638   5.574
 8747SOL     OW27139   0.741   0.620   2.972
 8747SOL    HW127140   0.693   0.568   3.043
 8747SOL    HW227141   0.840   0.608   2.983
 8748SOL     OW27142   5.856   1.701   4.273
 8748SOL    HW127143   5.803   1.704   4.358
 8748SOL    HW227144   5.919   1.779   4.271
 8749SOL     OW27145   2.585   0.975   3.518
 8749SOL    HW127146   2.663   1.034   3.498
 8749SOL    HW227147   2.564   0.979   3.616
 8750SOL     OW27148   3.537   3.882   0.787
 8750SOL    HW127149   3.560   3.979   0.786
 8750SOL    HW227150   3.503   3.857   0.878
 8751SOL     OW27151   2.500   6.656   0.532
 8751SOL    HW127152   2.560   6.686   0.458
 8751SOL    HW227153   2.550   6.658   0.619
 8752SOL     OW27154   6.805   2.591   5.288
 8752SOL    HW127155   6.850   2.526   5.348
 8752SOL    HW227156   6.757   2.660   5.342
 8753SOL     OW27157   2.859   2.511   0.890
 8753SOL    HW127158   2.839   2.450   0.814
 8753SOL    HW227159   2.930   2.576   0.863
 8754SOL     OW27160   1.489   5.518   0.013
 8754SOL    HW127161   1.390   5.520   0.027
 8754SOL    HW227162   1.513   5.437   6.979
 8755SOL     OW27163   0.548   2.850   2.017
 8755SOL    HW127164   0.639   2.852   1.975
 8755SOL    HW227165   0.486   2.909   1.964
 8756SOL     OW27166   1.532   1.738   1.891
 8756SOL    HW127167   1.562   1.822   1.846
 8756SOL    HW227168   1.484   1.761   1.975
 8757SOL     OW27169   5.073   6.017   5.772
 8757SOL    HW127170   4.983   5.990   5.808
 8757SOL    HW227171   5.068   6.111   5.739
 8758SOL     OW27172   3.473   5.717   5.293
 8758SOL    HW127173   3.496   5.656   5.370
 8758SOL    HW227174   3.442   5.805   5.329
 8759SOL     OW27175   6.079   1.031   0.785
 8759SOL    HW127176   6.063   0.965   0.712
 8759SOL    HW227177   5.996   1.086   0.798
 8760SOL     OW27178   2.558   2.540   4.120
 8760SOL    HW127179   2.619   2.517   4.044
 8760SOL    HW227180   2.492   2.609   4.091
 8761SOL     OW27181   5.011   1.648   2.743
 8761SOL    HW127182   5.038   1.724   2.683
 8761SOL    HW227183   4.936   1.677   2.802
 8762SOL     OW27184   2.884   4.853   3.349
 8762SOL    HW127185   2.942   4.920   3.395
 8762SOL    HW227186   2.910   4.847   3.253
 8763SOL     OW27187   0.432   0.791   6.651
 8763SOL    HW127188   0.399   0.839   6.732
 8763SOL    HW227189   0.417   0.693   6.661
 8764SOL     OW27190   2.780   5.110   5.627
 8764SOL    HW127191   2.871   5.147   5.615
 8764SOL    HW227192   2.713   5.184   5.626
 8765SOL     OW27193   4.022   6.697   4.137
 8765SOL    HW127194   3.922   6.702   4.132
 8765SOL    HW227195   4.062   6.765   4.077
 8766SOL     OW27196   5.000   6.925   6.045
 8766SOL    HW127197   5.095   6.954   6.056
 8766SOL    HW227198   4.997   6.826   6.029
 8767SOL     OW27199   1.610   0.955   3.566
 8767SOL    HW127200   1.618   1.019   3.490
 8767SOL    HW227201   1.697   0.947   3.614
 8768SOL     OW27202   7.009   2.071   6.680
 8768SOL    HW127203   0.018   2.106   6.769
 8768SOL    HW227204   0.016   2.135   6.608
 8769SOL     OW27205   6.155   0.199   0.220
 8769SOL    HW127206   6.207   0.114   0.206
 8769SOL    HW227207   6.069   0.194   0.170
 8770SOL     OW27208   5.048   2.516   0.552
 8770SOL    HW127209   5.005   2.554   0.634
 8770SOL    HW227210   5.024   2.572   0.472
 8771SOL     OW27211   0.448   2.416   6.734
 8771SOL    HW127212   0.525   2.448   6.679
 8771SOL    HW227213   0.363   2.426   6.682
 8772SOL     OW27214   0.139   6.868   4.609
 8772SOL    HW127215   0.050   6.822   4.608
 8772SOL    HW227216   0.125   6.967   4.600
 8773SOL     OW27217   0.056   0.610   4.633
 8773SOL    HW127218   0.027   0.515   4.644
 8773SOL    HW227219   0.140   0.613   4.579
 8774SOL     OW27220   1.191   1.332   0.140
 8774SOL    HW127221   1.265   1.282   0.094
 8774SOL    HW227222   1.194   1.428   0.113
 8775SOL     OW27223   5.868   2.676   3.365
 8775SOL    HW127224   5.897   2.772   3.368
 8775SOL    HW227225   5.945   2.619   3.334
 8776SOL     OW27226   4.542   2.730   0.284
 8776SOL    HW127227   4.574   2.782   0.364
 8776SOL    HW227228   4.488   2.652   0.315
 8777SOL     OW27229   6.894   1.986   2.964
 8777SOL    HW127230   6.815   1.991   2.903
 8777SOL    HW227231   6.863   1.988   3.059
 8778SOL     OW27232   3.387   4.373   6.880
 8778SOL    HW127233   3.352   4.450   6.826
 8778SOL    HW227234   3.358   4.383   6.975
 8779SOL     OW27235   4.489   4.696   2.701
 8779SOL    HW127236   4.480   4.668   2.605
 8779SOL    HW227237   4.419   4.763   2.724
 8780SOL     OW27238   0.389   4.525   3.691
 8780SOL    HW127239   0.328   4.446   3.687
 8780SOL    HW227240   0.481   4.495   3.715
 8781SOL     OW27241   2.551   1.017   1.361
 8781SOL    HW127242   2.581   0.958   1.287
 8781SOL    HW227243   2.574   1.112   1.341
 8782SOL     OW27244   5.812   2.248   0.745
 8782SOL    HW127245   5.735   2.213   0.692
 8782SOL    HW227246   5.777   2.302   0.822
 8783SOL     OW27247   5.397   3.858   4.819
 8783SOL    HW127248   5.417   3.956   4.825
 8783SOL    HW227249   5.472   3.812   4.772
 8784SOL     OW27250   4.935   0.521   0.706
 8784SOL    HW127251   4.992   0.590   0.660
 8784SOL    HW227252   4.903   0.557   0.793
 8785SOL     OW27253   0.078   5.325   5.079
 8785SOL    HW127254   0.032   5.257   5.136
 8785SOL    HW227255   0.010   5.387   5.039
 8786SOL     OW27256   5.197   1.367   2.372
 8786SOL    HW127257   5.106   1.384   2.411
 8786SOL    HW227258   5.189   1.309   2.291
 8787SOL     OW27259   3.782   5.448   0.982
 8787SOL    HW127260   3.830   5.360   0.974
 8787SOL    HW227261   3.822   5.513   0.917
 8788SOL     OW27262   0.428   6.966   3.903
 8788SOL    HW127263   0.397   6.888   3.849
 8788SOL    HW227264   0.496   6.936   3.970
 8789SOL     OW27265   0.795   2.563   6.074
 8789SOL    HW127266   0.831   2.546   5.983
 8789SOL    HW227267   0.853   2.631   6.120
 8790SOL     OW27268   4.346   2.703   5.494
 8790SOL    HW127269   4.301   2.782   5.451
 8790SOL    HW227270   4.397   2.653   5.424
 8791SOL     OW27271   3.531   6.218   4.561
 8791SOL    HW127272   3.581   6.132   4.551
 8791SOL    HW227273   3.484   6.240   4.475
 8792SOL     OW27274   5.193   4.417   1.809
 8792SOL    HW127275   5.213   4.335   1.863
 8792SOL    HW227276   5.187   4.497   1.869
 8793SOL     OW27277   6.853   6.325   5.068
 8793SOL    HW127278   6.764   6.366   5.051
 8793SOL    HW227279   6.924   6.380   5.025
 8794SOL     OW27280   6.472   1.051   2.398
 8794SOL    HW127281   6.566   1.056   2.432
 8794SOL    HW227282   6.471   1.005   2.309
 8795SOL     OW27283   1.517   6.237   6.788
 8795SOL    HW127284   1.552   6.327   6.765
 8795SOL    HW227285   1.417   6.238   6.785
 8796SOL     OW27286   6.159   3.714   4.635
 8796SOL    HW127287   6.121   3.631   4.594
 8796SOL    HW227288   6.235   3.691   4.696
 8797SOL     OW27289   4.777   6.599   3.898
 8797SOL    HW127290   4.839   6.524   3.874
 8797SOL    HW227291   4.795   6.629   3.992
 8798SOL     OW27292   2.980   6.784   5.760
 8798SOL    HW127293   3.039   6.706   5.782
 8798SOL    HW227294   2.945   6.825   5.844
 8799SOL     OW27295   1.599   5.744   1.942
 8799SOL    HW127296   1.633   5.720   1.851
 8799SOL    HW227297   1.500   5.756   1.939
 8800SOL     OW27298   6.630   6.292   5.345
 8800SOL    HW127299   6.711   6.337   5.383
 8800SOL    HW227300   6.558   6.360   5.332
 8801SOL     OW27301   5.934   3.585   5.755
 8801SOL    HW127302   5.961   3.679   5.731
 8801SOL    HW227303   6.015   3.533   5.781
 8802SOL     OW27304   1.458   5.760   6.306
 8802SOL    HW127305   1.429   5.692   6.373
 8802SOL    HW227306   1.449   5.852   6.345
 8803SOL     OW27307   6.355   6.201   5.941
 8803SOL    HW127308   6.393   6.286   5.905
 8803SOL    HW227309   6.268   6.220   5.987
 8804SOL     OW27310   2.105   6.109   2.234
 8804SOL    HW127311   2.047   6.093   2.314
 8804SOL    HW227312   2.113   6.208   2.219
 8805SOL     OW27313   5.433   4.800   3.364
 8805SOL    HW127314   5.512   4.744   3.389
 8805SOL    HW227315   5.420   4.871   3.434
 8806SOL     OW27316   1.339   0.189   1.381
 8806SOL    HW127317   1.246   0.219   1.403
 8806SOL    HW227318   1.352   0.194   1.281
 8807SOL     OW27319   5.614   3.189   0.719
 8807SOL    HW127320   5.690   3.128   0.741
 8807SOL    HW227321   5.595   3.249   0.797
 8808SOL     OW27322   1.594   2.197   6.650
 8808SOL    HW127323   1.540   2.253   6.587
 8808SOL    HW227324   1.594   2.238   6.741
 8809SOL     OW27325   0.392   3.778   3.049
 8809SOL    HW127326   0.383   3.684   3.080
 8809SOL    HW227327   0.464   3.824   3.101
 8810SOL     OW27328   0.625   1.118   5.404
 8810SOL    HW127329   0.654   1.126   5.308
 8810SOL    HW227330   0.670   1.188   5.459
 8811SOL     OW27331   4.508   4.596   2.409
 8811SOL    HW127332   4.414   4.606   2.377
 8811SOL    HW227333   4.561   4.544   2.341
 8812SOL     OW27334   4.942   1.121   6.385
 8812SOL    HW127335   4.949   1.132   6.484
 8812SOL    HW227336   5.034   1.105   6.347
 8813SOL     OW27337   2.014   3.774   3.523
 8813SOL    HW127338   2.049   3.706   3.587
 8813SOL    HW227339   2.074   3.778   3.443
 8814SOL     OW27340   4.846   6.899   5.121
 8814SOL    HW127341   4.844   6.811   5.170
 8814SOL    HW227342   4.817   6.972   5.183
 8815SOL     OW27343   5.540   1.131   0.866
 8815SOL    HW127344   5.594   1.189   0.926
 8815SOL    HW227345   5.452   1.112   0.909
 8816SOL     OW27346   0.741   5.818   4.789
 8816SOL    HW127347   0.652   5.792   4.752
 8816SOL    HW227348   0.759   5.768   4.873
 8817SOL     OW27349   1.587   3.322   3.746
 8817SOL    HW127350   1.615   3.308   3.651
 8817SOL    HW227351   1.650   3.273   3.807
 8818SOL     OW27352   0.647   0.171   5.879
 8818SOL    HW127353   0.596   0.154   5.795
 8818SOL    HW227354   0.635   0.265   5.908
 8819SOL     OW27355   5.053   5.089   6.505
 8819SOL    HW127356   5.075   5.090   6.408
 8819SOL    HW227357   5.014   5.177   6.532
 8820SOL     OW27358   3.878   6.932   5.880
 8820SOL    HW127359   3.788   6.900   5.850
 8820SOL    HW227360   3.871   0.005   5.914
 8821SOL     OW27361   0.050   4.598   6.253
 8821SOL    HW127362   0.031   4.558   6.163
 8821SOL    HW227363   0.118   4.542   6.300
 8822SOL     OW27364   6.132   0.693   4.279
 8822SOL    HW127365   6.215   0.707   4.333
 8822SOL    HW227366   6.151   0.630   4.203
 8823SOL     OW27367   3.505   1.022   2.885
 8823SOL    HW127368   3.491   1.052   2.979
 8823SOL    HW227369   3.570   1.084   2.839
 8824SOL     OW27370   1.101   0.336   2.661
 8824SOL    HW127371   1.039   0.258   2.662
 8824SOL    HW227372   1.054   0.417   2.626
 8825SOL     OW27373   0.177   0.114   0.508
 8825SOL    HW127374   0.225   0.201   0.524
 8825SOL    HW227375   0.216   0.044   0.566
 8826SOL     OW27376   0.910   4.357   0.905
 8826SOL    HW127377   0.835   4.291   0.899
 8826SOL    HW227378   0.960   4.358   0.819
 8827SOL     OW27379   4.748   0.372   3.101
 8827SOL    HW127380   4.719   0.301   3.036
 8827SOL    HW227381   4.667   0.417   3.140
 8828SOL     OW27382   5.382   2.588   6.391
 8828SOL    HW127383   5.386   2.496   6.353
 8828SOL    HW227384   5.288   2.608   6.420
 8829SOL     OW27385   6.748   0.820   2.033
 8829SOL    HW127386   6.781   0.837   1.940
 8829SOL    HW227387   6.712   0.726   2.039
 8830SOL     OW27388   3.415   0.750   3.218
 8830SOL    HW127389   3.352   0.826   3.234
 8830SOL    HW227390   3.452   0.756   3.126
 8831SOL     OW27391   0.321   3.008   1.922
 8831SOL    HW127392   0.325   3.097   1.967
 8831SOL    HW227393   0.273   2.943   1.980
 8832SOL     OW27394   5.492   0.478   5.347
 8832SOL    HW127395   5.476   0.468   5.446
 8832SOL    HW227396   5.406   0.470   5.298
 8833SOL     OW27397   5.194   2.294   1.609
 8833SOL    HW127398   5.136   2.349   1.669
 8833SOL    HW227399   5.191   2.198   1.637
 8834SOL     OW27400   5.960   3.842   5.617
 8834SOL    HW127401   5.910   3.841   5.531
 8834SOL    HW227402   6.019   3.923   5.621
 8835SOL     OW27403   6.731   0.977   5.510
 8835SOL    HW127404   6.632   0.968   5.520
 8835SOL    HW227405   6.770   0.889   5.482
 8836SOL     OW27406   4.663   1.346   1.451
 8836SOL    HW127407   4.686   1.429   1.400
 8836SOL    HW227408   4.577   1.310   1.418
 8837SOL     OW27409   3.561   6.388   0.617
 8837SOL    HW127410   3.632   6.408   0.549
 8837SOL    HW227411   3.548   6.289   0.622
 8838SOL     OW27412   1.741   3.889   4.116
 8838SOL    HW127413   1.816   3.948   4.145
 8838SOL    HW227414   1.691   3.933   4.041
 8839SOL     OW27415   5.236   5.891   2.490
 8839SOL    HW127416   5.321   5.927   2.452
 8839SOL    HW227417   5.190   5.835   2.420
 8840SOL     OW27418   6.600   0.685   0.851
 8840SOL    HW127419   6.577   0.636   0.767
 8840SOL    HW227420   6.694   0.719   0.846
 8841SOL     OW27421   3.601   0.670   0.794
 8841SOL    HW127422   3.527   0.615   0.757
 8841SOL    HW227423   3.677   0.610   0.821
 8842SOL     OW27424   3.646   3.876   4.556
 8842SOL    HW127425   3.669   3.805   4.489
 8842SOL    HW227426   3.549   3.871   4.579
 8843SOL     OW27427   2.794   6.035   6.730
 8843SOL    HW127428   2.799   6.129   6.695
 8843SOL    HW227429   2.726   6.031   6.803
 8844SOL     OW27430   3.441   2.436   6.191
 8844SOL    HW127431   3.444   2.522   6.139
 8844SOL    HW227432   3.390   2.451   6.276
 8845SOL     OW27433   0.246   3.693   2.230
 8845SOL    HW127434   0.308   3.640   2.289
 8845SOL    HW227435   0.179   3.632   2.188
 8846SOL     OW27436   5.642   3.718   4.508
 8846SOL    HW127437   5.692   3.795   4.548
 8846SOL    HW227438   5.602   3.747   4.421
 8847SOL     OW27439   1.829   2.229   3.361
 8847SOL    HW127440   1.748   2.190   3.317
 8847SOL    HW227441   1.859   2.169   3.435
 8848SOL     OW27442   5.454   1.107   0.140
 8848SOL    HW127443   5.380   1.173   0.132
 8848SOL    HW227444   5.542   1.155   0.143
 8849SOL     OW27445   2.956   4.944   4.398
 8849SOL    HW127446   2.948   5.043   4.383
 8849SOL    HW227447   2.922   4.921   4.489
 8850SOL     OW27448   3.364   1.339   1.384
 8850SOL    HW127449   3.346   1.272   1.456
 8850SOL    HW227450   3.400   1.423   1.425
 8851SOL     OW27451   6.524   4.655   1.974
 8851SOL    HW127452   6.561   4.601   2.050
 8851SOL    HW227453   6.465   4.597   1.917
 8852SOL     OW27454   4.532   2.472   4.647
 8852SOL    HW127455   4.469   2.444   4.575
 8852SOL    HW227456   4.622   2.430   4.631
 8853SOL     OW27457   4.370   1.771   5.559
 8853SOL    HW127458   4.328   1.846   5.508
 8853SOL    HW227459   4.470   1.775   5.549
 8854SOL     OW27460   1.369   1.279   6.949
 8854SOL    HW127461   1.388   1.377   6.943
 8854SOL    HW227462   1.437   1.228   6.897
 8855SOL     OW27463   6.398   4.781   0.054
 8855SOL    HW127464   6.386   4.823   6.984
 8855SOL    HW227465   6.401   4.682   0.045
 8856SOL     OW27466   5.549   1.258   4.776
 8856SOL    HW127467   5.645   1.279   4.758
 8856SOL    HW227468   5.544   1.175   4.832
 8857SOL     OW27469   6.949   2.437   4.611
 8857SOL    HW127470   6.872   2.496   4.588
 8857SOL    HW227471   6.975   2.382   4.532
 8858SOL     OW27472   6.793   4.035   6.113
 8858SOL    HW127473   6.767   4.029   6.016
 8858SOL    HW227474   6.710   4.039   6.169
 8859SOL     OW27475   2.850   5.056   5.311
 8859SOL    HW127476   2.752   5.060   5.293
 8859SOL    HW227477   2.896   5.008   5.236
 8860SOL     OW27478   1.928   2.570   1.666
 8860SOL    HW127479   1.875   2.539   1.745
 8860SOL    HW227480   1.975   2.492   1.625
 8861SOL     OW27481   2.849   2.924   0.721
 8861SOL    HW127482   2.881   2.831   0.737
 8861SOL    HW227483   2.766   2.922   0.665
 8862SOL     OW27484   6.786   1.978   4.386
 8862SOL    HW127485   6.831   1.998   4.299
 8862SOL    HW227486   6.828   1.897   4.427
 8863SOL     OW27487   1.062   5.659   4.840
 8863SOL    HW127488   1.025   5.748   4.869
 8863SOL    HW227489   1.095   5.666   4.746
 8864SOL     OW27490   1.495   3.231   5.651
 8864SOL    HW127491   1.570   3.191   5.599
 8864SOL    HW227492   1.445   3.296   5.594
 8865SOL     OW27493   2.149   2.091   5.909
 8865SOL    HW127494   2.238   2.054   5.937
 8865SOL    HW227495   2.163   2.169   5.847
 8866SOL     OW27496   4.031   6.545   5.606
 8866SOL    HW127497   3.987   6.634   5.594
 8866SOL    HW227498   4.021   6.491   5.522
 8867SOL     OW27499   6.414   2.141   3.605
 8867SOL    HW127500   6.501   2.122   3.559
 8867SOL    HW227501   6.375   2.055   3.638
 8868SOL     OW27502   4.496   3.618   1.381
 8868SOL    HW127503   4.453   3.586   1.465
 8868SOL    HW227504   4.596   3.612   1.389
 8869SOL     OW27505   4.808   2.984   3.725
 8869SOL    HW127506   4.809   3.052   3.652
 8869SOL    HW227507   4.892   2.991   3.779
 8870SOL     OW27508   3.921   1.206   1.053
 8870SOL    HW127509   3.884   1.139   1.116
 8870SOL    HW227510   3.845   1.256   1.009
 8871SOL     OW27511   1.243   2.083   4.444
 8871SOL    HW127512   1.286   2.079   4.354
 8871SOL    HW227513   1.260   1.997   4.493
 8872SOL     OW27514   1.796   3.353   3.518
 8872SOL    HW127515   1.833   3.311   3.600
 8872SOL    HW227516   1.817   3.297   3.439
 8873SOL     OW27517   6.663   6.572   4.847
 8873SOL    HW127518   6.657   6.485   4.799
 8873SOL    HW227519   6.617   6.643   4.794
 8874SOL     OW27520   1.395   1.632   0.380
 8874SOL    HW127521   1.420   1.637   0.476
 8874SOL    HW227522   1.301   1.601   0.371
 8875SOL     OW27523   1.762   1.234   3.812
 8875SOL    HW127524   1.809   1.158   3.767
 8875SOL    HW227525   1.684   1.262   3.757
 8876SOL     OW27526   2.075   0.462   4.043
 8876SOL    HW127527   2.051   0.384   4.102
 8876SOL    HW227528   2.111   0.536   4.100
 8877SOL     OW27529   3.356   6.292   4.770
 8877SOL    HW127530   3.403   6.262   4.687
 8877SOL    HW227531   3.296   6.370   4.748
 8878SOL     OW27532   5.858   4.693   6.162
 8878SOL    HW127533   5.837   4.784   6.126
 8878SOL    HW227534   5.861   4.627   6.087
 8879SOL     OW27535   4.466   5.664   5.092
 8879SOL    HW127536   4.510   5.749   5.064
 8879SOL    HW227537   4.465   5.658   5.192
 8880SOL     OW27538   0.087   5.398   5.464
 8880SOL    HW127539   0.038   5.409   5.378
 8880SOL    HW227540   0.097   5.300   5.485
 8881SOL     OW27541   6.658   0.782   1.722
 8881SOL    HW127542   6.757   0.787   1.731
 8881SOL    HW227543   6.623   0.871   1.691
 8882SOL     OW27544   6.116   2.021   6.244
 8882SOL    HW127545   6.172   1.943   6.269
 8882SOL    HW227546   6.080   2.064   6.327
 8883SOL     OW27547   6.784   1.195   5.343
 8883SOL    HW127548   6.780   1.111   5.397
 8883SOL    HW227549   6.879   1.227   5.338
 8884SOL     OW27550   6.309   0.777   5.631
 8884SOL    HW127551   6.389   0.745   5.683
 8884SOL    HW227552   6.284   0.708   5.564
 8885SOL     OW27553   5.301   3.552   1.585
 8885SOL    HW127554   5.239   3.601   1.523
 8885SOL    HW227555   5.276   3.456   1.587
 8886SOL     OW27556   3.230   6.420   6.549
 8886SOL    HW127557   3.192   6.337   6.509
 8886SOL    HW227558   3.329   6.422   6.535
 8887SOL     OW27559   1.827   0.596   1.176
 8887SOL    HW127560   1.795   0.667   1.239
 8887SOL    HW227561   1.867   0.640   1.096
 8888SOL     OW27562   3.669   0.973   3.277
 8888SOL    HW127563   3.704   1.002   3.367
 8888SOL    HW227564   3.591   1.031   3.252
 8889SOL     OW27565   3.668   6.534   5.121
 8889SOL    HW127566   3.609   6.614   5.118
 8889SOL    HW227567   3.645   6.473   5.045
 8890SOL     OW27568   1.055   4.748   4.514
 8890SOL    HW127569   1.150   4.767   4.489
 8890SOL    HW227570   1.009   4.834   4.538
 8891SOL     OW27571   2.676   1.893   6.907
 8891SOL    HW127572   2.583   1.916   6.879
 8891SOL    HW227573   2.696   1.934   6.995
 8892SOL     OW27574   1.059   6.759   2.470
 8892SOL    HW127575   1.150   6.718   2.481
 8892SOL    HW227576   1.056   6.811   2.384
 8893SOL     OW27577   0.646   1.491   1.727
 8893SOL    HW127578   0.557   1.448   1.740
 8893SOL    HW227579   0.697   1.489   1.814
 8894SOL     OW27580   3.920   3.586   6.639
 8894SOL    HW127581   3.932   3.623   6.547
 8894SOL    HW227582   3.899   3.661   6.702
 8895SOL     OW27583   0.647   0.309   1.960
 8895SOL    HW127584   0.574   0.367   1.995
 8895SOL    HW227585   0.658   0.230   2.019
 8896SOL     OW27586   2.041   4.050   5.179
 8896SOL    HW127587   2.099   3.995   5.119
 8896SOL    HW227588   2.093   4.127   5.216
 8897SOL     OW27589   1.498   2.327   1.683
 8897SOL    HW127590   1.592   2.306   1.657
 8897SOL    HW227591   1.497   2.370   1.773
 8898SOL     OW27592   6.717   2.797   4.890
 8898SOL    HW127593   6.725   2.699   4.902
 8898SOL    HW227594   6.678   2.838   4.973
 8899SOL     OW27595   2.695   4.174   0.141
 8899SOL    HW127596   2.650   4.187   0.053
 8899SOL    HW227597   2.627   4.184   0.214
 8900SOL     OW27598   5.860   1.909   3.232
 8900SOL    HW127599   5.896   1.970   3.302
 8900SOL    HW227600   5.923   1.832   3.220
 8901SOL     OW27601   2.281   6.366   2.465
 8901SOL    HW127602   2.326   6.278   2.482
 8901SOL    HW227603   2.212   6.355   2.393
 8902SOL     OW27604   1.916   5.257   6.441
 8902SOL    HW127605   1.878   5.287   6.528
 8902SOL    HW227606   1.842   5.226   6.381
 8903SOL     OW27607   0.958   1.900   4.037
 8903SOL    HW127608   0.993   1.899   4.131
 8903SOL    HW227609   0.996   1.978   3.988
 8904SOL     OW27610   0.958   5.393   3.462
 8904SOL    HW127611   0.869   5.356   3.436
 8904SOL    HW227612   0.994   5.341   3.540
 8905SOL     OW27613   2.644   4.134   5.307
 8905SOL    HW127614   2.578   4.071   5.266
 8905SOL    HW227615   2.674   4.097   5.395
 8906SOL     OW27616   1.427   5.061   5.073
 8906SOL    HW127617   1.346   5.034   5.021
 8906SOL    HW227618   1.502   4.998   5.053
 8907SOL     OW27619   4.024   2.837   5.805
 8907SOL    HW127620   3.973   2.866   5.724
 8907SOL    HW227621   4.122   2.836   5.786
 8908SOL     OW27622   0.236   2.810   1.375
 8908SOL    HW127623   0.313   2.800   1.312
 8908SOL    HW227624   0.197   2.902   1.366
 8909SOL     OW27625   3.122   6.580   5.914
 8909SOL    HW127626   3.048   6.562   5.979
 8909SOL    HW227627   3.195   6.512   5.926
 8910SOL     OW27628   3.797   3.891   6.443
 8910SOL    HW127629   3.878   3.891   6.503
 8910SOL    HW227630   3.728   3.953   6.480
 8911SOL     OW27631   3.753   2.151   4.079
 8911SOL    HW127632   3.654   2.154   4.064
 8911SOL    HW227633   3.772   2.157   4.177
 8912SOL     OW27634   5.364   2.350   6.279
 8912SOL    HW127635   5.400   2.342   6.186
 8912SOL    HW227636   5.327   2.262   6.308
 8913SOL     OW27637   4.972   3.719   1.002
 8913SOL    HW127638   5.027   3.637   1.019
 8913SOL    HW227639   4.903   3.728   1.074
 8914SOL     OW27640   4.503   1.987   3.460
 8914SOL    HW127641   4.463   2.039   3.536
 8914SOL    HW227642   4.451   2.005   3.376
 8915SOL     OW27643   1.183   4.768   1.460
 8915SOL    HW127644   1.249   4.730   1.524
 8915SOL    HW227645   1.128   4.838   1.507
 8916SOL     OW27646   0.039   3.810   1.942
 8916SOL    HW127647   0.040   3.857   1.854
 8916SOL    HW227648   7.015   3.721   1.931
 8917SOL     OW27649   6.072   5.515   5.837
 8917SOL    HW127650   6.056   5.613   5.830
 8917SOL    HW227651   6.119   5.495   5.923
 8918SOL     OW27652   4.606   4.738   6.417
 8918SOL    HW127653   4.640   4.653   6.375
 8918SOL    HW227654   4.682   4.800   6.433
 8919SOL     OW27655   2.199   3.884   1.484
 8919SOL    HW127656   2.137   3.907   1.409
 8919SOL    HW227657   2.162   3.920   1.570
 8920SOL     OW27658   6.355   5.674   5.704
 8920SOL    HW127659   6.381   5.768   5.680
 8920SOL    HW227660   6.325   5.626   5.622
 8921SOL     OW27661   1.751   6.367   3.444
 8921SOL    HW127662   1.677   6.349   3.379
 8921SOL    HW227663   1.758   6.292   3.509
 8922SOL     OW27664   6.371   4.347   0.378
 8922SOL    HW127665   6.422   4.394   0.451
 8922SOL    HW227666   6.414   4.259   0.359
 8923SOL     OW27667   1.528   4.174   5.227
 8923SOL    HW127668   1.600   4.143   5.165
 8923SOL    HW227669   1.467   4.097   5.247
 8924SOL     OW27670   2.590   5.959   5.346
 8924SOL    HW127671   2.633   5.952   5.256
 8924SOL    HW227672   2.491   5.948   5.336
 8925SOL     OW27673   5.978   6.490   1.664
 8925SOL    HW127674   6.001   6.521   1.756
 8925SOL    HW227675   5.947   6.567   1.609
 8926SOL     OW27676   6.103   1.395   0.281
 8926SOL    HW127677   6.086   1.344   0.196
 8926SOL    HW227678   6.063   1.345   0.358
 8927SOL     OW27679   2.682   1.849   5.075
 8927SOL    HW127680   2.722   1.899   5.152
 8927SOL    HW227681   2.588   1.878   5.061
 8928SOL     OW27682   0.406   6.721   5.128
 8928SOL    HW127683   0.441   6.807   5.091
 8928SOL    HW227684   0.337   6.740   5.198
 8929SOL     OW27685   5.577   3.433   4.527
 8929SOL    HW127686   5.599   3.525   4.557
 8929SOL    HW227687   5.483   3.430   4.494
 8930SOL     OW27688   1.134   4.801   5.055
 8930SOL    HW127689   1.083   4.811   5.140
 8930SOL    HW227690   1.142   4.891   5.010
 8931SOL     OW27691   5.613   1.396   1.286
 8931SOL    HW127692   5.679   1.437   1.349
 8931SOL    HW227693   5.548   1.340   1.339
 8932SOL     OW27694   6.902   0.803   6.788
 8932SOL    HW127695   6.909   0.709   6.822
 8932SOL    HW227696   6.897   0.866   6.866
 8933SOL     OW27697   2.042   6.934   5.835
 8933SOL    HW127698   2.141   6.943   5.830
 8933SOL    HW227699   2.001   6.959   5.747
 8934SOL     OW27700   4.802   6.779   2.986
 8934SOL    HW127701   4.840   6.702   2.934
 8934SOL    HW227702   4.771   6.850   2.923
 8935SOL     OW27703   5.403   2.851   3.620
 8935SOL    HW127704   5.474   2.787   3.591
 8935SOL    HW227705   5.317   2.828   3.575
 8936SOL     OW27706   1.914   4.674   2.882
 8936SOL    HW127707   1.915   4.637   2.789
 8936SOL    HW227708   1.837   4.636   2.933
 8937SOL     OW27709   4.889   7.018   5.813
 8937SOL    HW127710   4.913   6.979   5.901
 8937SOL    HW227711   4.857   6.945   5.752
 8938SOL     OW27712   5.452   6.609   2.249
 8938SOL    HW127713   5.528   6.653   2.202
 8938SOL    HW227714   5.466   6.614   2.348
 8939SOL     OW27715   0.200   2.988   3.807
 8939SOL    HW127716   0.224   2.924   3.880
 8939SOL    HW227717   0.133   3.054   3.841
 8940SOL     OW27718   6.454   2.945   1.120
 8940SOL    HW127719   6.477   2.895   1.037
 8940SOL    HW227720   6.376   2.901   1.165
 8941SOL     OW27721   4.674   2.699   2.011
 8941SOL    HW127722   4.693   2.738   2.102
 8941SOL    HW227723   4.707   2.761   1.940
 8942SOL     OW27724   5.595   3.937   4.308
 8942SOL    HW127725   5.577   4.024   4.354
 8942SOL    HW227726   5.674   3.947   4.247
 8943SOL     OW27727   4.772   3.697   1.205
 8943SOL    HW127728   4.771   3.633   1.281
 8943SOL    HW227729   4.709   3.666   1.134
 8944SOL     OW27730   5.120   4.984   5.085
 8944SOL    HW127731   5.030   4.949   5.059
 8944SOL    HW227732   5.126   4.992   5.185
 8945SOL     OW27733   5.395   4.156   3.305
 8945SOL    HW127734   5.412   4.059   3.286
 8945SOL    HW227735   5.319   4.164   3.370
 8946SOL     OW27736   5.139   1.192   5.273
 8946SOL    HW127737   5.073   1.229   5.339
 8946SOL    HW227738   5.171   1.265   5.213
 8947SOL     OW27739   1.894   5.072   6.756
 8947SOL    HW127740   1.993   5.081   6.753
 8947SOL    HW227741   1.866   4.988   6.709
 8948SOL     OW27742   4.749   1.404   2.863
 8948SOL    HW127743   4.736   1.481   2.801
 8948SOL    HW227744   4.740   1.318   2.812
 8949SOL     OW27745   4.008   6.076   1.043
 8949SOL    HW127746   3.980   5.991   1.089
 8949SOL    HW227747   3.930   6.137   1.036
 8950SOL     OW27748   4.180   3.503   1.126
 8950SOL    HW127749   4.111   3.476   1.194
 8950SOL    HW227750   4.188   3.603   1.127
 8951SOL     OW27751   1.427   0.343   4.640
 8951SOL    HW127752   1.469   0.254   4.658
 8951SOL    HW227753   1.367   0.368   4.715
 8952SOL     OW27754   1.589   4.801   3.879
 8952SOL    HW127755   1.535   4.884   3.865
 8952SOL    HW227756   1.665   4.821   3.942
 8953SOL     OW27757   0.975   4.987   1.086
 8953SOL    HW127758   0.985   5.043   1.168
 8953SOL    HW227759   0.888   5.009   1.041
 8954SOL     OW27760   2.795   4.360   5.852
 8954SOL    HW127761   2.798   4.459   5.860
 8954SOL    HW227762   2.704   4.332   5.820
 8955SOL     OW27763   5.003   2.571   4.825
 8955SOL    HW127764   5.010   2.668   4.801
 8955SOL    HW227765   4.927   2.558   4.889
 8956SOL     OW27766   0.669   6.314   0.135
 8956SOL    HW127767   0.597   6.271   0.190
 8956SOL    HW227768   0.757   6.272   0.155
 8957SOL     OW27769   0.167   6.121   2.732
 8957SOL    HW127770   0.160   6.175   2.648
 8957SOL    HW227771   0.181   6.183   2.810
 8958SOL     OW27772   1.623   3.138   5.011
 8958SOL    HW127773   1.675   3.077   5.071
 8958SOL    HW227774   1.680   3.216   4.985
 8959SOL     OW27775   6.056   2.478   3.360
 8959SOL    HW127776   6.089   2.426   3.439
 8959SOL    HW227777   6.041   2.416   3.283
 8960SOL     OW27778   5.207   4.656   2.651
 8960SOL    HW127779   5.116   4.662   2.692
 8960SOL    HW227780   5.241   4.747   2.631
 8961SOL     OW27781   2.439   1.623   5.127
 8961SOL    HW127782   2.480   1.606   5.217
 8961SOL    HW227783   2.414   1.719   5.119
 8962SOL     OW27784   6.650   5.609   1.907
 8962SOL    HW127785   6.734   5.563   1.934
 8962SOL    HW227786   6.608   5.652   1.986
 8963SOL     OW27787   4.255   6.465   6.158
 8963SOL    HW127788   4.242   6.553   6.204
 8963SOL    HW227789   4.222   6.392   6.217
 8964SOL     OW27790   2.230   2.590   4.386
 8964SOL    HW127791   2.316   2.640   4.398
 8964SOL    HW227792   2.175   2.598   4.469
 8965SOL     OW27793   3.784   5.795   6.783
 8965SOL    HW127794   3.811   5.707   6.743
 8965SOL    HW227795   3.770   5.862   6.710
 8966SOL     OW27796   4.831   6.052   4.769
 8966SOL    HW127797   4.837   5.997   4.852
 8966SOL    HW227798   4.858   5.996   4.690
 8967SOL     OW27799   3.440   7.017   3.768
 8967SOL    HW127800   3.442   0.087   3.811
 8967SOL    HW227801   3.355   7.005   3.718
 8968SOL     OW27802   3.404   5.044   2.264
 8968SOL    HW127803   3.407   5.144   2.260
 8968SOL    HW227804   3.390   5.008   2.172
 8969SOL     OW27805   0.676   0.787   2.501
 8969SOL    HW127806   0.743   0.726   2.459
 8969SOL    HW227807   0.589   0.739   2.510
 8970SOL     OW27808   1.979   0.625   3.606
 8970SOL    HW127809   2.059   0.685   3.596
 8970SOL    HW227810   1.916   0.664   3.672
 8971SOL     OW27811   3.052   4.458   0.348
 8971SOL    HW127812   2.962   4.450   0.306
 8971SOL    HW227813   3.069   4.378   0.405
 8972SOL     OW27814   5.746   4.174   6.785
 8972SOL    HW127815   5.774   4.142   6.695
 8972SOL    HW227816   5.660   4.129   6.812
 8973SOL     OW27817   1.589   2.347   3.559
 8973SOL    HW127818   1.644   2.427   3.585
 8973SOL    HW227819   1.622   2.309   3.473
 8974SOL     OW27820   2.494   4.635   4.866
 8974SOL    HW127821   2.555   4.613   4.942
 8974SOL    HW227822   2.468   4.551   4.819
 8975SOL     OW27823   0.183   4.917   5.522
 8975SOL    HW127824   0.161   4.873   5.610
 8975SOL    HW227825   0.253   4.864   5.475
 8976SOL     OW27826   5.744   0.705   2.491
 8976SOL    HW127827   5.799   0.623   2.478
 8976SOL    HW227828   5.707   0.735   2.403
 8977SOL     OW27829   6.438   4.404   6.655
 8977SOL    HW127830   6.452   4.305   6.646
 8977SOL    HW227831   6.380   4.436   6.581
 8978SOL     OW27832   6.189   6.018   0.111
 8978SOL    HW127833   6.263   6.070   0.153
 8978SOL    HW227834   6.141   6.076   0.045
 8979SOL     OW27835   1.218   5.032   4.563
 8979SOL    HW127836   1.122   5.008   4.578
 8979SOL    HW227837   1.231   5.130   4.581
 8980SOL     OW27838   3.334   0.573   7.000
 8980SOL    HW127839   3.312   0.514   0.057
 8980SOL    HW227840   3.407   0.637   0.006
 8981SOL     OW27841   4.550   3.421   6.439
 8981SOL    HW127842   4.637   3.401   6.484
 8981SOL    HW227843   4.568   3.470   6.354
 8982SOL     OW27844   0.329   1.782   2.028
 8982SOL    HW127845   0.285   1.782   2.118
 8982SOL    HW227846   0.301   1.864   1.978
 8983SOL     OW27847   2.059   6.499   1.905
 8983SOL    HW127848   2.046   6.401   1.888
 8983SOL    HW227849   2.004   6.528   1.983
 8984SOL     OW27850   6.571   0.835   4.518
 8984SOL    HW127851   6.603   0.900   4.450
 8984SOL    HW227852   6.631   0.755   4.519
 8985SOL     OW27853   4.851   1.687   1.827
 8985SOL    HW127854   4.772   1.711   1.772
 8985SOL    HW227855   4.879   1.766   1.881
 8986SOL     OW27856   0.025   4.829   0.256
 8986SOL    HW127857   0.102   4.873   0.209
 8986SOL    HW227858   0.056   4.795   0.344
 8987SOL     OW27859   2.298   6.405   1.642
 8987SOL    HW127860   2.336   6.486   1.688
 8987SOL    HW227861   2.201   6.419   1.624
 8988SOL     OW27862   2.770   0.123   1.025
 8988SOL    HW127863   2.818   0.047   0.984
 8988SOL    HW227864   2.803   0.137   1.119
 8989SOL     OW27865   5.156   1.406   2.821
 8989SOL    HW127866   5.105   1.491   2.808
 8989SOL    HW227867   5.110   1.332   2.773
 8990SOL     OW27868   2.954   0.735   2.507
 8990SOL    HW127869   3.007   0.666   2.555
 8990SOL    HW227870   2.879   0.692   2.457
 8991SOL     OW27871   1.335   2.151   0.840
 8991SOL    HW127872   1.266   2.202   0.892
 8991SOL    HW227873   1.396   2.216   0.794
 8992SOL     OW27874   0.131   3.981   6.432
 8992SOL    HW127875   0.043   3.953   6.471
 8992SOL    HW227876   0.156   3.919   6.359
 8993SOL     OW27877   5.181   3.684   4.863
 8993SOL    HW127878   5.255   3.741   4.829
 8993SOL    HW227879   5.217   3.617   4.928
 8994SOL     OW27880   1.153   5.664   2.721
 8994SOL    HW127881   1.091   5.621   2.655
 8994SOL    HW227882   1.220   5.597   2.753
 8995SOL     OW27883   2.077   3.809   5.029
 8995SOL    HW127884   2.101   3.857   4.944
 8995SOL    HW227885   2.113   3.716   5.026
 8996SOL     OW27886   1.376   3.729   1.925
 8996SOL    HW127887   1.310   3.713   1.851
 8996SOL    HW227888   1.436   3.805   1.900
 8997SOL     OW27889   4.393   2.029   5.461
 8997SOL    HW127890   4.480   2.057   5.504
 8997SOL    HW227891   4.407   2.017   5.363
 8998SOL     OW27892   1.104   1.209   6.256
 8998SOL    HW127893   1.010   1.175   6.256
 8998SOL    HW227894   1.107   1.296   6.305
 8999SOL     OW27895   5.032   1.488   5.141
 8999SOL    HW127896   5.005   1.524   5.231
 8999SOL    HW227897   4.950   1.478   5.084
 9000SOL     OW27898   2.539   4.450   0.096
 9000SOL    HW127899   2.576   4.520   0.036
 9000SOL    HW227900   2.587   4.453   0.184
 9001SOL     OW27901   2.170   4.570   3.713
 9001SOL    HW127902   2.124   4.637   3.654
 9001SOL    HW227903   2.238   4.520   3.659
 9002SOL     OW27904   5.231   4.285   5.449
 9002SOL    HW127905   5.227   4.185   5.456
 9002SOL    HW227906   5.300   4.312   5.382
 9003SOL     OW27907   6.240   3.073   6.599
 9003SOL    HW127908   6.152   3.095   6.641
 9003SOL    HW227909   6.263   3.144   6.533
 9004SOL     OW27910   4.606   5.660   0.888
 9004SOL    HW127911   4.659   5.652   0.972
 9004SOL    HW227912   4.625   5.748   0.844
 9005SOL     OW27913   4.349   2.196   2.703
 9005SOL    HW127914   4.423   2.142   2.743
 9005SOL    HW227915   4.386   2.252   2.628
 9006SOL     OW27916   2.344   6.556   0.922
 9006SOL    HW127917   2.269   6.578   0.860
 9006SOL    HW227918   2.380   6.465   0.901
 9007SOL     OW27919   2.092   6.742   4.531
 9007SOL    HW127920   2.160   6.746   4.604
 9007SOL    HW227921   2.113   6.665   4.470
 9008SOL     OW27922   6.918   4.544   2.564
 9008SOL    HW127923   6.934   4.520   2.660
 9008SOL    HW227924   6.819   4.549   2.547
 9009SOL     OW27925   4.351   5.860   0.822
 9009SOL    HW127926   4.412   5.808   0.881
 9009SOL    HW227927   4.311   5.936   0.873
 9010SOL     OW27928   0.592   5.484   5.129
 9010SOL    HW127929   0.624   5.403   5.079
 9010SOL    HW227930   0.495   5.498   5.110
 9011SOL     OW27931   4.132   2.105   1.866
 9011SOL    HW127932   4.042   2.115   1.823
 9011SOL    HW227933   4.188   2.042   1.811
 9012SOL     OW27934   5.801   5.280   1.874
 9012SOL    HW127935   5.837   5.303   1.783
 9012SOL    HW227936   5.845   5.338   1.943
 9013SOL     OW27937   4.510   5.801   2.574
 9013SOL    HW127938   4.581   5.833   2.637
 9013SOL    HW227939   4.518   5.703   2.561
 9014SOL     OW27940   2.614   0.675   0.929
 9014SOL    HW127941   2.690   0.655   0.990
 9014SOL    HW227942   2.626   0.766   0.890
 9015SOL     OW27943   6.647   1.268   4.893
 9015SOL    HW127944   6.738   1.304   4.872
 9015SOL    HW227945   6.627   1.191   4.832
 9016SOL     OW27946   6.710   5.664   6.605
 9016SOL    HW127947   6.670   5.754   6.587
 9016SOL    HW227948   6.807   5.674   6.625
 9017SOL     OW27949   0.217   4.317   3.586
 9017SOL    HW127950   0.292   4.260   3.552
 9017SOL    HW227951   0.134   4.298   3.532
 9018SOL     OW27952   3.551   1.636   6.238
 9018SOL    HW127953   3.452   1.622   6.240
 9018SOL    HW227954   3.585   1.643   6.332
 9019SOL     OW27955   1.419   5.673   0.561
 9019SOL    HW127956   1.475   5.647   0.640
 9019SOL    HW227957   1.448   5.622   0.481
 9020SOL     OW27958   0.317   4.814   2.970
 9020SOL    HW127959   0.324   4.884   2.900
 9020SOL    HW227960   0.407   4.774   2.988
 9021SOL     OW27961   6.660   5.929   5.311
 9021SOL    HW127962   6.719   5.954   5.235
 9021SOL    HW227963   6.570   5.972   5.300
 9022SOL     OW27964   3.590   1.217   6.630
 9022SOL    HW127965   3.539   1.228   6.545
 9022SOL    HW227966   3.546   1.149   6.688
 9023SOL     OW27967   3.132   3.229   2.911
 9023SOL    HW127968   3.082   3.207   2.994
 9023SOL    HW227969   3.080   3.294   2.856
 9024SOL     OW27970   1.198   0.603   6.610
 9024SOL    HW127971   1.239   0.616   6.520
 9024SOL    HW227972   1.268   0.574   6.675
 9025SOL     OW27973   0.295   3.947   0.721
 9025SOL    HW127974   0.219   3.893   0.757
 9025SOL    HW227975   0.380   3.915   0.762
 9026SOL     OW27976   3.264   3.022   5.661
 9026SOL    HW127977   3.202   3.068   5.597
 9026SOL    HW227978   3.277   3.079   5.742
 9027SOL     OW27979   2.444   2.569   2.910
 9027SOL    HW127980   2.410   2.653   2.869
 9027SOL    HW227981   2.374   2.530   2.970
 9028SOL     OW27982   2.583   5.126   5.218
 9028SOL    HW127983   2.499   5.111   5.271
 9028SOL    HW227984   2.584   5.064   5.140
 9029SOL     OW27985   4.844   5.468   2.975
 9029SOL    HW127986   4.911   5.466   2.901
 9029SOL    HW227987   4.880   5.421   3.055
 9030SOL     OW27988   3.182   1.788   1.752
 9030SOL    HW127989   3.208   1.695   1.776
 9030SOL    HW227990   3.252   1.852   1.785
 9031SOL     OW27991   1.740   1.489   1.415
 9031SOL    HW127992   1.717   1.559   1.347
 9031SOL    HW227993   1.700   1.514   1.504
 9032SOL     OW27994   1.254   2.505   2.984
 9032SOL    HW127995   1.163   2.468   3.000
 9032SOL    HW227996   1.246   2.595   2.941
 9033SOL     OW27997   1.472   3.606   2.665
 9033SOL    HW127998   1.377   3.598   2.696
 9033SOL    HW227999   1.532   3.625   2.743
 9034SOL     OW28000   1.108   0.154   5.998
 9034SOL    HW128001   1.199   0.174   6.035
 9034SOL    HW228002   1.039   0.198   6.055
 9035SOL     OW28003   6.742   0.344   4.418
 9035SOL    HW128004   6.755   0.375   4.323
 9035SOL    HW228005   6.761   0.420   4.480
 9036SOL     OW28006   1.217   1.431   5.079
 9036SOL    HW128007   1.230   1.524   5.112
 9036SOL    HW228008   1.306   1.392   5.054
 9037SOL     OW28009   2.863   3.889   5.503
 9037SOL    HW128010   2.902   3.893   5.411
 9037SOL    HW228011   2.895   3.968   5.555
 9038SOL     OW28012   5.191   6.635   5.703
 9038SOL    HW128013   5.239   6.573   5.641
 9038SOL    HW228014   5.239   6.638   5.791
 9039SOL     OW28015   2.194   4.736   6.601
 9039SOL    HW128016   2.100   4.770   6.603
 9039SOL    HW228017   2.257   4.814   6.590
 9040SOL     OW28018   2.595   1.719   1.948
 9040SOL    HW128019   2.530   1.787   1.916
 9040SOL    HW228020   2.582   1.703   2.046
 9041SOL     OW28021   1.623   3.063   6.967
 9041SOL    HW128022   1.672   3.150   6.971
 9041SOL    HW228023   1.633   3.023   6.875
 9042SOL     OW28024   2.137   5.460   3.077
 9042SOL    HW128025   2.111   5.441   2.982
 9042SOL    HW228026   2.127   5.558   3.095
 9043SOL     OW28027   6.684   2.532   0.656
 9043SOL    HW128028   6.693   2.438   0.625
 9043SOL    HW228029   6.724   2.541   0.747
 9044SOL     OW28030   6.325   4.773   0.909
 9044SOL    HW128031   6.329   4.738   1.003
 9044SOL    HW228032   6.231   4.769   0.875
 9045SOL     OW28033   2.990   5.775   3.929
 9045SOL    HW128034   2.917   5.710   3.947
 9045SOL    HW228035   2.987   5.802   3.833
 9046SOL     OW28036   3.621   4.442   6.018
 9046SOL    HW128037   3.704   4.474   5.973
 9046SOL    HW228038   3.636   4.436   6.117
 9047SOL     OW28039   1.380   4.661   5.141
 9047SOL    HW128040   1.310   4.703   5.082
 9047SOL    HW228041   1.408   4.727   5.211
 9048SOL     OW28042   1.584   1.986   5.493
 9048SOL    HW128043   1.581   2.049   5.571
 9048SOL    HW228044   1.605   2.037   5.410
 9049SOL     OW28045   5.327   6.184   6.312
 9049SOL    HW128046   5.352   6.190   6.408
 9049SOL    HW228047   5.264   6.108   6.298
 9050SOL     OW28048   0.082   5.735   5.383
 9050SOL    HW128049   0.087   5.824   5.338
 9050SOL    HW228050   0.130   5.666   5.328
 9051SOL     OW28051   5.406   6.706   6.197
 9051SOL    HW128052   5.379   6.614   6.225
 9051SOL    HW228053   5.506   6.714   6.202
 9052SOL     OW28054   2.348   5.104   4.948
 9052SOL    HW128055   2.384   5.027   4.895
 9052SOL    HW228056   2.249   5.093   4.959
 9053SOL     OW28057   2.981   1.676   3.688
 9053SOL    HW128058   2.939   1.641   3.605
 9053SOL    HW228059   3.077   1.647   3.693
 9054SOL     OW28060   3.995   0.042   0.772
 9054SOL    HW128061   3.964   0.024   0.865
 9054SOL    HW228062   3.917   0.041   0.710
 9055SOL     OW28063   0.802   1.413   4.857
 9055SOL    HW128064   0.826   1.503   4.819
 9055SOL    HW228065   0.736   1.424   4.931
 9056SOL     OW28066   5.209   1.841   2.564
 9056SOL    HW128067   5.206   1.904   2.641
 9056SOL    HW228068   5.269   1.877   2.493
 9057SOL     OW28069   4.804   6.450   6.986
 9057SOL    HW128070   4.713   6.433   6.948
 9057SOL    HW228071   4.872   6.445   6.913
 9058SOL     OW28072   2.489   2.276   4.139
 9058SOL    HW128073   2.571   2.236   4.179
 9058SOL    HW228074   2.500   2.375   4.132
 9059SOL     OW28075   6.844   0.485   2.525
 9059SOL    HW128076   6.884   0.511   2.613
 9059SOL    HW228077   6.895   0.530   2.452
 9060SOL     OW28078   0.777   5.780   1.679
 9060SOL    HW128079   0.816   5.832   1.603
 9060SOL    HW228080   0.678   5.772   1.666
 9061SOL     OW28081   5.991   4.143   2.743
 9061SOL    HW128082   6.047   4.219   2.710
 9061SOL    HW228083   5.935   4.107   2.668
 9062SOL     OW28084   0.576   6.114   2.958
 9062SOL    HW128085   0.598   6.053   2.881
 9062SOL    HW228086   0.486   6.089   2.995
 9063SOL     OW28087   4.510   2.238   1.786
 9063SOL    HW128088   4.529   2.214   1.882
 9063SOL    HW228089   4.493   2.336   1.779
 9064SOL     OW28090   0.599   5.740   2.951
 9064SOL    HW128091   0.672   5.681   2.915
 9064SOL    HW228092   0.579   5.812   2.886
 9065SOL     OW28093   3.076   4.171   5.860
 9065SOL    HW128094   3.088   4.269   5.848
 9065SOL    HW228095   3.008   4.155   5.932
 9066SOL     OW28096   4.897   5.194   4.441
 9066SOL    HW128097   4.897   5.293   4.426
 9066SOL    HW228098   4.803   5.161   4.449
 9067SOL     OW28099   0.951   5.995   4.486
 9067SOL    HW128100   0.851   6.001   4.475
 9067SOL    HW228101   0.992   6.083   4.461
 9068SOL     OW28102   4.446   6.989   6.303
 9068SOL    HW128103   4.428   7.001   6.401
 9068SOL    HW228104   4.364   6.953   6.258
 9069SOL     OW28105   5.224   2.427   0.913
 9069SOL    HW128106   5.251   2.510   0.963
 9069SOL    HW228107   5.232   2.348   0.973
 9070SOL     OW28108   2.101   1.507   5.761
 9070SOL    HW128109   2.161   1.544   5.690
 9070SOL    HW228110   2.016   1.561   5.764
 9071SOL     OW28111   5.442   2.491   6.676
 9071SOL    HW128112   5.367   2.427   6.662
 9071SOL    HW228113   5.444   2.556   6.600
 9072SOL     OW28114   5.248   0.501   2.956
 9072SOL    HW128115   5.278   0.474   3.047
 9072SOL    HW228116   5.150   0.487   2.947
 9073SOL     OW28117   4.648   2.197   4.923
 9073SOL    HW128118   4.548   2.206   4.929
 9073SOL    HW228119   4.686   2.196   5.015
 9074SOL     OW28120   1.666   1.146   2.190
 9074SOL    HW128121   1.613   1.228   2.209
 9074SOL    HW228122   1.702   1.109   2.276
 9075SOL     OW28123   6.188   6.002   0.471
 9075SOL    HW128124   6.170   6.100   0.465
 9075SOL    HW228125   6.115   5.951   0.425
 9076SOL     OW28126   6.679   6.998   2.368
 9076SOL    HW128127   6.666   0.074   2.388
 9076SOL    HW228128   6.604   6.945   2.407
 9077SOL     OW28129   6.774   1.611   6.304
 9077SOL    HW128130   6.807   1.666   6.227
 9077SOL    HW228131   6.815   1.519   6.299
 9078SOL     OW28132   5.374   6.736   0.104
 9078SOL    HW128133   5.444   6.800   0.137
 9078SOL    HW228134   5.368   6.658   0.165
 9079SOL     OW28135   1.480   1.522   6.923
 9079SOL    HW128136   1.543   1.596   6.944
 9079SOL    HW228137   1.479   1.506   6.824
 9080SOL     OW28138   6.469   3.468   2.059
 9080SOL    HW128139   6.499   3.563   2.073
 9080SOL    HW228140   6.540   3.406   2.092
 9081SOL     OW28141   5.084   1.026   0.351
 9081SOL    HW128142   5.107   1.075   0.436
 9081SOL    HW228143   4.986   1.005   0.351
 9082SOL     OW28144   3.559   5.725   5.710
 9082SOL    HW128145   3.530   5.820   5.723
 9082SOL    HW228146   3.628   5.702   5.778
 9083SOL     OW28147   4.049   5.624   6.920
 9083SOL    HW128148   3.984   5.692   6.954
 9083SOL    HW228149   4.142   5.657   6.932
 9084SOL     OW28150   6.797   2.947   5.688
 9084SOL    HW128151   6.844   2.976   5.605
 9084SOL    HW228152   6.833   2.997   5.767
 9085SOL     OW28153   2.504   4.928   6.988
 9085SOL    HW128154   2.516   4.984   0.050
 9085SOL    HW228155   2.573   4.953   6.920
 9086SOL     OW28156   0.208   4.736   1.044
 9086SOL    HW128157   0.167   4.742   0.952
 9086SOL    HW228158   0.145   4.689   1.105
 9087SOL     OW28159   5.966   0.719   1.206
 9087SOL    HW128160   5.867   0.737   1.206
 9087SOL    HW228161   5.998   0.712   1.111
 9088SOL     OW28162   6.458   6.326   0.857
 9088SOL    HW128163   6.371   6.334   0.906
 9088SOL    HW228164   6.533   6.330   0.923
 9089SOL     OW28165   5.302   5.420   3.622
 9089SOL    HW128166   5.278   5.391   3.715
 9089SOL    HW228167   5.400   5.441   3.618
 9090SOL     OW28168   5.058   6.286   5.728
 9090SOL    HW128169   5.149   6.326   5.726
 9090SOL    HW228170   5.008   6.311   5.645
 9091SOL     OW28171   2.165   1.513   1.635
 9091SOL    HW128172   2.201   1.606   1.645
 9091SOL    HW228173   2.228   1.448   1.676
 9092SOL     OW28174   1.904   1.330   5.575
 9092SOL    HW128175   1.877   1.244   5.617
 9092SOL    HW228176   2.003   1.329   5.557
 9093SOL     OW28177   1.764   3.920   0.655
 9093SOL    HW128178   1.732   3.832   0.622
 9093SOL    HW228179   1.698   3.991   0.633
 9094SOL     OW28180   0.008   4.323   1.760
 9094SOL    HW128181   0.087   4.298   1.705
 9094SOL    HW228182   0.034   4.393   1.826
 9095SOL     OW28183   3.332   2.929   6.991
 9095SOL    HW128184   3.252   2.984   6.966
 9095SOL    HW228185   3.401   2.935   6.919
 9096SOL     OW28186   5.120   3.028   3.057
 9096SOL    HW128187   5.177   3.107   3.081
 9096SOL    HW228188   5.176   2.960   3.009
 9097SOL     OW28189   0.907   5.049   6.739
 9097SOL    HW128190   0.853   5.083   6.817
 9097SOL    HW228191   0.871   4.961   6.710
 9098SOL     OW28192   3.991   3.831   3.222
 9098SOL    HW128193   3.975   3.877   3.309
 9098SOL    HW228194   4.032   3.742   3.239
 9099SOL     OW28195   2.072   3.423   0.820
 9099SOL    HW128196   2.163   3.462   0.814
 9099SOL    HW228197   2.068   3.359   0.898
 9100SOL     OW28198   0.697   3.224   1.212
 9100SOL    HW128199   0.786   3.262   1.187
 9100SOL    HW228200   0.681   3.237   1.310
 9101SOL     OW28201   2.217   2.578   0.968
 9101SOL    HW128202   2.274   2.656   0.941
 9101SOL    HW228203   2.262   2.527   1.041
 9102SOL     OW28204   3.677   5.334   2.687
 9102SOL    HW128205   3.588   5.370   2.715
 9102SOL    HW228206   3.749   5.400   2.711
 9103SOL     OW28207   0.330   3.829   0.005
 9103SOL    HW128208   0.396   3.891   0.047
 9103SOL    HW228209   0.265   3.881   6.970
 9104SOL     OW28210   4.317   6.440   1.383
 9104SOL    HW128211   4.338   6.514   1.319
 9104SOL    HW228212   4.227   6.457   1.424
 9105SOL     OW28213   1.860   1.951   5.852
 9105SOL    HW128214   1.857   2.030   5.791
 9105SOL    HW228215   1.942   1.957   5.909
 9106SOL     OW28216   6.850   5.065   1.012
 9106SOL    HW128217   6.797   5.136   1.057
 9106SOL    HW228218   6.867   4.990   1.077
 9107SOL     OW28219   4.416   0.533   1.274
 9107SOL    HW128220   4.345   0.465   1.291
 9107SOL    HW228221   4.395   0.616   1.325
 9108SOL     OW28222   4.521   5.387   5.964
 9108SOL    HW128223   4.470   5.445   6.028
 9108SOL    HW228224   4.530   5.295   6.002
 9109SOL     OW28225   3.261   2.064   3.889
 9109SOL    HW128226   3.195   2.099   3.822
 9109SOL    HW228227   3.213   2.020   3.964
 9110SOL     OW28228   1.569   3.912   3.878
 9110SOL    HW128229   1.663   3.889   3.854
 9110SOL    HW228230   1.509   3.835   3.856
 9111SOL     OW28231   3.726   4.252   1.794
 9111SOL    HW128232   3.660   4.326   1.778
 9111SOL    HW228233   3.714   4.181   1.724
 9112SOL     OW28234   6.961   5.099   2.107
 9112SOL    HW128235   6.951   5.182   2.161
 9112SOL    HW228236   6.938   5.020   2.164
 9113SOL     OW28237   4.074   6.523   0.318
 9113SOL    HW128238   4.035   6.431   0.317
 9113SOL    HW228239   4.014   6.585   0.267
 9114SOL     OW28240   2.577   4.520   1.756
 9114SOL    HW128241   2.668   4.557   1.737
 9114SOL    HW228242   2.544   4.557   1.843
 9115SOL     OW28243   1.639   4.712   4.936
 9115SOL    HW128244   1.582   4.667   5.005
 9115SOL    HW228245   1.649   4.809   4.960
 9116SOL     OW28246   0.595   1.217   6.003
 9116SOL    HW128247   0.680   1.176   6.037
 9116SOL    HW228248   0.534   1.236   6.079
 9117SOL     OW28249   6.588   2.351   0.014
 9117SOL    HW128250   6.520   2.284   7.003
 9117SOL    HW228251   6.672   2.341   6.981
 9118SOL     OW28252   6.334   6.430   1.937
 9118SOL    HW128253   6.408   6.445   2.002
 9118SOL    HW228254   6.370   6.385   1.855
 9119SOL     OW28255   6.729   0.413   1.661
 9119SOL    HW128256   6.797   0.460   1.605
 9119SOL    HW228257   6.695   0.476   1.731
 9120SOL     OW28258   5.457   1.279   6.212
 9120SOL    HW128259   5.458   1.344   6.136
 9120SOL    HW228260   5.513   1.315   6.287
 9121SOL     OW28261   0.977   1.038   6.575
 9121SOL    HW128262   1.045   1.109   6.556
 9121SOL    HW228263   1.023   0.953   6.597
 9122SOL     OW28264   1.333   2.662   2.235
 9122SOL    HW128265   1.275   2.585   2.262
 9122SOL    HW228266   1.424   2.650   2.275
 9123SOL     OW28267   2.312   5.547   6.926
 9123SOL    HW128268   2.332   5.449   6.915
 9123SOL    HW228269   2.311   5.592   6.837
 9124SOL     OW28270   6.638   5.589   5.316
 9124SOL    HW128271   6.701   5.628   5.383
 9124SOL    HW228272   6.662   5.493   5.299
 9125SOL     OW28273   4.682   4.868   3.946
 9125SOL    HW128274   4.690   4.772   3.921
 9125SOL    HW228275   4.772   4.912   3.938
 9126SOL     OW28276   6.052   0.712   1.490
 9126SOL    HW128277   6.020   0.772   1.562
 9126SOL    HW228278   6.019   0.746   1.401
 9127SOL     OW28279   5.212   0.653   0.048
 9127SOL    HW128280   5.265   0.633   6.985
 9127SOL    HW228281   5.250   0.733   0.094
 9128SOL     OW28282   4.144   2.026   4.939
 9128SOL    HW128283   4.134   2.106   4.881
 9128SOL    HW228284   4.098   1.948   4.896
 9129SOL     OW28285   2.085   1.755   6.548
 9129SOL    HW128286   2.046   1.663   6.542
 9129SOL    HW228287   2.132   1.777   6.463
 9130SOL     OW28288   6.008   4.455   0.766
 9130SOL    HW128289   6.084   4.466   0.701
 9130SOL    HW228290   6.044   4.426   0.855
 9131SOL     OW28291   0.964   4.314   4.607
 9131SOL    HW128292   1.033   4.245   4.587
 9131SOL    HW228293   1.009   4.398   4.637
 9132SOL     OW28294   0.064   2.998   4.342
 9132SOL    HW128295   0.164   3.002   4.332
 9132SOL    HW228296   0.039   2.913   4.388
 9133SOL     OW28297   2.250   4.179   1.226
 9133SOL    HW128298   2.339   4.138   1.208
 9133SOL    HW228299   2.187   4.110   1.262
 9134SOL     OW28300   2.873   5.810   6.560
 9134SOL    HW128301   2.893   5.872   6.484
 9134SOL    HW228302   2.859   5.862   6.644
 9135SOL     OW28303   6.657   5.991   4.271
 9135SOL    HW128304   6.742   5.951   4.305
 9135SOL    HW228305   6.614   5.927   4.207
 9136SOL     OW28306   4.526   5.134   5.789
 9136SOL    HW128307   4.612   5.084   5.798
 9136SOL    HW228308   4.500   5.172   5.877
 9137SOL     OW28309   4.298   1.193   1.575
 9137SOL    HW128310   4.352   1.115   1.606
 9137SOL    HW228311   4.312   1.207   1.477
 9138SOL     OW28312   4.833   5.269   6.301
 9138SOL    HW128313   4.784   5.342   6.254
 9138SOL    HW228314   4.790   5.181   6.283
 9139SOL     OW28315   3.338   1.432   5.389
 9139SOL    HW128316   3.374   1.427   5.482
 9139SOL    HW228317   3.255   1.487   5.388
 9140SOL     OW28318   6.860   2.301   3.020
 9140SOL    HW128319   6.878   2.299   2.922
 9140SOL    HW228320   6.933   2.253   3.069
 9141SOL     OW28321   5.337   0.106   5.812
 9141SOL    HW128322   5.417   0.121   5.869
 9141SOL    HW228323   5.362   0.051   5.732
 9142SOL     OW28324   0.238   3.132   6.023
 9142SOL    HW128325   0.235   3.094   5.930
 9142SOL    HW228326   0.188   3.072   6.085
 9143SOL     OW28327   4.913   3.658   0.604
 9143SOL    HW128328   5.003   3.687   0.637
 9143SOL    HW228329   4.843   3.715   0.647
 9144SOL     OW28330   2.474   5.585   5.711
 9144SOL    HW128331   2.380   5.618   5.715
 9144SOL    HW228332   2.532   5.653   5.667
 9145SOL     OW28333   0.140   4.600   6.615
 9145SOL    HW128334   0.202   4.677   6.628
 9145SOL    HW228335   0.174   4.542   6.541
 9146SOL     OW28336   5.985   2.788   1.334
 9146SOL    HW128337   5.930   2.825   1.259
 9146SOL    HW228338   5.972   2.689   1.341
 9147SOL     OW28339   4.376   5.596   4.757
 9147SOL    HW128340   4.368   5.644   4.845
 9147SOL    HW228341   4.454   5.632   4.707
 9148SOL     OW28342   4.959   5.424   3.253
 9148SOL    HW128343   5.045   5.414   3.204
 9148SOL    HW228344   4.970   5.394   3.348
 9149SOL     OW28345   5.154   3.095   4.445
 9149SOL    HW128346   5.069   3.049   4.471
 9149SOL    HW228347   5.179   3.161   4.515
 9150SOL     OW28348   4.882   0.086   3.498
 9150SOL    HW128349   4.960   0.069   3.437
 9150SOL    HW228350   4.812   0.136   3.448
 9151SOL     OW28351   1.749   4.132   1.920
 9151SOL    HW128352   1.654   4.138   1.890
 9151SOL    HW228353   1.754   4.087   2.009
 9152SOL     OW28354   2.078   6.006   3.533
 9152SOL    HW128355   2.116   5.970   3.448
 9152SOL    HW228356   2.153   6.032   3.594
 9153SOL     OW28357   1.928   2.845   6.253
 9153SOL    HW128358   1.921   2.834   6.352
 9153SOL    HW228359   1.842   2.878   6.217
 9154SOL     OW28360   2.569   6.011   6.909
 9154SOL    HW128361   2.552   6.102   6.949
 9154SOL    HW228362   2.482   5.963   6.899
 9155SOL     OW28363   1.383   4.049   6.825
 9155SOL    HW128364   1.462   3.988   6.832
 9155SOL    HW228365   1.371   4.077   6.730
 9156SOL     OW28366   4.449   2.527   1.389
 9156SOL    HW128367   4.533   2.582   1.399
 9156SOL    HW228368   4.467   2.433   1.417
 9157SOL     OW28369   5.595   3.706   5.511
 9157SOL    HW128370   5.497   3.714   5.497
 9157SOL    HW228371   5.622   3.761   5.591
 9158SOL     OW28372   0.971   3.420   4.592
 9158SOL    HW128373   0.949   3.325   4.569
 9158SOL    HW228374   0.934   3.481   4.521
 9159SOL     OW28375   6.469   5.620   2.343
 9159SOL    HW128376   6.390   5.560   2.330
 9159SOL    HW228377   6.547   5.566   2.374
 9160SOL     OW28378   0.850   0.082   6.630
 9160SOL    HW128379   0.842   0.181   6.621
 9160SOL    HW228380   0.876   0.043   6.541
 9161SOL     OW28381   4.855   3.807   4.559
 9161SOL    HW128382   4.885   3.747   4.634
 9161SOL    HW228383   4.849   3.901   4.592
 9162SOL     OW28384   4.604   2.640   2.459
 9162SOL    HW128385   4.642   2.729   2.485
 9162SOL    HW228386   4.676   2.571   2.463
 9163SOL     OW28387   3.061   2.158   3.725
 9163SOL    HW128388   2.991   2.227   3.740
 9163SOL    HW228389   3.057   2.126   3.630
 9164SOL     OW28390   2.797   0.735   6.203
 9164SOL    HW128391   2.866   0.663   6.201
 9164SOL    HW228392   2.808   0.788   6.288
 9165SOL     OW28393   5.505   0.791   6.605
 9165SOL    HW128394   5.446   0.813   6.527
 9165SOL    HW228395   5.549   0.875   6.638
 9166SOL     OW28396   3.413   5.206   0.941
 9166SOL    HW128397   3.385   5.296   0.973
 9166SOL    HW228398   3.511   5.194   0.956
 9167SOL     OW28399   1.705   3.868   5.936
 9167SOL    HW128400   1.678   3.822   5.851
 9167SOL    HW228401   1.638   3.939   5.958
 9168SOL     OW28402   2.268   0.250   5.693
 9168SOL    HW128403   2.293   0.176   5.630
 9168SOL    HW228404   2.304   0.337   5.658
 9169SOL     OW28405   0.835   1.100   4.072
 9169SOL    HW128406   0.809   1.003   4.074
 9169SOL    HW228407   0.815   1.139   3.983
 9170SOL     OW28408   0.015   5.618   0.080
 9170SOL    HW128409   7.005   5.663   0.164
 9170SOL    HW228410   6.982   5.652   0.002
 9171SOL     OW28411   2.713   5.889   0.077
 9171SOL    HW128412   2.661   5.932   0.003
 9171SOL    HW228413   2.748   5.959   0.139
 9172SOL     OW28414   3.453   1.242   3.862
 9172SOL    HW128415   3.481   1.319   3.804
 9172SOL    HW228416   3.535   1.197   3.899
 9173SOL     OW28417   0.137   5.282   4.780
 9173SOL    HW128418   0.087   5.287   4.867
 9173SOL    HW228419   0.232   5.259   4.797
 9174SOL     OW28420   0.130   4.635   6.923
 9174SOL    HW128421   0.229   4.638   6.909
 9174SOL    HW228422   0.087   4.586   6.847
 9175SOL     OW28423   2.252   5.750   5.986
 9175SOL    HW128424   2.350   5.767   5.982
 9175SOL    HW228425   2.205   5.803   5.915
 9176SOL     OW28426   1.871   0.733   5.568
 9176SOL    HW128427   1.927   0.651   5.557
 9176SOL    HW228428   1.870   0.785   5.482
 9177SOL     OW28429   1.140   4.700   3.860
 9177SOL    HW128430   1.186   4.712   3.948
 9177SOL    HW228431   1.079   4.777   3.844
 9178SOL     OW28432   1.947   5.187   0.712
 9178SOL    HW128433   1.923   5.277   0.748
 9178SOL    HW228434   1.900   5.173   0.624
 9179SOL     OW28435   3.312   5.211   3.878
 9179SOL    HW128436   3.254   5.249   3.950
 9179SOL    HW228437   3.408   5.228   3.900
 9180SOL     OW28438   6.047   2.221   3.791
 9180SOL    HW128439   5.950   2.246   3.788
 9180SOL    HW228440   6.057   2.124   3.772
 9181SOL     OW28441   4.195   2.298   2.340
 9181SOL    HW128442   4.157   2.236   2.271
 9181SOL    HW228443   4.121   2.344   2.388
 9182SOL     OW28444   1.434   6.511   2.107
 9182SOL    HW128445   1.513   6.510   2.045
 9182SOL    HW228446   1.443   6.436   2.172
 9183SOL     OW28447   5.074   6.178   0.874
 9183SOL    HW128448   4.978   6.185   0.901
 9183SOL    HW228449   5.083   6.206   0.778
 9184SOL     OW28450   5.036   6.877   0.869
 9184SOL    HW128451   5.007   6.843   0.780
 9184SOL    HW228452   5.000   6.817   0.941
 9185SOL     OW28453   3.282   0.530   5.049
 9185SOL    HW128454   3.331   0.534   5.135
 9185SOL    HW228455   3.189   0.565   5.062
 9186SOL     OW28456   5.835   0.870   5.527
 9186SOL    HW128457   5.770   0.820   5.585
 9186SOL    HW228458   5.784   0.922   5.457
 9187SOL     OW28459   2.498   5.919   2.119
 9187SOL    HW128460   2.430   5.860   2.074
 9187SOL    HW228461   2.454   6.005   2.147
 9188SOL     OW28462   2.880   6.918   0.917
 9188SOL    HW128463   2.967   6.890   0.958
 9188SOL    HW228464   2.837   6.840   0.872
 9189SOL     OW28465   5.181   5.760   3.085
 9189SOL    HW128466   5.119   5.780   3.161
 9189SOL    HW228467   5.206   5.846   3.040
 9190SOL     OW28468   1.610   5.548   0.715
 9190SOL    HW128469   1.690   5.527   0.658
 9190SOL    HW228470   1.579   5.465   0.760
 9191SOL     OW28471   6.499   0.486   5.552
 9191SOL    HW128472   6.572   0.418   5.560
 9191SOL    HW228473   6.500   0.546   5.632
 9192SOL     OW28474   0.257   4.207   4.224
 9192SOL    HW128475   0.298   4.138   4.283
 9192SOL    HW228476   0.253   4.172   4.130
 9193SOL     OW28477   3.243   3.331   6.526
 9193SOL    HW128478   3.215   3.368   6.615
 9193SOL    HW228479   3.162   3.320   6.469
 9194SOL     OW28480   2.994   0.713   3.596
 9194SOL    HW128481   2.956   0.793   3.643
 9194SOL    HW228482   2.924   0.674   3.536
 9195SOL     OW28483   2.145   2.120   4.076
 9195SOL    HW128484   2.156   2.202   4.131
 9195SOL    HW228485   2.206   2.124   3.997
 9196SOL     OW28486   4.716   1.596   5.162
 9196SOL    HW128487   4.659   1.668   5.203
 9196SOL    HW228488   4.658   1.527   5.119
 9197SOL     OW28489   2.397   3.630   1.631
 9197SOL    HW128490   2.391   3.563   1.705
 9197SOL    HW228491   2.412   3.721   1.669
 9198SOL     OW28492   6.585   5.776   5.522
 9198SOL    HW128493   6.538   5.694   5.488
 9198SOL    HW228494   6.599   5.840   5.446
 9199SOL     OW28495   6.977   4.334   5.166
 9199SOL    HW128496   0.019   4.300   5.096
 9199SOL    HW228497   6.906   4.391   5.124
 9200SOL     OW28498   3.407   0.474   0.724
 9200SOL    HW128499   3.351   0.451   0.645
 9200SOL    HW228500   3.353   0.464   0.808
 9201SOL     OW28501   1.335   3.952   0.407
 9201SOL    HW128502   1.250   3.902   0.396
 9201SOL    HW228503   1.372   3.935   0.498
 9202SOL     OW28504   1.502   6.908   3.366
 9202SOL    HW128505   1.437   6.979   3.342
 9202SOL    HW228506   1.511   6.904   3.466
 9203SOL     OW28507   6.737   5.452   0.919
 9203SOL    HW128508   6.723   5.382   0.990
 9203SOL    HW228509   6.661   5.517   0.922
 9204SOL     OW28510   5.185   1.197   6.275
 9204SOL    HW128511   5.144   1.247   6.199
 9204SOL    HW228512   5.285   1.201   6.268
 9205SOL     OW28513   6.950   3.950   3.001
 9205SOL    HW128514   0.014   3.937   2.949
 9205SOL    HW228515   6.875   3.969   2.937
 9206SOL     OW28516   4.115   5.897   0.670
 9206SOL    HW128517   4.190   5.871   0.731
 9206SOL    HW228518   4.038   5.931   0.724
 9207SOL     OW28519   4.815   5.553   0.609
 9207SOL    HW128520   4.885   5.482   0.605
 9207SOL    HW228521   4.731   5.515   0.647
 9208SOL     OW28522   0.407   4.148   4.459
 9208SOL    HW128523   0.490   4.180   4.413
 9208SOL    HW228524   0.431   4.107   4.546
 9209SOL     OW28525   2.273   1.128   6.296
 9209SOL    HW128526   2.311   1.036   6.302
 9209SOL    HW228527   2.296   1.169   6.208
 9210SOL     OW28528   6.657   1.414   3.378
 9210SOL    HW128529   6.560   1.397   3.365
 9210SOL    HW228530   6.707   1.383   3.296
 9211SOL     OW28531   0.136   1.794   3.754
 9211SOL    HW128532   0.125   1.751   3.843
 9211SOL    HW228533   0.221   1.762   3.712
 9212SOL     OW28534   3.223   4.888   4.982
 9212SOL    HW128535   3.292   4.832   4.938
 9212SOL    HW228536   3.243   4.985   4.967
 9213SOL     OW28537   5.972   3.840   5.993
 9213SOL    HW128538   5.967   3.926   5.941
 9213SOL    HW228539   5.882   3.796   5.993
 9214SOL     OW28540   0.465   6.103   1.074
 9214SOL    HW128541   0.480   6.004   1.077
 9214SOL    HW228542   0.510   6.141   0.993
 9215SOL     OW28543   1.167   1.046   0.583
 9215SOL    HW128544   1.188   1.083   0.673
 9215SOL    HW228545   1.161   1.121   0.517
 9216SOL     OW28546   2.391   6.603   2.378
 9216SOL    HW128547   2.421   6.629   2.470
 9216SOL    HW228548   2.353   6.510   2.380
 9217SOL     OW28549   0.845   1.883   6.382
 9217SOL    HW128550   0.839   1.918   6.289
 9217SOL    HW228551   0.938   1.896   6.417
 9218SOL     OW28552   3.562   0.233   0.704
 9218SOL    HW128553   3.495   0.192   0.766
 9218SOL    HW228554   3.540   0.329   0.689
 9219SOL     OW28555   0.958   2.552   0.983
 9219SOL    HW128556   0.924   2.460   0.960
 9219SOL    HW228557   1.058   2.551   0.987
 9220SOL     OW28558   3.512   6.710   1.336
 9220SOL    HW128559   3.540   6.722   1.240
 9220SOL    HW228560   3.593   6.711   1.394
 9221SOL     OW28561   2.723   6.055   3.718
 9221SOL    HW128562   2.784   6.129   3.690
 9221SOL    HW228563   2.727   6.045   3.818
 9222SOL     OW28564   2.583   1.554   6.479
 9222SOL    HW128565   2.563   1.638   6.530
 9222SOL    HW228566   2.682   1.547   6.466
 9223SOL     OW28567   2.474   2.857   5.338
 9223SOL    HW128568   2.430   2.850   5.427
 9223SOL    HW228569   2.483   2.954   5.313
 9224SOL     OW28570   2.004   5.519   4.414
 9224SOL    HW128571   1.916   5.566   4.415
 9224SOL    HW228572   2.017   5.471   4.501
 9225SOL     OW28573   3.035   5.935   6.827
 9225SOL    HW128574   3.000   6.007   6.887
 9225SOL    HW228575   3.090   5.975   6.754
 9226SOL     OW28576   5.034   6.328   1.257
 9226SOL    HW128577   5.074   6.261   1.320
 9226SOL    HW228578   4.940   6.347   1.284
 9227SOL     OW28579   1.388   5.205   2.401
 9227SOL    HW128580   1.454   5.263   2.353
 9227SOL    HW228581   1.429   5.173   2.487
 9228SOL     OW28582   1.484   0.864   6.810
 9228SOL    HW128583   1.551   0.938   6.817
 9228SOL    HW228584   1.419   0.870   6.885
 9229SOL     OW28585   1.094   5.988   4.129
 9229SOL    HW128586   1.080   5.892   4.155
 9229SOL    HW228587   1.076   5.999   4.032
 9230SOL     OW28588   5.451   0.599   3.985
 9230SOL    HW128589   5.505   0.627   4.064
 9230SOL    HW228590   5.381   0.533   4.015
 9231SOL     OW28591   1.205   2.329   4.246
 9231SOL    HW128592   1.277   2.363   4.186
 9231SOL    HW228593   1.244   2.263   4.311
 9232SOL     OW28594   3.383   5.234   0.616
 9232SOL    HW128595   3.332   5.157   0.577
 9232SOL    HW228596   3.421   5.207   0.704
 9233SOL     OW28597   5.721   4.803   1.247
 9233SOL    HW128598   5.776   4.886   1.235
 9233SOL    HW228599   5.645   4.821   1.309
 9234SOL     OW28600   2.547   5.396   3.427
 9234SOL    HW128601   2.626   5.370   3.372
 9234SOL    HW228602   2.487   5.317   3.438
 9235SOL     OW28603   0.593   2.092   3.121
 9235SOL    HW128604   0.506   2.042   3.116
 9235SOL    HW228605   0.596   2.160   3.048
 9236SOL     OW28606   3.018   3.360   5.164
 9236SOL    HW128607   2.961   3.278   5.158
 9236SOL    HW228608   3.104   3.338   5.209
 9237SOL     OW28609   1.998   4.042   4.156
 9237SOL    HW128610   2.019   3.957   4.107
 9237SOL    HW228611   2.038   4.119   4.106
 9238SOL     OW28612   4.676   2.999   6.353
 9238SOL    HW128613   4.614   3.076   6.342
 9238SOL    HW228614   4.643   2.922   6.297
 9239SOL     OW28615   0.924   3.864   0.914
 9239SOL    HW128616   0.952   3.879   1.008
 9239SOL    HW228617   0.845   3.802   0.912
 9240SOL     OW28618   4.693   1.127   1.605
 9240SOL    HW128619   4.686   1.200   1.537
 9240SOL    HW228620   4.787   1.123   1.640
 9241SOL     OW28621   0.239   5.332   6.815
 9241SOL    HW128622   0.145   5.300   6.807
 9241SOL    HW228623   0.299   5.256   6.840
 9242SOL     OW28624   6.173   5.867   2.052
 9242SOL    HW128625   6.148   5.909   2.140
 9242SOL    HW228626   6.138   5.923   1.977
 9243SOL     OW28627   6.354   6.028   5.036
 9243SOL    HW128628   6.410   5.958   4.992
 9243SOL    HW228629   6.409   6.111   5.049
 9244SOL     OW28630   3.677   5.022   6.626
 9244SOL    HW128631   3.696   4.928   6.597
 9244SOL    HW228632   3.617   5.065   6.559
 9245SOL     OW28633   0.467   6.058   1.765
 9245SOL    HW128634   0.525   6.131   1.728
 9245SOL    HW228635   0.372   6.076   1.739
 9246SOL     OW28636   6.126   5.280   3.936
 9246SOL    HW128637   6.116   5.243   3.843
 9246SOL    HW228638   6.212   5.331   3.942
 9247SOL     OW28639   1.133   6.875   2.709
 9247SOL    HW128640   1.088   6.830   2.633
 9247SOL    HW228641   1.223   6.834   2.724
 9248SOL     OW28642   2.690   2.309   6.121
 9248SOL    HW128643   2.724   2.402   6.136
 9248SOL    HW228644   2.760   2.243   6.150
 9249SOL     OW28645   4.766   0.976   4.001
 9249SOL    HW128646   4.739   0.932   3.916
 9249SOL    HW228647   4.838   1.043   3.982
 9250SOL     OW28648   4.888   3.889   3.881
 9250SOL    HW128649   4.857   3.953   3.952
 9250SOL    HW228650   4.887   3.935   3.792
 9251SOL     OW28651   3.462   1.546   2.834
 9251SOL    HW128652   3.503   1.588   2.914
 9251SOL    HW228653   3.481   1.602   2.753
 9252SOL     OW28654   0.212   0.223   4.889
 9252SOL    HW128655   0.275   0.229   4.812
 9252SOL    HW228656   0.227   0.138   4.939
 9253SOL     OW28657   1.914   0.003   5.586
 9253SOL    HW128658   1.862   0.085   5.608
 9253SOL    HW228659   1.852   6.947   5.568
 9254SOL     OW28660   5.898   3.741   1.773
 9254SOL    HW128661   5.902   3.645   1.744
 9254SOL    HW228662   5.934   3.749   1.866
 9255SOL     OW28663   5.482   3.734   0.872
 9255SOL    HW128664   5.479   3.780   0.960
 9255SOL    HW228665   5.442   3.643   0.880
 9256SOL     OW28666   4.222   4.627   1.836
 9256SOL    HW128667   4.250   4.676   1.918
 9256SOL    HW228668   4.288   4.553   1.817
 9257SOL     OW28669   1.077   4.072   1.851
 9257SOL    HW128670   1.084   4.053   1.949
 9257SOL    HW228671   1.020   4.153   1.837
 9258SOL     OW28672   3.912   3.043   3.532
 9258SOL    HW128673   3.876   3.008   3.446
 9258SOL    HW228674   3.886   2.982   3.606
 9259SOL     OW28675   1.218   2.276   1.676
 9259SOL    HW128676   1.166   2.360   1.662
 9259SOL    HW228677   1.316   2.297   1.674
 9260SOL     OW28678   5.142   3.630   6.354
 9260SOL    HW128679   5.217   3.586   6.306
 9260SOL    HW228680   5.100   3.565   6.418
 9261SOL     OW28681   4.159   0.312   6.691
 9261SOL    HW128682   4.203   0.245   6.632
 9261SOL    HW228683   4.225   0.384   6.716
 9262SOL     OW28684   5.289   1.067   5.459
 9262SOL    HW128685   5.250   1.129   5.391
 9262SOL    HW228686   5.246   0.977   5.451
 9263SOL     OW28687   5.394   3.912   1.318
 9263SOL    HW128688   5.458   3.923   1.394
 9263SOL    HW228689   5.317   3.974   1.330
 9264SOL     OW28690   6.130   4.042   6.781
 9264SOL    HW128691   6.089   3.952   6.772
 9264SOL    HW228692   6.062   4.107   6.817
 9265SOL     OW28693   2.781   1.486   0.342
 9265SOL    HW128694   2.828   1.563   0.386
 9265SOL    HW228695   2.827   1.464   0.255
 9266SOL     OW28696   2.275   6.399   2.744
 9266SOL    HW128697   2.243   6.306   2.765
 9266SOL    HW228698   2.305   6.402   2.649
 9267SOL     OW28699   0.731   4.709   4.786
 9267SOL    HW128700   0.807   4.649   4.812
 9267SOL    HW228701   0.747   4.744   4.694
 9268SOL     OW28702   0.258   6.568   2.787
 9268SOL    HW128703   0.170   6.544   2.828
 9268SOL    HW228704   0.307   6.485   2.762
 9269SOL     OW28705   3.441   1.993   6.739
 9269SOL    HW128706   3.488   2.053   6.804
 9269SOL    HW228707   3.386   1.926   6.789
 9270SOL     OW28708   6.789   6.710   6.246
 9270SOL    HW128709   6.871   6.768   6.247
 9270SOL    HW228710   6.804   6.634   6.184
 9271SOL     OW28711   1.836   5.791   1.054
 9271SOL    HW128712   1.904   5.821   0.987
 9271SOL    HW228713   1.749   5.773   1.007
 9272SOL     OW28714   2.368   4.426   6.255
 9272SOL    HW128715   2.434   4.352   6.263
 9272SOL    HW228716   2.415   4.510   6.230
 9273SOL     OW28717   4.400   5.104   4.292
 9273SOL    HW128718   4.349   5.020   4.272
 9273SOL    HW228719   4.349   5.158   4.359
 9274SOL     OW28720   5.651   2.117   6.311
 9274SOL    HW128721   5.566   2.102   6.260
 9274SOL    HW228722   5.629   2.138   6.406
 9275SOL     OW28723   1.436   0.545   5.645
 9275SOL    HW128724   1.358   0.486   5.667
 9275SOL    HW228725   1.408   0.641   5.655
 9276SOL     OW28726   3.652   5.967   4.656
 9276SOL    HW128727   3.570   5.938   4.705
 9276SOL    HW228728   3.703   6.032   4.712
 9277SOL     OW28729   3.767   3.211   6.850
 9277SOL    HW128730   3.729   3.158   6.775
 9277SOL    HW228731   3.864   3.188   6.862
 9278SOL     OW28732   1.027   2.108   3.837
 9278SOL    HW128733   1.011   2.160   3.752
 9278SOL    HW228734   1.095   2.037   3.820
 9279SOL     OW28735   3.224   0.463   2.312
 9279SOL    HW128736   3.315   0.426   2.332
 9279SOL    HW228737   3.176   0.481   2.398
 9280SOL     OW28738   1.745   6.946   3.908
 9280SOL    HW128739   1.805   7.015   3.868
 9280SOL    HW228740   1.766   6.935   4.005
 9281SOL     OW28741   2.134   2.408   0.776
 9281SOL    HW128742   2.161   2.468   0.851
 9281SOL    HW228743   2.085   2.329   0.812
 9282SOL     OW28744   4.509   1.432   5.044
 9282SOL    HW128745   4.410   1.423   5.034
 9282SOL    HW228746   4.553   1.413   4.957
 9283SOL     OW28747   5.696   2.452   2.384
 9283SOL    HW128748   5.606   2.486   2.413
 9283SOL    HW228749   5.712   2.476   2.288
 9284SOL     OW28750   3.175   3.497   1.211
 9284SOL    HW128751   3.146   3.402   1.223
 9284SOL    HW228752   3.212   3.532   1.297
 9285SOL     OW28753   6.895   2.634   6.684
 9285SOL    HW128754   6.817   2.664   6.629
 9285SOL    HW228755   6.975   2.621   6.625
 9286SOL     OW28756   5.407   6.993   5.142
 9286SOL    HW128757   5.418   0.067   5.174
 9286SOL    HW228758   5.310   6.975   5.125
 9287SOL     OW28759   2.763   6.067   0.826
 9287SOL    HW128760   2.724   5.990   0.777
 9287SOL    HW228761   2.795   6.037   0.916
 9288SOL     OW28762   4.493   2.059   5.923
 9288SOL    HW128763   4.520   2.066   5.827
 9288SOL    HW228764   4.397   2.085   5.932
 9289SOL     OW28765   4.792   2.252   2.285
 9289SOL    HW128766   4.801   2.326   2.351
 9289SOL    HW228767   4.736   2.283   2.208
 9290SOL     OW28768   4.739   1.573   4.672
 9290SOL    HW128769   4.679   1.646   4.639
 9290SOL    HW228770   4.685   1.505   4.722
 9291SOL     OW28771   1.199   0.561   4.998
 9291SOL    HW128772   1.238   0.481   4.952
 9291SOL    HW228773   1.145   0.614   4.933
 9292SOL     OW28774   0.311   3.400   5.999
 9292SOL    HW128775   0.239   3.455   5.957
 9292SOL    HW228776   0.280   3.305   6.006
 9293SOL     OW28777   5.405   4.399   0.354
 9293SOL    HW128778   5.381   4.443   0.268
 9293SOL    HW228779   5.486   4.341   0.341
 9294SOL     OW28780   5.356   6.154   0.125
 9294SOL    HW128781   5.322   6.233   0.074
 9294SOL    HW228782   5.362   6.176   0.222
 9295SOL     OW28783   4.436   1.495   3.234
 9295SOL    HW128784   4.471   1.585   3.210
 9295SOL    HW228785   4.435   1.437   3.152
 9296SOL     OW28786   5.972   6.411   5.991
 9296SOL    HW128787   5.928   6.498   6.012
 9296SOL    HW228788   6.026   6.420   5.907
 9297SOL     OW28789   0.443   0.796   1.104
 9297SOL    HW128790   0.505   0.743   1.047
 9297SOL    HW228791   0.348   0.776   1.077
 9298SOL     OW28792   1.815   6.162   5.291
 9298SOL    HW128793   1.848   6.255   5.310
 9298SOL    HW228794   1.824   6.143   5.193
 9299SOL     OW28795   1.278   3.811   4.535
 9299SOL    HW128796   1.342   3.862   4.478
 9299SOL    HW228797   1.304   3.820   4.631
 9300SOL     OW28798   5.652   4.314   4.681
 9300SOL    HW128799   5.735   4.320   4.625
 9300SOL    HW228800   5.653   4.387   4.749
 9301SOL     OW28801   5.143   4.265   2.642
 9301SOL    HW128802   5.101   4.305   2.561
 9301SOL    HW228803   5.145   4.165   2.633
 9302SOL     OW28804   2.248   2.161   2.943
 9302SOL    HW128805   2.187   2.127   3.014
 9302SOL    HW228806   2.330   2.200   2.985
 9303SOL     OW28807   3.751   6.309   6.872
 9303SOL    HW128808   3.674   6.255   6.907
 9303SOL    HW228809   3.735   6.330   6.776
 9304SOL     OW28810   3.095   3.296   0.692
 9304SOL    HW128811   3.033   3.241   0.636
 9304SOL    HW228812   3.159   3.345   0.633
 9305SOL     OW28813   6.013   2.538   2.078
 9305SOL    HW128814   6.018   2.442   2.049
 9305SOL    HW228815   6.087   2.590   2.036
 9306SOL     OW28816   6.623   4.650   4.203
 9306SOL    HW128817   6.690   4.617   4.137
 9306SOL    HW228818   6.664   4.651   4.295
 9307SOL     OW28819   1.670   1.939   0.737
 9307SOL    HW128820   1.646   1.991   0.819
 9307SOL    HW228821   1.626   1.980   0.657
 9308SOL     OW28822   0.791   3.309   0.837
 9308SOL    HW128823   0.696   3.298   0.867
 9308SOL    HW228824   0.818   3.229   0.782
 9309SOL     OW28825   4.491   3.934   5.829
 9309SOL    HW128826   4.588   3.958   5.830
 9309SOL    HW228827   4.464   3.901   5.920
 9310SOL     OW28828   4.429   5.757   6.453
 9310SOL    HW128829   4.392   5.680   6.505
 9310SOL    HW228830   4.357   5.825   6.438
 9311SOL     OW28831   5.753   3.798   0.772
 9311SOL    HW128832   5.667   3.801   0.822
 9311SOL    HW228833   5.739   3.829   0.679
 9312SOL     OW28834   1.127   4.273   6.614
 9312SOL    HW128835   1.050   4.337   6.618
 9312SOL    HW228836   1.096   4.186   6.574
 9313SOL     OW28837   6.986   6.745   2.622
 9313SOL    HW128838   6.903   6.710   2.666
 9313SOL    HW228839   0.000   6.823   2.674
 9314SOL     OW28840   4.635   5.591   6.670
 9314SOL    HW128841   4.546   5.545   6.669
 9314SOL    HW228842   4.700   5.540   6.613
 9315SOL     OW28843   6.746   0.392   5.660
 9315SOL    HW128844   6.823   0.437   5.614
 9315SOL    HW228845   6.734   0.432   5.751
 9316SOL     OW28846   3.862   6.078   3.697
 9316SOL    HW128847   3.766   6.067   3.673
 9316SOL    HW228848   3.900   5.990   3.726
 9317SOL     OW28849   6.414   5.187   3.582
 9317SOL    HW128850   6.382   5.095   3.605
 9317SOL    HW228851   6.344   5.254   3.608
 9318SOL     OW28852   0.349   0.550   6.858
 9318SOL    HW128853   0.361   0.457   6.893
 9318SOL    HW228854   0.279   0.597   6.913
 9319SOL     OW28855   0.668   3.321   6.201
 9319SOL    HW128856   0.614   3.252   6.153
 9319SOL    HW228857   0.608   3.394   6.234
 9320SOL     OW28858   4.548   2.439   5.764
 9320SOL    HW128859   4.482   2.376   5.723
 9320SOL    HW228860   4.570   2.408   5.856
 9321SOL     OW28861   6.547   6.096   2.932
 9321SOL    HW128862   6.468   6.098   2.994
 9321SOL    HW228863   6.535   6.023   2.865
 9322SOL     OW28864   0.818   6.127   5.507
 9322SOL    HW128865   0.739   6.067   5.496
 9322SOL    HW228866   0.893   6.076   5.549
 9323SOL     OW28867   0.968   1.410   6.854
 9323SOL    HW128868   0.993   1.313   6.849
 9323SOL    HW228869   1.046   1.466   6.825
 9324SOL     OW28870   1.330   5.365   0.670
 9324SOL    HW128871   1.327   5.462   0.644
 9324SOL    HW228872   1.258   5.346   0.736
 9325SOL     OW28873   5.691   2.017   0.925
 9325SOL    HW128874   5.635   2.100   0.913
 9325SOL    HW228875   5.631   1.937   0.925
 9326SOL     OW28876   1.703   0.027   1.224
 9326SOL    HW128877   1.763   0.093   1.270
 9326SOL    HW228878   1.615   0.023   1.272
 9327SOL     OW28879   4.307   0.340   2.863
 9327SOL    HW128880   4.218   0.369   2.828
 9327SOL    HW228881   4.366   0.313   2.786
 9328SOL     OW28882   3.480   1.635   0.705
 9328SOL    HW128883   3.487   1.702   0.779
 9328SOL    HW228884   3.515   1.676   0.620
 9329SOL     OW28885   0.596   3.547   2.468
 9329SOL    HW128886   0.604   3.449   2.485
 9329SOL    HW228887   0.639   3.598   2.542
 9330SOL     OW28888   6.342   0.765   0.943
 9330SOL    HW128889   6.392   0.852   0.943
 9330SOL    HW228890   6.387   0.700   1.005
 9331SOL     OW28891   0.561   0.747   6.968
 9331SOL    HW128892   0.555   0.651   6.940
 9331SOL    HW228893   0.487   0.799   6.926
 9332SOL     OW28894   3.082   3.308   4.385
 9332SOL    HW128895   3.056   3.378   4.452
 9332SOL    HW228896   3.001   3.274   4.339
 9333SOL     OW28897   6.397   4.567   1.308
 9333SOL    HW128898   6.492   4.578   1.339
 9333SOL    HW228899   6.337   4.559   1.387
 9334SOL     OW28900   2.530   0.358   4.385
 9334SOL    HW128901   2.497   0.334   4.293
 9334SOL    HW228902   2.471   0.429   4.424
 9335SOL     OW28903   1.797   0.799   6.966
 9335SOL    HW128904   1.776   0.762   6.875
 9335SOL    HW228905   1.896   0.801   6.980
 9336SOL     OW28906   2.877   6.944   5.965
 9336SOL    HW128907   2.905   0.014   5.934
 9336SOL    HW228908   2.845   6.949   6.060
 9337SOL     OW28909   5.090   0.521   2.081
 9337SOL    HW128910   5.143   0.583   2.140
 9337SOL    HW228911   5.152   0.472   2.021
 9338SOL     OW28912   3.529   0.098   3.084
 9338SOL    HW128913   3.570   0.178   3.129
 9338SOL    HW228914   3.602   0.041   3.046
 9339SOL     OW28915   4.551   6.468   1.579
 9339SOL    HW128916   4.497   6.532   1.634
 9339SOL    HW228917   4.504   6.449   1.493
 9340SOL     OW28918   6.166   3.513   6.743
 9340SOL    HW128919   6.087   3.479   6.794
 9340SOL    HW228920   6.155   3.491   6.646
 9341SOL     OW28921   0.770   5.445   6.566
 9341SOL    HW128922   0.833   5.369   6.552
 9341SOL    HW228923   0.682   5.424   6.523
 9342SOL     OW28924   1.444   6.870   6.113
 9342SOL    HW128925   1.381   6.858   6.037
 9342SOL    HW228926   1.527   6.917   6.082
 9343SOL     OW28927   6.499   5.303   5.130
 9343SOL    HW128928   6.528   5.377   5.069
 9343SOL    HW228929   6.499   5.217   5.079
 9344SOL     OW28930   5.195   6.601   1.456
 9344SOL    HW128931   5.154   6.528   1.511
 9344SOL    HW228932   5.124   6.664   1.426
 9345SOL     OW28933   0.102   3.392   0.730
 9345SOL    HW128934   0.199   3.407   0.714
 9345SOL    HW228935   0.084   3.386   0.828
 9346SOL     OW28936   5.947   0.143   1.252
 9346SOL    HW128937   5.921   0.133   1.348
 9346SOL    HW228938   5.962   0.239   1.231
 9347SOL     OW28939   1.713   6.618   1.545
 9347SOL    HW128940   1.753   6.651   1.460
 9347SOL    HW228941   1.710   6.518   1.545
 9348SOL     OW28942   3.329   4.835   0.339
 9348SOL    HW128943   3.317   4.766   0.410
 9348SOL    HW228944   3.425   4.843   0.315
 9349SOL     OW28945   1.567   6.405   2.735
 9349SOL    HW128946   1.525   6.452   2.657
 9349SOL    HW228947   1.501   6.396   2.808
 9350SOL     OW28948   0.619   2.533   5.756
 9350SOL    HW128949   0.601   2.621   5.799
 9350SOL    HW228950   0.626   2.462   5.827
 9351SOL     OW28951   3.571   2.199   6.899
 9351SOL    HW128952   3.670   2.202   6.913
 9351SOL    HW228953   3.540   2.287   6.862
 9352SOL     OW28954   2.159   4.528   6.430
 9352SOL    HW128955   2.235   4.488   6.379
 9352SOL    HW228956   2.191   4.606   6.483
 9353SOL     OW28957   6.593   6.869   1.289
 9353SOL    HW128958   6.584   6.778   1.329
 9353SOL    HW228959   6.690   6.891   1.279
 9354SOL     OW28960   6.658   2.329   6.526
 9354SOL    HW128961   6.650   2.364   6.433
 9354SOL    HW228962   6.568   2.335   6.571
 9355SOL     OW28963   0.400   1.825   5.177
 9355SOL    HW128964   0.439   1.865   5.094
 9355SOL    HW228965   0.418   1.885   5.255
 9356SOL     OW28966   4.303   6.461   2.122
 9356SOL    HW128967   4.328   6.371   2.157
 9356SOL    HW228968   4.384   6.507   2.087
 9357SOL     OW28969   0.786   1.728   0.047
 9357SOL    HW128970   0.773   1.664   0.122
 9357SOL    HW228971   0.708   1.791   0.044
 9358SOL     OW28972   1.208   3.263   2.770
 9358SOL    HW128973   1.122   3.241   2.725
 9358SOL    HW228974   1.249   3.344   2.729
 9359SOL     OW28975   1.424   0.378   5.999
 9359SOL    HW128976   1.491   0.452   5.992
 9359SOL    HW228977   1.333   0.416   6.015
 9360SOL     OW28978   0.693   0.612   6.623
 9360SOL    HW128979   0.706   0.632   6.720
 9360SOL    HW228980   0.738   0.683   6.568
 9361SOL     OW28981   2.279   6.004   4.353
 9361SOL    HW128982   2.280   5.933   4.283
 9361SOL    HW228983   2.372   6.021   4.385
 9362SOL     OW28984   1.666   0.156   2.392
 9362SOL    HW128985   1.623   0.195   2.311
 9362SOL    HW228986   1.657   0.056   2.389
 9363SOL     OW28987   3.154   5.172   2.669
 9363SOL    HW128988   3.118   5.232   2.741
 9363SOL    HW228989   3.252   5.185   2.661
 9364SOL     OW28990   1.036   2.272   1.328
 9364SOL    HW128991   1.068   2.364   1.347
 9364SOL    HW228992   1.047   2.252   1.230
 9365SOL     OW28993   3.316   2.143   4.578
 9365SOL    HW128994   3.267   2.158   4.664
 9365SOL    HW228995   3.307   2.223   4.520
 9366SOL     OW28996   3.750   5.819   0.343
 9366SOL    HW128997   3.838   5.820   0.391
 9366SOL    HW228998   3.747   5.897   0.280
 9367SOL     OW28999   6.507   0.893   1.337
 9367SOL    HW129000   6.605   0.910   1.326
 9367SOL    HW229001   6.475   0.832   1.264
 9368SOL     OW29002   3.467   0.662   2.476
 9368SOL    HW129003   3.382   0.714   2.466
 9368SOL    HW229004   3.453   0.568   2.445
 9369SOL     OW29005   2.213   5.382   6.678
 9369SOL    HW129006   2.182   5.289   6.699
 9369SOL    HW229007   2.134   5.444   6.676
 9370SOL     OW29008   4.249   1.540   4.102
 9370SOL    HW129009   4.325   1.478   4.086
 9370SOL    HW229010   4.280   1.618   4.158
 9371SOL     OW29011   4.555   5.325   1.427
 9371SOL    HW129012   4.541   5.335   1.526
 9371SOL    HW229013   4.472   5.355   1.379
 9372SOL     OW29014   4.822   6.481   1.583
 9372SOL    HW129015   4.848   6.469   1.487
 9372SOL    HW229016   4.723   6.482   1.591
 9373SOL     OW29017   6.597   1.899   0.295
 9373SOL    HW129018   6.641   1.828   0.351
 9373SOL    HW229019   6.652   1.982   0.297
 9374SOL     OW29020   0.333   5.292   6.033
 9374SOL    HW129021   0.297   5.346   5.957
 9374SOL    HW229022   0.257   5.262   6.091
 9375SOL     OW29023   0.203   0.669   0.016
 9375SOL    HW129024   0.225   0.621   0.101
 9375SOL    HW229025   0.228   0.765   0.024
 9376SOL     OW29026   2.216   3.869   1.969
 9376SOL    HW129027   2.269   3.809   2.029
 9376SOL    HW229028   2.236   3.965   1.991
 9377SOL     OW29029   2.000   0.513   3.376
 9377SOL    HW129030   2.011   0.417   3.404
 9377SOL    HW229031   1.986   0.570   3.457
 9378SOL     OW29032   2.923   0.649   4.093
 9378SOL    HW129033   2.871   0.585   4.148
 9378SOL    HW229034   2.879   0.660   4.004
 9379SOL     OW29035   4.094   6.119   5.133
 9379SOL    HW129036   4.064   6.118   5.037
 9379SOL    HW229037   4.183   6.074   5.140
 9380SOL     OW29038   5.173   5.823   0.365
 9380SOL    HW129039   5.114   5.894   0.402
 9380SOL    HW229040   5.247   5.865   0.312
 9381SOL     OW29041   5.490   1.663   4.674
 9381SOL    HW129042   5.467   1.566   4.684
 9381SOL    HW229043   5.584   1.677   4.705
 9382SOL     OW29044   3.125   6.559   5.021
 9382SOL    HW129045   3.218   6.531   5.044
 9382SOL    HW229046   3.107   6.540   4.925
 9383SOL     OW29047   5.660   4.307   3.089
 9383SOL    HW129048   5.662   4.407   3.083
 9383SOL    HW229049   5.653   4.280   3.185
 9384SOL     OW29050   3.098   0.305   2.115
 9384SOL    HW129051   3.017   0.323   2.058
 9384SOL    HW229052   3.116   0.385   2.172
 9385SOL     OW29053   3.992   1.564   3.372
 9385SOL    HW129054   3.962   1.567   3.467
 9385SOL    HW229055   4.054   1.640   3.354
 9386SOL     OW29056   4.690   6.574   6.483
 9386SOL    HW129057   4.615   6.516   6.514
 9386SOL    HW229058   4.760   6.517   6.440
 9387SOL     OW29059   2.487   2.082   0.576
 9387SOL    HW129060   2.417   2.010   0.572
 9387SOL    HW229061   2.510   2.112   0.484
 9388SOL     OW29062   2.370   6.362   4.953
 9388SOL    HW129063   2.315   6.332   5.031
 9388SOL    HW229064   2.459   6.316   4.956
 9389SOL     OW29065   2.746   4.983   1.756
 9389SOL    HW129066   2.807   4.917   1.712
 9389SOL    HW229067   2.671   5.006   1.694
 9390SOL     OW29068   4.897   5.502   4.915
 9390SOL    HW129069   4.981   5.458   4.885
 9390SOL    HW229070   4.839   5.435   4.962
 9391SOL     OW29071   1.386   5.495   4.403
 9391SOL    HW129072   1.420   5.427   4.339
 9391SOL    HW229073   1.456   5.517   4.470
 9392SOL     OW29074   5.654   3.936   2.885
 9392SOL    HW129075   5.614   4.024   2.859
 9392SOL    HW229076   5.664   3.879   2.804
 9393SOL     OW29077   2.432   6.832   6.445
 9393SOL    HW129078   2.440   6.803   6.540
 9393SOL    HW229079   2.470   6.923   6.433
 9394SOL     OW29080   3.640   0.224   0.148
 9394SOL    HW129081   3.697   0.280   0.087
 9394SOL    HW229082   3.583   0.163   0.092
 9395SOL     OW29083   1.982   1.821   0.694
 9395SOL    HW129084   1.915   1.768   0.746
 9395SOL    HW229085   2.027   1.762   0.627
 9396SOL     OW29086   0.724   6.526   6.756
 9396SOL    HW129087   0.718   6.559   6.662
 9396SOL    HW229088   0.810   6.476   6.768
 9397SOL     OW29089   3.134   0.779   5.135
 9397SOL    HW129090   3.127   0.872   5.171
 9397SOL    HW229091   3.148   0.715   5.211
 9398SOL     OW29092   0.868   1.853   0.391
 9398SOL    HW129093   0.900   1.904   0.471
 9398SOL    HW229094   0.944   1.802   0.351
 9399SOL     OW29095   1.827   2.507   4.095
 9399SOL    HW129096   1.775   2.437   4.046
 9399SOL    HW229097   1.841   2.478   4.190
 9400SOL     OW29098   5.546   1.068   0.405
 9400SOL    HW129099   5.531   0.987   0.463
 9400SOL    HW229100   5.518   1.048   0.312
 9401SOL     OW29101   0.314   2.592   3.875
 9401SOL    HW129102   0.268   2.535   3.806
 9401SOL    HW229103   0.365   2.533   3.938
 9402SOL     OW29104   1.825   6.889   4.187
 9402SOL    HW129105   1.918   6.914   4.162
 9402SOL    HW229106   1.825   6.801   4.233
 9403SOL     OW29107   5.955   2.500   2.391
 9403SOL    HW129108   5.859   2.504   2.364
 9403SOL    HW229109   5.999   2.587   2.369
 9404SOL     OW29110   2.198   2.818   0.761
 9404SOL    HW129111   2.133   2.864   0.821
 9404SOL    HW229112   2.162   2.816   0.668
 9405SOL     OW29113   7.018   5.458   5.705
 9405SOL    HW129114   0.028   5.439   5.612
 9405SOL    HW229115   6.978   5.375   5.745
 9406SOL     OW29116   0.609   2.714   0.032
 9406SOL    HW129117   0.646   2.784   0.093
 9406SOL    HW229118   0.517   2.689   0.063
 9407SOL     OW29119   1.140   5.342   5.606
 9407SOL    HW129120   1.070   5.395   5.655
 9407SOL    HW229121   1.219   5.329   5.666
 9408SOL     OW29122   0.617   3.599   4.701
 9408SOL    HW129123   0.645   3.668   4.767
 9408SOL    HW229124   0.682   3.597   4.625
 9409SOL     OW29125   6.769   5.288   3.022
 9409SOL    HW129126   6.698   5.297   2.952
 9409SOL    HW229127   6.765   5.368   3.083
 9410SOL     OW29128   3.647   1.248   0.731
 9410SOL    HW129129   3.610   1.160   0.760
 9410SOL    HW229130   3.580   1.296   0.674
 9411SOL     OW29131   2.910   3.419   3.232
 9411SOL    HW129132   2.890   3.396   3.328
 9411SOL    HW229133   2.898   3.517   3.218
 9412SOL     OW29134   6.133   6.280   0.717
 9412SOL    HW129135   6.181   6.207   0.764
 9412SOL    HW229136   6.086   6.338   0.784
 9413SOL     OW29137   5.111   3.923   2.830
 9413SOL    HW129138   5.100   3.833   2.872
 9413SOL    HW229139   5.077   3.921   2.736
 9414SOL     OW29140   1.447   2.064   2.967
 9414SOL    HW129141   1.532   2.111   2.990
 9414SOL    HW229142   1.389   2.057   3.048
 9415SOL     OW29143   3.950   1.174   1.889
 9415SOL    HW129144   3.918   1.254   1.940
 9415SOL    HW229145   3.966   1.199   1.794
 9416SOL     OW29146   5.938   5.408   5.579
 9416SOL    HW129147   5.878   5.485   5.558
 9416SOL    HW229148   5.993   5.429   5.660
 9417SOL     OW29149   3.514   5.322   2.140
 9417SOL    HW129150   3.443   5.380   2.102
 9417SOL    HW229151   3.507   5.322   2.240
 9418SOL     OW29152   3.890   1.925   5.176
 9418SOL    HW129153   3.906   1.839   5.128
 9418SOL    HW229154   3.797   1.926   5.213
 9419SOL     OW29155   1.798   3.290   6.479
 9419SOL    HW129156   1.806   3.350   6.400
 9419SOL    HW229157   1.798   3.195   6.449
 9420SOL     OW29158   6.429   4.314   6.173
 9420SOL    HW129159   6.483   4.339   6.093
 9420SOL    HW229160   6.332   4.310   6.148
 9421SOL     OW29161   3.799   6.088   6.236
 9421SOL    HW129162   3.813   6.116   6.141
 9421SOL    HW229163   3.827   6.163   6.297
 9422SOL     OW29164   2.191   6.026   5.473
 9422SOL    HW129165   2.110   6.015   5.532
 9422SOL    HW229166   2.196   5.949   5.409
 9423SOL     OW29167   5.094   4.691   3.084
 9423SOL    HW129168   5.128   4.599   3.063
 9423SOL    HW229169   4.994   4.688   3.094
 9424SOL     OW29170   5.876   6.841   4.051
 9424SOL    HW129171   5.837   6.816   4.140
 9424SOL    HW229172   5.975   6.834   4.055
 9425SOL     OW29173   6.658   4.653   1.382
 9425SOL    HW129174   6.661   4.710   1.464
 9425SOL    HW229175   6.734   4.587   1.385
 9426SOL     OW29176   0.153   2.151   5.923
 9426SOL    HW129177   0.187   2.138   6.017
 9426SOL    HW229178   0.157   2.064   5.875
 9427SOL     OW29179   4.644   4.318   2.559
 9427SOL    HW129180   4.627   4.351   2.467
 9427SOL    HW229181   4.704   4.237   2.556
 9428SOL     OW29182   0.453   6.149   5.681
 9428SOL    HW129183   0.525   6.205   5.723
 9428SOL    HW229184   0.491   6.060   5.654
 9429SOL     OW29185   2.710   2.411   4.284
 9429SOL    HW129186   2.644   2.468   4.236
 9429SOL    HW229187   2.747   2.343   4.220
 9430SOL     OW29188   1.828   1.873   4.847
 9430SOL    HW129189   1.851   1.964   4.810
 9430SOL    HW229190   1.774   1.823   4.780
 9431SOL     OW29191   0.877   4.608   5.435
 9431SOL    HW129192   0.922   4.674   5.495
 9431SOL    HW229193   0.936   4.587   5.358
 9432SOL     OW29194   0.093   1.240   3.278
 9432SOL    HW129195   0.093   1.202   3.371
 9432SOL    HW229196   0.035   1.184   3.220
 9433SOL     OW29197   4.494   5.497   2.153
 9433SOL    HW129198   4.477   5.511   2.251
 9433SOL    HW229199   4.578   5.444   2.142
 9434SOL     OW29200   4.673   5.279   3.889
 9434SOL    HW129201   4.663   5.275   3.989
 9434SOL    HW229202   4.666   5.374   3.859
 9435SOL     OW29203   0.732   3.717   1.682
 9435SOL    HW129204   0.774   3.706   1.772
 9435SOL    HW229205   0.666   3.792   1.686
 9436SOL     OW29206   2.072   0.657   2.610
 9436SOL    HW129207   2.081   0.557   2.609
 9436SOL    HW229208   2.154   0.698   2.569
 9437SOL     OW29209   5.303   6.439   4.745
 9437SOL    HW129210   5.266   6.347   4.746
 9437SOL    HW229211   5.258   6.494   4.815
 9438SOL     OW29212   4.601   6.794   2.243
 9438SOL    HW129213   4.602   6.867   2.174
 9438SOL    HW229214   4.684   6.739   2.235
 9439SOL     OW29215   1.421   3.448   0.915
 9439SOL    HW129216   1.406   3.354   0.947
 9439SOL    HW229217   1.510   3.480   0.949
 9440SOL     OW29218   2.263   5.290   3.796
 9440SOL    HW129219   2.182   5.346   3.780
 9440SOL    HW229220   2.273   5.224   3.721
 9441SOL     OW29221   0.423   6.725   4.351
 9441SOL    HW129222   0.511   6.742   4.306
 9441SOL    HW229223   0.420   6.775   4.438
 9442SOL     OW29224   5.308   3.033   0.293
 9442SOL    HW129225   5.300   2.933   0.300
 9442SOL    HW229226   5.244   3.075   0.357
 9443SOL     OW29227   2.274   4.140   2.679
 9443SOL    HW129228   2.287   4.088   2.764
 9443SOL    HW229229   2.325   4.225   2.683
 9444SOL     OW29230   1.042   4.231   6.051
 9444SOL    HW129231   0.998   4.180   5.978
 9444SOL    HW229232   1.017   4.328   6.044
 9445SOL     OW29233   0.982   1.391   4.101
 9445SOL    HW129234   0.928   1.475   4.112
 9445SOL    HW229235   1.006   1.356   4.192
 9446SOL     OW29236   6.431   4.228   3.622
 9446SOL    HW129237   6.373   4.299   3.660
 9446SOL    HW229238   6.523   4.263   3.609
 9447SOL     OW29239   4.685   4.180   1.778
 9447SOL    HW129240   4.587   4.179   1.754
 9447SOL    HW229241   4.700   4.242   1.854
 9448SOL     OW29242   6.297   1.210   5.710
 9448SOL    HW129243   6.362   1.150   5.757
 9448SOL    HW229244   6.207   1.200   5.752
 9449SOL     OW29245   5.497   0.288   1.838
 9449SOL    HW129246   5.415   0.299   1.894
 9449SOL    HW229247   5.475   0.234   1.757
 9450SOL     OW29248   0.944   5.820   2.769
 9450SOL    HW129249   1.026   5.763   2.775
 9450SOL    HW229250   0.865   5.762   2.747
 9451SOL     OW29251   3.853   4.741   6.700
 9451SOL    HW129252   3.780   4.736   6.632
 9451SOL    HW229253   3.816   4.715   6.790
 9452SOL     OW29254   5.837   4.693   6.708
 9452SOL    HW129255   5.817   4.595   6.717
 9452SOL    HW229256   5.928   4.712   6.745
 9453SOL     OW29257   5.079   5.530   1.807
 9453SOL    HW129258   5.111   5.468   1.879
 9453SOL    HW229259   5.157   5.580   1.769
 9454SOL     OW29260   6.037   4.363   0.334
 9454SOL    HW129261   5.945   4.399   0.353
 9454SOL    HW229262   6.093   4.434   0.293
 9455SOL     OW29263   3.351   1.193   1.854
 9455SOL    HW129264   3.431   1.235   1.813
 9455SOL    HW229265   3.350   1.095   1.835
 9456SOL     OW29266   0.178   3.149   2.515
 9456SOL    HW129267   0.090   3.196   2.528
 9456SOL    HW229268   0.166   3.051   2.534
 9457SOL     OW29269   6.459   6.452   4.995
 9457SOL    HW129270   6.541   6.493   4.956
 9457SOL    HW229271   6.476   6.355   5.012
 9458SOL     OW29272   6.582   4.050   6.866
 9458SOL    HW129273   6.540   4.094   6.945
 9458SOL    HW229274   6.531   4.074   6.783
 9459SOL     OW29275   4.760   4.782   5.649
 9459SOL    HW129276   4.805   4.744   5.568
 9459SOL    HW229277   4.716   4.708   5.700
 9460SOL     OW29278   1.107   2.902   2.899
 9460SOL    HW129279   1.041   2.875   2.968
 9460SOL    HW229280   1.068   2.890   2.808
 9461SOL     OW29281   1.546   1.778   2.174
 9461SOL    HW129282   1.494   1.863   2.172
 9461SOL    HW229283   1.642   1.798   2.155
 9462SOL     OW29284   0.141   0.951   4.298
 9462SOL    HW129285   0.117   0.937   4.394
 9462SOL    HW229286   0.112   1.042   4.269
 9463SOL     OW29287   5.796   4.437   1.604
 9463SOL    HW129288   5.792   4.481   1.514
 9463SOL    HW229289   5.708   4.392   1.623
 9464SOL     OW29290   1.044   1.225   1.813
 9464SOL    HW129291   1.006   1.213   1.905
 9464SOL    HW229292   1.033   1.320   1.784
 9465SOL     OW29293   6.569   4.802   1.169
 9465SOL    HW129294   6.614   4.764   1.089
 9465SOL    HW229295   6.573   4.736   1.245
 9466SOL     OW29296   3.838   4.473   5.743
 9466SOL    HW129297   3.864   4.568   5.727
 9466SOL    HW229298   3.904   4.430   5.805
 9467SOL     OW29299   1.959   3.736   0.722
 9467SOL    HW129300   1.898   3.802   0.678
 9467SOL    HW229301   1.934   3.644   0.694
 9468SOL     OW29302   6.361   1.697   0.428
 9468SOL    HW129303   6.374   1.634   0.351
 9468SOL    HW229304   6.394   1.653   0.512
 9469SOL     OW29305   6.954   6.529   1.173
 9469SOL    HW129306   6.918   6.496   1.086
 9469SOL    HW229307   6.960   6.629   1.171
 9470SOL     OW29308   3.538   3.368   0.487
 9470SOL    HW129309   3.623   3.401   0.446
 9470SOL    HW229310   3.497   3.298   0.428
 9471SOL     OW29311   6.368   2.586   4.634
 9471SOL    HW129312   6.342   2.670   4.585
 9471SOL    HW229313   6.314   2.578   4.718
 9472SOL     OW29314   1.822   3.260   6.185
 9472SOL    HW129315   1.840   3.205   6.103
 9472SOL    HW229316   1.737   3.311   6.174
 9473SOL     OW29317   2.494   4.015   1.156
 9473SOL    HW129318   2.577   3.969   1.189
 9473SOL    HW229319   2.446   3.956   1.092
 9474SOL     OW29320   6.175   3.632   0.746
 9474SOL    HW129321   6.271   3.653   0.764
 9474SOL    HW229322   6.126   3.715   0.720
 9475SOL     OW29323   5.247   4.379   6.340
 9475SOL    HW129324   5.257   4.476   6.362
 9475SOL    HW229325   5.185   4.336   6.406
 9476SOL     OW29326   3.854   3.673   7.012
 9476SOL    HW129327   3.888   3.580   7.007
 9476SOL    HW229328   3.931   3.737   7.013
 9477SOL     OW29329   1.720   4.203   0.410
 9477SOL    HW129330   1.689   4.288   0.367
 9477SOL    HW229331   1.652   4.173   0.477
 9478SOL     OW29332   5.568   3.786   6.392
 9478SOL    HW129333   5.608   3.851   6.457
 9478SOL    HW229334   5.470   3.805   6.382
 9479SOL     OW29335   3.909   0.269   2.217
 9479SOL    HW129336   3.962   0.234   2.139
 9479SOL    HW229337   3.814   0.284   2.189
 9480SOL     OW29338   6.396   1.064   0.556
 9480SOL    HW129339   6.347   1.150   0.546
 9480SOL    HW229340   6.388   1.030   0.650
 9481SOL     OW29341   4.051   6.629   3.332
 9481SOL    HW129342   4.043   6.550   3.392
 9481SOL    HW229343   4.040   6.713   3.386
 9482SOL     OW29344   6.577   6.181   6.977
 9482SOL    HW129345   6.666   6.218   6.951
 9482SOL    HW229346   6.512   6.193   6.902
 9483SOL     OW29347   6.598   6.991   0.464
 9483SOL    HW129348   6.594   6.891   0.470
 9483SOL    HW229349   6.536   0.003   0.393
 9484SOL     OW29350   3.956   5.867   4.689
 9484SOL    HW129351   4.007   5.856   4.774
 9484SOL    HW229352   3.865   5.827   4.698
 9485SOL     OW29353   0.097   0.936   0.056
 9485SOL    HW129354   0.094   1.005   0.128
 9485SOL    HW229355   0.075   0.978   6.988
 9486SOL     OW29356   5.366   5.882   0.145
 9486SOL    HW129357   5.350   5.981   0.148
 9486SOL    HW229358   5.320   5.843   0.066
 9487SOL     OW29359   3.489   3.258   3.109
 9487SOL    HW129360   3.395   3.280   3.133
 9487SOL    HW229361   3.500   3.263   3.009
 9488SOL     OW29362   1.475   0.501   1.248
 9488SOL    HW129363   1.541   0.441   1.203
 9488SOL    HW229364   1.501   0.515   1.344
 9489SOL     OW29365   5.552   2.967   0.074
 9489SOL    HW129366   5.479   2.930   0.132
 9489SOL    HW229367   5.599   3.041   0.123
 9490SOL     OW29368   5.306   3.461   4.468
 9490SOL    HW129369   5.276   3.391   4.533
 9490SOL    HW229370   5.227   3.513   4.437
 9491SOL     OW29371   5.151   6.243   2.841
 9491SOL    HW129372   5.066   6.226   2.790
 9491SOL    HW229373   5.225   6.191   2.799
 9492SOL     OW29374   5.153   2.740   3.516
 9492SOL    HW129375   5.082   2.783   3.460
 9492SOL    HW229376   5.181   2.654   3.474
 9493SOL     OW29377   4.181   6.105   1.406
 9493SOL    HW129378   4.240   6.079   1.483
 9493SOL    HW229379   4.238   6.137   1.330
 9494SOL     OW29380   5.758   2.248   1.744
 9494SOL    HW129381   5.758   2.281   1.839
 9494SOL    HW229382   5.755   2.326   1.682
 9495SOL     OW29383   0.187   2.267   1.445
 9495SOL    HW129384   0.236   2.348   1.412
 9495SOL    HW229385   0.253   2.199   1.476
 9496SOL     OW29386   5.540   2.095   1.623
 9496SOL    HW129387   5.618   2.124   1.678
 9496SOL    HW229388   5.545   1.996   1.607
 9497SOL     OW29389   4.578   4.492   4.620
 9497SOL    HW129390   4.619   4.555   4.686
 9497SOL    HW229391   4.518   4.542   4.558
 9498SOL     OW29392   0.218   5.681   4.462
 9498SOL    HW129393   0.264   5.621   4.528
 9498SOL    HW229394   0.243   5.654   4.369
 9499SOL     OW29395   6.088   5.960   5.123
 9499SOL    HW129396   6.188   5.954   5.119
 9499SOL    HW229397   6.060   6.056   5.111
 9500SOL     OW29398   3.748   1.746   0.802
 9500SOL    HW129399   3.658   1.787   0.818
 9500SOL    HW229400   3.740   1.646   0.809
 9501SOL     OW29401   1.868   3.313   5.136
 9501SOL    HW129402   1.874   3.398   5.189
 9501SOL    HW229403   1.954   3.298   5.087
 9502SOL     OW29404   5.063   4.542   4.006
 9502SOL    HW129405   5.071   4.627   4.058
 9502SOL    HW229406   5.153   4.513   3.975
 9503SOL     OW29407   6.649   1.455   0.034
 9503SOL    HW129408   6.600   1.404   0.104
 9503SOL    HW229409   6.607   1.545   0.022
 9504SOL     OW29410   6.249   5.423   2.375
 9504SOL    HW129411   6.189   5.342   2.377
 9504SOL    HW229412   6.214   5.488   2.308
 9505SOL     OW29413   4.004   4.920   6.093
 9505SOL    HW129414   3.960   4.937   6.182
 9505SOL    HW229415   4.056   5.001   6.066
 9506SOL     OW29416   2.985   0.829   1.058
 9506SOL    HW129417   2.896   0.789   1.079
 9506SOL    HW229418   3.041   0.762   1.009
 9507SOL     OW29419   5.265   0.303   1.978
 9507SOL    HW129420   5.227   0.230   1.922
 9507SOL    HW229421   5.277   0.270   2.072
 9508SOL     OW29422   4.527   1.885   2.480
 9508SOL    HW129423   4.600   1.834   2.435
 9508SOL    HW229424   4.552   1.982   2.485
 9509SOL     OW29425   5.441   0.596   3.400
 9509SOL    HW129426   5.530   0.633   3.371
 9509SOL    HW229427   5.452   0.549   3.487
 9510SOL     OW29428   1.180   3.027   3.782
 9510SOL    HW129429   1.162   3.026   3.881
 9510SOL    HW229430   1.190   3.122   3.751
 9511SOL     OW29431   0.398   1.567   1.010
 9511SOL    HW129432   0.454   1.540   0.931
 9511SOL    HW229433   0.458   1.583   1.089
 9512SOL     OW29434   6.413   2.140   1.186
 9512SOL    HW129435   6.494   2.150   1.128
 9512SOL    HW229436   6.335   2.117   1.128
 9513SOL     OW29437   4.617   4.552   5.727
 9513SOL    HW129438   4.541   4.529   5.666
 9513SOL    HW229439   4.668   4.470   5.750
 9514SOL     OW29440   3.524   2.935   6.789
 9514SOL    HW129441   3.565   3.009   6.734
 9514SOL    HW229442   3.594   2.867   6.811
 9515SOL     OW29443   0.980   5.692   3.222
 9515SOL    HW129444   1.009   5.653   3.134
 9515SOL    HW229445   1.058   5.735   3.267
 9516SOL     OW29446   0.350   4.444   0.021
 9516SOL    HW129447   0.296   4.366   0.053
 9516SOL    HW229448   0.409   4.476   0.094
 9517SOL     OW29449   0.541   5.848   1.107
 9517SOL    HW129450   0.508   5.785   1.177
 9517SOL    HW229451   0.538   5.802   1.018
 9518SOL     OW29452   1.118   1.118   0.897
 9518SOL    HW129453   1.192   1.091   0.959
 9518SOL    HW229454   1.119   1.218   0.886
 9519SOL     OW29455   1.378   3.131   5.212
 9519SOL    HW129456   1.461   3.179   5.241
 9519SOL    HW229457   1.394   3.086   5.124
 9520SOL     OW29458   4.439   0.002   1.656
 9520SOL    HW129459   4.395   6.975   1.732
 9520SOL    HW229460   4.499   0.074   1.691
 9521SOL     OW29461   5.122   5.187   3.748
 9521SOL    HW129462   5.169   5.164   3.663
 9521SOL    HW229463   5.152   5.125   3.820
 9522SOL     OW29464   3.360   6.231   1.006
 9522SOL    HW129465   3.350   6.152   1.066
 9522SOL    HW229466   3.457   6.256   0.999
 9523SOL     OW29467   2.751   5.762   5.804
 9523SOL    HW129468   2.805   5.845   5.801
 9523SOL    HW229469   2.809   5.685   5.829
 9524SOL     OW29470   4.679   2.715   0.680
 9524SOL    HW129471   4.693   2.628   0.728
 9524SOL    HW229472   4.704   2.790   0.741
 9525SOL     OW29473   3.416   0.409   5.503
 9525SOL    HW129474   3.423   0.460   5.589
 9525SOL    HW229475   3.508   0.390   5.468
 9526SOL     OW29476   4.937   5.619   2.029
 9526SOL    HW129477   4.995   5.622   1.948
 9526SOL    HW229478   4.913   5.713   2.056
 9527SOL     OW29479   5.940   2.104   1.027
 9527SOL    HW129480   5.863   2.103   0.962
 9527SOL    HW229481   5.912   2.060   1.113
 9528SOL     OW29482   6.127   0.469   1.793
 9528SOL    HW129483   6.170   0.455   1.882
 9528SOL    HW229484   6.029   0.488   1.806
 9529SOL     OW29485   0.851   3.434   4.844
 9529SOL    HW129486   0.780   3.502   4.829
 9529SOL    HW229487   0.916   3.435   4.768
 9530SOL     OW29488   1.719   2.231   4.178
 9530SOL    HW129489   1.788   2.284   4.228
 9530SOL    HW229490   1.670   2.172   4.241
 9531SOL     OW29491   2.870   6.455   3.392
 9531SOL    HW129492   2.945   6.394   3.417
 9531SOL    HW229493   2.783   6.405   3.400
 9532SOL     OW29494   3.122   1.040   1.155
 9532SOL    HW129495   3.074   0.965   1.110
 9532SOL    HW229496   3.058   1.094   1.208
 9533SOL     OW29497   1.654   0.397   4.893
 9533SOL    HW129498   1.592   0.344   4.951
 9533SOL    HW229499   1.678   0.482   4.939
 9534SOL     OW29500   4.475   1.721   4.176
 9534SOL    HW129501   4.473   1.784   4.098
 9534SOL    HW229502   4.491   1.772   4.260
 9535SOL     OW29503   2.336   2.443   5.692
 9535SOL    HW129504   2.359   2.362   5.745
 9535SOL    HW229505   2.397   2.518   5.718
 9536SOL     OW29506   3.396   0.176   6.938
 9536SOL    HW129507   3.381   0.260   6.887
 9536SOL    HW229508   3.366   0.098   6.884
 9537SOL     OW29509   2.747   6.737   0.684
 9537SOL    HW129510   2.711   6.689   0.765
 9537SOL    HW229511   2.835   6.698   0.658
 9538SOL     OW29512   5.842   3.067   4.153
 9538SOL    HW129513   5.936   3.069   4.188
 9538SOL    HW229514   5.781   3.026   4.221
 9539SOL     OW29515   0.412   4.956   1.078
 9539SOL    HW129516   0.326   4.907   1.070
 9539SOL    HW229517   0.473   4.909   1.142
 9540SOL     OW29518   5.545   3.241   5.372
 9540SOL    HW129519   5.530   3.144   5.386
 9540SOL    HW229520   5.462   3.292   5.396
 9541SOL     OW29521   0.388   1.949   3.305
 9541SOL    HW129522   0.365   1.860   3.265
 9541SOL    HW229523   0.349   1.955   3.397
 9542SOL     OW29524   5.160   4.195   4.315
 9542SOL    HW129525   5.139   4.162   4.407
 9542SOL    HW229526   5.193   4.119   4.259
 9543SOL     OW29527   5.387   1.984   1.877
 9543SOL    HW129528   5.406   2.033   1.792
 9543SOL    HW229529   5.294   1.948   1.875
 9544SOL     OW29530   3.349   1.682   2.170
 9544SOL    HW129531   3.446   1.662   2.181
 9544SOL    HW229532   3.337   1.774   2.133
 9545SOL     OW29533   0.419   0.042   4.366
 9545SOL    HW129534   0.431   6.986   4.430
 9545SOL    HW229535   0.486   0.113   4.385
 9546SOL     OW29536   2.495   4.262   1.718
 9546SOL    HW129537   2.529   4.351   1.748
 9546SOL    HW229538   2.398   4.254   1.739
 9547SOL     OW29539   6.373   5.666   2.903
 9547SOL    HW129540   6.466   5.700   2.921
 9547SOL    HW229541   6.352   5.592   2.966
 9548SOL     OW29542   4.559   6.396   2.821
 9548SOL    HW129543   4.536   6.443   2.906
 9548SOL    HW229544   4.525   6.449   2.743
 9549SOL     OW29545   2.677   5.360   0.139
 9549SOL    HW129546   2.610   5.433   0.127
 9549SOL    HW229547   2.740   5.360   0.062
 9550SOL     OW29548   1.290   1.915   0.437
 9550SOL    HW129549   1.343   1.938   0.355
 9550SOL    HW229550   1.347   1.929   0.518
 9551SOL     OW29551   1.980   6.015   5.652
 9551SOL    HW129552   2.004   5.934   5.704
 9551SOL    HW229553   1.938   6.083   5.712
 9552SOL     OW29554   0.425   5.600   3.734
 9552SOL    HW129555   0.361   5.676   3.742
 9552SOL    HW229556   0.407   5.550   3.649
 9553SOL     OW29557   5.221   4.712   5.468
 9553SOL    HW129558   5.289   4.672   5.529
 9553SOL    HW229559   5.261   4.727   5.378
 9554SOL     OW29560   2.006   0.942   1.727
 9554SOL    HW129561   1.959   0.915   1.811
 9554SOL    HW229562   1.982   0.879   1.653
 9555SOL     OW29563   6.664   2.340   6.210
 9555SOL    HW129564   6.698   2.395   6.133
 9555SOL    HW229565   6.570   2.311   6.190
 9556SOL     OW29566   0.169   1.959   1.190
 9556SOL    HW129567   0.126   2.037   1.237
 9556SOL    HW229568   0.247   1.992   1.138
 9557SOL     OW29569   5.618   2.726   1.454
 9557SOL    HW129570   5.631   2.777   1.540
 9557SOL    HW229571   5.641   2.630   1.469
 9558SOL     OW29572   5.924   4.676   1.878
 9558SOL    HW129573   5.945   4.760   1.829
 9558SOL    HW229574   5.892   4.698   1.970
 9559SOL     OW29575   6.410   2.761   2.678
 9559SOL    HW129576   6.379   2.669   2.656
 9559SOL    HW229577   6.332   2.817   2.706
 9560SOL     OW29578   4.047   1.598   4.670
 9560SOL    HW129579   4.143   1.589   4.643
 9560SOL    HW229580   4.013   1.509   4.700
 9561SOL     OW29581   3.678   6.550   0.323
 9561SOL    HW129582   3.600   6.492   0.302
 9561SOL    HW229583   3.752   6.532   0.257
 9562SOL     OW29584   5.631   5.195   3.453
 9562SOL    HW129585   5.623   5.239   3.363
 9562SOL    HW229586   5.691   5.250   3.511
 9563SOL     OW29587   0.174   5.784   6.813
 9563SOL    HW129588   0.195   5.761   6.908
 9563SOL    HW229589   0.104   5.855   6.811
 9564SOL     OW29590   1.810   0.160   6.498
 9564SOL    HW129591   1.878   0.089   6.514
 9564SOL    HW229592   1.722   0.118   6.477
 9565SOL     OW29593   3.791   5.737   3.961
 9565SOL    HW129594   3.692   5.730   3.973
 9565SOL    HW229595   3.834   5.758   4.049
 9566SOL     OW29596   3.259   4.691   5.581
 9566SOL    HW129597   3.227   4.668   5.489
 9566SOL    HW229598   3.352   4.656   5.593
 9567SOL     OW29599   6.316   5.680   5.344
 9567SOL    HW129600   6.247   5.731   5.292
 9567SOL    HW229601   6.325   5.588   5.306
 9568SOL     OW29602   5.247   3.955   6.152
 9568SOL    HW129603   5.260   3.964   6.251
 9568SOL    HW229604   5.186   3.878   6.133
 9569SOL     OW29605   5.021   6.585   1.915
 9569SOL    HW129606   4.994   6.666   1.864
 9569SOL    HW229607   5.118   6.593   1.940
 9570SOL     OW29608   0.881   0.479   6.862
 9570SOL    HW129609   0.890   0.579   6.854
 9570SOL    HW229610   0.790   0.457   6.896
 9571SOL     OW29611   2.385   2.846   6.862
 9571SOL    HW129612   2.336   2.810   6.783
 9571SOL    HW229613   2.320   2.885   6.927
 9572SOL     OW29614   0.515   4.284   0.734
 9572SOL    HW129615   0.484   4.244   0.648
 9572SOL    HW229616   0.581   4.356   0.715
 9573SOL     OW29617   6.204   1.775   2.169
 9573SOL    HW129618   6.173   1.708   2.101
 9573SOL    HW229619   6.304   1.776   2.173
 9574SOL     OW29620   2.367   2.153   3.905
 9574SOL    HW129621   2.402   2.206   3.983
 9574SOL    HW229622   2.371   2.056   3.927
 9575SOL     OW29623   4.759   0.920   2.559
 9575SOL    HW129624   4.790   0.853   2.626
 9575SOL    HW229625   4.796   1.010   2.583
 9576SOL     OW29626   4.115   2.174   5.493
 9576SOL    HW129627   4.093   2.152   5.588
 9576SOL    HW229628   4.145   2.092   5.446
 9577SOL     OW29629   0.501   6.454   2.996
 9577SOL    HW129630   0.461   6.394   2.926
 9577SOL    HW229631   0.526   6.541   2.955
 9578SOL     OW29632   6.239   4.007   1.926
 9578SOL    HW129633   6.206   4.081   1.985
 9578SOL    HW229634   6.234   4.035   1.831
 9579SOL     OW29635   1.666   6.232   2.914
 9579SOL    HW129636   1.646   6.295   2.839
 9579SOL    HW229637   1.582   6.207   2.961
 9580SOL     OW29638   4.306   3.604   5.681
 9580SOL    HW129639   4.389   3.549   5.678
 9580SOL    HW229640   4.329   3.700   5.665
 9581SOL     OW29641   1.619   5.323   5.911
 9581SOL    HW129642   1.712   5.340   5.875
 9581SOL    HW229643   1.601   5.225   5.909
 9582SOL     OW29644   4.320   4.639   3.510
 9582SOL    HW129645   4.311   4.671   3.416
 9582SOL    HW229646   4.230   4.642   3.554
 9583SOL     OW29647   2.263   4.710   1.886
 9583SOL    HW129648   2.227   4.672   1.801
 9583SOL    HW229649   2.341   4.656   1.916
 9584SOL     OW29650   5.928   5.375   6.966
 9584SOL    HW129651   5.866   5.309   7.008
 9584SOL    HW229652   5.878   5.459   6.944
 9585SOL     OW29653   0.330   7.016   3.198
 9585SOL    HW129654   0.376   6.928   3.189
 9585SOL    HW229655   0.241   7.002   3.241
 9586SOL     OW29656   5.350   2.827   2.558
 9586SOL    HW129657   5.376   2.750   2.500
 9586SOL    HW229658   5.259   2.811   2.596
 9587SOL     OW29659   4.819   6.650   2.523
 9587SOL    HW129660   4.823   6.564   2.472
 9587SOL    HW229661   4.910   6.691   2.526
 9588SOL     OW29662   6.940   0.129   3.513
 9588SOL    HW129663   0.001   0.139   3.455
 9588SOL    HW229664   6.907   0.219   3.540
 9589SOL     OW29665   2.557   1.567   5.396
 9589SOL    HW129666   2.639   1.624   5.403
 9589SOL    HW229667   2.514   1.560   5.486
 9590SOL     OW29668   0.218   4.766   4.302
 9590SOL    HW129669   0.215   4.667   4.287
 9590SOL    HW229670   0.302   4.790   4.350
 9591SOL     OW29671   1.505   4.628   3.154
 9591SOL    HW129672   1.437   4.646   3.225
 9591SOL    HW229673   1.521   4.711   3.100
 9592SOL     OW29674   4.627   5.874   1.772
 9592SOL    HW129675   4.553   5.831   1.824
 9592SOL    HW229676   4.659   5.811   1.701
 9593SOL     OW29677   1.780   3.060   3.977
 9593SOL    HW129678   1.838   2.991   3.934
 9593SOL    HW229679   1.721   3.017   4.045
 9594SOL     OW29680   6.077   6.773   1.678
 9594SOL    HW129681   6.021   6.827   1.740
 9594SOL    HW229682   6.100   6.828   1.597
 9595SOL     OW29683   1.102   4.537   4.700
 9595SOL    HW129684   1.079   4.578   4.788
 9595SOL    HW229685   1.093   4.605   4.628
 9596SOL     OW29686   5.008   5.412   2.776
 9596SOL    HW129687   5.060   5.379   2.854
 9596SOL    HW229688   5.063   5.404   2.693
 9597SOL     OW29689   1.816   4.504   1.020
 9597SOL    HW129690   1.724   4.486   1.054
 9597SOL    HW229691   1.837   4.601   1.031
 9598SOL     OW29692   1.498   5.936   5.625
 9598SOL    HW129693   1.419   5.997   5.616
 9598SOL    HW229694   1.550   5.935   5.540
 9599SOL     OW29695   4.417   1.259   4.158
 9599SOL    HW129696   4.408   1.177   4.214
 9599SOL    HW229697   4.493   1.247   4.094
 9600SOL     OW29698   1.600   5.944   6.956
 9600SOL    HW129699   1.651   5.858   6.954
 9600SOL    HW229700   1.665   6.020   6.959
 9601SOL     OW29701   0.764   6.848   6.403
 9601SOL    HW129702   0.800   6.773   6.348
 9601SOL    HW229703   0.668   6.831   6.425
 9602SOL     OW29704   0.755   5.592   0.146
 9602SOL    HW129705   0.747   5.665   0.214
 9602SOL    HW229706   0.824   5.617   0.078
 9603SOL     OW29707   1.253   5.026   3.376
 9603SOL    HW129708   1.342   5.063   3.348
 9603SOL    HW229709   1.182   5.058   3.313
 9604SOL     OW29710   6.809   0.222   0.405
 9604SOL    HW129711   6.834   0.144   0.463
 9604SOL    HW229712   6.813   0.306   0.458
 9605SOL     OW29713   2.443   5.526   0.155
 9605SOL    HW129714   2.367   5.533   0.220
 9605SOL    HW229715   2.407   5.514   0.063
 9606SOL     OW29716   6.179   0.627   5.186
 9606SOL    HW129717   6.099   0.667   5.232
 9606SOL    HW229718   6.159   0.532   5.162
 9607SOL     OW29719   6.925   2.380   2.756
 9607SOL    HW129720   6.869   2.461   2.735
 9607SOL    HW229721   6.921   2.317   2.679
 9608SOL     OW29722   6.054   0.341   2.586
 9608SOL    HW129723   5.969   0.303   2.622
 9608SOL    HW229724   6.120   0.267   2.572
 9609SOL     OW29725   1.640   2.392   3.904
 9609SOL    HW129726   1.681   2.461   3.844
 9609SOL    HW229727   1.661   2.301   3.870
 9610SOL     OW29728   3.813   1.357   6.068
 9610SOL    HW129729   3.785   1.276   6.016
 9610SOL    HW229730   3.745   1.430   6.056
 9611SOL     OW29731   6.288   5.380   0.804
 9611SOL    HW129732   6.366   5.418   0.853
 9611SOL    HW229733   6.214   5.363   0.869
 9612SOL     OW29734   4.882   3.409   2.866
 9612SOL    HW129735   4.903   3.342   2.796
 9612SOL    HW229736   4.846   3.362   2.947
 9613SOL     OW29737   6.067   6.688   5.244
 9613SOL    HW129738   6.083   6.769   5.302
 9613SOL    HW229739   6.145   6.676   5.183
 9614SOL     OW29740   3.350   2.769   1.977
 9614SOL    HW129741   3.255   2.765   2.007
 9614SOL    HW229742   3.364   2.709   1.898
 9615SOL     OW29743   0.537   6.310   3.928
 9615SOL    HW129744   0.598   6.310   4.008
 9615SOL    HW229745   0.579   6.256   3.855
 9616SOL     OW29746   1.781   3.273   1.707
 9616SOL    HW129747   1.734   3.185   1.699
 9616SOL    HW229748   1.840   3.272   1.788
 9617SOL     OW29749   0.287   2.850   2.467
 9617SOL    HW129750   0.335   2.853   2.379
 9617SOL    HW229751   0.348   2.879   2.540
 9618SOL     OW29752   4.277   4.101   0.369
 9618SOL    HW129753   4.187   4.113   0.410
 9618SOL    HW229754   4.267   4.085   0.270
 9619SOL     OW29755   1.375   6.911   1.208
 9619SOL    HW129756   1.411   7.005   1.206
 9619SOL    HW229757   1.348   6.884   1.116
 9620SOL     OW29758   3.622   2.073   0.112
 9620SOL    HW129759   3.568   2.113   0.186
 9620SOL    HW229760   3.591   2.110   0.024
 9621SOL     OW29761   0.599   1.473   2.296
 9621SOL    HW129762   0.578   1.550   2.236
 9621SOL    HW229763   0.675   1.420   2.258
 9622SOL     OW29764   0.284   5.743   6.300
 9622SOL    HW129765   0.298   5.760   6.398
 9622SOL    HW229766   0.373   5.746   6.253
 9623SOL     OW29767   4.132   6.307   5.695
 9623SOL    HW129768   4.178   6.339   5.778
 9623SOL    HW229769   4.081   6.383   5.654
 9624SOL     OW29770   4.631   5.121   4.461
 9624SOL    HW129771   4.591   5.170   4.538
 9624SOL    HW229772   4.558   5.090   4.400
 9625SOL     OW29773   4.999   4.072   6.437
 9625SOL    HW129774   5.092   4.047   6.410
 9625SOL    HW229775   4.934   4.022   6.381
 9626SOL     OW29776   2.468   2.403   6.991
 9626SOL    HW129777   2.527   2.374   6.916
 9626SOL    HW229778   2.515   2.472   0.025
 9627SOL     OW29779   0.420   5.231   0.224
 9627SOL    HW129780   0.519   5.230   0.210
 9627SOL    HW229781   0.381   5.312   0.181
 9628SOL     OW29782   6.649   2.077   6.450
 9628SOL    HW129783   6.641   2.165   6.495
 9628SOL    HW229784   6.571   2.020   6.473
 9629SOL     OW29785   0.296   6.054   3.801
 9629SOL    HW129786   0.342   6.101   3.876
 9629SOL    HW229787   0.349   6.068   3.717
 9630SOL     OW29788   6.079   1.055   5.517
 9630SOL    HW129789   6.124   0.979   5.469
 9630SOL    HW229790   5.995   1.022   5.559
 9631SOL     OW29791   4.163   6.360   0.728
 9631SOL    HW129792   4.125   6.411   0.805
 9631SOL    HW229793   4.132   6.401   0.642
 9632SOL     OW29794   2.647   5.286   2.645
 9632SOL    HW129795   2.726   5.347   2.655
 9632SOL    HW229796   2.656   5.210   2.709
 9633SOL     OW29797   3.389   3.478   3.438
 9633SOL    HW129798   3.380   3.576   3.453
 9633SOL    HW229799   3.467   3.461   3.377
 9634SOL     OW29800   5.538   4.826   3.087
 9634SOL    HW129801   5.512   4.840   3.182
 9634SOL    HW229802   5.497   4.896   3.029
 9635SOL     OW29803   0.834   5.437   3.775
 9635SOL    HW129804   0.850   5.521   3.722
 9635SOL    HW229805   0.808   5.461   3.868
 9636SOL     OW29806   5.420   3.982   3.897
 9636SOL    HW129807   5.417   4.061   3.836
 9636SOL    HW229808   5.354   3.913   3.866
 9637SOL     OW29809   1.111   3.491   0.035
 9637SOL    HW129810   1.178   3.564   0.023
 9637SOL    HW229811   1.089   3.450   6.967
 9638SOL     OW29812   6.176   5.755   6.139
 9638SOL    HW129813   6.090   5.711   6.165
 9638SOL    HW229814   6.227   5.779   6.221
 9639SOL     OW29815   4.508   1.899   1.372
 9639SOL    HW129816   4.479   1.946   1.289
 9639SOL    HW229817   4.533   1.966   1.442
 9640SOL     OW29818   4.244   0.562   3.735
 9640SOL    HW129819   4.200   0.564   3.645
 9640SOL    HW229820   4.318   0.494   3.734
 9641SOL     OW29821   6.767   3.366   3.424
 9641SOL    HW129822   6.707   3.295   3.458
 9641SOL    HW229823   6.821   3.404   3.499
 9642SOL     OW29824   0.664   0.600   4.458
 9642SOL    HW129825   0.728   0.672   4.487
 9642SOL    HW229826   0.635   0.548   4.539
 9643SOL     OW29827   4.903   5.162   4.156
 9643SOL    HW129828   4.885   5.109   4.239
 9643SOL    HW229829   4.833   5.232   4.145
 9644SOL     OW29830   0.779   5.538   4.018
 9644SOL    HW129831   0.708   5.608   4.030
 9644SOL    HW229832   0.834   5.531   4.101
 9645SOL     OW29833   1.028   5.019   6.321
 9645SOL    HW129834   1.005   5.029   6.224
 9645SOL    HW229835   1.121   5.053   6.337
 9646SOL     OW29836   4.169   5.394   6.970
 9646SOL    HW129837   4.258   5.431   6.997
 9646SOL    HW229838   4.108   5.469   6.946
 9647SOL     OW29839   5.949   6.587   2.702
 9647SOL    HW129840   5.904   6.675   2.691
 9647SOL    HW229841   6.004   6.567   2.620
 9648SOL     OW29842   4.110   2.074   1.187
 9648SOL    HW129843   4.166   2.003   1.229
 9648SOL    HW229844   4.051   2.033   1.118
 9649SOL     OW29845   0.489   5.835   0.377
 9649SOL    HW129846   0.570   5.850   0.433
 9649SOL    HW229847   0.473   5.736   0.367
 9650SOL     OW29848   0.140   4.950   4.081
 9650SOL    HW129849   0.074   4.903   4.022
 9650SOL    HW229850   0.186   4.882   4.139
 9651SOL     OW29851   4.223   1.664   0.082
 9651SOL    HW129852   4.301   1.690   0.138
 9651SOL    HW229853   4.247   1.672   7.005
 9652SOL     OW29854   0.675   4.228   0.218
 9652SOL    HW129855   0.703   4.223   0.314
 9652SOL    HW229856   0.662   4.323   0.191
 9653SOL     OW29857   4.924   4.392   5.912
 9653SOL    HW129858   4.972   4.425   5.831
 9653SOL    HW229859   4.831   4.364   5.888
 9654SOL     OW29860   3.349   3.613   3.139
 9654SOL    HW129861   3.301   3.689   3.182
 9654SOL    HW229862   3.309   3.526   3.170
 9655SOL     OW29863   4.397   1.647   0.871
 9655SOL    HW129864   4.497   1.644   0.867
 9655SOL    HW229865   4.361   1.693   0.790
 9656SOL     OW29866   5.676   4.078   6.268
 9656SOL    HW129867   5.638   4.054   6.179
 9656SOL    HW229868   5.607   4.065   6.339
 9657SOL     OW29869   5.894   4.116   4.025
 9657SOL    HW129870   5.827   4.062   3.974
 9657SOL    HW229871   5.956   4.055   4.074
 9658SOL     OW29872   4.855   1.455   2.011
 9658SOL    HW129873   4.838   1.550   1.983
 9658SOL    HW229874   4.920   1.413   1.948
 9659SOL     OW29875   2.194   2.846   6.657
 9659SOL    HW129876   2.155   2.778   6.596
 9659SOL    HW229877   2.212   2.930   6.606
 9660SOL     OW29878   1.767   6.329   1.553
 9660SOL    HW129879   1.830   6.256   1.578
 9660SOL    HW229880   1.688   6.291   1.504
 9661SOL     OW29881   4.429   3.887   1.297
 9661SOL    HW129882   4.499   3.945   1.337
 9661SOL    HW229883   4.438   3.793   1.332
 9662SOL     OW29884   5.619   6.430   6.491
 9662SOL    HW129885   5.566   6.402   6.411
 9662SOL    HW229886   5.712   6.395   6.483
 9663SOL     OW29887   0.854   5.432   1.939
 9663SOL    HW129888   0.777   5.412   1.879
 9663SOL    HW229889   0.912   5.351   1.947
 9664SOL     OW29890   4.229   5.093   2.124
 9664SOL    HW129891   4.169   5.136   2.057
 9664SOL    HW229892   4.316   5.068   2.081
 9665SOL     OW29893   0.086   5.482   6.148
 9665SOL    HW129894   0.016   5.548   6.121
 9665SOL    HW229895   0.169   5.499   6.095
 9666SOL     OW29896   5.667   4.438   6.756
 9666SOL    HW129897   5.630   4.463   6.845
 9666SOL    HW229898   5.725   4.357   6.765
 9667SOL     OW29899   5.917   6.291   6.772
 9667SOL    HW129900   5.871   6.218   6.721
 9667SOL    HW229901   5.883   6.294   6.865
 9668SOL     OW29902   1.126   0.911   5.940
 9668SOL    HW129903   1.118   0.865   6.028
 9668SOL    HW229904   1.035   0.928   5.903
 9669SOL     OW29905   3.277   0.413   0.497
 9669SOL    HW129906   3.178   0.410   0.484
 9669SOL    HW229907   3.317   0.326   0.469
 9670SOL     OW29908   0.577   0.083   0.285
 9670SOL    HW129909   0.584   7.011   0.321
 9670SOL    HW229910   0.569   0.148   0.361
 9671SOL     OW29911   0.912   5.216   6.523
 9671SOL    HW129912   0.945   5.157   6.449
 9671SOL    HW229913   0.914   5.165   6.609
 9672SOL     OW29914   0.774   3.622   4.498
 9672SOL    HW129915   0.846   3.691   4.509
 9672SOL    HW229916   0.720   3.643   4.417
 9673SOL     OW29917   1.733   3.484   0.278
 9673SOL    HW129918   1.667   3.427   0.327
 9673SOL    HW229919   1.703   3.497   0.184
 9674SOL     OW29920   2.076   6.380   4.107
 9674SOL    HW129921   2.020   6.394   4.025
 9674SOL    HW229922   2.047   6.296   4.153
 9675SOL     OW29923   6.407   3.746   6.234
 9675SOL    HW129924   6.446   3.701   6.154
 9675SOL    HW229925   6.347   3.820   6.204
 9676SOL     OW29926   0.870   2.727   6.566
 9676SOL    HW129927   0.940   2.698   6.502
 9676SOL    HW229928   0.863   2.827   6.565
 9677SOL     OW29929   6.819   5.466   2.103
 9677SOL    HW129930   6.859   5.410   2.176
 9677SOL    HW229931   6.827   5.563   2.128
 9678SOL     OW29932   3.263   3.632   5.316
 9678SOL    HW129933   3.242   3.709   5.256
 9678SOL    HW229934   3.182   3.608   5.369
 9679SOL     OW29935   1.750   1.400   4.189
 9679SOL    HW129936   1.718   1.493   4.208
 9679SOL    HW229937   1.678   1.349   4.141
 9680SOL     OW29938   4.316   6.908   1.889
 9680SOL    HW129939   4.231   6.858   1.904
 9680SOL    HW229940   4.381   6.886   1.962
 9681SOL     OW29941   0.978   2.163   2.022
 9681SOL    HW129942   1.054   2.226   2.040
 9681SOL    HW229943   0.972   2.145   1.924
 9682SOL     OW29944   5.017   6.393   6.037
 9682SOL    HW129945   5.099   6.352   6.076
 9682SOL    HW229946   5.003   6.358   5.944
 9683SOL     OW29947   3.263   6.280   3.219
 9683SOL    HW129948   3.316   6.310   3.140
 9683SOL    HW229949   3.260   6.180   3.221
 9684SOL     OW29950   6.976   3.725   5.393
 9684SOL    HW129951   0.041   3.689   5.354
 9684SOL    HW229952   6.912   3.745   5.319
 9685SOL     OW29953   3.411   4.228   1.255
 9685SOL    HW129954   3.483   4.166   1.224
 9685SOL    HW229955   3.331   4.175   1.284
 9686SOL     OW29956   6.163   0.975   5.252
 9686SOL    HW129957   6.111   1.030   5.187
 9686SOL    HW229958   6.123   0.884   5.259
 9687SOL     OW29959   5.760   0.893   3.125
 9687SOL    HW129960   5.857   0.904   3.148
 9687SOL    HW229961   5.723   0.981   3.094
 9688SOL     OW29962   0.997   5.081   1.381
 9688SOL    HW129963   1.027   5.048   1.471
 9688SOL    HW229964   0.905   5.118   1.389
 9689SOL     OW29965   2.210   6.147   0.862
 9689SOL    HW129966   2.199   6.183   0.769
 9689SOL    HW229967   2.308   6.132   0.880
 9690SOL     OW29968   6.463   4.431   4.881
 9690SOL    HW129969   6.544   4.380   4.909
 9690SOL    HW229970   6.483   4.529   4.885
 9691SOL     OW29971   2.893   3.700   1.659
 9691SOL    HW129972   2.925   3.677   1.751
 9691SOL    HW229973   2.968   3.743   1.608
 9692SOL     OW29974   5.012   4.233   0.731
 9692SOL    HW129975   5.074   4.304   0.701
 9692SOL    HW229976   4.917   4.266   0.723
 9693SOL     OW29977   4.539   2.802   5.193
 9693SOL    HW129978   4.504   2.718   5.235
 9693SOL    HW229979   4.611   2.839   5.252
 9694SOL     OW29980   2.825   6.975   2.025
 9694SOL    HW129981   2.895   6.972   2.097
 9694SOL    HW229982   2.734   6.975   2.067
 9695SOL     OW29983   1.130   2.845   3.583
 9695SOL    HW129984   1.162   2.906   3.655
 9695SOL    HW229985   1.189   2.765   3.579
 9696SOL     OW29986   5.549   2.577   3.879
 9696SOL    HW129987   5.537   2.611   3.786
 9696SOL    HW229988   5.465   2.593   3.931
 9697SOL     OW29989   0.377   6.799   0.585
 9697SOL    HW129990   0.291   6.762   0.548
 9697SOL    HW229991   0.402   6.748   0.667
 9698SOL     OW29992   6.842   3.290   2.014
 9698SOL    HW129993   6.913   3.229   2.050
 9698SOL    HW229994   6.778   3.313   2.088
 9699SOL     OW29995   1.942   5.772   1.481
 9699SOL    HW129996   2.002   5.692   1.472
 9699SOL    HW229997   1.955   5.832   1.403
 9700SOL     OW29998   5.417   6.999   5.580
 9700SOL    HW129999   5.336   7.007   5.521
 9700SOL    HW230000   5.489   6.950   5.531
 9701SOL     OW30001   4.494   4.386   6.822
 9701SOL    HW130002   4.425   4.374   6.894
 9701SOL    HW230003   4.448   4.398   6.734
 9702SOL     OW30004   3.755   4.071   2.328
 9702SOL    HW130005   3.722   4.131   2.255
 9702SOL    HW230006   3.825   4.010   2.291
 9703SOL     OW30007   5.777   4.526   4.001
 9703SOL    HW130008   5.874   4.503   3.992
 9703SOL    HW230009   5.728   4.446   4.034
 9704SOL     OW30010   1.496   4.433   2.981
 9704SOL    HW130011   1.519   4.513   3.035
 9704SOL    HW230012   1.446   4.461   2.899
 9705SOL     OW30013   0.396   2.697   5.228
 9705SOL    HW130014   0.454   2.622   5.196
 9705SOL    HW230015   0.443   2.746   5.302
 9706SOL     OW30016   0.843   1.326   2.917
 9706SOL    HW130017   0.787   1.291   2.842
 9706SOL    HW230018   0.869   1.421   2.898
 9707SOL     OW30019   0.970   4.725   1.987
 9707SOL    HW130020   1.002   4.711   2.081
 9707SOL    HW230021   1.015   4.659   1.926
 9708SOL     OW30022   2.857   0.343   1.961
 9708SOL    HW130023   2.907   0.420   1.923
 9708SOL    HW230024   2.789   0.311   1.895
 9709SOL     OW30025   5.718   2.334   1.343
 9709SOL    HW130026   5.771   2.250   1.330
 9709SOL    HW230027   5.621   2.312   1.342
 9710SOL     OW30028   6.290   5.416   4.199
 9710SOL    HW130029   6.221   5.478   4.236
 9710SOL    HW230030   6.259   5.322   4.206
 9711SOL     OW30031   3.465   0.693   0.385
 9711SOL    HW130032   3.478   0.649   0.474
 9711SOL    HW230033   3.373   0.675   0.352
 9712SOL     OW30034   5.652   1.342   6.771
 9712SOL    HW130035   5.581   1.387   6.824
 9712SOL    HW230036   5.739   1.389   6.785
 9713SOL     OW30037   1.966   6.511   2.733
 9713SOL    HW130038   1.995   6.592   2.682
 9713SOL    HW230039   2.047   6.462   2.765
 9714SOL     OW30040   2.383   4.391   4.791
 9714SOL    HW130041   2.314   4.370   4.860
 9714SOL    HW230042   2.437   4.309   4.772
 9715SOL     OW30043   6.425   4.056   6.639
 9715SOL    HW130044   6.471   3.983   6.590
 9715SOL    HW230045   6.332   4.028   6.662
 9716SOL     OW30046   2.050   5.380   0.421
 9716SOL    HW130047   2.065   5.295   0.472
 9716SOL    HW230048   1.969   5.426   0.456
 9717SOL     OW30049   4.031   1.917   5.405
 9717SOL    HW130050   4.025   1.850   5.480
 9717SOL    HW230051   3.939   1.950   5.383
 9718SOL     OW30052   4.227   2.190   5.989
 9718SOL    HW130053   4.230   2.289   6.006
 9718SOL    HW230054   4.196   2.143   6.071
 9719SOL     OW30055   4.965   6.649   6.068
 9719SOL    HW130056   4.980   6.553   6.092
 9719SOL    HW230057   4.953   6.703   6.151
 9720SOL     OW30058   2.082   3.284   3.213
 9720SOL    HW130059   2.105   3.380   3.230
 9720SOL    HW230060   2.046   3.275   3.120
 9721SOL     OW30061   0.993   1.388   0.711
 9721SOL    HW130062   0.997   1.416   0.615
 9721SOL    HW230063   0.989   1.470   0.769
 9722SOL     OW30064   3.884   2.327   5.290
 9722SOL    HW130065   3.803   2.365   5.336
 9722SOL    HW230066   3.855   2.266   5.216
 9723SOL     OW30067   6.568   0.214   5.162
 9723SOL    HW130068   6.596   0.306   5.191
 9723SOL    HW230069   6.473   0.199   5.190
 9724SOL     OW30070   1.592   4.922   0.322
 9724SOL    HW130071   1.641   4.875   0.395
 9724SOL    HW230072   1.654   4.942   0.246
 9725SOL     OW30073   4.107   4.877   4.742
 9725SOL    HW130074   4.022   4.917   4.776
 9725SOL    HW230075   4.096   4.851   4.646
 9726SOL     OW30076   0.142   0.776   3.602
 9726SOL    HW130077   0.230   0.733   3.583
 9726SOL    HW230078   0.155   0.854   3.662
 9727SOL     OW30079   6.437   1.941   1.560
 9727SOL    HW130080   6.469   1.913   1.469
 9727SOL    HW230081   6.494   2.017   1.593
 9728SOL     OW30082   4.769   1.598   4.381
 9728SOL    HW130083   4.782   1.574   4.477
 9728SOL    HW230084   4.790   1.695   4.368
 9729SOL     OW30085   0.074   4.865   3.119
 9729SOL    HW130086   0.013   4.917   3.059
 9729SOL    HW230087   0.159   4.845   3.070
 9730SOL     OW30088   1.155   4.496   2.950
 9730SOL    HW130089   1.188   4.586   2.979
 9730SOL    HW230090   1.148   4.494   2.850
 9731SOL     OW30091   5.629   3.010   1.949
 9731SOL    HW130092   5.709   3.056   1.913
 9731SOL    HW230093   5.558   3.077   1.971
 9732SOL     OW30094   1.362   3.664   2.966
 9732SOL    HW130095   1.442   3.639   3.020
 9732SOL    HW230096   1.333   3.757   2.990
 9733SOL     OW30097   5.722   4.685   2.218
 9733SOL    HW130098   5.643   4.627   2.197
 9733SOL    HW230099   5.699   4.747   2.293
 9734SOL     OW30100   5.546   5.611   6.311
 9734SOL    HW130101   5.547   5.565   6.222
 9734SOL    HW230102   5.504   5.551   6.379
 9735SOL     OW30103   0.650   2.283   0.988
 9735SOL    HW130104   0.618   2.341   1.063
 9735SOL    HW230105   0.570   2.246   0.940
 9736SOL     OW30106   4.767   2.090   4.481
 9736SOL    HW130107   4.668   2.096   4.474
 9736SOL    HW230108   4.799   2.144   4.558
 9737SOL     OW30109   6.524   3.421   3.285
 9737SOL    HW130110   6.608   3.424   3.338
 9737SOL    HW230111   6.446   3.405   3.346
 9738SOL     OW30112   2.386   6.981   1.801
 9738SOL    HW130113   2.350   6.902   1.851
 9738SOL    HW230114   2.322   0.037   1.811
 9739SOL     OW30115   6.111   6.907   0.563
 9739SOL    HW130116   6.190   6.909   0.624
 9739SOL    HW230117   6.142   6.907   0.468
 9740SOL     OW30118   6.417   1.366   2.754
 9740SOL    HW130119   6.347   1.366   2.824
 9740SOL    HW230120   6.390   1.306   2.679
 9741SOL     OW30121   2.780   1.913   4.354
 9741SOL    HW130122   2.825   1.888   4.440
 9741SOL    HW230123   2.691   1.868   4.350
 9742SOL     OW30124   3.806   2.174   6.382
 9742SOL    HW130125   3.820   2.251   6.445
 9742SOL    HW230126   3.721   2.127   6.406
 9743SOL     OW30127   5.226   3.987   4.153
 9743SOL    HW130128   5.173   3.905   4.134
 9743SOL    HW230129   5.311   3.985   4.100
 9744SOL     OW30130   1.709   1.721   2.775
 9744SOL    HW130131   1.697   1.820   2.775
 9744SOL    HW230132   1.797   1.698   2.734
 9745SOL     OW30133   0.065   0.526   6.224
 9745SOL    HW130134   0.162   0.504   6.221
 9745SOL    HW230135   0.023   0.483   6.304
 9746SOL     OW30136   4.153   5.164   6.048
 9746SOL    HW130137   4.154   5.228   5.971
 9746SOL    HW230138   4.210   5.085   6.026
 9747SOL     OW30139   2.532   1.295   2.662
 9747SOL    HW130140   2.495   1.293   2.755
 9747SOL    HW230141   2.591   1.375   2.652
 9748SOL     OW30142   0.986   1.080   3.395
 9748SOL    HW130143   1.074   1.094   3.351
 9748SOL    HW230144   0.999   1.027   3.479
 9749SOL     OW30145   0.102   0.586   2.100
 9749SOL    HW130146   0.130   0.496   2.133
 9749SOL    HW230147   0.029   0.575   2.032
 9750SOL     OW30148   6.045   3.521   4.422
 9750SOL    HW130149   5.995   3.484   4.343
 9750SOL    HW230150   6.046   3.454   4.495
 9751SOL     OW30151   3.764   6.790   1.596
 9751SOL    HW130152   3.814   6.761   1.514
 9751SOL    HW230153   3.769   6.889   1.605
 9752SOL     OW30154   3.148   3.161   0.128
 9752SOL    HW130155   3.177   3.244   0.082
 9752SOL    HW230156   3.095   3.104   0.065
 9753SOL     OW30157   6.887   6.361   5.447
 9753SOL    HW130158   6.986   6.376   5.442
 9753SOL    HW230159   6.857   6.370   5.542
 9754SOL     OW30160   2.942   0.870   1.847
 9754SOL    HW130161   2.949   0.970   1.845
 9754SOL    HW230162   2.859   0.841   1.800
 9755SOL     OW30163   2.283   3.476   0.313
 9755SOL    HW130164   2.334   3.490   0.228
 9755SOL    HW230165   2.291   3.558   0.371
 9756SOL     OW30166   5.995   0.332   5.773
 9756SOL    HW130167   5.938   0.404   5.733
 9756SOL    HW230168   6.090   0.363   5.776
 9757SOL     OW30169   5.693   3.980   3.888
 9757SOL    HW130170   5.718   4.051   3.822
 9757SOL    HW230171   5.596   3.987   3.910
 9758SOL     OW30172   1.899   0.677   2.235
 9758SOL    HW130173   1.897   0.578   2.225
 9758SOL    HW230174   1.876   0.703   2.328
 9759SOL     OW30175   7.020   1.394   1.649
 9759SOL    HW130176   0.090   1.360   1.673
 9759SOL    HW230177   7.016   1.493   1.664
 9760SOL     OW30178   5.003   0.618   6.850
 9760SOL    HW130179   4.998   0.639   6.948
 9760SOL    HW230180   5.096   0.593   6.826
 9761SOL     OW30181   1.476   2.351   1.282
 9761SOL    HW130182   1.425   2.266   1.271
 9761SOL    HW230183   1.572   2.330   1.299
 9762SOL     OW30184   2.567   1.180   5.314
 9762SOL    HW130185   2.495   1.197   5.381
 9762SOL    HW230186   2.634   1.253   5.318
 9763SOL     OW30187   6.541   1.693   1.294
 9763SOL    HW130188   6.445   1.665   1.306
 9763SOL    HW230189   6.552   1.788   1.322
 9764SOL     OW30190   0.097   1.905   2.842
 9764SOL    HW130191   0.007   1.941   2.867
 9764SOL    HW230192   0.143   1.969   2.781
 9765SOL     OW30193   6.696   0.028   2.070
 9765SOL    HW130194   6.695   0.041   2.170
 9765SOL    HW230195   6.623   6.985   2.044
 9766SOL     OW30196   2.031   2.162   3.704
 9766SOL    HW130197   1.992   2.071   3.688
 9766SOL    HW230198   2.127   2.162   3.674
 9767SOL     OW30199   2.193   1.618   5.521
 9767SOL    HW130200   2.234   1.682   5.457
 9767SOL    HW230201   2.190   1.527   5.480
 9768SOL     OW30202   5.540   3.268   0.479
 9768SOL    HW130203   5.584   3.234   0.562
 9768SOL    HW230204   5.464   3.328   0.503
 9769SOL     OW30205   3.617   1.721   5.664
 9769SOL    HW130206   3.535   1.739   5.610
 9769SOL    HW230207   3.668   1.807   5.675
 9770SOL     OW30208   2.340   2.790   6.304
 9770SOL    HW130209   2.266   2.850   6.334
 9770SOL    HW230210   2.303   2.717   6.247
 9771SOL     OW30211   3.303   0.002   2.149
 9771SOL    HW130212   3.296   0.101   2.160
 9771SOL    HW230213   3.396   6.993   2.171
 9772SOL     OW30214   1.131   0.721   1.057
 9772SOL    HW130215   1.046   0.754   1.016
 9772SOL    HW230216   1.209   0.749   1.000
 9773SOL     OW30217   5.558   5.254   2.177
 9773SOL    HW130218   5.579   5.279   2.272
 9773SOL    HW230219   5.532   5.157   2.173
 9774SOL     OW30220   1.075   4.336   5.303
 9774SOL    HW130221   1.058   4.247   5.347
 9774SOL    HW230222   1.170   4.362   5.316
 9775SOL     OW30223   2.540   1.447   3.496
 9775SOL    HW130224   2.617   1.396   3.535
 9775SOL    HW230225   2.510   1.401   3.412
 9776SOL     OW30226   2.433   4.953   0.499
 9776SOL    HW130227   2.378   4.885   0.451
 9776SOL    HW230228   2.526   4.953   0.463
 9777SOL     OW30229   4.156   0.888   5.556
 9777SOL    HW130230   4.080   0.830   5.527
 9777SOL    HW230231   4.203   0.846   5.633
 9778SOL     OW30232   0.428   4.224   3.457
 9778SOL    HW130233   0.517   4.250   3.421
 9778SOL    HW230234   0.402   4.135   3.419
 9779SOL     OW30235   2.466   0.939   3.276
 9779SOL    HW130236   2.395   0.869   3.283
 9779SOL    HW230237   2.493   0.968   3.368
 9780SOL     OW30238   0.951   2.581   2.133
 9780SOL    HW130239   0.984   2.512   2.198
 9780SOL    HW230240   0.947   2.670   2.179
 9781SOL     OW30241   1.648   2.002   2.805
 9781SOL    HW130242   1.557   2.023   2.842
 9781SOL    HW230243   1.644   2.002   2.705
 9782SOL     OW30244   0.345   2.240   0.933
 9782SOL    HW130245   0.282   2.303   0.979
 9782SOL    HW230246   0.359   2.159   0.990
 9783SOL     OW30247   3.864   1.134   2.897
 9783SOL    HW130248   3.877   1.214   2.838
 9783SOL    HW230249   3.800   1.156   2.970
 9784SOL     OW30250   1.587   1.339   6.420
 9784SOL    HW130251   1.676   1.301   6.397
 9784SOL    HW230252   1.555   1.397   6.345
 9785SOL     OW30253   0.230   3.852   4.438
 9785SOL    HW130254   0.271   3.850   4.347
 9785SOL    HW230255   0.291   3.806   4.503
 9786SOL     OW30256   2.236   3.933   6.761
 9786SOL    HW130257   2.169   3.957   6.691
 9786SOL    HW230258   2.243   3.833   6.767
 9787SOL     OW30259   2.957   3.860   2.916
 9787SOL    HW130260   3.001   3.904   2.838
 9787SOL    HW230261   2.858   3.876   2.911
 9788SOL     OW30262   4.046   0.040   2.101
 9788SOL    HW130263   4.080   0.034   2.194
 9788SOL    HW230264   4.114   0.085   2.043
 9789SOL     OW30265   3.758   1.860   7.011
 9789SOL    HW130266   3.712   1.934   0.040
 9789SOL    HW230267   3.690   1.804   6.963
 9790SOL     OW30268   6.307   5.556   4.546
 9790SOL    HW130269   6.248   5.478   4.527
 9790SOL    HW230270   6.298   5.624   4.474
 9791SOL     OW30271   0.947   6.981   1.106
 9791SOL    HW130272   1.041   6.951   1.117
 9791SOL    HW230273   0.889   6.903   1.083
 9792SOL     OW30274   4.002   5.256   0.926
 9792SOL    HW130275   4.029   5.186   0.992
 9792SOL    HW230276   4.053   5.243   0.841
 9793SOL     OW30277   5.879   0.803   3.539
 9793SOL    HW130278   5.963   0.857   3.543
 9793SOL    HW230279   5.802   0.863   3.515
 9794SOL     OW30280   4.628   4.690   4.834
 9794SOL    HW130281   4.540   4.714   4.793
 9794SOL    HW230282   4.612   4.628   4.912
 9795SOL     OW30283   1.683   3.497   3.303
 9795SOL    HW130284   1.735   3.481   3.387
 9795SOL    HW230285   1.585   3.497   3.324
 9796SOL     OW30286   3.685   4.127   4.088
 9796SOL    HW130287   3.735   4.104   4.171
 9796SOL    HW230288   3.750   4.140   4.013
 9797SOL     OW30289   2.517   5.140   0.143
 9797SOL    HW130290   2.442   5.170   0.201
 9797SOL    HW230291   2.590   5.209   0.143
 9798SOL     OW30292   6.955   3.811   6.788
 9798SOL    HW130293   6.913   3.895   6.821
 9798SOL    HW230294   6.942   3.737   6.855
 9799SOL     OW30295   2.680   0.317   6.492
 9799SOL    HW130296   2.709   0.318   6.396
 9799SOL    HW230297   2.745   0.369   6.547
 9800SOL     OW30298   6.708   3.244   4.404
 9800SOL    HW130299   6.700   3.207   4.497
 9800SOL    HW230300   6.775   3.318   4.403
 9801SOL     OW30301   6.454   6.664   6.977
 9801SOL    HW130302   6.399   6.638   6.898
 9801SOL    HW230303   6.408   6.635   0.040
 9802SOL     OW30304   3.926   4.253   0.129
 9802SOL    HW130305   3.851   4.193   0.102
 9802SOL    HW230306   3.984   4.206   0.196
 9803SOL     OW30307   1.142   3.525   6.750
 9803SOL    HW130308   1.143   3.520   6.650
 9803SOL    HW230309   1.125   3.620   6.778
 9804SOL     OW30310   0.342   5.615   2.692
 9804SOL    HW130311   0.325   5.699   2.640
 9804SOL    HW230312   0.354   5.637   2.788
 9805SOL     OW30313   0.720   6.261   4.144
 9805SOL    HW130314   0.786   6.314   4.197
 9805SOL    HW230315   0.761   6.173   4.119
 9806SOL     OW30316   3.885   1.693   0.150
 9806SOL    HW130317   3.848   1.757   0.082
 9806SOL    HW230318   3.919   1.744   0.229
 9807SOL     OW30319   3.870   3.009   2.446
 9807SOL    HW130320   3.793   3.054   2.401
 9807SOL    HW230321   3.922   2.957   2.379
 9808SOL     OW30322   4.097   5.564   2.638
 9808SOL    HW130323   4.116   5.634   2.569
 9808SOL    HW230324   4.157   5.578   2.717
 9809SOL     OW30325   6.691   3.636   0.723
 9809SOL    HW130326   6.728   3.675   0.638
 9809SOL    HW230327   6.677   3.538   0.711
 9810SOL     OW30328   3.132   2.358   0.180
 9810SOL    HW130329   3.220   2.394   0.150
 9810SOL    HW230330   3.118   2.267   0.142
 9811SOL     OW30331   5.634   3.526   4.257
 9811SOL    HW130332   5.594   3.488   4.340
 9811SOL    HW230333   5.570   3.590   4.215
 9812SOL     OW30334   3.684   6.415   5.640
 9812SOL    HW130335   3.767   6.360   5.634
 9812SOL    HW230336   3.705   6.503   5.683
 9813SOL     OW30337   5.423   1.029   1.663
 9813SOL    HW130338   5.370   1.109   1.635
 9813SOL    HW230339   5.440   0.970   1.584
 9814SOL     OW30340   5.686   1.228   0.135
 9814SOL    HW130341   5.707   1.324   0.155
 9814SOL    HW230342   5.765   1.171   0.157
 9815SOL     OW30343   4.351   2.379   4.458
 9815SOL    HW130344   4.257   2.346   4.455
 9815SOL    HW230345   4.395   2.365   4.369
 9816SOL     OW30346   2.364   0.251   0.423
 9816SOL    HW130347   2.298   0.260   0.349
 9816SOL    HW230348   2.419   0.335   0.430
 9817SOL     OW30349   6.308   6.685   2.663
 9817SOL    HW130350   6.321   6.637   2.577
 9817SOL    HW230351   6.384   6.665   2.725
 9818SOL     OW30352   5.961   2.993   4.714
 9818SOL    HW130353   6.019   3.065   4.675
 9818SOL    HW230354   5.913   2.945   4.641
 9819SOL     OW30355   3.933   0.687   2.398
 9819SOL    HW130356   3.837   0.713   2.387
 9819SOL    HW230357   3.985   0.765   2.433
 9820SOL     OW30358   4.655   3.156   5.698
 9820SOL    HW130359   4.559   3.154   5.671
 9820SOL    HW230360   4.666   3.109   5.786
 9821SOL     OW30361   6.374   5.076   0.453
 9821SOL    HW130362   6.408   5.120   0.536
 9821SOL    HW230363   6.448   5.023   0.411
 9822SOL     OW30364   0.654   6.979   2.310
 9822SOL    HW130365   0.613   6.893   2.278
 9822SOL    HW230366   0.592   0.034   2.288
 9823SOL     OW30367   3.689   0.800   1.610
 9823SOL    HW130368   3.712   0.891   1.644
 9823SOL    HW230369   3.708   0.795   1.512
 9824SOL     OW30370   1.078   3.833   5.937
 9824SOL    HW130371   1.087   3.920   5.889
 9824SOL    HW230372   1.020   3.846   6.018
 9825SOL     OW30373   3.998   4.862   5.161
 9825SOL    HW130374   3.944   4.939   5.125
 9825SOL    HW230375   3.936   4.789   5.191
 9826SOL     OW30376   4.952   0.673   5.859
 9826SOL    HW130377   4.924   0.674   5.955
 9826SOL    HW230378   4.919   0.589   5.815
 9827SOL     OW30379   1.677   4.184   4.508
 9827SOL    HW130380   1.765   4.139   4.495
 9827SOL    HW230381   1.613   4.121   4.551
 9828SOL     OW30382   3.411   2.803   6.554
 9828SOL    HW130383   3.325   2.753   6.544
 9828SOL    HW230384   3.429   2.821   6.650
 9829SOL     OW30385   2.989   4.696   0.141
 9829SOL    HW130386   2.979   4.597   0.138
 9829SOL    HW230387   2.911   4.739   0.094
 9830SOL     OW30388   5.766   0.684   0.875
 9830SOL    HW130389   5.863   0.693   0.896
 9830SOL    HW230390   5.734   0.767   0.829
 9831SOL     OW30391   6.318   6.291   1.346
 9831SOL    HW130392   6.309   6.197   1.379
 9831SOL    HW230393   6.270   6.353   1.409
 9832SOL     OW30394   4.653   4.894   0.976
 9832SOL    HW130395   4.631   4.991   0.965
 9832SOL    HW230396   4.607   4.841   0.904
 9833SOL     OW30397   3.690   3.838   5.202
 9833SOL    HW130398   3.679   3.909   5.272
 9833SOL    HW230399   3.610   3.837   5.143
 9834SOL     OW30400   0.557   3.278   4.478
 9834SOL    HW130401   0.468   3.280   4.521
 9834SOL    HW230402   0.549   3.306   4.382
 9835SOL     OW30403   4.893   2.042   4.032
 9835SOL    HW130404   4.924   1.954   3.995
 9835SOL    HW230405   4.798   2.059   4.004
 9836SOL     OW30406   5.168   5.258   2.985
 9836SOL    HW130407   5.184   5.344   3.034
 9836SOL    HW230408   5.200   5.181   3.040
 9837SOL     OW30409   2.355   6.283   4.239
 9837SOL    HW130410   2.364   6.190   4.202
 9837SOL    HW230411   2.334   6.347   4.165
 9838SOL     OW30412   0.972   5.567   6.253
 9838SOL    HW130413   1.005   5.579   6.159
 9838SOL    HW230414   0.999   5.476   6.286
 9839SOL     OW30415   0.029   1.884   1.963
 9839SOL    HW130416   6.997   1.807   2.000
 9839SOL    HW230417   0.021   1.962   2.025
 9840SOL     OW30418   6.705   1.045   1.166
 9840SOL    HW130419   6.769   0.972   1.142
 9840SOL    HW230420   6.702   1.112   1.092
 9841SOL     OW30421   1.757   3.696   4.498
 9841SOL    HW130422   1.840   3.659   4.456
 9841SOL    HW230423   1.695   3.728   4.427
 9842SOL     OW30424   3.223   3.045   2.107
 9842SOL    HW130425   3.183   3.094   2.184
 9842SOL    HW230426   3.302   2.992   2.139
 9843SOL     OW30427   6.435   2.446   2.305
 9843SOL    HW130428   6.417   2.357   2.265
 9843SOL    HW230429   6.408   2.518   2.241
 9844SOL     OW30430   4.960   0.294   2.178
 9844SOL    HW130431   5.018   0.370   2.149
 9844SOL    HW230432   4.880   0.330   2.226
 9845SOL     OW30433   1.270   1.972   3.816
 9845SOL    HW130434   1.336   2.047   3.807
 9845SOL    HW230435   1.301   1.894   3.762
 9846SOL     OW30436   3.065   3.604   2.897
 9846SOL    HW130437   3.049   3.552   2.981
 9846SOL    HW230438   3.029   3.696   2.907
 9847SOL     OW30439   1.977   3.745   5.910
 9847SOL    HW130440   1.891   3.792   5.928
 9847SOL    HW230441   2.053   3.808   5.920
 9848SOL     OW30442   5.034   3.151   6.663
 9848SOL    HW130443   5.009   3.199   6.747
 9848SOL    HW230444   4.964   3.082   6.642
 9849SOL     OW30445   0.134   6.812   6.345
 9849SOL    HW130446   0.124   6.774   6.437
 9849SOL    HW230447   0.184   6.899   6.351
 9850SOL     OW30448   3.845   5.915   2.512
 9850SOL    HW130449   3.796   5.830   2.493
 9850SOL    HW230450   3.807   5.989   2.457
 9851SOL     OW30451   5.569   1.638   5.006
 9851SOL    HW130452   5.483   1.654   5.056
 9851SOL    HW230453   5.603   1.547   5.027
 9852SOL     OW30454   5.035   1.463   3.794
 9852SOL    HW130455   5.031   1.490   3.891
 9852SOL    HW230456   4.948   1.486   3.750
 9853SOL     OW30457   6.295   4.023   2.577
 9853SOL    HW130458   6.317   4.118   2.601
 9853SOL    HW230459   6.217   4.021   2.514
 9854SOL     OW30460   5.098   5.429   3.883
 9854SOL    HW130461   5.160   5.392   3.952
 9854SOL    HW230462   5.074   5.357   3.817
 9855SOL     OW30463   1.161   3.647   1.759
 9855SOL    HW130464   1.126   3.734   1.724
 9855SOL    HW230465   1.230   3.611   1.696
 9856SOL     OW30466   3.937   2.804   0.749
 9856SOL    HW130467   4.037   2.800   0.751
 9856SOL    HW230468   3.905   2.878   0.810
 9857SOL     OW30469   5.677   3.780   3.119
 9857SOL    HW130470   5.682   3.837   3.037
 9857SOL    HW230471   5.686   3.684   3.093
 9858SOL     OW30472   5.299   0.874   1.878
 9858SOL    HW130473   5.332   0.866   1.785
 9858SOL    HW230474   5.200   0.859   1.880
 9859SOL     OW30475   6.029   0.257   2.248
 9859SOL    HW130476   6.063   0.249   2.342
 9859SOL    HW230477   6.104   0.240   2.184
 9860SOL     OW30478   0.523   1.186   2.300
 9860SOL    HW130479   0.600   1.148   2.350
 9860SOL    HW230480   0.538   1.284   2.286
 9861SOL     OW30481   4.073   6.095   4.592
 9861SOL    HW130482   3.996   6.038   4.621
 9861SOL    HW230483   4.045   6.191   4.590
 9862SOL     OW30484   1.245   2.520   0.970
 9862SOL    HW130485   1.268   2.494   0.876
 9862SOL    HW230486   1.329   2.527   1.024
 9863SOL     OW30487   3.577   6.889   2.656
 9863SOL    HW130488   3.516   6.813   2.679
 9863SOL    HW230489   3.631   6.913   2.737
 9864SOL     OW30490   5.387   6.078   2.165
 9864SOL    HW130491   5.293   6.058   2.140
 9864SOL    HW230492   5.445   6.072   2.084
 9865SOL     OW30493   0.419   0.558   3.995
 9865SOL    HW130494   0.508   0.557   4.041
 9865SOL    HW230495   0.412   0.479   3.934
 9866SOL     OW30496   4.815   4.093   4.034
 9866SOL    HW130497   4.760   4.166   3.993
 9866SOL    HW230498   4.841   4.119   4.127
 9867SOL     OW30499   4.404   1.215   0.174
 9867SOL    HW130500   4.316   1.207   0.221
 9867SOL    HW230501   4.408   1.150   0.098
 9868SOL     OW30502   0.038   4.671   0.496
 9868SOL    HW130503   7.000   4.601   0.455
 9868SOL    HW230504   0.125   4.631   0.525
 9869SOL     OW30505   1.544   4.299   3.221
 9869SOL    HW130506   1.634   4.267   3.191
 9869SOL    HW230507   1.508   4.364   3.154
 9870SOL     OW30508   5.131   5.047   2.787
 9870SOL    HW130509   5.048   5.073   2.738
 9870SOL    HW230510   5.137   5.100   2.872
 9871SOL     OW30511   2.303   0.592   5.126
 9871SOL    HW130512   2.356   0.675   5.141
 9871SOL    HW230513   2.337   0.545   5.044
 9872SOL     OW30514   2.682   4.723   3.473
 9872SOL    HW130515   2.704   4.767   3.560
 9872SOL    HW230516   2.753   4.746   3.406
 9873SOL     OW30517   1.347   2.530   0.283
 9873SOL    HW130518   1.249   2.512   0.291
 9873SOL    HW230519   1.379   2.577   0.365
 9874SOL     OW30520   0.703   3.114   3.473
 9874SOL    HW130521   0.786   3.164   3.499
 9874SOL    HW230522   0.684   3.127   3.376
 9875SOL     OW30523   0.384   0.726   3.005
 9875SOL    HW130524   0.403   0.824   3.013
 9875SOL    HW230525   0.459   0.682   2.956
 9876SOL     OW30526   6.628   6.739   2.479
 9876SOL    HW130527   6.556   6.672   2.461
 9876SOL    HW230528   6.678   6.759   2.394
 9877SOL     OW30529   3.126   6.623   2.764
 9877SOL    HW130530   3.120   6.722   2.779
 9877SOL    HW230531   3.075   6.597   2.682
 9878SOL     OW30532   1.026   5.843   5.652
 9878SOL    HW130533   1.116   5.800   5.654
 9878SOL    HW230534   0.983   5.825   5.563
 9879SOL     OW30535   4.310   5.655   5.358
 9879SOL    HW130536   4.325   5.558   5.338
 9879SOL    HW230537   4.387   5.690   5.412
 9880SOL     OW30538   1.321   1.974   5.782
 9880SOL    HW130539   1.395   1.907   5.776
 9880SOL    HW230540   1.235   1.926   5.798
 9881SOL     OW30541   0.632   2.361   5.993
 9881SOL    HW130542   0.655   2.450   6.033
 9881SOL    HW230543   0.648   2.289   6.060
 9882SOL     OW30544   1.310   2.285   3.871
 9882SOL    HW130545   1.399   2.273   3.916
 9882SOL    HW230546   1.243   2.223   3.913
 9883SOL     OW30547   1.692   0.967   2.408
 9883SOL    HW130548   1.745   0.884   2.426
 9883SOL    HW230549   1.598   0.942   2.385
 9884SOL     OW30550   4.000   0.465   4.240
 9884SOL    HW130551   3.932   0.498   4.306
 9884SOL    HW230552   3.963   0.473   4.147
 9885SOL     OW30553   5.714   4.948   4.639
 9885SOL    HW130554   5.700   4.896   4.723
 9885SOL    HW230555   5.794   5.007   4.649
 9886SOL     OW30556   1.006   4.874   2.744
 9886SOL    HW130557   0.944   4.918   2.679
 9886SOL    HW230558   0.957   4.799   2.790
 9887SOL     OW30559   3.388   1.171   0.082
 9887SOL    HW130560   3.413   1.246   0.021
 9887SOL    HW230561   3.453   1.167   0.158
 9888SOL     OW30562   6.876   4.464   0.426
 9888SOL    HW130563   6.851   4.400   0.354
 9888SOL    HW230564   6.807   4.537   0.431
 9889SOL     OW30565   6.150   4.625   0.359
 9889SOL    HW130566   6.080   4.592   0.423
 9889SOL    HW230567   6.218   4.677   0.409
 9890SOL     OW30568   1.612   2.875   1.452
 9890SOL    HW130569   1.684   2.926   1.405
 9890SOL    HW230570   1.650   2.791   1.491
 9891SOL     OW30571   5.576   2.524   0.674
 9891SOL    HW130572   5.636   2.536   0.753
 9891SOL    HW230573   5.519   2.606   0.663
 9892SOL     OW30574   6.793   4.723   0.202
 9892SOL    HW130575   6.865   4.785   0.234
 9892SOL    HW230576   6.775   4.740   0.105
 9893SOL     OW30577   2.442   1.352   1.000
 9893SOL    HW130578   2.512   1.329   0.932
 9893SOL    HW230579   2.409   1.444   0.983
 9894SOL     OW30580   0.915   2.007   0.625
 9894SOL    HW130581   0.965   1.941   0.680
 9894SOL    HW230582   0.817   1.998   0.643
 9895SOL     OW30583   5.479   2.969   5.357
 9895SOL    HW130584   5.408   2.929   5.299
 9895SOL    HW230585   5.457   2.951   5.453
 9896SOL     OW30586   6.522   0.217   0.353
 9896SOL    HW130587   6.491   0.258   0.267
 9896SOL    HW230588   6.622   0.223   0.359
 9897SOL     OW30589   5.505   5.360   3.059
 9897SOL    HW130590   5.454   5.433   3.015
 9897SOL    HW230591   5.533   5.293   2.990
 9898SOL     OW30592   3.279   5.701   5.736
 9898SOL    HW130593   3.378   5.692   5.743
 9898SOL    HW230594   3.251   5.690   5.641
 9899SOL     OW30595   6.957   5.640   0.516
 9899SOL    HW130596   6.879   5.683   0.472
 9899SOL    HW230597   6.966   5.546   0.483
 9900SOL     OW30598   1.836   4.333   3.904
 9900SOL    HW130599   1.805   4.304   3.814
 9900SOL    HW230600   1.767   4.311   3.972
 9901SOL     OW30601   2.670   2.335   5.367
 9901SOL    HW130602   2.723   2.293   5.441
 9901SOL    HW230603   2.732   2.371   5.298
 9902SOL     OW30604   1.902   4.821   6.624
 9902SOL    HW130605   1.824   4.795   6.568
 9902SOL    HW230606   1.923   4.748   6.689
 9903SOL     OW30607   5.199   1.354   3.353
 9903SOL    HW130608   5.192   1.391   3.261
 9903SOL    HW230609   5.282   1.300   3.362
 9904SOL     OW30610   6.731   3.363   6.899
 9904SOL    HW130611   6.637   3.367   6.865
 9904SOL    HW230612   6.749   3.442   6.957
 9905SOL     OW30613   4.551   1.575   0.530
 9905SOL    HW130614   4.593   1.498   0.577
 9905SOL    HW230615   4.543   1.553   0.432
 9906SOL     OW30616   3.889   3.056   3.026
 9906SOL    HW130617   3.937   3.092   2.946
 9906SOL    HW230618   3.811   3.000   2.997
 9907SOL     OW30619   0.057   0.615   1.686
 9907SOL    HW130620   0.156   0.621   1.702
 9907SOL    HW230621   0.018   0.548   1.747
 9908SOL     OW30622   5.013   2.513   2.653
 9908SOL    HW130623   5.014   2.458   2.736
 9908SOL    HW230624   5.074   2.591   2.663
 9909SOL     OW30625   2.126   6.534   4.359
 9909SOL    HW130626   2.090   6.496   4.274
 9909SOL    HW230627   2.129   6.462   4.429
 9910SOL     OW30628   0.818   4.701   2.872
 9910SOL    HW130629   0.846   4.605   2.872
 9910SOL    HW230630   0.721   4.707   2.892
 9911SOL     OW30631   3.760   6.479   2.056
 9911SOL    HW130632   3.859   6.490   2.061
 9911SOL    HW230633   3.718   6.525   2.135
 9912SOL     OW30634   4.970   1.683   0.581
 9912SOL    HW130635   5.031   1.629   0.639
 9912SOL    HW230636   5.016   1.768   0.553
 9913SOL     OW30637   5.913   2.782   0.564
 9913SOL    HW130638   5.882   2.848   0.496
 9913SOL    HW230639   5.983   2.823   0.621
 9914SOL     OW30640   0.745   2.563   4.685
 9914SOL    HW130641   0.796   2.552   4.599
 9914SOL    HW230642   0.776   2.646   4.732
 9915SOL     OW30643   5.387   1.158   3.282
 9915SOL    HW130644   5.364   1.199   3.194
 9915SOL    HW230645   5.426   1.067   3.267
 9916SOL     OW30646   2.297   2.753   2.171
 9916SOL    HW130647   2.339   2.750   2.080
 9916SOL    HW230648   2.282   2.660   2.204
 9917SOL     OW30649   6.858   4.178   5.841
 9917SOL    HW130650   6.945   4.226   5.835
 9917SOL    HW230651   6.791   4.235   5.888
 9918SOL     OW30652   4.141   1.513   2.761
 9918SOL    HW130653   4.227   1.522   2.810
 9918SOL    HW230654   4.067   1.552   2.817
 9919SOL     OW30655   6.217   6.399   1.568
 9919SOL    HW130656   6.254   6.329   1.629
 9919SOL    HW230657   6.123   6.419   1.594
 9920SOL     OW30658   4.440   1.676   2.757
 9920SOL    HW130659   4.510   1.719   2.814
 9920SOL    HW230660   4.376   1.746   2.725
 9921SOL     OW30661   3.881   5.544   6.149
 9921SOL    HW130662   3.867   5.448   6.122
 9921SOL    HW230663   3.875   5.552   6.248
 9922SOL     OW30664   0.868   5.842   0.645
 9922SOL    HW130665   0.861   5.932   0.601
 9922SOL    HW230666   0.925   5.851   0.727
 9923SOL     OW30667   4.858   5.240   0.183
 9923SOL    HW130668   4.803   5.242   0.100
 9923SOL    HW230669   4.955   5.231   0.158
 9924SOL     OW30670   0.162   3.029   4.697
 9924SOL    HW130671   0.119   2.956   4.751
 9924SOL    HW230672   0.119   3.033   4.607
 9925SOL     OW30673   5.072   2.657   4.304
 9925SOL    HW130674   5.012   2.660   4.384
 9925SOL    HW230675   5.153   2.713   4.323
 9926SOL     OW30676   2.027   4.279   6.943
 9926SOL    HW130677   2.126   4.266   6.938
 9926SOL    HW230678   1.983   4.192   6.960
 9927SOL     OW30679   5.837   0.210   2.675
 9927SOL    HW130680   5.884   0.126   2.703
 9927SOL    HW230681   5.740   0.204   2.701
 9928SOL     OW30682   5.006   4.886   1.264
 9928SOL    HW130683   5.091   4.867   1.214
 9928SOL    HW230684   5.015   4.854   1.358
 9929SOL     OW30685   2.508   5.316   4.879
 9929SOL    HW130686   2.579   5.346   4.942
 9929SOL    HW230687   2.463   5.234   4.915
 9930SOL     OW30688   6.741   0.141   4.779
 9930SOL    HW130689   6.812   0.072   4.767
 9930SOL    HW230690   6.678   0.138   4.701
 9931SOL     OW30691   1.312   4.025   5.127
 9931SOL    HW130692   1.355   4.080   5.055
 9931SOL    HW230693   1.326   3.928   5.108
 9932SOL     OW30694   1.026   6.490   6.396
 9932SOL    HW130695   0.989   6.543   6.472
 9932SOL    HW230696   0.955   6.430   6.359
 9933SOL     OW30697   1.378   5.239   1.932
 9933SOL    HW130698   1.350   5.329   1.967
 9933SOL    HW230699   1.302   5.175   1.942
 9934SOL     OW30700   6.255   2.269   5.231
 9934SOL    HW130701   6.171   2.243   5.278
 9934SOL    HW230702   6.294   2.190   5.184
 9935SOL     OW30703   2.326   0.881   6.641
 9935SOL    HW130704   2.229   0.858   6.633
 9935SOL    HW230705   2.341   0.974   6.607
 9936SOL     OW30706   0.454   4.799   4.446
 9936SOL    HW130707   0.553   4.789   4.449
 9936SOL    HW230708   0.421   4.839   4.532
 9937SOL     OW30709   6.864   2.124   6.060
 9937SOL    HW130710   6.903   2.161   6.144
 9937SOL    HW230711   6.871   2.192   5.987
 9938SOL     OW30712   6.788   5.923   2.880
 9938SOL    HW130713   6.768   5.959   2.971
 9938SOL    HW230714   6.886   5.902   2.873
 9939SOL     OW30715   3.397   2.952   1.370
 9939SOL    HW130716   3.493   2.959   1.343
 9939SOL    HW230717   3.349   2.893   1.305
 9940SOL     OW30718   6.733   1.043   0.707
 9940SOL    HW130719   6.697   1.086   0.625
 9940SOL    HW230720   6.831   1.023   0.695
 9941SOL     OW30721   3.053   4.379   5.498
 9941SOL    HW130722   3.007   4.410   5.582
 9941SOL    HW230723   2.984   4.344   5.434
 9942SOL     OW30724   2.672   5.595   2.640
 9942SOL    HW130725   2.595   5.542   2.605
 9942SOL    HW230726   2.682   5.578   2.738
 9943SOL     OW30727   0.491   5.778   6.142
 9943SOL    HW130728   0.481   5.871   6.106
 9943SOL    HW230729   0.570   5.775   6.204
 9944SOL     OW30730   1.077   3.993   6.568
 9944SOL    HW130731   1.002   4.031   6.623
 9944SOL    HW230732   1.075   3.894   6.575
 9945SOL     OW30733   6.907   5.393   0.446
 9945SOL    HW130734   6.826   5.398   0.505
 9945SOL    HW230735   6.943   5.300   0.447
 9946SOL     OW30736   4.894   0.697   5.087
 9946SOL    HW130737   4.823   0.729   5.149
 9946SOL    HW230738   4.981   0.690   5.135
 9947SOL     OW30739   6.546   4.677   5.268
 9947SOL    HW130740   6.447   4.685   5.255
 9947SOL    HW230741   6.579   4.754   5.323
 9948SOL     OW30742   4.660   4.301   4.816
 9948SOL    HW130743   4.616   4.325   4.730
 9948SOL    HW230744   4.757   4.325   4.812
 9949SOL     OW30745   5.728   4.981   2.823
 9949SOL    HW130746   5.807   4.927   2.850
 9949SOL    HW230747   5.645   4.929   2.838
 9950SOL     OW30748   4.433   6.252   5.145
 9950SOL    HW130749   4.412   6.182   5.077
 9950SOL    HW230750   4.532   6.264   5.151
 9951SOL     OW30751   5.659   2.793   3.241
 9951SOL    HW130752   5.560   2.776   3.240
 9951SOL    HW230753   5.701   2.734   3.309
 9952SOL     OW30754   6.796   4.079   0.700
 9952SOL    HW130755   6.762   4.064   0.607
 9952SOL    HW230756   6.719   4.095   0.762
 9953SOL     OW30757   6.257   1.878   3.483
 9953SOL    HW130758   6.166   1.864   3.521
 9953SOL    HW230759   6.250   1.925   3.395
 9954SOL     OW30760   5.877   7.001   5.267
 9954SOL    HW130761   5.842   0.066   5.305
 9954SOL    HW230762   5.800   6.946   5.233
 9955SOL     OW30763   6.943   4.110   4.128
 9955SOL    HW130764   6.933   4.172   4.050
 9955SOL    HW230765   6.940   4.162   4.213
 9956SOL     OW30766   2.397   6.168   2.168
 9956SOL    HW130767   2.382   6.172   2.069
 9956SOL    HW230768   2.315   6.198   2.215
 9957SOL     OW30769   6.609   4.975   3.459
 9957SOL    HW130770   6.541   5.032   3.505
 9957SOL    HW230771   6.648   5.026   3.382
 9958SOL     OW30772   2.764   3.737   0.801
 9958SOL    HW130773   2.797   3.670   0.868
 9958SOL    HW230774   2.750   3.825   0.847
 9959SOL     OW30775   3.968   3.313   6.339
 9959SOL    HW130776   4.018   3.342   6.421
 9959SOL    HW230777   3.914   3.232   6.361
 9960SOL     OW30778   6.654   1.394   2.518
 9960SOL    HW130779   6.558   1.377   2.544
 9960SOL    HW230780   6.713   1.330   2.568
 9961SOL     OW30781   1.761   5.735   4.095
 9961SOL    HW130782   1.850   5.689   4.100
 9961SOL    HW230783   1.694   5.673   4.055
 9962SOL     OW30784   4.630   6.228   4.728
 9962SOL    HW130785   4.707   6.165   4.738
 9962SOL    HW230786   4.665   6.321   4.717
 9963SOL     OW30787   3.498   1.393   1.098
 9963SOL    HW130788   3.440   1.426   1.173
 9963SOL    HW230789   3.448   1.325   1.045
 9964SOL     OW30790   4.426   6.085   4.922
 9964SOL    HW130791   4.351   6.039   4.875
 9964SOL    HW230792   4.459   6.160   4.865
 9965SOL     OW30793   4.212   0.140   0.026
 9965SOL    HW130794   4.298   0.125   6.996
 9965SOL    HW230795   4.218   0.096   0.116
 9966SOL     OW30796   0.548   6.149   2.131
 9966SOL    HW130797   0.557   6.187   2.223
 9966SOL    HW230798   0.624   6.087   2.112
 9967SOL     OW30799   1.607   5.661   1.670
 9967SOL    HW130800   1.696   5.618   1.654
 9967SOL    HW230801   1.535   5.597   1.646
 9968SOL     OW30802   4.032   3.805   2.467
 9968SOL    HW130803   4.126   3.818   2.497
 9968SOL    HW230804   3.970   3.834   2.540
 9969SOL     OW30805   1.630   3.734   2.199
 9969SOL    HW130806   1.565   3.711   2.271
 9969SOL    HW230807   1.617   3.671   2.122
 9970SOL     OW30808   6.024   4.320   1.681
 9970SOL    HW130809   5.938   4.369   1.663
 9970SOL    HW230810   6.004   4.224   1.700
 9971SOL     OW30811   2.187   4.121   0.558
 9971SOL    HW130812   2.162   4.149   0.466
 9971SOL    HW230813   2.107   4.130   0.618
 9972SOL     OW30814   0.044   4.746   2.445
 9972SOL    HW130815   0.133   4.700   2.443
 9972SOL    HW230816   6.996   4.682   2.481
 9973SOL     OW30817   6.038   0.932   4.252
 9973SOL    HW130818   6.083   0.843   4.262
 9973SOL    HW230819   5.989   0.955   4.336
 9974SOL     OW30820   1.774   0.648   3.820
 9974SOL    HW130821   1.852   0.709   3.838
 9974SOL    HW230822   1.710   0.652   3.897
 9975SOL     OW30823   0.324   2.649   0.069
 9975SOL    HW130824   0.296   2.717   0.002
 9975SOL    HW230825   0.275   2.663   0.154
 9976SOL     OW30826   1.656   6.850   4.718
 9976SOL    HW130827   1.610   6.763   4.738
 9976SOL    HW230828   1.723   6.869   4.789
 9977SOL     OW30829   6.096   4.034   4.964
 9977SOL    HW130830   6.124   3.992   5.051
 9977SOL    HW230831   6.176   4.072   4.918
 9978SOL     OW30832   7.007   1.942   4.194
 9978SOL    HW130833   6.960   1.867   4.147
 9978SOL    HW230834   0.048   1.988   4.130
 9979SOL     OW30835   6.515   3.470   4.656
 9979SOL    HW130836   6.560   3.382   4.673
 9979SOL    HW230837   6.572   3.525   4.595
 9980SOL     OW30838   3.544   0.681   6.295
 9980SOL    HW130839   3.568   0.739   6.373
 9980SOL    HW230840   3.459   0.715   6.253
 9981SOL     OW30841   3.237   1.930   4.272
 9981SOL    HW130842   3.168   1.862   4.245
 9981SOL    HW230843   3.195   2.021   4.272
 9982SOL     OW30844   0.031   6.157   4.093
 9982SOL    HW130845   0.018   6.248   4.131
 9982SOL    HW230846   0.123   6.149   4.054
 9983SOL     OW30847   0.023   1.363   2.113
 9983SOL    HW130848   0.122   1.376   2.117
 9983SOL    HW230849   6.997   1.438   2.160
 9984SOL     OW30850   3.012   1.877   6.615
 9984SOL    HW130851   2.934   1.930   6.647
 9984SOL    HW230852   3.096   1.929   6.629
 9985SOL     OW30853   1.302   1.152   2.201
 9985SOL    HW130854   1.346   1.085   2.261
 9985SOL    HW230855   1.368   1.188   2.136
 9986SOL     OW30856   5.316   3.478   5.117
 9986SOL    HW130857   5.324   3.379   5.104
 9986SOL    HW230858   5.229   3.499   5.160
 9987SOL     OW30859   6.472   3.635   5.973
 9987SOL    HW130860   6.543   3.609   6.038
 9987SOL    HW230861   6.502   3.613   5.880
 9988SOL     OW30862   6.922   0.298   5.224
 9988SOL    HW130863   6.914   0.277   5.127
 9988SOL    HW230864   6.837   0.339   5.257
 9989SOL     OW30865   0.422   3.119   5.094
 9989SOL    HW130866   0.391   3.161   5.009
 9989SOL    HW230867   0.521   3.133   5.104
 9990SOL     OW30868   1.090   5.107   2.927
 9990SOL    HW130869   1.060   5.094   3.022
 9990SOL    HW230870   1.058   5.031   2.871
 9991SOL     OW30871   3.457   1.912   3.770
 9991SOL    HW130872   3.516   1.953   3.839
 9991SOL    HW230873   3.363   1.946   3.782
 9992SOL     OW30874   6.403   5.690   6.012
 9992SOL    HW130875   6.361   5.699   5.922
 9992SOL    HW230876   6.342   5.729   6.081
 9993SOL     OW30877   0.942   1.822   2.038
 9993SOL    HW130878   0.911   1.769   1.959
 9993SOL    HW230879   0.886   1.904   2.048
 9994SOL     OW30880   6.077   4.902   3.323
 9994SOL    HW130881   6.012   4.902   3.400
 9994SOL    HW230882   6.050   4.971   3.256
 9995SOL     OW30883   5.261   0.661   4.571
 9995SOL    HW130884   5.180   0.641   4.515
 9995SOL    HW230885   5.275   0.587   4.637
 9996SOL     OW30886   3.165   4.094   0.253
 9996SOL    HW130887   3.129   4.144   0.174
 9996SOL    HW230888   3.135   4.140   0.337
 9997SOL     OW30889   2.539   6.996   5.381
 9997SOL    HW130890   2.576   0.008   5.294
 9997SOL    HW230891   2.606   6.938   5.427
 9998SOL     OW30892   5.678   5.826   5.389
 9998SOL    HW130893   5.586   5.863   5.379
 9998SOL    HW230894   5.745   5.900   5.387
 9999SOL     OW30895   6.859   2.072   5.012
 9999SOL    HW130896   6.863   2.126   5.097
 9999SOL    HW230897   6.891   2.127   4.936
10000SOL     OW30898   0.241   2.611   6.412
10000SOL    HW130899   0.308   2.620   6.339
10000SOL    HW230900   0.204   2.702   6.434
10001SOL     OW30901   4.242   0.636   2.649
10001SOL    HW130902   4.265   0.613   2.555
10001SOL    HW230903   4.179   0.714   2.650
10002SOL     OW30904   0.893   0.968   1.982
10002SOL    HW130905   0.947   0.913   1.919
10002SOL    HW230906   0.871   0.914   2.063
10003SOL     OW30907   4.152   2.255   3.650
10003SOL    HW130908   4.099   2.237   3.733
10003SOL    HW230909   4.095   2.241   3.570
10004SOL     OW30910   6.820   1.599   3.000
10004SOL    HW130911   6.872   1.514   3.000
10004SOL    HW230912   6.734   1.585   2.951
10005SOL     OW30913   5.126   6.700   4.062
10005SOL    HW130914   5.170   6.727   3.976
10005SOL    HW230915   5.069   6.775   4.096
10006SOL     OW30916   3.765   6.848   4.412
10006SOL    HW130917   3.771   6.921   4.480
10006SOL    HW230918   3.684   6.793   4.429
10007SOL     OW30919   6.945   3.452   3.641
10007SOL    HW130920   0.003   3.432   3.700
10007SOL    HW230921   6.906   3.541   3.666
10008SOL     OW30922   2.758   6.992   3.871
10008SOL    HW130923   2.849   6.955   3.852
10008SOL    HW230924   2.694   6.916   3.887
10009SOL     OW30925   1.274   4.393   2.005
10009SOL    HW130926   1.225   4.341   2.075
10009SOL    HW230927   1.337   4.332   1.957
10010SOL     OW30928   0.823   1.008   6.107
10010SOL    HW130929   0.796   1.043   6.197
10010SOL    HW230930   0.888   0.932   6.119
10011SOL     OW30931   0.106   6.580   5.238
10011SOL    HW130932   0.091   6.559   5.141
10011SOL    HW230933   0.146   6.501   5.283
10012SOL     OW30934   5.864   1.277   3.693
10012SOL    HW130935   5.848   1.225   3.777
10012SOL    HW230936   5.797   1.250   3.624
10013SOL     OW30937   0.408   0.682   2.556
10013SOL    HW130938   0.330   0.729   2.599
10013SOL    HW230939   0.444   0.614   2.620
10014SOL     OW30940   0.619   4.435   6.382
10014SOL    HW130941   0.686   4.367   6.352
10014SOL    HW230942   0.552   4.392   6.443
10015SOL     OW30943   2.052   4.472   0.222
10015SOL    HW130944   1.997   4.492   0.141
10015SOL    HW230945   2.132   4.417   0.196
10016SOL     OW30946   2.523   0.623   5.515
10016SOL    HW130947   2.515   0.718   5.483
10016SOL    HW230948   2.432   0.583   5.523
10017SOL     OW30949   1.640   2.123   4.597
10017SOL    HW130950   1.543   2.146   4.592
10017SOL    HW230951   1.677   2.155   4.684
10018SOL     OW30952   4.839   0.239   6.475
10018SOL    HW130953   4.881   0.197   6.556
10018SOL    HW230954   4.838   0.172   6.400
10019SOL     OW30955   0.723   1.239   2.684
10019SOL    HW130956   0.782   1.221   2.605
10019SOL    HW230957   0.684   1.153   2.716
10020SOL     OW30958   0.499   2.801   1.269
10020SOL    HW130959   0.510   2.885   1.323
10020SOL    HW230960   0.560   2.731   1.305
10021SOL     OW30961   0.020   3.887   0.493
10021SOL    HW130962   0.036   3.790   0.511
10021SOL    HW230963   6.943   3.907   0.507
10022SOL     OW30964   1.403   1.694   6.265
10022SOL    HW130965   1.441   1.782   6.234
10022SOL    HW230966   1.306   1.707   6.288
10023SOL     OW30967   0.102   3.759   0.792
10023SOL    HW130968   0.076   3.696   0.718
10023SOL    HW230969   0.131   3.706   0.872
10024SOL     OW30970   1.555   4.668   4.187
10024SOL    HW130971   1.565   4.577   4.226
10024SOL    HW230972   1.645   4.706   4.166
10025SOL     OW30973   1.491   1.501   0.917
10025SOL    HW130974   1.491   1.407   0.880
10025SOL    HW230975   1.399   1.526   0.944
10026SOL     OW30976   6.613   0.133   3.621
10026SOL    HW130977   6.698   0.140   3.569
10026SOL    HW230978   6.634   0.127   3.719
10027SOL     OW30979   4.724   2.209   5.170
10027SOL    HW130980   4.774   2.139   5.220
10027SOL    HW230981   4.656   2.251   5.230
10028SOL     OW30982   1.949   0.874   0.585
10028SOL    HW130983   2.003   0.847   0.665
10028SOL    HW230984   2.011   0.897   0.510
10029SOL     OW30985   5.721   1.761   3.534
10029SOL    HW130986   5.659   1.837   3.514
10029SOL    HW230987   5.678   1.676   3.504
10030SOL     OW30988   1.718   0.269   3.194
10030SOL    HW130989   1.799   0.210   3.196
10030SOL    HW230990   1.747   0.365   3.190
10031SOL     OW30991   6.283   4.456   5.161
10031SOL    HW130992   6.347   4.382   5.182
10031SOL    HW230993   6.215   4.423   5.095
10032SOL     OW30994   2.991   1.641   4.787
10032SOL    HW130995   3.082   1.681   4.788
10032SOL    HW230996   2.997   1.543   4.770
10033SOL     OW30997   5.332   2.660   4.545
10033SOL    HW130998   5.257   2.597   4.563
10033SOL    HW230999   5.362   2.650   4.450
10034SOL     OW31000   5.498   0.410   5.609
10034SOL    HW131001   5.573   0.345   5.619
10034SOL    HW231002   5.445   0.413   5.694
10035SOL     OW31003   0.305   6.054   2.062
10035SOL    HW131004   0.398   6.083   2.087
10035SOL    HW231005   0.309   5.969   2.010
10036SOL     OW31006   7.012   0.676   0.637
10036SOL    HW131007   0.060   0.740   0.603
10036SOL    HW231008   7.019   0.589   0.589
10037SOL     OW31009   0.866   6.839   0.466
10037SOL    HW131010   0.897   6.748   0.493
10037SOL    HW231011   0.772   6.833   0.432
10038SOL     OW31012   6.465   0.480   1.578
10038SOL    HW131013   6.562   0.494   1.598
10038SOL    HW231014   6.418   0.568   1.577
10039SOL     OW31015   3.229   0.583   3.670
10039SOL    HW131016   3.154   0.645   3.645
10039SOL    HW231017   3.283   0.561   3.589
10040SOL     OW31018   1.081   2.858   1.312
10040SOL    HW131019   1.158   2.844   1.251
10040SOL    HW231020   0.997   2.827   1.268
10041SOL     OW31021   2.359   5.844   6.968
10041SOL    HW131022   2.343   5.891   0.035
10041SOL    HW231023   2.358   5.745   6.983
10042SOL     OW31024   5.749   3.386   2.871
10042SOL    HW131025   5.786   3.295   2.889
10042SOL    HW231026   5.736   3.399   2.773
10043SOL     OW31027   0.567   1.708   4.855
10043SOL    HW131028   0.658   1.705   4.812
10043SOL    HW231029   0.556   1.794   4.904
10044SOL     OW31030   2.966   1.381   5.685
10044SOL    HW131031   2.992   1.469   5.646
10044SOL    HW231032   3.039   1.314   5.669
10045SOL     OW31033   3.295   1.241   0.987
10045SOL    HW131034   3.327   1.147   0.997
10045SOL    HW231035   3.248   1.269   1.070
10046SOL     OW31036   1.214   5.564   0.997
10046SOL    HW131037   1.233   5.638   0.932
10046SOL    HW231038   1.196   5.480   0.946
10047SOL     OW31039   0.991   3.039   1.018
10047SOL    HW131040   1.006   3.060   0.922
10047SOL    HW231041   0.908   2.984   1.028
10048SOL     OW31042   6.203   5.482   3.492
10048SOL    HW131043   6.169   5.394   3.457
10048SOL    HW231044   6.144   5.512   3.567
10049SOL     OW31045   6.840   0.607   5.286
10049SOL    HW131046   6.893   0.594   5.370
10049SOL    HW231047   6.830   0.705   5.268
10050SOL     OW31048   0.065   2.973   6.688
10050SOL    HW131049   6.989   2.957   6.668
10050SOL    HW231050   0.077   3.065   6.725
10051SOL     OW31051   2.451   2.694   3.676
10051SOL    HW131052   2.394   2.759   3.625
10051SOL    HW231053   2.435   2.705   3.774
10052SOL     OW31054   1.311   6.712   3.365
10052SOL    HW131055   1.400   6.756   3.354
10052SOL    HW231056   1.313   6.650   3.444
10053SOL     OW31057   5.719   5.297   4.664
10053SOL    HW131058   5.631   5.252   4.672
10053SOL    HW231059   5.789   5.229   4.638
10054SOL     OW31060   6.705   3.707   4.945
10054SOL    HW131061   6.658   3.685   5.030
10054SOL    HW231062   6.769   3.633   4.921
10055SOL     OW31063   1.221   2.132   0.008
10055SOL    HW131064   1.123   2.126   7.008
10055SOL    HW231065   1.252   2.226   7.018
10056SOL     OW31066   6.202   2.289   3.526
10056SOL    HW131067   6.141   2.302   3.604
10056SOL    HW231068   6.254   2.204   3.537
10057SOL     OW31069   5.736   5.330   4.988
10057SOL    HW131070   5.698   5.397   5.052
10057SOL    HW231071   5.798   5.376   4.925
10058SOL     OW31072   0.147   3.347   5.044
10058SOL    HW131073   0.064   3.290   5.044
10058SOL    HW231074   0.175   3.364   5.138
10059SOL     OW31075   5.937   0.637   6.871
10059SOL    HW131076   5.937   0.579   6.952
10059SOL    HW231077   5.845   0.639   6.832
10060SOL     OW31078   2.587   1.386   1.541
10060SOL    HW131079   2.583   1.484   1.561
10060SOL    HW231080   2.532   1.337   1.608
10061SOL     OW31081   3.934   6.765   2.948
10061SOL    HW131082   3.976   6.750   2.858
10061SOL    HW231083   3.898   6.679   2.983
10062SOL     OW31084   0.524   6.965   5.056
10062SOL    HW131085   0.539   6.980   5.154
10062SOL    HW231086   0.435   7.003   5.030
10063SOL     OW31087   2.277   2.447   5.239
10063SOL    HW131088   2.361   2.492   5.270
10063SOL    HW231089   2.238   2.395   5.316
10064SOL     OW31090   2.703   7.013   0.511
10064SOL    HW131091   2.688   6.949   0.587
10064SOL    HW231092   2.791   6.994   0.468
10065SOL     OW31093   0.391   2.163   1.611
10065SOL    HW131094   0.479   2.124   1.585
10065SOL    HW231095   0.344   2.101   1.674
10066SOL     OW31096   6.169   4.095   4.277
10066SOL    HW131097   6.124   4.033   4.213
10066SOL    HW231098   6.193   4.046   4.360
10067SOL     OW31099   6.939   3.161   5.062
10067SOL    HW131100   6.941   3.061   5.052
10067SOL    HW231101   6.915   3.185   5.156
10068SOL     OW31102   1.745   3.275   3.137
10068SOL    HW131103   1.785   3.214   3.204
10068SOL    HW231104   1.724   3.363   3.180
10069SOL     OW31105   2.750   4.807   0.090
10069SOL    HW131106   2.696   4.742   0.144
10069SOL    HW231107   2.690   4.861   0.033
10070SOL     OW31108   4.143   6.566   6.594
10070SOL    HW131109   4.104   6.476   6.613
10070SOL    HW231110   4.207   6.591   6.667
10071SOL     OW31111   5.727   0.428   4.655
10071SOL    HW131112   5.654   0.360   4.663
10071SOL    HW231113   5.707   0.505   4.716
10072SOL     OW31114   6.572   3.173   1.210
10072SOL    HW131115   6.582   3.180   1.310
10072SOL    HW231116   6.526   3.088   1.187
10073SOL     OW31117   5.618   4.599   5.064
10073SOL    HW131118   5.612   4.620   5.162
10073SOL    HW231119   5.618   4.500   5.051
10074SOL     OW31120   1.843   5.435   0.576
10074SOL    HW131121   1.851   5.418   0.674
10074SOL    HW231122   1.791   5.362   0.533
10075SOL     OW31123   1.388   3.388   2.186
10075SOL    HW131124   1.462   3.437   2.140
10075SOL    HW231125   1.300   3.415   2.145
10076SOL     OW31126   5.284   5.024   4.509
10076SOL    HW131127   5.360   4.975   4.468
10076SOL    HW231128   5.263   4.986   4.599
10077SOL     OW31129   5.255   4.006   6.407
10077SOL    HW131130   5.330   4.063   6.439
10077SOL    HW231131   5.244   3.928   6.469
10078SOL     OW31132   6.513   5.102   4.953
10078SOL    HW131133   6.557   5.174   4.899
10078SOL    HW231134   6.443   5.057   4.899
10079SOL     OW31135   5.364   3.657   4.041
10079SOL    HW131136   5.423   3.727   4.001
10079SOL    HW231137   5.366   3.664   4.141
10080SOL     OW31138   5.326   1.443   6.010
10080SOL    HW131139   5.337   1.475   5.916
10080SOL    HW231140   5.237   1.397   6.018
10081SOL     OW31141   1.281   4.550   0.692
10081SOL    HW131142   1.244   4.564   0.784
10081SOL    HW231143   1.377   4.579   0.690
10082SOL     OW31144   1.360   4.897   1.284
10082SOL    HW131145   1.379   4.986   1.326
10082SOL    HW231146   1.283   4.854   1.332
10083SOL     OW31147   2.970   5.692   2.714
10083SOL    HW131148   2.931   5.633   2.644
10083SOL    HW231149   2.984   5.784   2.677
10084SOL     OW31150   0.720   1.541   4.500
10084SOL    HW131151   0.735   1.571   4.406
10084SOL    HW231152   0.622   1.528   4.516
10085SOL     OW31153   5.221   0.056   0.903
10085SOL    HW131154   5.152   7.005   0.889
10085SOL    HW231155   5.176   0.145   0.906
10086SOL     OW31156   4.666   6.898   3.394
10086SOL    HW131157   4.753   6.852   3.379
10086SOL    HW231158   4.661   6.929   3.489
10087SOL     OW31159   1.049   5.913   4.985
10087SOL    HW131160   1.016   5.930   4.893
10087SOL    HW231161   1.006   5.977   5.049
10088SOL     OW31162   6.779   2.903   2.156
10088SOL    HW131163   6.795   2.897   2.057
10088SOL    HW231164   6.864   2.923   2.203
10089SOL     OW31165   3.405   0.732   1.315
10089SOL    HW131166   3.340   0.685   1.255
10089SOL    HW231167   3.439   0.668   1.384
10090SOL     OW31168   2.474   6.572   3.326
10090SOL    HW131169   2.453   6.479   3.358
10090SOL    HW231170   2.405   6.600   3.260
10091SOL     OW31171   5.904   5.094   4.959
10091SOL    HW131172   5.840   5.035   5.009
10091SOL    HW231173   5.860   5.181   4.939
10092SOL     OW31174   0.926   2.552   3.808
10092SOL    HW131175   0.937   2.454   3.820
10092SOL    HW231176   0.944   2.576   3.712
10093SOL     OW31177   4.445   4.412   6.015
10093SOL    HW131178   4.495   4.431   6.099
10093SOL    HW231179   4.452   4.315   5.992
10094SOL     OW31180   3.935   2.463   1.310
10094SOL    HW131181   3.909   2.559   1.324
10094SOL    HW231182   4.000   2.436   1.381
10095SOL     OW31183   4.443   3.300   5.398
10095SOL    HW131184   4.442   3.277   5.495
10095SOL    HW231185   4.351   3.286   5.360
10096SOL     OW31186   6.985   3.544   1.867
10096SOL    HW131187   6.914   3.483   1.902
10096SOL    HW231188   0.054   3.501   1.879
10097SOL     OW31189   0.230   1.644   0.706
10097SOL    HW131190   0.202   1.724   0.760
10097SOL    HW231191   0.172   1.636   0.625
10098SOL     OW31192   3.280   5.283   4.340
10098SOL    HW131193   3.260   5.312   4.246
10098SOL    HW231194   3.226   5.201   4.361
10099SOL     OW31195   0.331   5.070   2.810
10099SOL    HW131196   0.420   5.033   2.784
10099SOL    HW231197   0.340   5.166   2.835
10100SOL     OW31198   5.288   4.428   3.873
10100SOL    HW131199   5.322   4.386   3.957
10100SOL    HW231200   5.229   4.364   3.824
10101SOL     OW31201   6.738   3.242   0.640
10101SOL    HW131202   6.737   3.142   0.640
10101SOL    HW231203   6.735   3.276   0.734
10102SOL     OW31204   6.870   5.314   3.442
10102SOL    HW131205   6.909   5.392   3.392
10102SOL    HW231206   6.942   5.269   3.494
10103SOL     OW31207   0.338   6.082   6.902
10103SOL    HW131208   0.437   6.097   6.901
10103SOL    HW231209   0.318   6.000   6.956
10104SOL     OW31210   2.750   0.921   4.164
10104SOL    HW131211   2.747   0.993   4.095
10104SOL    HW231212   2.702   0.840   4.131
10105SOL     OW31213   2.921   1.456   4.399
10105SOL    HW131214   2.871   1.463   4.313
10105SOL    HW231215   2.857   1.435   4.473
10106SOL     OW31216   5.466   4.522   1.384
10106SOL    HW131217   5.477   4.431   1.345
10106SOL    HW231218   5.460   4.515   1.484
10107SOL     OW31219   5.195   5.384   0.362
10107SOL    HW131220   5.160   5.413   0.451
10107SOL    HW231221   5.124   5.395   0.293
10108SOL     OW31222   2.139   2.595   5.951
10108SOL    HW131223   2.207   2.656   5.912
10108SOL    HW231224   2.132   2.512   5.895
10109SOL     OW31225   1.117   2.529   1.403
10109SOL    HW131226   1.212   2.532   1.435
10109SOL    HW231227   1.097   2.611   1.349
10110SOL     OW31228   5.736   5.622   2.712
10110SOL    HW131229   5.805   5.677   2.760
10110SOL    HW231230   5.706   5.671   2.630
10111SOL     OW31231   0.235   2.797   2.069
10111SOL    HW131232   0.300   2.721   2.076
10111SOL    HW231233   0.148   2.771   2.111
10112SOL     OW31234   6.636   3.016   3.319
10112SOL    HW131235   6.650   3.099   3.374
10112SOL    HW231236   6.545   2.979   3.337
10113SOL     OW31237   6.051   0.579   6.623
10113SOL    HW131238   5.971   0.545   6.575
10113SOL    HW231239   6.025   0.605   6.716
10114SOL     OW31240   5.990   2.893   2.032
10114SOL    HW131241   5.933   2.943   1.967
10114SOL    HW231242   5.936   2.822   2.076
10115SOL     OW31243   3.479   2.322   5.938
10115SOL    HW131244   3.501   2.360   6.028
10115SOL    HW231245   3.399   2.369   5.901
10116SOL     OW31246   0.062   0.131   5.727
10116SOL    HW131247   0.112   0.083   5.799
10116SOL    HW231248   0.070   0.230   5.741
10117SOL     OW31249   6.533   4.397   3.121
10117SOL    HW131250   6.595   4.331   3.162
10117SOL    HW231251   6.439   4.365   3.129
10118SOL     OW31252   3.906   4.939   3.308
10118SOL    HW131253   3.871   4.900   3.223
10118SOL    HW231254   3.830   4.969   3.366
10119SOL     OW31255   6.180   6.342   6.701
10119SOL    HW131256   6.188   6.303   6.610
10119SOL    HW231257   6.088   6.327   6.736
10120SOL     OW31258   2.485   2.232   3.108
10120SOL    HW131259   2.568   2.287   3.099
10120SOL    HW231260   2.503   2.155   3.170
10121SOL     OW31261   0.339   5.228   1.128
10121SOL    HW131262   0.375   5.135   1.121
10121SOL    HW231263   0.261   5.237   1.065
10122SOL     OW31264   2.118   0.245   3.369
10122SOL    HW131265   2.186   0.273   3.302
10122SOL    HW231266   2.125   0.147   3.385
10123SOL     OW31267   6.976   5.649   6.638
10123SOL    HW131268   0.012   5.657   6.721
10123SOL    HW231269   0.015   5.628   6.560
10124SOL     OW31270   2.381   5.554   2.657
10124SOL    HW131271   2.365   5.468   2.608
10124SOL    HW231272   2.407   5.535   2.751
10125SOL     OW31273   0.811   0.804   4.545
10125SOL    HW131274   0.829   0.858   4.463
10125SOL    HW231275   0.818   0.862   4.626
10126SOL     OW31276   6.975   6.201   5.923
10126SOL    HW131277   0.046   6.216   5.885
10126SOL    HW231278   6.914   6.273   5.893
10127SOL     OW31279   2.091   6.719   6.192
10127SOL    HW131280   2.156   6.647   6.168
10127SOL    HW231281   2.129   6.808   6.166
10128SOL     OW31282   2.128   2.810   0.193
10128SOL    HW131283   2.145   2.903   0.160
10128SOL    HW231284   2.215   2.763   0.207
10129SOL     OW31285   6.282   1.933   4.748
10129SOL    HW131286   6.227   2.002   4.795
10129SOL    HW231287   6.238   1.843   4.758
10130SOL     OW31288   0.414   2.053   4.034
10130SOL    HW131289   0.469   1.977   3.998
10130SOL    HW231290   0.475   2.121   4.075
10131SOL     OW31291   1.999   6.346   4.704
10131SOL    HW131292   2.098   6.350   4.703
10131SOL    HW231293   1.966   6.323   4.612
10132SOL     OW31294   5.248   6.861   2.075
10132SOL    HW131295   5.214   6.793   2.140
10132SOL    HW231296   5.310   6.817   2.010
10133SOL     OW31297   5.824   6.334   0.712
10133SOL    HW131298   5.887   6.345   0.789
10133SOL    HW231299   5.875   6.301   0.632
10134SOL     OW31300   6.927   6.888   3.318
10134SOL    HW131301   6.892   6.959   3.258
10134SOL    HW231302   6.871   6.884   3.401
10135SOL     OW31303   6.127   6.925   3.060
10135SOL    HW131304   6.053   6.992   3.061
10135SOL    HW231305   6.132   6.882   2.970
10136SOL     OW31306   4.766   0.954   3.280
10136SOL    HW131307   4.773   0.874   3.339
10136SOL    HW231308   4.707   1.022   3.323
10137SOL     OW31309   6.662   5.253   4.781
10137SOL    HW131310   6.648   5.160   4.746
10137SOL    HW231311   6.727   5.301   4.723
10138SOL     OW31312   6.684   2.654   2.269
10138SOL    HW131313   6.587   2.641   2.245
10138SOL    HW231314   6.719   2.736   2.223
10139SOL     OW31315   3.017   2.932   6.707
10139SOL    HW131316   2.935   2.926   6.649
10139SOL    HW231317   3.094   2.964   6.652
10140SOL     OW31318   0.874   5.772   5.392
10140SOL    HW131319   0.793   5.810   5.345
10140SOL    HW231320   0.916   5.703   5.333
10141SOL     OW31321   2.089   2.629   4.120
10141SOL    HW131322   2.000   2.584   4.122
10141SOL    HW231323   2.142   2.600   4.200
10142SOL     OW31324   4.142   6.068   3.142
10142SOL    HW131325   4.051   6.048   3.179
10142SOL    HW231326   4.193   5.983   3.134
10143SOL     OW31327   5.626   2.692   5.690
10143SOL    HW131328   5.662   2.698   5.783
10143SOL    HW231329   5.702   2.691   5.625
10144SOL     OW31330   3.348   0.043   0.846
10144SOL    HW131331   3.370   6.966   0.838
10144SOL    HW231332   3.249   0.056   0.842
10145SOL     OW31333   6.551   6.851   6.124
10145SOL    HW131334   6.641   6.832   6.161
10145SOL    HW231335   6.500   6.910   6.187
10146SOL     OW31336   1.604   2.884   5.333
10146SOL    HW131337   1.528   2.823   5.310
10146SOL    HW231338   1.658   2.902   5.251
10147SOL     OW31339   3.861   5.897   5.802
10147SOL    HW131340   3.934   5.951   5.844
10147SOL    HW231341   3.861   5.805   5.842
10148SOL     OW31342   0.702   4.468   0.075
10148SOL    HW131343   0.790   4.425   0.095
10148SOL    HW231344   0.716   4.566   0.059
10149SOL     OW31345   4.073   3.646   1.601
10149SOL    HW131346   4.071   3.683   1.694
10149SOL    HW231347   4.160   3.598   1.586
10150SOL     OW31348   4.544   4.243   1.114
10150SOL    HW131349   4.580   4.167   1.060
10150SOL    HW231350   4.546   4.326   1.058
10151SOL     OW31351   6.702   0.953   6.109
10151SOL    HW131352   6.749   0.883   6.056
10151SOL    HW231353   6.724   0.943   6.206
10152SOL     OW31354   3.792   6.536   3.038
10152SOL    HW131355   3.736   6.557   3.119
10152SOL    HW231356   3.871   6.482   3.066
10153SOL     OW31357   5.174   4.170   1.669
10153SOL    HW131358   5.167   4.268   1.692
10153SOL    HW231359   5.085   4.127   1.683
10154SOL     OW31360   3.733   5.106   5.199
10154SOL    HW131361   3.698   5.027   5.148
10154SOL    HW231362   3.813   5.143   5.152
10155SOL     OW31363   3.885   1.270   3.784
10155SOL    HW131364   3.919   1.312   3.700
10155SOL    HW231365   3.957   1.271   3.854
10156SOL     OW31366   4.091   1.641   5.591
10156SOL    HW131367   4.081   1.574   5.665
10156SOL    HW231368   4.186   1.672   5.587
10157SOL     OW31369   0.510   4.254   1.491
10157SOL    HW131370   0.555   4.164   1.499
10157SOL    HW231371   0.573   4.318   1.448
10158SOL     OW31372   5.805   5.129   0.039
10158SOL    HW131373   5.771   5.056   7.000
10158SOL    HW231374   5.743   5.140   0.117
10159SOL     OW31375   3.350   3.130   1.849
10159SOL    HW131376   3.397   3.058   1.797
10159SOL    HW231377   3.280   3.089   1.907
10160SOL     OW31378   6.772   4.450   2.319
10160SOL    HW131379   6.708   4.386   2.362
10160SOL    HW231380   6.840   4.479   2.386
10161SOL     OW31381   5.344   3.200   5.738
10161SOL    HW131382   5.364   3.240   5.827
10161SOL    HW231383   5.429   3.171   5.694
10162SOL     OW31384   1.469   2.887   2.100
10162SOL    HW131385   1.396   2.834   2.144
10162SOL    HW231386   1.444   2.983   2.098
10163SOL     OW31387   2.766   5.106   4.901
10163SOL    HW131388   2.677   5.131   4.864
10163SOL    HW231389   2.757   5.027   4.960
10164SOL     OW31390   7.020   1.085   3.981
10164SOL    HW131391   6.970   1.166   4.011
10164SOL    HW231392   7.011   1.074   3.882
10165SOL     OW31393   1.069   3.790   4.189
10165SOL    HW131394   1.047   3.764   4.283
10165SOL    HW231395   0.986   3.822   4.143
10166SOL     OW31396   2.619   6.244   2.772
10166SOL    HW131397   2.642   6.308   2.846
10166SOL    HW231398   2.558   6.173   2.807
10167SOL     OW31399   2.505   2.061   6.665
10167SOL    HW131400   2.425   2.087   6.611
10167SOL    HW231401   2.540   2.141   6.714
10168SOL     OW31402   0.090   0.209   6.640
10168SOL    HW131403   0.057   0.292   6.685
10168SOL    HW231404   0.037   0.194   6.556
10169SOL     OW31405   5.173   4.861   3.264
10169SOL    HW131406   5.262   4.825   3.291
10169SOL    HW231407   5.125   4.793   3.209
10170SOL     OW31408   5.173   6.258   0.629
10170SOL    HW131409   5.150   6.182   0.569
10170SOL    HW231410   5.240   6.317   0.585
10171SOL     OW31411   2.316   4.714   5.194
10171SOL    HW131412   2.244   4.692   5.129
10171SOL    HW231413   2.405   4.713   5.148
10172SOL     OW31414   6.798   0.779   2.755
10172SOL    HW131415   6.868   0.709   2.740
10172SOL    HW231416   6.709   0.744   2.727
10173SOL     OW31417   3.743   3.342   5.065
10173SOL    HW131418   3.688   3.425   5.067
10173SOL    HW231419   3.696   3.273   5.010
10174SOL     OW31420   4.468   5.339   1.110
10174SOL    HW131421   4.388   5.345   1.168
10174SOL    HW231422   4.455   5.395   1.028
10175SOL     OW31423   6.625   6.878   4.492
10175SOL    HW131424   6.550   6.851   4.553
10175SOL    HW231425   6.641   6.976   4.501
10176SOL     OW31426   0.535   0.465   4.693
10176SOL    HW131427   0.550   0.415   4.778
10176SOL    HW231428   0.456   0.525   4.703
10177SOL     OW31429   2.432   0.895   4.180
10177SOL    HW131430   2.361   0.848   4.231
10177SOL    HW231431   2.483   0.829   4.125
10178SOL     OW31432   0.549   2.059   1.319
10178SOL    HW131433   0.529   1.968   1.354
10178SOL    HW231434   0.630   2.095   1.365
10179SOL     OW31435   0.355   5.560   0.376
10179SOL    HW131436   0.410   5.543   0.294
10179SOL    HW231437   0.338   5.473   0.422
10180SOL     OW31438   3.749   0.204   6.500
10180SOL    HW131439   3.770   0.177   6.594
10180SOL    HW231440   3.815   0.274   6.470
10181SOL     OW31441   6.664   3.721   3.471
10181SOL    HW131442   6.590   3.689   3.531
10181SOL    HW231443   6.654   3.679   3.381
10182SOL     OW31444   3.916   0.886   0.938
10182SOL    HW131445   3.832   0.940   0.947
10182SOL    HW231446   3.993   0.947   0.921
10183SOL     OW31447   4.485   6.535   5.671
10183SOL    HW131448   4.390   6.568   5.667
10183SOL    HW231449   4.537   6.592   5.734
10184SOL     OW31450   5.230   1.693   5.832
10184SOL    HW131451   5.330   1.688   5.821
10184SOL    HW231452   5.208   1.754   5.907
10185SOL     OW31453   3.364   5.210   1.409
10185SOL    HW131454   3.383   5.282   1.343
10185SOL    HW231455   3.339   5.252   1.497
10186SOL     OW31456   3.507   3.322   6.513
10186SOL    HW131457   3.559   3.391   6.564
10186SOL    HW231458   3.409   3.341   6.523
10187SOL     OW31459   1.783   4.039   5.445
10187SOL    HW131460   1.873   4.070   5.475
10187SOL    HW231461   1.721   4.118   5.439
10188SOL     OW31462   2.703   7.002   6.230
10188SOL    HW131463   2.653   6.960   6.154
10188SOL    HW231464   2.638   0.019   6.296
10189SOL     OW31465   1.893   1.514   4.747
10189SOL    HW131466   1.954   1.572   4.800
10189SOL    HW231467   1.908   1.418   4.773
10190SOL     OW31468   4.215   4.071   0.714
10190SOL    HW131469   4.195   4.009   0.638
10190SOL    HW231470   4.205   4.023   0.801
10191SOL     OW31471   5.629   0.521   6.996
10191SOL    HW131472   5.638   0.583   6.918
10191SOL    HW231473   5.583   0.567   0.051
10192SOL     OW31474   2.263   1.096   4.633
10192SOL    HW131475   2.173   1.053   4.632
10192SOL    HW231476   2.309   1.078   4.546
10193SOL     OW31477   3.788   3.611   3.826
10193SOL    HW131478   3.882   3.581   3.842
10193SOL    HW231479   3.760   3.585   3.734
10194SOL     OW31480   2.853   0.044   3.165
10194SOL    HW131481   2.867   6.975   3.123
10194SOL    HW231482   2.936   0.099   3.156
10195SOL     OW31483   5.308   0.535   1.823
10195SOL    HW131484   5.370   0.599   1.869
10195SOL    HW231485   5.291   0.456   1.883
10196SOL     OW31486   5.074   3.612   4.507
10196SOL    HW131487   5.083   3.708   4.531
10196SOL    HW231488   5.002   3.602   4.438
10197SOL     OW31489   5.315   1.598   2.603
10197SOL    HW131490   5.271   1.684   2.578
10197SOL    HW231491   5.291   1.528   2.536
10198SOL     OW31492   2.822   0.554   1.660
10198SOL    HW131493   2.777   0.490   1.724
10198SOL    HW231494   2.813   0.519   1.567
10199SOL     OW31495   0.915   2.269   0.924
10199SOL    HW131496   0.826   2.279   0.969
10199SOL    HW231497   0.906   2.289   0.827
10200SOL     OW31498   5.772   5.635   5.580
10200SOL    HW131499   5.735   5.712   5.528
10200SOL    HW231500   5.849   5.665   5.635
10201SOL     OW31501   1.777   5.003   3.148
10201SOL    HW131502   1.710   5.050   3.205
10201SOL    HW231503   1.842   4.954   3.206
10202SOL     OW31504   0.411   2.670   2.819
10202SOL    HW131505   0.417   2.619   2.733
10202SOL    HW231506   0.379   2.609   2.891
10203SOL     OW31507   1.115   3.042   1.994
10203SOL    HW131508   1.159   3.039   2.084
10203SOL    HW231509   1.165   2.982   1.931
10204SOL     OW31510   3.163   4.992   4.238
10204SOL    HW131511   3.093   4.949   4.296
10204SOL    HW231512   3.118   5.036   4.160
10205SOL     OW31513   4.238   0.473   1.561
10205SOL    HW131514   4.189   0.553   1.526
10205SOL    HW231515   4.238   0.401   1.492
10206SOL     OW31516   4.884   0.404   5.820
10206SOL    HW131517   4.957   0.345   5.852
10206SOL    HW231518   4.797   0.353   5.822
10207SOL     OW31519   3.823   0.837   3.080
10207SOL    HW131520   3.825   0.875   2.987
10207SOL    HW231521   3.790   0.907   3.143
10208SOL     OW31522   6.397   4.062   5.445
10208SOL    HW131523   6.431   4.080   5.537
10208SOL    HW231524   6.416   4.141   5.387
10209SOL     OW31525   5.411   6.905   6.423
10209SOL    HW131526   5.418   6.854   6.509
10209SOL    HW231527   5.418   6.842   6.346
10210SOL     OW31528   5.466   5.719   0.961
10210SOL    HW131529   5.530   5.787   0.924
10210SOL    HW231530   5.516   5.637   0.987
10211SOL     OW31531   3.677   5.780   5.114
10211SOL    HW131532   3.603   5.744   5.170
10211SOL    HW231533   3.670   5.743   5.022
10212SOL     OW31534   5.944   6.262   5.402
10212SOL    HW131535   5.878   6.336   5.417
10212SOL    HW231536   6.034   6.302   5.385
10213SOL     OW31537   4.753   0.628   4.387
10213SOL    HW131538   4.822   0.644   4.316
10213SOL    HW231539   4.707   0.541   4.368
10214SOL     OW31540   0.085   1.254   1.394
10214SOL    HW131541   0.125   1.326   1.451
10214SOL    HW231542   7.006   1.266   1.389
10215SOL     OW31543   4.029   2.906   6.502
10215SOL    HW131544   4.010   2.893   6.600
10215SOL    HW231545   4.118   2.949   6.491
10216SOL     OW31546   4.768   0.319   2.495
10216SOL    HW131547   4.787   0.383   2.570
10216SOL    HW231548   4.726   0.368   2.419
10217SOL     OW31549   3.039   2.192   5.598
10217SOL    HW131550   3.123   2.196   5.651
10217SOL    HW231551   3.060   2.206   5.501
10218SOL     OW31552   2.687   2.388   0.417
10218SOL    HW131553   2.767   2.436   0.382
10218SOL    HW231554   2.682   2.296   0.377
10219SOL     OW31555   0.734   4.627   0.419
10219SOL    HW131556   0.724   4.564   0.496
10219SOL    HW231557   0.816   4.603   0.366
10220SOL     OW31558   4.236   2.705   0.372
10220SOL    HW131559   4.286   2.782   0.412
10220SOL    HW231560   4.300   2.630   0.352
10221SOL     OW31561   3.180   1.207   4.934
10221SOL    HW131562   3.251   1.230   4.867
10221SOL    HW231563   3.124   1.132   4.898
10222SOL     OW31564   2.051   4.934   5.793
10222SOL    HW131565   2.068   4.914   5.697
10222SOL    HW231566   2.122   4.893   5.849
10223SOL     OW31567   6.842   4.409   0.796
10223SOL    HW131568   6.800   4.471   0.730
10223SOL    HW231569   6.855   4.319   0.754
10224SOL     OW31570   2.548   0.204   4.837
10224SOL    HW131571   2.460   0.167   4.808
10224SOL    HW231572   2.551   0.208   4.937
10225SOL     OW31573   5.501   5.883   4.304
10225SOL    HW131574   5.433   5.956   4.303
10225SOL    HW231575   5.582   5.914   4.354
10226SOL     OW31576   7.014   2.979   0.038
10226SOL    HW131577   0.002   2.945   0.132
10226SOL    HW231578   0.022   3.075   0.035
10227SOL     OW31579   5.882   6.023   6.139
10227SOL    HW131580   5.819   5.948   6.118
10227SOL    HW231581   5.955   6.025   6.071
10228SOL     OW31582   1.301   4.208   2.971
10228SOL    HW131583   1.251   4.227   3.055
10228SOL    HW231584   1.353   4.290   2.944
10229SOL     OW31585   1.887   1.304   1.963
10229SOL    HW131586   1.810   1.340   2.014
10229SOL    HW231587   1.916   1.370   1.894
10230SOL     OW31588   6.103   6.460   4.940
10230SOL    HW131589   6.004   6.475   4.933
10230SOL    HW231590   6.145   6.539   4.985
10231SOL     OW31591   4.585   7.015   4.446
10231SOL    HW131592   4.642   0.048   4.383
10231SOL    HW231593   4.525   6.954   4.395
10232SOL     OW31594   3.838   2.118   4.346
10232SOL    HW131595   3.849   2.105   4.444
10232SOL    HW231596   3.928   2.124   4.302
10233SOL     OW31597   4.993   1.341   5.478
10233SOL    HW131598   4.909   1.291   5.454
10233SOL    HW231599   4.984   1.436   5.449
10234SOL     OW31600   4.937   6.154   1.698
10234SOL    HW131601   4.900   6.125   1.786
10234SOL    HW231602   4.910   6.249   1.680
10235SOL     OW31603   4.945   1.685   6.304
10235SOL    HW131604   4.938   1.588   6.327
10235SOL    HW231605   5.004   1.730   6.371
10236SOL     OW31606   2.075   5.885   1.832
10236SOL    HW131607   2.151   5.878   1.897
10236SOL    HW231608   2.106   5.935   1.751
10237SOL     OW31609   5.756   2.269   3.239
10237SOL    HW131610   5.673   2.282   3.185
10237SOL    HW231611   5.837   2.284   3.181
10238SOL     OW31612   4.592   5.549   4.248
10238SOL    HW131613   4.597   5.511   4.340
10238SOL    HW231614   4.543   5.636   4.251
10239SOL     OW31615   6.530   3.809   4.017
10239SOL    HW131616   6.623   3.840   3.994
10239SOL    HW231617   6.519   3.713   3.993
10240SOL     OW31618   6.230   3.819   3.627
10240SOL    HW131619   6.244   3.804   3.529
10240SOL    HW231620   6.167   3.751   3.663
10241SOL     OW31621   1.760   1.363   3.199
10241SOL    HW131622   1.676   1.416   3.207
10241SOL    HW231623   1.798   1.345   3.290
10242SOL     OW31624   0.696   6.431   6.446
10242SOL    HW131625   0.647   6.382   6.518
10242SOL    HW231626   0.776   6.378   6.417
10243SOL     OW31627   1.295   6.121   2.438
10243SOL    HW131628   1.214   6.088   2.389
10243SOL    HW231629   1.378   6.086   2.392
10244SOL     OW31630   1.386   5.981   0.109
10244SOL    HW131631   1.403   5.913   0.181
10244SOL    HW231632   1.462   5.981   0.044
10245SOL     OW31633   2.108   2.492   0.152
10245SOL    HW131634   2.171   2.565   0.179
10245SOL    HW231635   2.086   2.435   0.232
10246SOL     OW31636   3.193   4.067   4.190
10246SOL    HW131637   3.292   4.081   4.187
10246SOL    HW231638   3.172   3.975   4.155
10247SOL     OW31639   0.989   5.733   5.919
10247SOL    HW131640   0.928   5.773   5.986
10247SOL    HW231641   1.007   5.799   5.846
10248SOL     OW31642   4.483   0.612   2.797
10248SOL    HW131643   4.398   0.599   2.745
10248SOL    HW231644   4.525   0.523   2.815
10249SOL     OW31645   4.715   1.304   6.939
10249SOL    HW131646   4.690   1.279   0.012
10249SOL    HW231647   4.679   1.236   6.875
10250SOL     OW31648   5.479   0.387   0.359
10250SOL    HW131649   5.386   0.416   0.336
10250SOL    HW231650   5.494   0.293   0.326
10251SOL     OW31651   3.993   4.378   6.689
10251SOL    HW131652   4.080   4.398   6.642
10251SOL    HW231653   4.010   4.319   6.768
10252SOL     OW31654   6.120   5.165   2.168
10252SOL    HW131655   6.052   5.102   2.129
10252SOL    HW231656   6.081   5.210   2.248
10253SOL     OW31657   4.040   4.921   6.761
10253SOL    HW131658   3.994   5.008   6.741
10253SOL    HW231659   3.978   4.845   6.739
10254SOL     OW31660   2.052   1.526   4.100
10254SOL    HW131661   2.029   1.433   4.127
10254SOL    HW231662   2.020   1.590   4.170
10255SOL     OW31663   3.202   5.143   3.040
10255SOL    HW131664   3.265   5.190   2.979
10255SOL    HW231665   3.114   5.191   3.041
10256SOL     OW31666   6.249   6.595   6.805
10256SOL    HW131667   6.269   6.517   6.746
10256SOL    HW231668   6.169   6.644   6.770
10257SOL     OW31669   1.929   6.519   6.546
10257SOL    HW131670   2.014   6.508   6.596
10257SOL    HW231671   1.922   6.612   6.510
10258SOL     OW31672   4.171   6.957   3.463
10258SOL    HW131673   4.234   6.897   3.415
10258SOL    HW231674   4.220   7.003   3.537
10259SOL     OW31675   0.664   3.972   3.761
10259SOL    HW131676   0.622   3.885   3.734
10259SOL    HW231677   0.728   3.956   3.836
10260SOL     OW31678   0.119   6.337   1.281
10260SOL    HW131679   0.055   6.404   1.245
10260SOL    HW231680   0.208   6.350   1.237
10261SOL     OW31681   2.129   0.161   1.481
10261SOL    HW131682   2.033   0.136   1.471
10261SOL    HW231683   2.151   0.170   1.578
10262SOL     OW31684   0.971   5.594   5.141
10262SOL    HW131685   1.041   5.600   5.069
10262SOL    HW231686   1.010   5.549   5.222
10263SOL     OW31687   6.526   2.150   5.337
10263SOL    HW131688   6.558   2.091   5.263
10263SOL    HW231689   6.479   2.093   5.406
10264SOL     OW31690   0.592   6.540   6.996
10264SOL    HW131691   0.631   6.508   6.910
10264SOL    HW231692   0.604   6.471   0.046
10265SOL     OW31693   4.135   2.109   2.141
10265SOL    HW131694   4.167   2.103   2.047
10265SOL    HW231695   4.036   2.117   2.143
10266SOL     OW31696   4.292   4.146   6.095
10266SOL    HW131697   4.276   4.218   6.027
10266SOL    HW231698   4.205   4.118   6.135
10267SOL     OW31699   0.236   1.812   6.097
10267SOL    HW131700   0.147   1.804   6.141
10267SOL    HW231701   0.223   1.837   6.001
10268SOL     OW31702   6.413   4.237   1.777
10268SOL    HW131703   6.401   4.336   1.774
10268SOL    HW231704   6.350   4.194   1.712
10269SOL     OW31705   3.156   2.568   6.096
10269SOL    HW131706   3.246   2.608   6.115
10269SOL    HW231707   3.091   2.641   6.075
10270SOL     OW31708   3.174   6.370   1.149
10270SOL    HW131709   3.184   6.466   1.175
10270SOL    HW231710   3.246   6.344   1.086
10271SOL     OW31711   3.394   4.933   0.701
10271SOL    HW131712   3.315   4.967   0.649
10271SOL    HW231713   3.430   4.851   0.656
10272SOL     OW31714   0.923   0.934   5.727
10272SOL    HW131715   0.932   0.850   5.673
10272SOL    HW231716   0.829   0.968   5.721
10273SOL     OW31717   4.149   6.415   3.946
10273SOL    HW131718   4.126   6.343   3.881
10273SOL    HW231719   4.083   6.414   4.022
10274SOL     OW31720   1.963   5.934   6.470
10274SOL    HW131721   2.045   5.944   6.414
10274SOL    HW231722   1.984   5.959   6.565
10275SOL     OW31723   1.112   6.767   2.195
10275SOL    HW131724   1.090   6.670   2.198
10275SOL    HW231725   1.069   6.809   2.115
10276SOL     OW31726   6.900   6.700   6.967
10276SOL    HW131727   6.820   6.652   7.001
10276SOL    HW231728   6.872   6.771   6.902
10277SOL     OW31729   1.256   5.786   2.496
10277SOL    HW131730   1.231   5.727   2.573
10277SOL    HW231731   1.353   5.809   2.503
10278SOL     OW31732   6.535   0.203   6.571
10278SOL    HW131733   6.477   0.168   6.645
10278SOL    HW231734   6.480   0.217   6.489
10279SOL     OW31735   3.408   6.212   3.471
10279SOL    HW131736   3.403   6.299   3.520
10279SOL    HW231737   3.318   6.190   3.432
10280SOL     OW31738   3.405   2.678   6.109
10280SOL    HW131739   3.393   2.726   6.021
10280SOL    HW231740   3.475   2.725   6.163
10281SOL     OW31741   3.769   6.582   4.251
10281SOL    HW131742   3.770   6.675   4.286
10281SOL    HW231743   3.729   6.582   4.159
10282SOL     OW31744   1.265   2.497   4.858
10282SOL    HW131745   1.275   2.580   4.802
10282SOL    HW231746   1.245   2.419   4.799
10283SOL     OW31747   1.719   3.146   5.495
10283SOL    HW131748   1.711   3.059   5.445
10283SOL    HW231749   1.800   3.143   5.553
10284SOL     OW31750   5.411   3.190   6.347
10284SOL    HW131751   5.448   3.150   6.431
10284SOL    HW231752   5.485   3.237   6.299
10285SOL     OW31753   6.131   0.436   0.718
10285SOL    HW131754   6.191   0.363   0.749
10285SOL    HW231755   6.078   0.471   0.795
10286SOL     OW31756   4.225   0.612   4.320
10286SOL    HW131757   4.131   0.582   4.305
10286SOL    HW231758   4.233   0.651   4.412
10287SOL     OW31759   1.674   5.205   1.077
10287SOL    HW131760   1.710   5.268   1.146
10287SOL    HW231761   1.575   5.218   1.069
10288SOL     OW31762   5.136   6.397   4.127
10288SOL    HW131763   5.223   6.357   4.097
10288SOL    HW231764   5.153   6.490   4.161
10289SOL     OW31765   2.877   1.248   1.553
10289SOL    HW131766   2.811   1.315   1.519
10289SOL    HW231767   2.914   1.279   1.641
10290SOL     OW31768   3.012   3.633   1.926
10290SOL    HW131769   2.989   3.651   2.021
10290SOL    HW231770   3.072   3.553   1.920
10291SOL     OW31771   4.106   0.384   5.757
10291SOL    HW131772   4.101   0.334   5.843
10291SOL    HW231773   4.053   0.469   5.764
10292SOL     OW31774   6.926   0.771   4.811
10292SOL    HW131775   6.892   0.710   4.883
10292SOL    HW231776   6.971   0.716   4.740
10293SOL     OW31777   2.860   5.927   3.082
10293SOL    HW131778   2.905   5.839   3.065
10293SOL    HW231779   2.873   5.987   3.003
10294SOL     OW31780   6.035   1.676   3.247
10294SOL    HW131781   6.132   1.650   3.254
10294SOL    HW231782   5.991   1.619   3.178
10295SOL     OW31783   1.669   4.318   4.903
10295SOL    HW131784   1.735   4.366   4.961
10295SOL    HW231785   1.717   4.248   4.849
10296SOL     OW31786   6.276   2.473   0.798
10296SOL    HW131787   6.187   2.430   0.787
10296SOL    HW231788   6.271   2.569   0.770
10297SOL     OW31789   2.257   5.450   4.923
10297SOL    HW131790   2.171   5.404   4.946
10297SOL    HW231791   2.325   5.382   4.897
10298SOL     OW31792   5.450   3.888   3.236
10298SOL    HW131793   5.526   3.846   3.187
10298SOL    HW231794   5.428   3.834   3.317
10299SOL     OW31795   4.888   4.029   2.156
10299SOL    HW131796   4.905   3.947   2.211
10299SOL    HW231797   4.853   4.002   2.066
10300SOL     OW31798   2.347   5.243   2.248
10300SOL    HW131799   2.291   5.278   2.173
10300SOL    HW231800   2.442   5.236   2.218
10301SOL     OW31801   5.163   1.714   1.244
10301SOL    HW131802   5.088   1.651   1.264
10301SOL    HW231803   5.245   1.661   1.223
10302SOL     OW31804   1.528   5.134   3.454
10302SOL    HW131805   1.471   5.207   3.492
10302SOL    HW231806   1.525   5.137   3.354
10303SOL     OW31807   3.373   3.232   1.341
10303SOL    HW131808   3.288   3.256   1.389
10303SOL    HW231809   3.377   3.133   1.329
10304SOL     OW31810   6.244   6.405   3.894
10304SOL    HW131811   6.250   6.496   3.851
10304SOL    HW231812   6.224   6.336   3.825
10305SOL     OW31813   1.912   5.530   1.128
10305SOL    HW131814   1.867   5.608   1.084
10305SOL    HW231815   1.877   5.520   1.221
10306SOL     OW31816   4.204   4.886   0.496
10306SOL    HW131817   4.291   4.879   0.447
10306SOL    HW231818   4.175   4.982   0.499
10307SOL     OW31819   3.092   1.036   5.184
10307SOL    HW131820   3.035   1.083   5.252
10307SOL    HW231821   3.111   1.097   5.108
10308SOL     OW31822   3.170   5.568   3.666
10308SOL    HW131823   3.219   5.481   3.657
10308SOL    HW231824   3.082   5.551   3.711
10309SOL     OW31825   0.525   6.454   3.262
10309SOL    HW131826   0.520   6.355   3.272
10309SOL    HW231827   0.513   6.479   3.166
10310SOL     OW31828   3.267   3.355   4.647
10310SOL    HW131829   3.303   3.427   4.706
10310SOL    HW231830   3.180   3.322   4.683
10311SOL     OW31831   0.414   6.120   1.348
10311SOL    HW131832   0.412   6.219   1.354
10311SOL    HW231833   0.465   6.091   1.267
10312SOL     OW31834   2.626   4.546   0.707
10312SOL    HW131835   2.653   4.642   0.713
10312SOL    HW231836   2.546   4.531   0.765
10313SOL     OW31837   6.109   6.158   3.773
10313SOL    HW131838   6.163   6.075   3.790
10313SOL    HW231839   6.063   6.186   3.858
10314SOL     OW31840   6.270   4.951   5.759
10314SOL    HW131841   6.294   4.875   5.819
10314SOL    HW231842   6.188   4.927   5.706
10315SOL     OW31843   5.357   6.152   5.072
10315SOL    HW131844   5.429   6.201   5.024
10315SOL    HW231845   5.390   6.123   5.163
10316SOL     OW31846   0.177   3.864   2.860
10316SOL    HW131847   0.153   3.782   2.808
10316SOL    HW231848   0.223   3.837   2.945
10317SOL     OW31849   3.977   4.499   0.754
10317SOL    HW131850   4.023   4.581   0.720
10317SOL    HW231851   4.045   4.427   0.770
10318SOL     OW31852   6.498   5.770   2.114
10318SOL    HW131853   6.424   5.769   2.047
10318SOL    HW231854   6.468   5.724   2.197
10319SOL     OW31855   4.981   6.112   4.476
10319SOL    HW131856   5.008   6.178   4.406
10319SOL    HW231857   4.888   6.080   4.458
10320SOL     OW31858   4.415   6.209   1.257
10320SOL    HW131859   4.392   6.272   1.332
10320SOL    HW231860   4.389   6.249   1.170
10321SOL     OW31861   3.817   6.879   4.162
10321SOL    HW131862   3.787   6.886   4.257
10321SOL    HW231863   3.739   6.854   4.105
10322SOL     OW31864   6.835   2.884   0.301
10322SOL    HW131865   6.844   2.803   0.243
10322SOL    HW231866   6.809   2.856   0.394
10323SOL     OW31867   6.782   1.820   4.957
10323SOL    HW131868   6.693   1.820   4.911
10323SOL    HW231869   6.817   1.914   4.963
10324SOL     OW31870   3.127   3.059   3.716
10324SOL    HW131871   3.189   2.982   3.718
10324SOL    HW231872   3.109   3.090   3.810
10325SOL     OW31873   0.895   3.806   3.359
10325SOL    HW131874   0.813   3.752   3.379
10325SOL    HW231875   0.869   3.902   3.346
10326SOL     OW31876   4.850   1.433   0.987
10326SOL    HW131877   4.881   1.364   0.921
10326SOL    HW231878   4.756   1.413   1.013
10327SOL     OW31879   6.785   0.733   3.383
10327SOL    HW131880   6.782   0.815   3.326
10327SOL    HW231881   6.712   0.670   3.354
10328SOL     OW31882   5.908   3.161   2.530
10328SOL    HW131883   5.993   3.145   2.479
10328SOL    HW231884   5.871   3.073   2.560
10329SOL     OW31885   3.999   6.343   2.995
10329SOL    HW131886   4.090   6.386   2.996
10329SOL    HW231887   3.978   6.312   2.902
10330SOL     OW31888   3.488   4.130   0.918
10330SOL    HW131889   3.572   4.183   0.914
10330SOL    HW231890   3.491   4.071   0.999
10331SOL     OW31891   5.517   0.473   4.343
10331SOL    HW131892   5.418   0.474   4.329
10331SOL    HW231893   5.541   0.392   4.396
10332SOL     OW31894   0.273   1.717   0.239
10332SOL    HW131895   0.307   1.785   0.174
10332SOL    HW231896   0.317   1.629   0.222
10333SOL     OW31897   4.932   4.375   4.880
10333SOL    HW131898   4.959   4.404   4.972
10333SOL    HW231899   5.003   4.403   4.814
10334SOL     OW31900   0.929   5.160   5.112
10334SOL    HW131901   0.880   5.109   5.183
10334SOL    HW231902   0.972   5.096   5.048
10335SOL     OW31903   2.602   5.639   1.441
10335SOL    HW131904   2.554   5.613   1.358
10335SOL    HW231905   2.700   5.630   1.427
10336SOL     OW31906   4.276   6.291   3.000
10336SOL    HW131907   4.229   6.222   3.055
10336SOL    HW231908   4.360   6.319   3.046
10337SOL     OW31909   1.051   4.874   5.293
10337SOL    HW131910   0.995   4.947   5.332
10337SOL    HW231911   1.104   4.830   5.366
10338SOL     OW31912   3.654   4.933   3.112
10338SOL    HW131913   3.639   5.022   3.070
10338SOL    HW231914   3.568   4.881   3.112
10339SOL     OW31915   3.327   5.524   0.284
10339SOL    HW131916   3.321   5.504   0.186
10339SOL    HW231917   3.242   5.496   0.329
10340SOL     OW31918   2.087   6.766   0.117
10340SOL    HW131919   2.149   6.814   0.179
10340SOL    HW231920   2.104   6.796   0.023
10341SOL     OW31921   1.193   2.480   2.360
10341SOL    HW131922   1.106   2.480   2.409
10341SOL    HW231923   1.266   2.507   2.422
10342SOL     OW31924   2.914   6.313   3.784
10342SOL    HW131925   2.993   6.362   3.749
10342SOL    HW231926   2.837   6.376   3.793
10343SOL     OW31927   2.182   3.042   3.644
10343SOL    HW131928   2.085   3.045   3.619
10343SOL    HW231929   2.191   3.026   3.743
10344SOL     OW31930   4.293   3.828   0.582
10344SOL    HW131931   4.254   3.760   0.644
10344SOL    HW231932   4.393   3.825   0.588
10345SOL     OW31933   1.648   1.537   5.815
10345SOL    HW131934   1.655   1.438   5.818
10345SOL    HW231935   1.551   1.564   5.811
10346SOL     OW31936   5.651   4.811   0.671
10346SOL    HW131937   5.576   4.747   0.655
10346SOL    HW231938   5.738   4.762   0.671
10347SOL     OW31939   5.017   0.831   1.847
10347SOL    HW131940   5.026   0.743   1.799
10347SOL    HW231941   4.972   0.816   1.935
10348SOL     OW31942   6.819   4.862   5.874
10348SOL    HW131943   6.779   4.952   5.858
10348SOL    HW231944   6.887   4.841   5.803
10349SOL     OW31945   6.890   1.892   1.216
10349SOL    HW131946   6.945   1.821   1.172
10349SOL    HW231947   6.941   1.978   1.215
10350SOL     OW31948   2.195   4.565   5.020
10350SOL    HW131949   2.235   4.473   5.021
10350SOL    HW231950   2.134   4.575   4.942
10351SOL     OW31951   4.362   4.674   4.769
10351SOL    HW131952   4.328   4.582   4.787
10351SOL    HW231953   4.296   4.741   4.800
10352SOL     OW31954   6.347   1.248   6.696
10352SOL    HW131955   6.390   1.243   6.606
10352SOL    HW231956   6.415   1.279   6.763
10353SOL     OW31957   6.317   2.713   3.717
10353SOL    HW131958   6.402   2.665   3.694
10353SOL    HW231959   6.271   2.743   3.633
10354SOL     OW31960   6.493   3.028   1.586
10354SOL    HW131961   6.530   2.935   1.585
10354SOL    HW231962   6.393   3.024   1.596
10355SOL     OW31963   0.711   1.598   0.611
10355SOL    HW131964   0.708   1.698   0.615
10355SOL    HW231965   0.799   1.569   0.574
10356SOL     OW31966   5.987   3.374   5.479
10356SOL    HW131967   5.899   3.420   5.488
10356SOL    HW231968   6.001   3.313   5.557
10357SOL     OW31969   1.277   0.799   5.739
10357SOL    HW131970   1.207   0.742   5.696
10357SOL    HW231971   1.238   0.843   5.820
10358SOL     OW31972   0.687   3.206   3.214
10358SOL    HW131973   0.665   3.303   3.200
10358SOL    HW231974   0.729   3.169   3.131
10359SOL     OW31975   6.613   2.056   2.277
10359SOL    HW131976   6.567   2.089   2.360
10359SOL    HW231977   6.546   2.046   2.203
10360SOL     OW31978   5.498   4.258   1.402
10360SOL    HW131979   5.581   4.201   1.406
10360SOL    HW231980   5.459   4.264   1.494
10361SOL     OW31981   6.255   2.210   2.197
10361SOL    HW131982   6.344   2.199   2.155
10361SOL    HW231983   6.212   2.121   2.210
10362SOL     OW31984   1.603   6.089   1.753
10362SOL    HW131985   1.635   6.020   1.688
10362SOL    HW231986   1.540   6.152   1.707
10363SOL     OW31987   5.497   4.397   6.228
10363SOL    HW131988   5.399   4.387   6.241
10363SOL    HW231989   5.543   4.395   6.317
10364SOL     OW31990   5.963   4.796   2.144
10364SOL    HW131991   5.887   4.737   2.171
10364SOL    HW231992   5.927   4.882   2.107
10365SOL     OW31993   6.049   4.899   0.835
10365SOL    HW131994   6.060   4.975   0.771
10365SOL    HW231995   6.060   4.932   0.929
10366SOL     OW31996   3.037   6.216   3.440
10366SOL    HW131997   2.980   6.194   3.361
10366SOL    HW231998   3.039   6.138   3.503
10367SOL     OW31999   5.418   6.295   1.698
10367SOL    HW132000   5.383   6.215   1.746
10367SOL    HW232001   5.452   6.269   1.608
10368SOL     OW32002   2.324   6.386   1.298
10368SOL    HW132003   2.266   6.401   1.217
10368SOL    HW232004   2.305   6.457   1.366
10369SOL     OW32005   2.479   0.057   6.016
10369SOL    HW132006   2.430   0.137   6.050
10369SOL    HW232007   2.540   0.084   5.941
10370SOL     OW32008   1.486   1.388   5.159
10370SOL    HW132009   1.465   1.290   5.170
10370SOL    HW232010   1.563   1.398   5.097
10371SOL     OW32011   4.597   5.466   2.861
10371SOL    HW132012   4.546   5.381   2.869
10371SOL    HW232013   4.687   5.455   2.905
10372SOL     OW32014   2.292   6.679   1.172
10372SOL    HW132015   2.210   6.643   1.217
10372SOL    HW232016   2.298   6.640   1.080
10373SOL     OW32017   6.549   1.639   5.912
10373SOL    HW132018   6.563   1.662   6.008
10373SOL    HW232019   6.529   1.542   5.903
10374SOL     OW32020   3.446   5.144   3.429
10374SOL    HW132021   3.462   5.197   3.345
10374SOL    HW232022   3.431   5.048   3.405
10375SOL     OW32023   2.701   4.948   0.464
10375SOL    HW132024   2.723   5.046   0.456
10375SOL    HW232025   2.767   4.896   0.411
10376SOL     OW32026   1.760   5.340   4.589
10376SOL    HW132027   1.789   5.255   4.544
10376SOL    HW232028   1.840   5.396   4.609
10377SOL     OW32029   1.688   0.917   2.749
10377SOL    HW132030   1.716   0.862   2.828
10377SOL    HW232031   1.735   1.005   2.752
10378SOL     OW32032   0.269   5.592   4.169
10378SOL    HW132033   0.343   5.564   4.109
10378SOL    HW232034   0.187   5.538   4.149
10379SOL     OW32035   1.980   0.248   4.241
10379SOL    HW132036   2.044   0.287   4.308
10379SOL    HW232037   1.888   0.284   4.259
10380SOL     OW32038   3.143   2.184   4.285
10380SOL    HW132039   3.067   2.200   4.348
10380SOL    HW232040   3.119   2.216   4.193
10381SOL     OW32041   4.462   6.182   1.943
10381SOL    HW132042   4.435   6.208   1.850
10381SOL    HW232043   4.382   6.181   2.003
10382SOL     OW32044   4.131   5.594   1.270
10382SOL    HW132045   4.157   5.580   1.175
10382SOL    HW232046   4.134   5.691   1.292
10383SOL     OW32047   1.092   4.922   0.409
10383SOL    HW132048   1.122   4.984   0.336
10383SOL    HW232049   1.053   4.975   0.484
10384SOL     OW32050   5.374   5.883   1.307
10384SOL    HW132051   5.357   5.785   1.312
10384SOL    HW232052   5.473   5.900   1.300
10385SOL     OW32053   4.336   4.383   0.469
10385SOL    HW132054   4.313   4.307   0.408
10385SOL    HW232055   4.277   4.461   0.449
10386SOL     OW32056   6.995   0.999   0.760
10386SOL    HW132057   0.046   0.945   0.716
10386SOL    HW232058   0.014   1.053   0.835
10387SOL     OW32059   5.385   3.140   1.747
10387SOL    HW132060   5.336   3.062   1.785
10387SOL    HW232061   5.359   3.223   1.797
10388SOL     OW32062   2.247   6.675   5.380
10388SOL    HW132063   2.187   6.745   5.418
10388SOL    HW232064   2.259   6.690   5.282
10389SOL     OW32065   0.451   4.090   0.051
10389SOL    HW132066   0.524   4.133   0.104
10389SOL    HW232067   0.366   4.141   0.063
10390SOL     OW32068   2.577   2.562   1.763
10390SOL    HW132069   2.622   2.483   1.806
10390SOL    HW232070   2.642   2.637   1.755
10391SOL     OW32071   5.375   6.838   4.277
10391SOL    HW132072   5.357   6.908   4.208
10391SOL    HW232073   5.310   6.763   4.267
10392SOL     OW32074   6.447   3.805   4.282
10392SOL    HW132075   6.361   3.756   4.268
10392SOL    HW232076   6.482   3.837   4.194
10393SOL     OW32077   1.362   3.603   3.952
10393SOL    HW132078   1.371   3.701   3.968
10393SOL    HW232079   1.292   3.565   4.013
10394SOL     OW32080   3.328   0.450   4.225
10394SOL    HW132081   3.264   0.479   4.154
10394SOL    HW232082   3.282   0.386   4.287
10395SOL     OW32083   1.078   0.701   0.590
10395SOL    HW132084   1.164   0.750   0.581
10395SOL    HW232085   1.093   0.617   0.642
10396SOL     OW32086   2.878   2.118   4.714
10396SOL    HW132087   2.844   2.184   4.647
10396SOL    HW232088   2.914   2.038   4.667
10397SOL     OW32089   4.108   1.924   3.593
10397SOL    HW132090   4.013   1.917   3.622
10397SOL    HW232091   4.120   2.004   3.534
10398SOL     OW32092   6.220   2.954   1.523
10398SOL    HW132093   6.142   3.016   1.515
10398SOL    HW232094   6.240   2.914   1.434
10399SOL     OW32095   0.932   4.201   1.532
10399SOL    HW132096   0.980   4.123   1.572
10399SOL    HW232097   0.895   4.174   1.443
10400SOL     OW32098   3.810   6.031   0.679
10400SOL    HW132099   3.785   5.941   0.715
10400SOL    HW232100   3.727   6.084   0.662
10401SOL     OW32101   0.495   1.452   5.893
10401SOL    HW132102   0.501   1.360   5.931
10401SOL    HW232103   0.485   1.519   5.967
10402SOL     OW32104   0.305   2.877   5.013
10402SOL    HW132105   0.326   2.806   5.079
10402SOL    HW232106   0.341   2.965   5.046
10403SOL     OW32107   3.143   0.519   1.597
10403SOL    HW132108   3.084   0.487   1.672
10403SOL    HW232109   3.156   0.618   1.605
10404SOL     OW32110   0.149   6.600   6.179
10404SOL    HW132111   0.120   6.510   6.212
10404SOL    HW232112   0.121   6.670   6.246
10405SOL     OW32113   0.095   2.210   6.494
10405SOL    HW132114   0.096   2.310   6.496
10405SOL    HW232115   0.026   2.179   6.427
10406SOL     OW32116   2.973   5.053   1.457
10406SOL    HW132117   3.050   5.059   1.522
10406SOL    HW232118   2.996   5.102   1.374
10407SOL     OW32119   2.739   0.084   6.799
10407SOL    HW132120   2.803   0.132   6.859
10407SOL    HW232121   2.774   0.085   6.705
10408SOL     OW32122   4.002   1.670   6.878
10408SOL    HW132123   3.994   1.666   6.977
10408SOL    HW232124   4.098   1.682   6.852
10409SOL     OW32125   6.261   4.586   1.555
10409SOL    HW132126   6.191   4.657   1.563
10409SOL    HW232127   6.219   4.500   1.527
10410SOL     OW32128   6.064   0.346   1.000
10410SOL    HW132129   6.008   0.298   0.932
10410SOL    HW232130   6.006   0.373   1.077
10411SOL     OW32131   2.354   5.216   3.474
10411SOL    HW132132   2.340   5.123   3.510
10411SOL    HW232133   2.265   5.256   3.451
10412SOL     OW32134   6.502   0.405   0.874
10412SOL    HW132135   6.470   0.347   0.799
10412SOL    HW232136   6.450   0.385   0.957
10413SOL     OW32137   6.907   2.768   1.443
10413SOL    HW132138   6.896   2.841   1.510
10413SOL    HW232139   6.914   2.807   1.351
10414SOL     OW32140   4.508   2.397   4.207
10414SOL    HW132141   4.599   2.373   4.239
10414SOL    HW232142   4.505   2.495   4.185
10415SOL     OW32143   0.701   6.036   6.312
10415SOL    HW132144   0.767   6.001   6.379
10415SOL    HW232145   0.609   6.031   6.351
10416SOL     OW32146   5.563   2.268   4.024
10416SOL    HW132147   5.635   2.302   3.963
10416SOL    HW232148   5.599   2.193   4.079
10417SOL     OW32149   2.587   4.716   4.122
10417SOL    HW132150   2.603   4.680   4.213
10417SOL    HW232151   2.490   4.710   4.100
10418SOL     OW32152   0.891   4.581   5.790
10418SOL    HW132153   0.944   4.666   5.785
10418SOL    HW232154   0.837   4.581   5.875
10419SOL     OW32155   1.478   1.184   1.077
10419SOL    HW132156   1.404   1.130   1.116
10419SOL    HW232157   1.538   1.216   1.150
10420SOL     OW32158   0.526   3.239   3.647
10420SOL    HW132159   0.477   3.304   3.590
10420SOL    HW232160   0.595   3.192   3.593
10421SOL     OW32161   0.194   0.771   2.749
10421SOL    HW132162   0.253   0.723   2.814
10421SOL    HW232163   0.209   0.869   2.756
10422SOL     OW32164   6.328   3.004   6.272
10422SOL    HW132165   6.285   2.972   6.356
10422SOL    HW232166   6.347   2.926   6.212
10423SOL     OW32167   5.313   4.456   3.234
10423SOL    HW132168   5.354   4.367   3.257
10423SOL    HW232169   5.271   4.496   3.316
10424SOL     OW32170   4.979   2.029   6.563
10424SOL    HW132171   5.021   2.109   6.521
10424SOL    HW232172   4.889   2.013   6.522
10425SOL     OW32173   2.165   6.379   2.221
10425SOL    HW132174   2.239   6.423   2.171
10425SOL    HW232175   2.079   6.428   2.203
10426SOL     OW32176   6.812   4.336   6.877
10426SOL    HW132177   6.844   4.342   6.782
10426SOL    HW232178   6.870   4.393   6.935
10427SOL     OW32179   5.199   1.802   0.059
10427SOL    HW132180   5.242   1.880   0.014
10427SOL    HW232181   5.260   1.765   0.128
10428SOL     OW32182   4.623   0.399   4.364
10428SOL    HW132183   4.525   0.414   4.352
10428SOL    HW232184   4.663   0.369   4.277
10429SOL     OW32185   6.156   5.963   1.768
10429SOL    HW132186   6.059   5.974   1.788
10429SOL    HW232187   6.167   5.927   1.675
10430SOL     OW32188   4.036   6.545   2.116
10430SOL    HW132189   4.136   6.544   2.117
10430SOL    HW232190   4.002   6.608   2.186
10431SOL     OW32191   2.922   0.557   4.751
10431SOL    HW132192   2.852   0.507   4.701
10431SOL    HW232193   2.964   0.625   4.692
10432SOL     OW32194   5.912   0.594   5.674
10432SOL    HW132195   5.825   0.639   5.656
10432SOL    HW232196   5.949   0.557   5.589
10433SOL     OW32197   2.390   6.852   0.703
10433SOL    HW132198   2.436   6.821   0.619
10433SOL    HW232199   2.344   6.774   0.746
10434SOL     OW32200   1.871   0.998   3.668
10434SOL    HW132201   1.906   0.957   3.584
10434SOL    HW232202   1.929   0.972   3.745
10435SOL     OW32203   5.121   6.706   6.682
10435SOL    HW132204   5.178   6.729   6.761
10435SOL    HW232205   5.115   6.786   6.621
10436SOL     OW32206   1.616   5.417   3.318
10436SOL    HW132207   1.551   5.394   3.390
10436SOL    HW232208   1.592   5.505   3.278
10437SOL     OW32209   6.987   5.219   6.410
10437SOL    HW132210   6.964   5.132   6.453
10437SOL    HW232211   6.946   5.294   6.462
10438SOL     OW32212   4.117   6.242   0.061
10438SOL    HW132213   4.117   6.145   0.085
10438SOL    HW232214   4.207   6.282   0.080
10439SOL     OW32215   3.778   0.192   5.907
10439SOL    HW132216   3.727   0.221   5.825
10439SOL    HW232217   3.743   0.241   5.987
10440SOL     OW32218   2.036   5.921   0.903
10440SOL    HW132219   2.088   6.001   0.933
10440SOL    HW232220   2.092   5.866   0.841
10441SOL     OW32221   5.284   1.908   6.674
10441SOL    HW132222   5.198   1.870   6.708
10441SOL    HW232223   5.341   1.835   6.638
10442SOL     OW32224   4.197   5.233   5.769
10442SOL    HW132225   4.188   5.151   5.712
10442SOL    HW232226   4.280   5.282   5.743
10443SOL     OW32227   6.112   2.812   4.935
10443SOL    HW132228   6.085   2.865   4.855
10443SOL    HW232229   6.059   2.843   5.015
10444SOL     OW32230   3.831   4.929   3.910
10444SOL    HW132231   3.768   4.918   3.987
10444SOL    HW232232   3.848   5.026   3.894
10445SOL     OW32233   6.810   5.928   5.080
10445SOL    HW132234   6.764   5.844   5.051
10445SOL    HW232235   6.909   5.911   5.087
10446SOL     OW32236   1.148   5.382   6.326
10446SOL    HW132237   1.146   5.308   6.394
10446SOL    HW232238   1.156   5.342   6.235
10447SOL     OW32239   5.720   2.492   1.568
10447SOL    HW132240   5.800   2.553   1.567
10447SOL    HW232241   5.734   2.419   1.502
10448SOL     OW32242   3.705   4.080   2.604
10448SOL    HW132243   3.769   4.007   2.630
10448SOL    HW232244   3.716   4.099   2.506
10449SOL     OW32245   2.368   5.387   4.213
10449SOL    HW132246   2.331   5.296   4.229
10449SOL    HW232247   2.311   5.455   4.258
10450SOL     OW32248   6.754   2.550   0.904
10450SOL    HW132249   6.849   2.519   0.905
10450SOL    HW232250   6.724   2.569   0.997
10451SOL     OW32251   2.313   4.368   3.023
10451SOL    HW132252   2.319   4.286   2.967
10451SOL    HW232253   2.378   4.437   2.989
10452SOL     OW32254   0.757   3.054   4.790
10452SOL    HW132255   0.671   3.015   4.757
10452SOL    HW232256   0.749   3.154   4.794
10453SOL     OW32257   4.895   0.158   1.474
10453SOL    HW132258   4.853   0.067   1.467
10453SOL    HW232259   4.863   0.215   1.398
10454SOL     OW32260   4.972   3.383   2.254
10454SOL    HW132261   4.940   3.325   2.179
10454SOL    HW232262   5.032   3.454   2.218
10455SOL     OW32263   0.083   5.223   3.596
10455SOL    HW132264   0.020   5.217   3.674
10455SOL    HW232265   0.143   5.302   3.607
10456SOL     OW32266   4.328   5.764   1.110
10456SOL    HW132267   4.369   5.672   1.110
10456SOL    HW232268   4.333   5.802   1.202
10457SOL     OW32269   4.021   3.880   4.144
10457SOL    HW132270   4.096   3.825   4.107
10457SOL    HW232271   3.957   3.821   4.192
10458SOL     OW32272   0.761   6.785   1.121
10458SOL    HW132273   0.725   6.696   1.149
10458SOL    HW232274   0.709   6.819   1.042
10459SOL     OW32275   6.714   5.135   2.355
10459SOL    HW132276   6.637   5.118   2.417
10459SOL    HW232277   6.784   5.188   2.403
10460SOL     OW32278   1.988   5.278   2.262
10460SOL    HW132279   2.000   5.197   2.205
10460SOL    HW232280   1.948   5.352   2.208
10461SOL     OW32281   2.778   1.982   6.683
10461SOL    HW132282   2.750   1.944   6.771
10461SOL    HW232283   2.699   2.017   6.634
10462SOL     OW32284   7.001   7.016   1.188
10462SOL    HW132285   0.075   0.019   1.210
10462SOL    HW232286   6.997   6.972   1.098
10463SOL     OW32287   3.139   3.932   0.720
10463SOL    HW132288   3.064   3.886   0.671
10463SOL    HW232289   3.213   3.953   0.656
10464SOL     OW32290   5.288   0.600   1.320
10464SOL    HW132291   5.287   0.501   1.334
10464SOL    HW232292   5.214   0.625   1.257
10465SOL     OW32293   6.204   5.098   6.222
10465SOL    HW132294   6.283   5.120   6.279
10465SOL    HW232295   6.187   4.999   6.226
10466SOL     OW32296   4.802   5.967   5.918
10466SOL    HW132297   4.773   6.009   5.832
10466SOL    HW232298   4.746   5.887   5.937
10467SOL     OW32299   3.717   0.523   4.366
10467SOL    HW132300   3.732   0.541   4.464
10467SOL    HW232301   3.689   0.608   4.321
10468SOL     OW32302   3.798   6.184   2.790
10468SOL    HW132303   3.730   6.181   2.862
10468SOL    HW232304   3.854   6.101   2.792
10469SOL     OW32305   1.514   4.630   0.772
10469SOL    HW132306   1.579   4.583   0.713
10469SOL    HW232307   1.503   4.579   0.857
10470SOL     OW32308   3.010   1.794   4.210
10470SOL    HW132309   2.920   1.836   4.219
10470SOL    HW232310   3.023   1.726   4.282
10471SOL     OW32311   3.883   3.381   0.626
10471SOL    HW132312   3.802   3.399   0.682
10471SOL    HW232313   3.924   3.294   0.655
10472SOL     OW32314   4.615   0.678   2.524
10472SOL    HW132315   4.590   0.630   2.608
10472SOL    HW232316   4.654   0.767   2.547
10473SOL     OW32317   4.868   5.814   0.628
10473SOL    HW132318   4.857   5.714   0.625
10473SOL    HW232319   4.826   5.849   0.712
10474SOL     OW32320   4.259   0.163   5.042
10474SOL    HW132321   4.205   0.225   4.985
10474SOL    HW232322   4.293   0.213   5.122
10475SOL     OW32323   4.020   6.278   1.572
10475SOL    HW132324   4.084   6.230   1.511
10475SOL    HW232325   4.059   6.283   1.664
10476SOL     OW32326   0.055   4.707   0.804
10476SOL    HW132327   0.084   4.611   0.803
10476SOL    HW232328   0.055   4.743   0.711
10477SOL     OW32329   5.694   4.309   5.090
10477SOL    HW132330   5.733   4.243   5.026
10477SOL    HW232331   5.741   4.302   5.178
10478SOL     OW32332   0.684   6.772   1.741
10478SOL    HW132333   0.713   6.680   1.714
10478SOL    HW232334   0.763   6.833   1.740
10479SOL     OW32335   1.714   4.816   3.497
10479SOL    HW132336   1.614   4.820   3.507
10479SOL    HW232337   1.747   4.727   3.528
10480SOL     OW32338   5.849   6.738   2.197
10480SOL    HW132339   5.888   6.830   2.206
10480SOL    HW232340   5.839   6.716   2.100
10481SOL     OW32341   2.191   0.458   4.743
10481SOL    HW132342   2.288   0.471   4.760
10481SOL    HW232343   2.149   0.413   4.822
10482SOL     OW32344   1.113   5.311   6.072
10482SOL    HW132345   1.149   5.251   6.001
10482SOL    HW232346   1.137   5.406   6.053
10483SOL     OW32347   0.062   5.174   1.084
10483SOL    HW132348   0.001   5.099   1.057
10483SOL    HW232349   0.026   5.260   1.048
10484SOL     OW32350   6.212   1.759   1.610
10484SOL    HW132351   6.284   1.828   1.597
10484SOL    HW232352   6.254   1.674   1.640
10485SOL     OW32353   3.698   3.816   3.975
10485SOL    HW132354   3.744   3.736   3.937
10485SOL    HW232355   3.599   3.801   3.975
10486SOL     OW32356   5.987   6.141   5.638
10486SOL    HW132357   6.061   6.075   5.634
10486SOL    HW232358   5.978   6.186   5.549
10487SOL     OW32359   4.597   2.178   2.059
10487SOL    HW132360   4.544   2.159   2.142
10487SOL    HW232361   4.642   2.094   2.028
10488SOL     OW32362   6.543   2.472   5.224
10488SOL    HW132363   6.510   2.487   5.131
10488SOL    HW232364   6.635   2.511   5.234
10489SOL     OW32365   5.988   4.110   4.544
10489SOL    HW132366   6.002   4.181   4.476
10489SOL    HW232367   6.051   4.034   4.527
10490SOL     OW32368   5.909   6.605   6.719
10490SOL    HW132369   5.819   6.627   6.758
10490SOL    HW232370   5.933   6.511   6.744
10491SOL     OW32371   1.937   2.573   5.584
10491SOL    HW132372   1.950   2.535   5.675
10491SOL    HW232373   1.865   2.643   5.587
10492SOL     OW32374   3.820   0.166   6.769
10492SOL    HW132375   3.795   0.227   6.844
10492SOL    HW232376   3.916   0.141   6.776
10493SOL     OW32377   3.691   5.289   1.232
10493SOL    HW132378   3.653   5.209   1.279
10493SOL    HW232379   3.758   5.333   1.291
10494SOL     OW32380   1.170   4.277   4.872
10494SOL    HW132381   1.108   4.262   4.950
10494SOL    HW232382   1.132   4.347   4.812
10495SOL     OW32383   6.535   6.722   0.822
10495SOL    HW132384   6.614   6.664   0.843
10495SOL    HW232385   6.467   6.713   0.895
10496SOL     OW32386   0.629   3.182   5.861
10496SOL    HW132387   0.597   3.168   5.955
10496SOL    HW232388   0.612   3.276   5.833
10497SOL     OW32389   1.838   0.185   1.399
10497SOL    HW132390   1.807   0.161   1.492
10497SOL    HW232391   1.878   0.276   1.400
10498SOL     OW32392   4.648   4.242   6.984
10498SOL    HW132393   4.618   4.319   6.928
10498SOL    HW232394   4.665   4.273   0.057
10499SOL     OW32395   5.980   4.380   2.379
10499SOL    HW132396   6.029   4.466   2.364
10499SOL    HW232397   5.883   4.394   2.362
10500SOL     OW32398   0.897   3.311   5.291
10500SOL    HW132399   0.973   3.268   5.341
10500SOL    HW232400   0.847   3.372   5.352
10501SOL     OW32401   3.798   4.864   2.911
10501SOL    HW132402   3.748   4.885   2.995
10501SOL    HW232403   3.734   4.865   2.834
10502SOL     OW32404   3.244   3.620   2.336
10502SOL    HW132405   3.200   3.697   2.290
10502SOL    HW232406   3.343   3.627   2.326
10503SOL     OW32407   6.958   2.526   6.123
10503SOL    HW132408   6.972   2.619   6.089
10503SOL    HW232409   0.024   2.475   6.117
10504SOL     OW32410   1.039   3.053   5.809
10504SOL    HW132411   1.041   3.152   5.797
10504SOL    HW232412   0.952   3.017   5.774
10505SOL     OW32413   6.015   6.913   1.100
10505SOL    HW132414   6.018   6.989   1.165
10505SOL    HW232415   5.926   6.912   1.054
10506SOL     OW32416   1.501   2.769   6.540
10506SOL    HW132417   1.428   2.827   6.576
10506SOL    HW232418   1.499   2.680   6.586
10507SOL     OW32419   0.880   5.359   5.958
10507SOL    HW132420   0.829   5.415   6.023
10507SOL    HW232421   0.948   5.304   6.008
10508SOL     OW32422   2.076   4.952   5.501
10508SOL    HW132423   2.017   4.945   5.421
10508SOL    HW232424   2.101   5.047   5.517
10509SOL     OW32425   4.437   2.377   2.465
10509SOL    HW132426   4.459   2.471   2.441
10509SOL    HW232427   4.343   2.357   2.437
10510SOL     OW32428   5.737   6.137   3.944
10510SOL    HW132429   5.751   6.060   4.006
10510SOL    HW232430   5.824   6.179   3.922
10511SOL     OW32431   4.819   2.190   1.806
10511SOL    HW132432   4.763   2.151   1.733
10511SOL    HW232433   4.765   2.255   1.859
10512SOL     OW32434   4.690   0.776   5.245
10512SOL    HW132435   4.727   0.847   5.305
10512SOL    HW232436   4.597   0.800   5.218
10513SOL     OW32437   4.210   2.849   0.840
10513SOL    HW132438   4.246   2.780   0.777
10513SOL    HW232439   4.243   2.829   0.932
10514SOL     OW32440   1.464   3.282   1.901
10514SOL    HW132441   1.365   3.293   1.913
10514SOL    HW232442   1.482   3.248   1.809
10515SOL     OW32443   2.345   2.764   4.891
10515SOL    HW132444   2.312   2.682   4.938
10515SOL    HW232445   2.374   2.833   4.958
10516SOL     OW32446   4.313   2.246   1.404
10516SOL    HW132447   4.276   2.299   1.480
10516SOL    HW232448   4.279   2.153   1.409
10517SOL     OW32449   0.966   2.651   2.768
10517SOL    HW132450   0.948   2.641   2.866
10517SOL    HW232451   0.892   2.608   2.716
10518SOL     OW32452   0.787   5.588   2.808
10518SOL    HW132453   0.753   5.538   2.728
10518SOL    HW232454   0.855   5.532   2.856
10519SOL     OW32455   4.044   6.762   0.937
10519SOL    HW132456   4.138   6.794   0.938
10519SOL    HW232457   3.983   6.836   0.967
10520SOL     OW32458   1.052   2.715   5.615
10520SOL    HW132459   0.976   2.663   5.576
10520SOL    HW232460   1.041   2.812   5.593
10521SOL     OW32461   6.561   2.983   2.578
10521SOL    HW132462   6.656   2.952   2.586
10521SOL    HW232463   6.501   2.903   2.580
10522SOL     OW32464   5.317   2.157   3.670
10522SOL    HW132465   5.356   2.201   3.588
10522SOL    HW232466   5.319   2.222   3.746
10523SOL     OW32467   1.072   4.561   3.478
10523SOL    HW132468   1.007   4.530   3.409
10523SOL    HW232469   1.069   4.661   3.483
10524SOL     OW32470   0.156   6.322   5.340
10524SOL    HW132471   0.091   6.248   5.323
10524SOL    HW232472   0.248   6.284   5.346
10525SOL     OW32473   4.934   1.327   3.375
10525SOL    HW132474   4.912   1.262   3.448
10525SOL    HW232475   5.033   1.341   3.371
10526SOL     OW32476   0.784   4.734   0.030
10526SOL    HW132477   0.872   4.770   0.061
10526SOL    HW232478   0.789   4.712   6.953
10527SOL     OW32479   0.579   7.001   5.343
10527SOL    HW132480   0.666   6.951   5.349
10527SOL    HW232481   0.517   6.968   5.414
10528SOL     OW32482   1.401   3.370   5.444
10528SOL    HW132483   1.373   3.466   5.446
10528SOL    HW232484   1.466   3.356   5.369
10529SOL     OW32485   6.871   5.779   0.757
10529SOL    HW132486   6.936   5.771   0.833
10529SOL    HW232487   6.906   5.727   0.679
10530SOL     OW32488   6.931   6.136   1.285
10530SOL    HW132489   6.883   6.202   1.227
10530SOL    HW232490   0.007   6.160   1.291
10531SOL     OW32491   2.874   3.153   5.282
10531SOL    HW132492   2.789   3.202   5.300
10531SOL    HW232493   2.861   3.055   5.296
10532SOL     OW32494   5.204   6.354   6.998
10532SOL    HW132495   5.210   6.415   0.057
10532SOL    HW232496   5.254   6.395   6.922
10533SOL     OW32497   4.235   6.914   3.070
10533SOL    HW132498   4.142   6.943   3.093
10533SOL    HW232499   4.236   6.816   3.050
10534SOL     OW32500   1.315   5.706   4.261
10534SOL    HW132501   1.333   5.622   4.313
10534SOL    HW232502   1.401   5.755   4.249
10535SOL     OW32503   3.553   1.958   2.338
10535SOL    HW132504   3.473   1.910   2.375
10535SOL    HW232505   3.551   1.955   2.239
10536SOL     OW32506   4.894   3.153   4.600
10536SOL    HW132507   4.895   3.234   4.541
10536SOL    HW232508   4.901   3.181   4.696
10537SOL     OW32509   3.281   6.837   4.063
10537SOL    HW132510   3.259   6.795   3.974
10537SOL    HW232511   3.380   6.855   4.067
10538SOL     OW32512   0.470   3.699   2.803
10538SOL    HW132513   0.444   3.750   2.885
10538SOL    HW232514   0.510   3.611   2.829
10539SOL     OW32515   6.662   6.997   3.314
10539SOL    HW132516   6.609   6.999   3.398
10539SOL    HW232517   6.655   6.906   3.272
10540SOL     OW32518   1.728   4.293   6.374
10540SOL    HW132519   1.778   4.374   6.403
10540SOL    HW232520   1.672   4.315   6.295
10541SOL     OW32521   3.494   3.536   5.237
10541SOL    HW132522   3.408   3.572   5.272
10541SOL    HW232523   3.570   3.568   5.295
10542SOL     OW32524   4.724   0.075   3.745
10542SOL    HW132525   4.797   0.082   3.678
10542SOL    HW232526   4.668   0.158   3.742
10543SOL     OW32527   1.178   3.565   4.786
10543SOL    HW132528   1.141   3.526   4.702
10543SOL    HW232529   1.214   3.491   4.844
10544SOL     OW32530   2.105   1.307   3.368
10544SOL    HW132531   2.144   1.399   3.360
10544SOL    HW232532   2.150   1.246   3.303
10545SOL     OW32533   2.289   2.813   2.463
10545SOL    HW132534   2.258   2.724   2.429
10545SOL    HW232535   2.330   2.864   2.388
10546SOL     OW32536   3.237   6.773   6.615
10546SOL    HW132537   3.333   6.772   6.644
10546SOL    HW232538   3.195   6.684   6.632
10547SOL     OW32539   4.576   6.520   5.390
10547SOL    HW132540   4.567   6.527   5.489
10547SOL    HW232541   4.494   6.555   5.346
10548SOL     OW32542   6.782   5.946   3.151
10548SOL    HW132543   6.881   5.963   3.159
10548SOL    HW232544   6.744   5.931   3.243
10549SOL     OW32545   0.144   0.131   1.583
10549SOL    HW132546   0.067   0.080   1.622
10549SOL    HW232547   0.109   0.215   1.541
10550SOL     OW32548   4.806   5.626   3.385
10550SOL    HW132549   4.856   5.564   3.325
10550SOL    HW232550   4.829   5.606   3.480
10551SOL     OW32551   3.062   0.965   5.473
10551SOL    HW132552   3.036   1.046   5.419
10551SOL    HW232553   3.050   0.985   5.570
10552SOL     OW32554   3.052   0.400   3.753
10552SOL    HW132555   3.048   0.325   3.687
10552SOL    HW232556   3.122   0.465   3.724
10553SOL     OW32557   6.889   5.421   1.451
10553SOL    HW132558   6.919   5.510   1.416
10553SOL    HW232559   6.954   5.350   1.424
10554SOL     OW32560   5.472   5.997   2.411
10554SOL    HW132561   5.452   6.026   2.318
10554SOL    HW232562   5.532   6.064   2.455
10555SOL     OW32563   3.847   3.534   1.066
10555SOL    HW132564   3.876   3.484   1.148
10555SOL    HW232565   3.766   3.588   1.086
10556SOL     OW32566   2.099   1.412   2.605
10556SOL    HW132567   2.088   1.361   2.690
10556SOL    HW232568   2.025   1.390   2.542
10557SOL     OW32569   2.858   4.863   3.633
10557SOL    HW132570   2.951   4.856   3.599
10557SOL    HW232571   2.855   4.836   3.729
10558SOL     OW32572   3.376   5.317   5.147
10558SOL    HW132573   3.446   5.368   5.198
10558SOL    HW232574   3.347   5.238   5.201
10559SOL     OW32575   4.277   6.746   1.238
10559SOL    HW132576   4.182   6.778   1.240
10559SOL    HW232577   4.323   6.782   1.157
10560SOL     OW32578   5.427   6.820   2.488
10560SOL    HW132579   5.507   6.801   2.431
10560SOL    HW232580   5.393   6.912   2.468
10561SOL     OW32581   6.578   4.613   0.336
10561SOL    HW132582   6.666   4.636   0.293
10561SOL    HW232583   6.503   4.645   0.277
10562SOL     OW32584   4.372   5.454   2.408
10562SOL    HW132585   4.439   5.477   2.479
10562SOL    HW232586   4.344   5.537   2.361
10563SOL     OW32587   0.466   6.829   2.178
10563SOL    HW132588   0.382   6.842   2.230
10563SOL    HW232589   0.447   6.844   2.081
10564SOL     OW32590   5.117   4.229   3.737
10564SOL    HW132591   5.054   4.305   3.724
10564SOL    HW232592   5.110   4.195   3.830
10565SOL     OW32593   0.528   0.589   6.341
10565SOL    HW132594   0.514   0.619   6.436
10565SOL    HW232595   0.604   0.640   6.301
10566SOL     OW32596   3.800   2.889   0.024
10566SOL    HW132597   3.834   2.863   0.115
10566SOL    HW232598   3.734   2.963   0.034
10567SOL     OW32599   1.392   2.414   6.532
10567SOL    HW132600   1.447   2.497   6.537
10567SOL    HW232601   1.367   2.395   6.437
10568SOL     OW32602   4.688   2.312   5.996
10568SOL    HW132603   4.617   2.276   6.056
10568SOL    HW232604   4.746   2.236   5.964
10569SOL     OW32605   5.833   0.172   0.355
10569SOL    HW132606   5.760   0.166   0.424
10569SOL    HW232607   5.918   0.200   0.400
10570SOL     OW32608   0.996   4.267   3.457
10570SOL    HW132609   0.946   4.317   3.528
10570SOL    HW232610   1.039   4.186   3.497
10571SOL     OW32611   6.539   4.392   5.685
10571SOL    HW132612   6.592   4.363   5.605
10571SOL    HW232613   6.500   4.482   5.668
10572SOL     OW32614   6.307   4.309   0.934
10572SOL    HW132615   6.377   4.298   1.005
10572SOL    HW232616   6.336   4.261   0.851
10573SOL     OW32617   6.361   2.345   2.909
10573SOL    HW132618   6.345   2.435   2.950
10573SOL    HW232619   6.458   2.337   2.884
10574SOL     OW32620   6.292   3.244   2.666
10574SOL    HW132621   6.224   3.244   2.739
10574SOL    HW232622   6.280   3.325   2.609
10575SOL     OW32623   6.077   6.564   1.918
10575SOL    HW132624   6.167   6.528   1.892
10575SOL    HW232625   6.084   6.663   1.934
10576SOL     OW32626   1.912   4.459   4.597
10576SOL    HW132627   1.914   4.493   4.503
10576SOL    HW232628   1.818   4.444   4.625
10577SOL     OW32629   3.412   4.233   0.505
10577SOL    HW132630   3.423   4.141   0.542
10577SOL    HW232631   3.489   4.255   0.445
10578SOL     OW32632   0.417   3.624   4.010
10578SOL    HW132633   0.334   3.570   3.994
10578SOL    HW232634   0.450   3.662   3.924
10579SOL     OW32635   0.798   3.334   6.681
10579SOL    HW132636   0.711   3.359   6.638
10579SOL    HW232637   0.781   3.273   6.758
10580SOL     OW32638   6.370   6.642   0.438
10580SOL    HW132639   6.463   6.665   0.469
10580SOL    HW232640   6.320   6.599   0.514
10581SOL     OW32641   4.667   0.098   3.191
10581SOL    HW132642   4.643   0.101   3.094
10581SOL    HW232643   4.629   0.016   3.232
10582SOL     OW32644   5.913   4.236   6.206
10582SOL    HW132645   5.915   4.322   6.257
10582SOL    HW232646   5.851   4.171   6.250
10583SOL     OW32647   3.198   2.017   5.135
10583SOL    HW132648   3.207   2.115   5.121
10583SOL    HW232649   3.251   1.968   5.067
10584SOL     OW32650   1.251   6.478   4.013
10584SOL    HW132651   1.294   6.545   4.074
10584SOL    HW232652   1.155   6.466   4.039
10585SOL     OW32653   0.954   0.397   5.347
10585SOL    HW132654   1.045   0.385   5.309
10585SOL    HW232655   0.923   0.491   5.330
10586SOL     OW32656   4.027   4.241   5.315
10586SOL    HW132657   4.059   4.155   5.354
10586SOL    HW232658   4.103   4.289   5.271
10587SOL     OW32659   1.878   5.086   5.995
10587SOL    HW132660   1.887   5.182   5.966
10587SOL    HW232661   1.916   5.026   5.925
10588SOL     OW32662   1.041   4.192   3.877
10588SOL    HW132663   1.044   4.292   3.872
10588SOL    HW232664   1.037   4.155   3.784
10589SOL     OW32665   5.999   6.224   4.011
10589SOL    HW132666   6.074   6.173   4.053
10589SOL    HW232667   5.985   6.310   4.062
10590SOL     OW32668   0.736   5.437   2.207
10590SOL    HW132669   0.661   5.503   2.201
10590SOL    HW232670   0.771   5.419   2.115
10591SOL     OW32671   6.807   2.945   1.630
10591SOL    HW132672   6.786   3.029   1.680
10591SOL    HW232673   6.781   2.866   1.686
10592SOL     OW32674   6.994   1.661   4.978
10592SOL    HW132675   0.046   1.722   4.944
10592SOL    HW232676   6.905   1.705   4.965
10593SOL     OW32677   3.505   5.318   3.212
10593SOL    HW132678   3.477   5.326   3.117
10593SOL    HW232679   3.605   5.310   3.217
10594SOL     OW32680   3.278   5.823   3.545
10594SOL    HW132681   3.307   5.868   3.461
10594SOL    HW232682   3.205   5.877   3.588
10595SOL     OW32683   5.334   6.964   0.523
10595SOL    HW132684   5.261   6.897   0.530
10595SOL    HW232685   5.422   6.919   0.531
10596SOL     OW32686   5.162   3.513   0.240
10596SOL    HW132687   5.176   3.604   0.281
10596SOL    HW232688   5.242   3.457   0.258
10597SOL     OW32689   1.912   0.003   5.152
10597SOL    HW132690   1.927   6.925   5.141
10597SOL    HW232691   1.826   0.028   5.108
10598SOL     OW32692   2.673   1.289   6.056
10598SOL    HW132693   2.581   1.318   6.084
10598SOL    HW232694   2.700   1.210   6.111
10599SOL     OW32695   0.010   2.383   0.060
10599SOL    HW132696   0.094   2.353   0.106
10599SOL    HW232697   7.003   2.472   0.096
10600SOL     OW32698   3.261   2.165   1.472
10600SOL    HW132699   3.162   2.164   1.482
10600SOL    HW232700   3.303   2.187   1.561
10601SOL     OW32701   1.458   0.888   5.495
10601SOL    HW132702   1.445   0.983   5.468
10601SOL    HW232703   1.395   0.866   5.569
10602SOL     OW32704   6.910   6.776   1.507
10602SOL    HW132705   6.875   6.864   1.475
10602SOL    HW232706   7.005   6.766   1.478
10603SOL     OW32707   5.490   0.667   2.690
10603SOL    HW132708   5.486   0.761   2.657
10603SOL    HW232709   5.585   0.637   2.695
10604SOL     OW32710   4.637   0.006   4.741
10604SOL    HW132711   4.559   0.034   4.796
10604SOL    HW232712   4.620   0.030   4.645
10605SOL     OW32713   2.595   1.676   1.540
10605SOL    HW132714   2.590   1.758   1.597
10605SOL    HW232715   2.689   1.665   1.507
10606SOL     OW32716   6.387   0.775   0.434
10606SOL    HW132717   6.348   0.748   0.522
10606SOL    HW232718   6.361   0.870   0.414
10607SOL     OW32719   2.947   4.285   6.853
10607SOL    HW132720   2.924   4.381   6.867
10607SOL    HW232721   2.897   4.250   6.774
10608SOL     OW32722   5.862   3.968   3.557
10608SOL    HW132723   5.922   3.944   3.481
10608SOL    HW232724   5.853   4.068   3.562
10609SOL     OW32725   5.298   1.514   6.684
10609SOL    HW132726   5.264   1.497   6.777
10609SOL    HW232727   5.276   1.437   6.626
10610SOL     OW32728   0.389   1.670   3.682
10610SOL    HW132729   0.419   1.659   3.587
10610SOL    HW232730   0.395   1.581   3.729
10611SOL     OW32731   4.112   5.704   4.852
10611SOL    HW132732   4.174   5.755   4.792
10611SOL    HW232733   4.138   5.720   4.948
10612SOL     OW32734   5.977   2.127   3.397
10612SOL    HW132735   6.074   2.148   3.382
10612SOL    HW232736   5.922   2.206   3.369
10613SOL     OW32737   4.255   6.457   4.468
10613SOL    HW132738   4.238   6.527   4.399
10613SOL    HW232739   4.169   6.416   4.497
10614SOL     OW32740   3.731   1.816   6.098
10614SOL    HW132741   3.697   1.826   6.005
10614SOL    HW232742   3.664   1.766   6.153
10615SOL     OW32743   1.991   1.790   5.531
10615SOL    HW132744   1.941   1.780   5.617
10615SOL    HW232745   2.057   1.715   5.521
10616SOL     OW32746   1.886   6.569   0.144
10616SOL    HW132747   1.845   6.560   0.235
10616SOL    HW232748   1.954   6.642   0.145
10617SOL     OW32749   2.113   3.261   1.338
10617SOL    HW132750   2.021   3.241   1.374
10617SOL    HW232751   2.164   3.314   1.406
10618SOL     OW32752   0.926   5.143   3.701
10618SOL    HW132753   0.907   5.230   3.746
10618SOL    HW232754   0.854   5.123   3.635
10619SOL     OW32755   1.607   2.609   3.009
10619SOL    HW132756   1.634   2.599   2.914
10619SOL    HW232757   1.596   2.518   3.050
10620SOL     OW32758   3.363   1.311   6.170
10620SOL    HW132759   3.384   1.291   6.075
10620SOL    HW232760   3.326   1.404   6.178
10621SOL     OW32761   0.995   4.050   3.150
10621SOL    HW132762   0.994   3.996   3.235
10621SOL    HW232763   1.038   4.138   3.168
10622SOL     OW32764   4.285   1.696   6.841
10622SOL    HW132765   4.310   1.768   6.777
10622SOL    HW232766   4.363   1.635   6.855
10623SOL     OW32767   4.879   0.108   6.216
10623SOL    HW132768   4.835   0.091   6.128
10623SOL    HW232769   4.938   0.030   6.239
10624SOL     OW32770   0.737   2.280   0.487
10624SOL    HW132771   0.710   2.360   0.432
10624SOL    HW232772   0.660   2.216   0.493
10625SOL     OW32773   5.735   5.093   0.339
10625SOL    HW132774   5.814   5.153   0.323
10625SOL    HW232775   5.768   5.002   0.364
10626SOL     OW32776   5.594   3.312   1.001
10626SOL    HW132777   5.589   3.260   1.086
10626SOL    HW232778   5.656   3.390   1.014
10627SOL     OW32779   5.626   5.579   5.246
10627SOL    HW132780   5.558   5.507   5.263
10627SOL    HW232781   5.600   5.662   5.296
10628SOL     OW32782   3.441   6.736   0.544
10628SOL    HW132783   3.479   6.746   0.453
10628SOL    HW232784   3.382   6.655   0.546
10629SOL     OW32785   3.522   5.681   4.634
10629SOL    HW132786   3.437   5.634   4.611
10629SOL    HW232787   3.589   5.667   4.561
10630SOL     OW32788   4.233   1.432   1.873
10630SOL    HW132789   4.149   1.462   1.827
10630SOL    HW232790   4.227   1.333   1.889
10631SOL     OW32791   3.643   6.033   0.958
10631SOL    HW132792   3.596   6.077   1.035
10631SOL    HW232793   3.732   6.076   0.944
10632SOL     OW32794   5.013   6.070   3.478
10632SOL    HW132795   5.074   6.117   3.414
10632SOL    HW232796   5.011   6.120   3.564
10633SOL     OW32797   1.647   3.536   1.037
10633SOL    HW132798   1.611   3.602   1.104
10633SOL    HW232799   1.746   3.528   1.047
10634SOL     OW32800   0.051   3.785   0.177
10634SOL    HW132801   0.037   3.721   0.252
10634SOL    HW232802   0.119   3.747   0.113
10635SOL     OW32803   2.320   5.005   6.543
10635SOL    HW132804   2.354   5.062   6.468
10635SOL    HW232805   2.385   4.931   6.560
10636SOL     OW32806   6.814   2.159   7.019
10636SOL    HW132807   6.849   2.251   0.017
10636SOL    HW232808   6.796   2.150   6.921
10637SOL     OW32809   2.724   0.623   6.871
10637SOL    HW132810   2.632   0.657   6.853
10637SOL    HW232811   2.764   0.589   6.786
10638SOL     OW32812   5.661   5.477   1.560
10638SOL    HW132813   5.614   5.479   1.649
10638SOL    HW232814   5.599   5.440   1.491
10639SOL     OW32815   1.168   5.389   1.581
10639SOL    HW132816   1.079   5.424   1.610
10639SOL    HW232817   1.168   5.289   1.588
10640SOL     OW32818   4.225   6.217   3.391
10640SOL    HW132819   4.320   6.209   3.363
10640SOL    HW232820   4.166   6.185   3.317
10641SOL     OW32821   1.165   1.199   3.694
10641SOL    HW132822   1.095   1.205   3.624
10641SOL    HW232823   1.167   1.285   3.746
10642SOL     OW32824   6.594   2.666   6.230
10642SOL    HW132825   6.597   2.616   6.144
10642SOL    HW232826   6.501   2.663   6.267
10643SOL     OW32827   2.399   5.050   6.271
10643SOL    HW132828   2.320   5.110   6.279
10643SOL    HW232829   2.393   4.996   6.187
10644SOL     OW32830   6.603   3.287   2.675
10644SOL    HW132831   6.520   3.231   2.681
10644SOL    HW232832   6.592   3.370   2.729
10645SOL     OW32833   2.658   2.435   3.247
10645SOL    HW132834   2.665   2.447   3.148
10645SOL    HW232835   2.619   2.517   3.287
10646SOL     OW32836   5.245   0.677   3.792
10646SOL    HW132837   5.292   0.740   3.730
10646SOL    HW232838   5.312   0.638   3.856
10647SOL     OW32839   3.171   5.526   4.731
10647SOL    HW132840   3.126   5.616   4.738
10647SOL    HW232841   3.247   5.522   4.796
10648SOL     OW32842   4.566   4.727   5.931
10648SOL    HW132843   4.475   4.708   5.967
10648SOL    HW232844   4.590   4.658   5.862
10649SOL     OW32845   6.482   3.634   2.601
10649SOL    HW132846   6.489   3.733   2.611
10649SOL    HW232847   6.503   3.590   2.689
10650SOL     OW32848   0.690   0.180   3.931
10650SOL    HW132849   0.662   0.181   3.835
10650SOL    HW232850   0.628   0.122   3.984
10651SOL     OW32851   3.443   5.990   6.086
10651SOL    HW132852   3.515   5.955   6.146
10651SOL    HW232853   3.476   5.991   5.991
10652SOL     OW32854   2.453   0.663   0.249
10652SOL    HW132855   2.537   0.694   0.203
10652SOL    HW232856   2.477   0.602   0.324
10653SOL     OW32857   4.267   5.958   4.723
10653SOL    HW132858   4.326   5.915   4.654
10653SOL    HW232859   4.192   6.006   4.677
10654SOL     OW32860   6.125   1.350   4.315
10654SOL    HW132861   6.158   1.276   4.256
10654SOL    HW232862   6.179   1.432   4.299
10655SOL     OW32863   0.174   4.681   1.735
10655SOL    HW132864   0.181   4.631   1.822
10655SOL    HW232865   0.238   4.642   1.669
10656SOL     OW32866   5.780   2.709   3.848
10656SOL    HW132867   5.686   2.676   3.848
10656SOL    HW232868   5.833   2.660   3.778
10657SOL     OW32869   5.159   6.640   4.344
10657SOL    HW132870   5.076   6.654   4.398
10657SOL    HW232871   5.151   6.690   4.258
10658SOL     OW32872   0.884   2.805   4.761
10658SOL    HW132873   0.832   2.890   4.767
10658SOL    HW232874   0.976   2.825   4.727
10659SOL     OW32875   1.150   5.674   0.642
10659SOL    HW132876   1.245   5.696   0.623
10659SOL    HW232877   1.090   5.734   0.589
10660SOL     OW32878   5.682   2.924   5.144
10660SOL    HW132879   5.620   2.941   5.220
10660SOL    HW232880   5.671   2.830   5.112
10661SOL     OW32881   2.560   4.678   5.673
10661SOL    HW132882   2.633   4.683   5.742
10661SOL    HW232883   2.577   4.745   5.602
10662SOL     OW32884   2.529   1.201   1.889
10662SOL    HW132885   2.612   1.193   1.944
10662SOL    HW232886   2.548   1.173   1.795
10663SOL     OW32887   0.989   1.816   3.590
10663SOL    HW132888   1.001   1.737   3.529
10663SOL    HW232889   0.892   1.839   3.595
10664SOL     OW32890   0.756   5.202   4.784
10664SOL    HW132891   0.770   5.268   4.858
10664SOL    HW232892   0.805   5.233   4.702
10665SOL     OW32893   2.655   2.772   6.887
10665SOL    HW132894   2.556   2.782   6.876
10665SOL    HW232895   2.700   2.791   6.800
10666SOL     OW32896   3.543   3.775   2.058
10666SOL    HW132897   3.564   3.870   2.036
10666SOL    HW232898   3.554   3.760   2.156
10667SOL     OW32899   5.287   2.525   3.703
10667SOL    HW132900   5.247   2.512   3.612
10667SOL    HW232901   5.247   2.606   3.745
10668SOL     OW32902   3.725   2.744   5.351
10668SOL    HW132903   3.628   2.767   5.349
10668SOL    HW232904   3.735   2.645   5.363
10669SOL     OW32905   6.009   1.528   1.217
10669SOL    HW132906   6.057   1.444   1.192
10669SOL    HW232907   5.968   1.569   1.135
10670SOL     OW32908   4.853   3.654   4.339
10670SOL    HW132909   4.862   3.735   4.397
10670SOL    HW232910   4.759   3.646   4.307
10671SOL     OW32911   1.922   2.857   4.530
10671SOL    HW132912   1.911   2.850   4.431
10671SOL    HW232913   2.015   2.888   4.551
10672SOL     OW32914   5.984   3.138   1.470
10672SOL    HW132915   5.976   3.237   1.459
10672SOL    HW232916   5.895   3.096   1.451
10673SOL     OW32917   1.960   1.585   1.229
10673SOL    HW132918   1.880   1.606   1.173
10673SOL    HW232919   1.952   1.492   1.265
10674SOL     OW32920   3.656   4.046   3.408
10674SOL    HW132921   3.728   4.040   3.478
10674SOL    HW232922   3.575   4.090   3.447
10675SOL     OW32923   3.881   6.759   5.486
10675SOL    HW132924   3.888   6.713   5.397
10675SOL    HW232925   3.801   6.725   5.535
10676SOL     OW32926   1.997   6.682   5.198
10676SOL    HW132927   2.087   6.691   5.155
10676SOL    HW232928   2.004   6.701   5.296
10677SOL     OW32929   6.912   1.578   0.670
10677SOL    HW132930   6.960   1.563   0.584
10677SOL    HW232931   6.952   1.656   0.718
10678SOL     OW32932   4.132   5.601   3.652
10678SOL    HW132933   4.156   5.680   3.708
10678SOL    HW232934   4.214   5.565   3.607
10679SOL     OW32935   4.189   3.174   6.767
10679SOL    HW132936   4.194   3.085   6.721
10679SOL    HW232937   4.282   3.207   6.785
10680SOL     OW32938   4.116   1.302   4.325
10680SOL    HW132939   4.142   1.398   4.336
10680SOL    HW232940   4.137   1.272   4.232
10681SOL     OW32941   1.266   2.855   5.098
10681SOL    HW132942   1.241   2.908   5.180
10681SOL    HW232943   1.196   2.786   5.080
10682SOL     OW32944   5.256   3.498   5.754
10682SOL    HW132945   5.252   3.419   5.816
10682SOL    HW232946   5.280   3.580   5.807
10683SOL     OW32947   3.053   0.589   3.321
10683SOL    HW132948   3.106   0.549   3.396
10683SOL    HW232949   2.998   0.665   3.356
10684SOL     OW32950   4.409   4.532   2.069
10684SOL    HW132951   4.441   4.449   2.024
10684SOL    HW232952   4.473   4.607   2.050
10685SOL     OW32953   0.990   6.062   1.301
10685SOL    HW132954   1.080   6.018   1.290
10685SOL    HW232955   0.920   6.007   1.256
10686SOL     OW32956   2.503   1.773   6.598
10686SOL    HW132957   2.455   1.813   6.520
10686SOL    HW232958   2.566   1.840   6.636
10687SOL     OW32959   0.694   4.303   3.503
10687SOL    HW132960   0.671   4.400   3.506
10687SOL    HW232961   0.676   4.262   3.593
10688SOL     OW32962   5.399   1.998   2.421
10688SOL    HW132963   5.368   2.075   2.366
10688SOL    HW232964   5.484   1.961   2.383
10689SOL     OW32965   0.021   0.137   2.638
10689SOL    HW132966   0.074   0.083   2.704
10689SOL    HW232967   6.949   0.151   2.674
10690SOL     OW32968   0.194   0.142   3.828
10690SOL    HW132969   0.216   0.051   3.862
10690SOL    HW232970   0.097   0.161   3.843
10691SOL     OW32971   3.530   0.602   2.733
10691SOL    HW132972   3.519   0.606   2.634
10691SOL    HW232973   3.445   0.572   2.775
10692SOL     OW32974   2.295   0.138   4.042
10692SOL    HW132975   2.319   0.216   4.100
10692SOL    HW232976   2.325   0.156   3.949
10693SOL     OW32977   1.455   5.840   0.335
10693SOL    HW132978   1.431   5.933   0.363
10693SOL    HW232979   1.443   5.778   0.413
10694SOL     OW32980   4.353   6.650   5.253
10694SOL    HW132981   4.331   6.602   5.168
10694SOL    HW232982   4.272   6.655   5.311
10695SOL     OW32983   6.985   4.028   1.748
10695SOL    HW132984   6.894   3.985   1.739
10695SOL    HW232985   6.974   4.126   1.764
10696SOL     OW32986   6.657   4.996   4.701
10696SOL    HW132987   6.605   4.946   4.770
10696SOL    HW232988   6.730   4.938   4.665
10697SOL     OW32989   1.635   4.722   5.593
10697SOL    HW132990   1.626   4.623   5.593
10697SOL    HW232991   1.598   4.759   5.678
10698SOL     OW32992   4.603   3.125   0.038
10698SOL    HW132993   4.565   3.033   0.044
10698SOL    HW232994   4.623   3.158   0.130
10699SOL     OW32995   3.187   3.494   0.260
10699SOL    HW132996   3.220   3.456   0.346
10699SOL    HW232997   3.245   3.571   0.233
10700SOL     OW32998   4.890   0.925   0.914
10700SOL    HW132999   4.807   0.917   0.860
10700SOL    HW233000   4.880   0.875   1.000
10701SOL     OW33001   2.540   0.783   6.109
10701SOL    HW133002   2.525   0.703   6.051
10701SOL    HW233003   2.627   0.773   6.157
10702SOL     OW33004   5.424   2.234   2.031
10702SOL    HW133005   5.413   2.163   1.962
10702SOL    HW233006   5.399   2.197   2.121
10703SOL     OW33007   1.370   2.836   6.267
10703SOL    HW133008   1.347   2.934   6.266
10703SOL    HW233009   1.417   2.814   6.353
10704SOL     OW33010   6.164   6.821   1.982
10704SOL    HW133011   6.131   6.865   2.066
10704SOL    HW233012   6.166   6.888   1.908
10705SOL     OW33013   6.012   4.388   1.253
10705SOL    HW133014   5.950   4.318   1.216
10705SOL    HW233015   6.066   4.349   1.327
10706SOL     OW33016   4.840   0.476   1.969
10706SOL    HW133017   4.889   0.404   2.017
10706SOL    HW233018   4.863   0.565   2.008
10707SOL     OW33019   5.829   0.169   3.991
10707SOL    HW133020   5.824   0.096   3.922
10707SOL    HW233021   5.738   0.210   4.002
10708SOL     OW33022   4.362   1.747   2.195
10708SOL    HW133023   4.323   1.745   2.287
10708SOL    HW233024   4.333   1.831   2.148
10709SOL     OW33025   5.746   5.396   3.597
10709SOL    HW133026   5.788   5.458   3.663
10709SOL    HW233027   5.664   5.440   3.558
10710SOL     OW33028   5.596   1.368   3.156
10710SOL    HW133029   5.689   1.361   3.194
10710SOL    HW233030   5.555   1.278   3.150
10711SOL     OW33031   3.595   6.702   1.902
10711SOL    HW133032   3.551   6.623   1.859
10711SOL    HW233033   3.690   6.680   1.924
10712SOL     OW33034   4.720   6.955   2.763
10712SOL    HW133035   4.672   6.956   2.676
10712SOL    HW233036   4.810   6.997   2.752
10713SOL     OW33037   1.416   4.237   0.946
10713SOL    HW133038   1.344   4.207   1.009
10713SOL    HW233039   1.455   4.323   0.979
10714SOL     OW33040   3.977   3.231   4.162
10714SOL    HW133041   3.883   3.210   4.188
10714SOL    HW233042   3.986   3.226   4.062
10715SOL     OW33043   6.047   0.740   2.196
10715SOL    HW133044   6.127   0.718   2.251
10715SOL    HW233045   5.991   0.658   2.184
10716SOL     OW33046   6.196   2.727   3.374
10716SOL    HW133047   6.122   2.793   3.362
10716SOL    HW233048   6.160   2.634   3.363
10717SOL     OW33049   0.992   2.278   6.814
10717SOL    HW133050   0.972   2.199   6.872
10717SOL    HW233051   0.927   2.280   6.738
10718SOL     OW33052   1.384   4.862   5.777
10718SOL    HW133053   1.398   4.902   5.686
10718SOL    HW233054   1.346   4.770   5.767
10719SOL     OW33055   6.525   5.389   4.544
10719SOL    HW133056   6.436   5.433   4.541
10719SOL    HW233057   6.531   5.333   4.627
10720SOL     OW33058   5.729   5.728   4.207
10720SOL    HW133059   5.635   5.762   4.220
10720SOL    HW233060   5.756   5.674   4.286
10721SOL     OW33061   5.092   3.926   5.143
10721SOL    HW133062   5.162   3.996   5.126
10721SOL    HW233063   5.129   3.836   5.123
10722SOL     OW33064   0.004   3.888   6.071
10722SOL    HW133065   7.017   3.795   6.106
10722SOL    HW233066   6.947   3.942   6.104
10723SOL     OW33067   0.153   0.300   0.052
10723SOL    HW133068   0.142   0.214   0.102
10723SOL    HW233069   0.198   0.282   6.985
10724SOL     OW33070   6.917   6.513   0.211
10724SOL    HW133071   7.008   6.505   0.171
10724SOL    HW233072   6.848   6.504   0.139
10725SOL     OW33073   2.515   5.460   5.412
10725SOL    HW133074   2.571   5.433   5.333
10725SOL    HW233075   2.574   5.501   5.482
10726SOL     OW33076   4.749   0.761   3.784
10726SOL    HW133077   4.654   0.736   3.763
10726SOL    HW233078   4.804   0.678   3.792
10727SOL     OW33079   1.419   5.669   6.069
10727SOL    HW133080   1.443   5.705   6.159
10727SOL    HW233081   1.427   5.741   6.001
10728SOL     OW33082   6.729   5.334   0.640
10728SOL    HW133083   6.657   5.265   0.642
10728SOL    HW233084   6.729   5.384   0.727
10729SOL     OW33085   6.356   2.360   1.368
10729SOL    HW133086   6.370   2.266   1.338
10729SOL    HW233087   6.342   2.418   1.287
10730SOL     OW33088   4.188   0.735   1.793
10730SOL    HW133089   4.188   0.738   1.693
10730SOL    HW233090   4.168   0.826   1.829
10731SOL     OW33091   4.087   1.126   0.841
10731SOL    HW133092   4.037   1.170   0.915
10731SOL    HW233093   4.085   1.184   0.760
10732SOL     OW33094   0.285   5.154   5.095
10732SOL    HW133095   0.279   5.135   5.193
10732SOL    HW233096   0.207   5.210   5.067
10733SOL     OW33097   6.002   2.099   6.546
10733SOL    HW133098   5.905   2.122   6.541
10733SOL    HW233099   6.029   2.090   6.642
10734SOL     OW33100   1.009   1.915   1.637
10734SOL    HW133101   1.097   1.876   1.666
10734SOL    HW233102   0.936   1.850   1.658
10735SOL     OW33103   0.441   3.681   2.039
10735SOL    HW133104   0.403   3.723   2.121
10735SOL    HW233105   0.480   3.591   2.062
10736SOL     OW33106   2.808   6.729   4.099
10736SOL    HW133107   2.737   6.754   4.034
10736SOL    HW233108   2.893   6.709   4.050
10737SOL     OW33109   0.072   2.472   1.680
10737SOL    HW133110   0.108   2.565   1.680
10737SOL    HW233111   0.053   2.445   1.585
10738SOL     OW33112   4.396   7.007   3.281
10738SOL    HW133113   4.369   0.077   3.247
10738SOL    HW233114   4.413   6.946   3.204
10739SOL     OW33115   2.202   2.239   1.612
10739SOL    HW133116   2.280   2.261   1.670
10739SOL    HW233117   2.126   2.207   1.669
10740SOL     OW33118   5.274   4.944   4.786
10740SOL    HW133119   5.350   4.989   4.834
10740SOL    HW233120   5.190   4.955   4.839
10741SOL     OW33121   3.572   0.271   2.167
10741SOL    HW133122   3.588   0.172   2.164
10741SOL    HW233123   3.536   0.302   2.079
10742SOL     OW33124   5.621   5.159   1.316
10742SOL    HW133125   5.646   5.112   1.400
10742SOL    HW233126   5.697   5.154   1.251
10743SOL     OW33127   2.475   2.323   3.480
10743SOL    HW133128   2.482   2.412   3.435
10743SOL    HW233129   2.545   2.316   3.550
10744SOL     OW33130   3.970   2.402   1.034
10744SOL    HW133131   3.941   2.310   1.059
10744SOL    HW233132   3.987   2.456   1.116
10745SOL     OW33133   6.935   5.969   6.027
10745SOL    HW133134   6.921   6.063   5.994
10745SOL    HW233135   6.969   5.972   6.121
10746SOL     OW33136   0.774   3.731   5.299
10746SOL    HW133137   0.683   3.770   5.306
10746SOL    HW233138   0.829   3.786   5.236
10747SOL     OW33139   3.286   0.919   4.208
10747SOL    HW133140   3.237   0.871   4.281
10747SOL    HW233141   3.369   0.868   4.185
10748SOL     OW33142   5.379   1.337   2.694
10748SOL    HW133143   5.409   1.430   2.673
10748SOL    HW233144   5.305   1.340   2.760
10749SOL     OW33145   1.622   6.592   4.851
10749SOL    HW133146   1.636   6.494   4.842
10749SOL    HW233147   1.651   6.622   4.942
10750SOL     OW33148   3.919   0.741   4.985
10750SOL    HW133149   3.902   0.826   5.034
10750SOL    HW233150   4.016   0.735   4.960
10751SOL     OW33151   2.058   5.336   4.109
10751SOL    HW133152   2.037   5.315   4.204
10751SOL    HW233153   2.049   5.252   4.054
10752SOL     OW33154   5.045   4.574   5.067
10752SOL    HW133155   4.975   4.646   5.063
10752SOL    HW233156   5.133   4.614   5.091
10753SOL     OW33157   0.421   3.001   4.094
10753SOL    HW133158   0.450   3.052   4.013
10753SOL    HW233159   0.355   2.931   4.068
10754SOL     OW33160   0.817   0.277   3.055
10754SOL    HW133161   0.878   0.204   3.086
10754SOL    HW233162   0.866   0.364   3.053
10755SOL     OW33163   6.511   6.814   1.994
10755SOL    HW133164   6.453   6.864   1.929
10755SOL    HW233165   6.545   6.730   1.951
10756SOL     OW33166   6.969   6.157   5.273
10756SOL    HW133167   6.937   6.204   5.355
10756SOL    HW233168   6.930   6.202   5.192
10757SOL     OW33169   2.078   2.739   0.494
10757SOL    HW133170   2.010   2.703   0.430
10757SOL    HW233171   2.127   2.815   0.452
10758SOL     OW33172   0.626   6.600   3.619
10758SOL    HW133173   0.717   6.568   3.645
10758SOL    HW233174   0.576   6.627   3.700
10759SOL     OW33175   0.633   2.873   0.284
10759SOL    HW133176   0.582   2.944   0.235
10759SOL    HW233177   0.713   2.914   0.328
10760SOL     OW33178   6.114   0.964   3.413
10760SOL    HW133179   6.194   0.909   3.388
10760SOL    HW233180   6.141   1.032   3.480
10761SOL     OW33181   2.188   5.231   6.267
10761SOL    HW133182   2.103   5.249   6.316
10761SOL    HW233183   2.169   5.229   6.168
10762SOL     OW33184   2.562   0.618   4.645
10762SOL    HW133185   2.642   0.572   4.607
10762SOL    HW233186   2.479   0.581   4.603
10763SOL     OW33187   3.733   0.739   3.560
10763SOL    HW133188   3.782   0.658   3.592
10763SOL    HW233189   3.674   0.713   3.483
10764SOL     OW33190   4.754   1.151   4.233
10764SOL    HW133191   4.749   1.079   4.163
10764SOL    HW233192   4.665   1.197   4.238
10765SOL     OW33193   5.148   3.471   1.329
10765SOL    HW133194   5.062   3.450   1.374
10765SOL    HW233195   5.167   3.569   1.336
10766SOL     OW33196   3.319   3.558   0.967
10766SOL    HW133197   3.308   3.541   1.065
10766SOL    HW233198   3.325   3.471   0.918
10767SOL     OW33199   2.219   0.402   1.345
10767SOL    HW133200   2.200   0.460   1.265
10767SOL    HW233201   2.148   0.332   1.353
10768SOL     OW33202   6.444   4.998   0.846
10768SOL    HW133203   6.469   5.029   0.938
10768SOL    HW233204   6.384   4.918   0.853
10769SOL     OW33205   2.417   3.619   6.077
10769SOL    HW133206   2.445   3.689   6.142
10769SOL    HW233207   2.458   3.638   5.988
10770SOL     OW33208   4.484   5.939   3.149
10770SOL    HW133209   4.423   5.935   3.070
10770SOL    HW233210   4.533   5.852   3.158
10771SOL     OW33211   3.022   6.980   3.863
10771SOL    HW133212   3.096   6.927   3.821
10771SOL    HW233213   3.056   0.049   3.891
10772SOL     OW33214   6.079   5.586   4.290
10772SOL    HW133215   5.994   5.603   4.340
10772SOL    HW233216   6.140   5.664   4.300
10773SOL     OW33217   5.379   4.669   4.295
10773SOL    HW133218   5.286   4.654   4.261
10773SOL    HW233219   5.436   4.706   4.221
10774SOL     OW33220   1.345   0.979   3.688
10774SOL    HW133221   1.286   1.058   3.669
10774SOL    HW233222   1.436   0.995   3.651
10775SOL     OW33223   1.150   4.577   1.836
10775SOL    HW133224   1.200   4.497   1.869
10775SOL    HW233225   1.134   4.569   1.738
10776SOL     OW33226   2.257   0.625   6.403
10776SOL    HW133227   2.177   0.655   6.456
10776SOL    HW233228   2.315   0.568   6.460
10777SOL     OW33229   3.306   5.596   1.351
10777SOL    HW133230   3.328   5.565   1.259
10777SOL    HW233231   3.224   5.653   1.348
10778SOL     OW33232   5.557   6.605   4.087
10778SOL    HW133233   5.498   6.546   4.033
10778SOL    HW233234   5.542   6.586   4.185
10779SOL     OW33235   5.941   2.931   3.464
10779SOL    HW133236   6.007   3.006   3.464
10779SOL    HW233237   5.861   2.958   3.517
10780SOL     OW33238   0.638   1.382   3.336
10780SOL    HW133239   0.718   1.354   3.283
10780SOL    HW233240   0.557   1.379   3.277
10781SOL     OW33241   3.612   0.123   4.190
10781SOL    HW133242   3.597   0.220   4.173
10781SOL    HW233243   3.598   0.104   4.287
10782SOL     OW33244   5.828   6.723   4.306
10782SOL    HW133245   5.743   6.743   4.356
10782SOL    HW233246   5.901   6.781   4.341
10783SOL     OW33247   6.516   2.633   2.922
10783SOL    HW133248   6.609   2.648   2.955
10783SOL    HW233249   6.496   2.696   2.847
10784SOL     OW33250   2.776   1.328   3.673
10784SOL    HW133251   2.737   1.371   3.755
10784SOL    HW233252   2.866   1.290   3.696
10785SOL     OW33253   0.457   3.650   0.189
10785SOL    HW133254   0.521   3.711   0.237
10785SOL    HW233255   0.430   3.691   0.102
10786SOL     OW33256   6.142   5.652   2.766
10786SOL    HW133257   6.238   5.637   2.788
10786SOL    HW233258   6.096   5.692   2.845
10787SOL     OW33259   0.795   0.975   4.777
10787SOL    HW133260   0.777   1.066   4.741
10787SOL    HW233261   0.870   0.979   4.843
10788SOL     OW33262   0.202   3.923   6.759
10788SOL    HW133263   0.111   3.880   6.754
10788SOL    HW233264   0.241   3.928   6.667
10789SOL     OW33265   6.898   2.628   0.166
10789SOL    HW133266   6.833   2.649   0.092
10789SOL    HW233267   6.852   2.578   0.239
10790SOL     OW33268   0.412   6.902   1.912
10790SOL    HW133269   0.376   6.996   1.916
10790SOL    HW233270   0.456   6.888   1.823
10791SOL     OW33271   6.156   5.946   2.576
10791SOL    HW133272   6.172   6.022   2.638
10791SOL    HW233273   6.244   5.907   2.548
10792SOL     OW33274   3.893   3.625   5.132
10792SOL    HW133275   3.813   3.683   5.146
10792SOL    HW233276   3.974   3.683   5.117
10793SOL     OW33277   5.775   3.303   5.155
10793SOL    HW133278   5.824   3.235   5.099
10793SOL    HW233279   5.705   3.257   5.209
10794SOL     OW33280   3.471   3.092   3.869
10794SOL    HW133281   3.430   3.153   3.802
10794SOL    HW233282   3.555   3.132   3.905
10795SOL     OW33283   1.129   4.324   3.176
10795SOL    HW133284   1.138   4.383   3.096
10795SOL    HW233285   1.062   4.362   3.239
10796SOL     OW33286   0.682   6.690   5.116
10796SOL    HW133287   0.726   6.605   5.088
10796SOL    HW233288   0.583   6.681   5.109
10797SOL     OW33289   4.304   3.225   0.599
10797SOL    HW133290   4.280   3.246   0.694
10797SOL    HW233291   4.396   3.187   0.595
10798SOL     OW33292   1.398   1.298   1.713
10798SOL    HW133293   1.342   1.297   1.631
10798SOL    HW233294   1.485   1.251   1.695
10799SOL     OW33295   3.962   1.126   2.310
10799SOL    HW133296   3.987   1.114   2.214
10799SOL    HW233297   3.870   1.165   2.315
10800SOL     OW33298   1.286   6.548   0.144
10800SOL    HW133299   1.281   6.455   0.109
10800SOL    HW233300   1.194   6.579   0.170
10801SOL     OW33301   1.536   0.865   0.396
10801SOL    HW133302   1.619   0.820   0.364
10801SOL    HW233303   1.495   0.918   0.321
10802SOL     OW33304   6.378   6.578   3.101
10802SOL    HW133305   6.383   6.639   3.180
10802SOL    HW233306   6.282   6.558   3.079
10803SOL     OW33307   1.382   5.354   6.654
10803SOL    HW133308   1.291   5.342   6.695
10803SOL    HW233309   1.430   5.266   6.655
10804SOL     OW33310   0.495   3.318   4.170
10804SOL    HW133311   0.455   3.409   4.178
10804SOL    HW233312   0.462   3.274   4.086
10805SOL     OW33313   5.983   0.777   5.318
10805SOL    HW133314   5.921   0.735   5.252
10805SOL    HW233315   5.931   0.807   5.398
10806SOL     OW33316   1.893   4.409   6.703
10806SOL    HW133317   1.917   4.314   6.724
10806SOL    HW233318   1.944   4.470   6.763
10807SOL     OW33319   2.314   5.927   3.667
10807SOL    HW133320   2.364   5.912   3.752
10807SOL    HW233321   2.281   5.840   3.632
10808SOL     OW33322   0.456   2.168   5.842
10808SOL    HW133323   0.416   2.219   5.765
10808SOL    HW233324   0.474   2.232   5.918
10809SOL     OW33325   2.453   5.412   4.626
10809SOL    HW133326   2.500   5.389   4.712
10809SOL    HW233327   2.365   5.453   4.646
10810SOL     OW33328   0.531   0.267   4.442
10810SOL    HW133329   0.481   0.347   4.410
10810SOL    HW233330   0.621   0.294   4.475
10811SOL     OW33331   4.591   5.070   4.760
10811SOL    HW133332   4.679   5.024   4.763
10811SOL    HW233333   4.523   5.017   4.810
10812SOL     OW33334   0.206   2.759   6.786
10812SOL    HW133335   0.152   2.839   6.758
10812SOL    HW233336   0.300   2.770   6.753
10813SOL     OW33337   0.362   3.336   6.276
10813SOL    HW133338   0.333   3.386   6.195
10813SOL    HW233339   0.434   3.387   6.323
10814SOL     OW33340   2.275   0.348   0.157
10814SOL    HW133341   2.349   0.358   0.091
10814SOL    HW233342   2.249   0.437   0.193
10815SOL     OW33343   4.945   0.864   4.445
10815SOL    HW133344   4.921   0.799   4.373
10815SOL    HW233345   5.001   0.937   4.406
10816SOL     OW33346   3.538   3.070   3.578
10816SOL    HW133347   3.534   3.081   3.479
10816SOL    HW233348   3.613   3.125   3.615
10817SOL     OW33349   2.441   0.046   2.978
10817SOL    HW133350   2.456   0.003   3.067
10817SOL    HW233351   2.503   0.006   2.910
10818SOL     OW33352   4.268   4.935   5.942
10818SOL    HW133353   4.233   4.856   5.991
10818SOL    HW233354   4.302   4.906   5.852
10819SOL     OW33355   0.024   5.872   6.269
10819SOL    HW133356   7.001   5.850   6.356
10819SOL    HW233357   0.114   5.830   6.265
10820SOL     OW33358   1.943   4.499   5.667
10820SOL    HW133359   1.980   4.411   5.696
10820SOL    HW233360   1.917   4.494   5.571
10821SOL     OW33361   4.916   5.114   3.136
10821SOL    HW133362   4.870   5.122   3.224
10821SOL    HW233363   4.862   5.162   3.067
10822SOL     OW33364   5.716   2.793   0.810
10822SOL    HW133365   5.731   2.892   0.820
10822SOL    HW233366   5.757   2.762   0.724
10823SOL     OW33367   6.532   6.579   2.882
10823SOL    HW133368   6.469   6.586   2.960
10823SOL    HW233369   6.569   6.486   2.878
10824SOL     OW33370   1.297   1.242   4.101
10824SOL    HW133371   1.255   1.332   4.112
10824SOL    HW233372   1.362   1.244   4.026
10825SOL     OW33373   1.360   1.853   0.815
10825SOL    HW133374   1.373   1.951   0.810
10825SOL    HW233375   1.374   1.822   0.909
10826SOL     OW33376   1.330   2.762   2.899
10826SOL    HW133377   1.412   2.810   2.931
10826SOL    HW233378   1.249   2.815   2.922
10827SOL     OW33379   6.829   3.256   5.288
10827SOL    HW133380   6.889   3.270   5.367
10827SOL    HW233381   6.752   3.198   5.315
10828SOL     OW33382   6.364   4.503   6.398
10828SOL    HW133383   6.390   4.448   6.318
10828SOL    HW233384   6.436   4.570   6.417
10829SOL     OW33385   4.192   3.696   5.916
10829SOL    HW133386   4.256   3.749   5.971
10829SOL    HW233387   4.240   3.658   5.837
10830SOL     OW33388   4.808   0.809   3.512
10830SOL    HW133389   4.795   0.805   3.611
10830SOL    HW233390   4.896   0.852   3.491
10831SOL     OW33391   3.530   0.989   2.488
10831SOL    HW133392   3.445   0.991   2.435
10831SOL    HW233393   3.594   0.924   2.446
10832SOL     OW33394   6.761   3.605   0.048
10832SOL    HW133395   6.791   3.596   0.143
10832SOL    HW233396   6.661   3.616   0.046
10833SOL     OW33397   0.695   0.831   0.803
10833SOL    HW133398   0.661   0.863   0.714
10833SOL    HW233399   0.692   0.906   0.869
10834SOL     OW33400   6.253   6.533   0.652
10834SOL    HW133401   6.270   6.434   0.654
10834SOL    HW233402   6.288   6.574   0.736
10835SOL     OW33403   6.785   2.504   5.660
10835SOL    HW133404   6.857   2.483   5.595
10835SOL    HW233405   6.793   2.444   5.740
10836SOL     OW33406   6.913   1.735   3.626
10836SOL    HW133407   6.826   1.780   3.647
10836SOL    HW233408   6.985   1.773   3.684
10837SOL     OW33409   0.202   4.353   2.864
10837SOL    HW133410   0.247   4.263   2.867
10837SOL    HW233411   0.246   4.409   2.794
10838SOL     OW33412   6.115   5.816   4.102
10838SOL    HW133413   6.061   5.732   4.111
10838SOL    HW233414   6.128   5.837   4.005
10839SOL     OW33415   4.602   3.845   0.473
10839SOL    HW133416   4.562   3.892   0.394
10839SOL    HW233417   4.686   3.798   0.444
10840SOL     OW33418   3.015   0.627   0.813
10840SOL    HW133419   2.930   0.577   0.829
10840SOL    HW233420   3.033   0.633   0.715
10841SOL     OW33421   0.955   4.999   4.599
10841SOL    HW133422   0.869   5.043   4.575
10841SOL    HW233423   0.968   5.004   4.698
10842SOL     OW33424   4.867   3.998   0.864
10842SOL    HW133425   4.945   4.045   0.822
10842SOL    HW233426   4.889   3.902   0.879
10843SOL     OW33427   2.006   2.461   1.377
10843SOL    HW133428   2.024   2.364   1.367
10843SOL    HW233429   2.090   2.513   1.361
10844SOL     OW33430   0.739   5.394   5.362
10844SOL    HW133431   0.695   5.428   5.279
10844SOL    HW233432   0.675   5.335   5.411
10845SOL     OW33433   4.308   6.494   4.964
10845SOL    HW133434   4.329   6.442   4.881
10845SOL    HW233435   4.265   6.433   5.031
10846SOL     OW33436   5.534   0.406   0.606
10846SOL    HW133437   5.512   0.413   0.509
10846SOL    HW233438   5.506   0.316   0.640
10847SOL     OW33439   1.897   1.729   0.323
10847SOL    HW133440   1.881   1.812   0.269
10847SOL    HW233441   1.812   1.677   0.331
10848SOL     OW33442   1.896   4.241   1.404
10848SOL    HW133443   1.848   4.299   1.469
10848SOL    HW233444   1.920   4.295   1.323
10849SOL     OW33445   2.173   5.963   4.047
10849SOL    HW133446   2.238   6.036   4.028
10849SOL    HW233447   2.189   5.886   3.985
10850SOL     OW33448   3.756   6.755   6.993
10850SOL    HW133449   3.687   6.684   6.980
10850SOL    HW233450   3.748   6.823   6.920
10851SOL     OW33451   2.360   5.087   1.448
10851SOL    HW133452   2.365   5.095   1.348
10851SOL    HW233453   2.390   4.996   1.476
10852SOL     OW33454   2.191   1.726   1.244
10852SOL    HW133455   2.108   1.672   1.229
10852SOL    HW233456   2.241   1.690   1.323
10853SOL     OW33457   2.760   1.943   6.405
10853SOL    HW133458   2.767   2.040   6.426
10853SOL    HW233459   2.702   1.930   6.325
10854SOL     OW33460   4.623   6.247   5.433
10854SOL    HW133461   4.599   6.339   5.401
10854SOL    HW233462   4.548   6.210   5.488
10855SOL     OW33463   3.525   1.015   0.705
10855SOL    HW133464   3.485   0.997   0.615
10855SOL    HW233465   3.505   0.938   0.765
10856SOL     OW33466   0.084   1.109   0.407
10856SOL    HW133467   0.130   1.146   0.326
10856SOL    HW233468   0.000   1.062   0.378
10857SOL     OW33469   5.990   1.738   2.804
10857SOL    HW133470   5.915   1.794   2.770
10857SOL    HW233471   6.076   1.770   2.763
10858SOL     OW33472   2.624   5.853   1.262
10858SOL    HW133473   2.600   5.795   1.340
10858SOL    HW233474   2.700   5.914   1.287
10859SOL     OW33475   0.951   5.644   3.565
10859SOL    HW133476   0.954   5.552   3.526
10859SOL    HW233477   0.987   5.710   3.500
10860SOL     OW33478   6.775   2.922   3.090
10860SOL    HW133479   6.795   2.824   3.093
10860SOL    HW233480   6.700   2.942   3.154
10861SOL     OW33481   3.732   3.121   4.239
10861SOL    HW133482   3.664   3.078   4.299
10861SOL    HW233483   3.753   3.059   4.164
10862SOL     OW33484   1.329   0.343   4.902
10862SOL    HW133485   1.402   0.314   4.965
10862SOL    HW233486   1.264   0.268   4.892
10863SOL     OW33487   3.003   5.744   4.735
10863SOL    HW133488   3.003   5.829   4.683
10863SOL    HW233489   2.923   5.689   4.708
10864SOL     OW33490   3.518   6.112   2.892
10864SOL    HW133491   3.432   6.060   2.886
10864SOL    HW233492   3.501   6.198   2.940
10865SOL     OW33493   6.587   1.957   6.192
10865SOL    HW133494   6.660   1.973   6.125
10865SOL    HW233495   6.617   1.992   6.282
10866SOL     OW33496   5.418   4.630   0.494
10866SOL    HW133497   5.423   4.535   0.463
10866SOL    HW233498   5.325   4.665   0.479
10867SOL     OW33499   3.416   3.124   0.375
10867SOL    HW133500   3.441   3.038   0.331
10867SOL    HW233501   3.316   3.132   0.377
10868SOL     OW33502   3.198   1.622   2.950
10868SOL    HW133503   3.188   1.600   2.853
10868SOL    HW233504   3.272   1.688   2.962
10869NA      NA33505   6.397   2.386   5.390
10870NA      NA33506   4.353   4.506   5.315
10871NA      NA33507   2.203   3.635   1.497
10872NA      NA33508   4.873   3.826   5.130
10873NA      NA33509   4.126   2.330   5.302
10874NA      NA33510   3.780   4.784   1.762
10875NA      NA33511   6.769   5.825   5.683
10876NA      NA33512   3.955   3.443   4.998
10877NA      NA33513   4.792   6.691   7.015
10878NA      NA33514   3.507   6.975   5.392
10879NA      NA33515   6.419   4.828   2.097
10880NA      NA33516   2.126   0.532   2.898
10881NA      NA33517   3.258   4.406   0.867
10882NA      NA33518   3.486   3.665   2.956
   7.02034   7.02034   7.02034
