Generated by trjconv : CNT in water t= 185.00000
33518
    1C        C    1   2.849   2.775   4.748
    1C        C    2   2.901   2.722   4.868
    1C        C    3   2.840   2.766   4.986
    1C        C    4   2.848   2.776   4.261
    1C        C    5   2.901   2.730   4.384
    1C        C    6   2.845   2.774   4.506
    1C        C    7   3.018   2.648   4.625
    1C        C    8   2.901   2.726   4.626
    1C        C    9   3.077   2.605   4.746
    1C        C   10   3.008   2.629   4.867
    1C        C   11   3.181   2.491   4.974
    1C        C   12   3.060   2.562   4.978
    1C        C   13   2.851   2.773   3.774
    1C        C   14   2.901   2.724   3.896
    1C        C   15   2.851   2.776   4.017
    1C        C   16   3.019   2.648   4.139
    1C        C   17   2.905   2.732   4.140
    1C        C   18   3.082   2.618   4.262
    1C        C   19   3.016   2.649   4.383
    1C        C   20   3.212   2.560   4.505
    1C        C   21   3.081   2.613   4.504
    1C        C   22   3.280   2.536   4.627
    1C        C   23   3.209   2.552   4.748
    1C        C   24   3.414   2.481   4.863
    1C        C   25   3.272   2.500   4.864
    1C        C   26   3.489   2.483   4.981
    1C        C   27   2.849   2.767   3.284
    1C        C   28   2.907   2.724   3.405
    1C        C   29   2.855   2.771   3.528
    1C        C   30   3.023   2.648   3.651
    1C        C   31   2.908   2.729   3.652
    1C        C   32   3.081   2.610   3.774
    1C        C   33   3.015   2.641   3.895
    1C        C   34   3.211   2.558   4.019
    1C        C   35   3.080   2.610   4.017
    1C        C   36   3.280   2.538   4.141
    1C        C   37   3.212   2.563   4.262
    1C        C   38   3.420   2.520   4.383
    1C        C   39   3.280   2.540   4.383
    1C        C   40   3.492   2.509   4.504
    1C        C   41   3.418   2.510   4.625
    1C        C   42   3.633   2.484   4.743
    1C        C   43   3.491   2.489   4.744
    1C        C   44   3.707   2.483   4.863
    1C        C   45   3.628   2.478   4.979
    1C        C   46   2.842   2.759   2.794
    1C        C   47   2.895   2.714   2.917
    1C        C   48   2.843   2.763   3.039
    1C        C   49   3.020   2.645   3.162
    1C        C   50   2.902   2.722   3.161
    1C        C   51   3.084   2.612   3.284
    1C        C   52   3.023   2.643   3.407
    1C        C   53   3.215   2.555   3.529
    1C        C   54   3.084   2.609   3.530
    1C        C   55   3.280   2.534   3.653
    1C        C   56   3.212   2.557   3.775
    1C        C   57   3.421   2.521   3.894
    1C        C   58   3.281   2.540   3.897
    1C        C   59   3.490   2.513   4.017
    1C        C   60   3.418   2.507   4.139
    1C        C   61   3.630   2.508   4.261
    1C        C   62   3.489   2.504   4.261
    1C        C   63   3.703   2.510   4.381
    1C        C   64   3.633   2.497   4.503
    1C        C   65   3.842   2.539   4.622
    1C        C   66   3.707   2.497   4.623
    1C        C   67   3.909   2.554   4.745
    1C        C   68   3.843   2.519   4.865
    1C        C   69   4.054   2.579   4.980
    1C        C   70   3.922   2.530   4.980
    1C        C   71   2.826   2.737   2.308
    1C        C   72   2.881   2.695   2.431
    1C        C   73   2.829   2.746   2.552
    1C        C   74   3.012   2.631   2.674
    1C        C   75   2.894   2.709   2.672
    1C        C   76   3.075   2.597   2.796
    1C        C   77   3.013   2.636   2.917
    1C        C   78   3.210   2.557   3.036
    1C        C   79   3.078   2.607   3.039
    1C        C   80   3.278   2.535   3.158
    1C        C   81   3.214   2.556   3.282
    1C        C   82   3.418   2.509   3.403
    1C        C   83   3.279   2.533   3.405
    1C        C   84   3.488   2.504   3.526
    1C        C   85   3.419   2.509   3.649
    1C        C   86   3.630   2.502   3.770
    1C        C   87   3.489   2.504   3.771
    1C        C   88   3.699   2.512   3.893
    1C        C   89   3.631   2.513   4.016
    1C        C   90   3.838   2.548   4.136
    1C        C   91   3.701   2.514   4.139
    1C        C   92   3.909   2.564   4.257
    1C        C   93   3.841   2.541   4.379
    1C        C   94   4.033   2.632   4.503
    1C        C   95   3.909   2.565   4.500
    1C        C   96   4.091   2.673   4.625
    1C        C   97   4.031   2.627   4.744
    1C        C   98   4.187   2.766   4.863
    1C        C   99   4.101   2.651   4.866
    1C        C  100   4.215   2.840   4.979
    1C        C  101   2.813   2.725   2.074
    1C        C  102   2.994   2.593   2.193
    1C        C  103   2.877   2.677   2.189
    1C        C  104   3.063   2.573   2.315
    1C        C  105   3.000   2.619   2.433
    1C        C  106   3.203   2.541   2.552
    1C        C  107   3.071   2.593   2.552
    1C        C  108   3.274   2.521   2.672
    1C        C  109   3.206   2.545   2.794
    1C        C  110   3.415   2.500   2.914
    1C        C  111   3.276   2.527   2.915
    1C        C  112   3.486   2.495   3.036
    1C        C  113   3.417   2.510   3.158
    1C        C  114   3.629   2.499   3.280
    1C        C  115   3.487   2.496   3.280
    1C        C  116   3.697   2.511   3.403
    1C        C  117   3.629   2.500   3.527
    1C        C  118   3.838   2.541   3.646
    1C        C  119   3.701   2.507   3.648
    1C        C  120   3.903   2.565   3.769
    1C        C  121   3.838   2.542   3.892
    1C        C  122   4.032   2.632   4.014
    1C        C  123   3.904   2.573   4.013
    1C        C  124   4.094   2.665   4.136
    1C        C  125   4.034   2.629   4.259
    1C        C  126   4.204   2.757   4.378
    1C        C  127   4.093   2.671   4.381
    1C        C  128   4.250   2.816   4.498
    1C        C  129   4.196   2.768   4.620
    1C        C  130   4.325   2.934   4.743
    1C        C  131   4.243   2.818   4.743
    1C        C  132   4.349   3.006   4.861
    1C        C  133   4.285   2.960   4.977
    1C        C  134   3.176   2.474   2.083
    1C        C  135   3.040   2.510   2.086
    1C        C  136   3.263   2.482   2.192
    1C        C  137   3.196   2.523   2.310
    1C        C  138   3.407   2.483   2.430
    1C        C  139   3.269   2.512   2.430
    1C        C  140   3.483   2.484   2.549
    1C        C  141   3.412   2.491   2.671
    1C        C  142   3.625   2.489   2.790
    1C        C  143   3.484   2.486   2.792
    1C        C  144   3.696   2.501   2.912
    1C        C  145   3.628   2.493   3.035
    1C        C  146   3.834   2.538   3.158
    1C        C  147   3.698   2.500   3.157
    1C        C  148   3.902   2.564   3.279
    1C        C  149   3.835   2.544   3.401
    1C        C  150   4.027   2.633   3.521
    1C        C  151   3.902   2.566   3.523
    1C        C  152   4.088   2.669   3.643
    1C        C  153   4.027   2.633   3.766
    1C        C  154   4.196   2.758   3.889
    1C        C  155   4.085   2.670   3.889
    1C        C  156   4.253   2.803   4.010
    1C        C  157   4.206   2.752   4.133
    1C        C  158   4.338   2.919   4.251
    1C        C  159   4.254   2.805   4.255
    1C        C  160   4.373   2.981   4.372
    1C        C  161   4.333   2.930   4.498
    1C        C  162   4.435   3.115   4.615
    1C        C  163   4.370   2.989   4.621
    1C        C  164   4.465   3.184   4.734
    1C        C  165   4.426   3.124   4.856
    1C        C  166   4.518   3.317   4.971
    1C        C  167   4.472   3.186   4.973
    1C        C  168   3.477   2.435   2.074
    1C        C  169   3.403   2.461   2.190
    1C        C  170   3.619   2.475   2.306
    1C        C  171   3.478   2.463   2.309
    1C        C  172   3.695   2.486   2.425
    1C        C  173   3.624   2.486   2.547
    1C        C  174   3.831   2.543   2.668
    1C        C  175   3.695   2.505   2.668
    1C        C  176   3.897   2.567   2.791
    1C        C  177   3.833   2.536   2.913
    1C        C  178   4.023   2.629   3.034
    1C        C  179   3.900   2.560   3.035
    1C        C  180   4.087   2.664   3.156
    1C        C  181   4.030   2.625   3.279
    1C        C  182   4.202   2.752   3.400
    1C        C  183   4.092   2.664   3.400
    1C        C  184   4.252   2.803   3.521
    1C        C  185   4.202   2.753   3.644
    1C        C  186   4.337   2.915   3.768
    1C        C  187   4.250   2.803   3.767
    1C        C  188   4.375   2.979   3.887
    1C        C  189   4.334   2.919   4.008
    1C        C  190   4.441   3.105   4.130
    1C        C  191   4.373   2.982   4.129
    1C        C  192   4.461   3.174   4.252
    1C        C  193   4.432   3.109   4.374
    1C        C  194   4.509   3.313   4.492
    1C        C  195   4.465   3.178   4.493
    1C        C  196   4.523   3.386   4.612
    1C        C  197   4.512   3.318   4.735
    1C        C  198   4.549   3.535   4.852
    1C        C  199   4.531   3.393   4.854
    1C        C  200   4.577   3.619   4.966
    1C        C  201   3.616   2.418   2.075
    1C        C  202   3.829   2.513   2.182
    1C        C  203   3.693   2.468   2.184
    1C        C  204   3.901   2.539   2.302
    1C        C  205   3.832   2.517   2.423
    1C        C  206   4.021   2.620   2.545
    1C        C  207   3.897   2.553   2.544
    1C        C  208   4.087   2.655   2.664
    1C        C  209   4.025   2.626   2.788
    1C        C  210   4.197   2.747   2.909
    1C        C  211   4.085   2.662   2.911
    1C        C  212   4.253   2.793   3.030
    1C        C  213   4.202   2.746   3.154
    1C        C  214   4.339   2.909   3.275
    1C        C  215   4.253   2.797   3.276
    1C        C  216   4.372   2.972   3.397
    1C        C  217   4.339   2.915   3.522
    1C        C  218   4.429   3.104   3.641
    1C        C  219   4.374   2.974   3.645
    1C        C  220   4.462   3.169   3.762
    1C        C  221   4.442   3.103   3.885
    1C        C  222   4.500   3.307   4.006
    1C        C  223   4.471   3.168   4.007
    1C        C  224   4.511   3.379   4.127
    1C        C  225   4.493   3.311   4.249
    1C        C  226   4.513   3.524   4.367
    1C        C  227   4.512   3.383   4.370
    1C        C  228   4.514   3.598   4.488
    1C        C  229   4.524   3.527   4.610
    1C        C  230   4.497   3.742   4.728
    1C        C  231   4.530   3.603   4.729
    1C        C  232   4.495   3.820   4.846
    1C        C  233   4.548   3.756   4.958
    1C        C  234   4.018   2.615   2.061
    1C        C  235   3.897   2.546   2.064
    1C        C  236   4.086   2.645   2.179
    1C        C  237   4.025   2.609   2.301
    1C        C  238   4.201   2.732   2.420
    1C        C  239   4.083   2.652   2.422
    1C        C  240   4.251   2.784   2.541
    1C        C  241   4.198   2.743   2.665
    1C        C  242   4.335   2.906   2.786
    1C        C  243   4.249   2.794   2.786
    1C        C  244   4.379   2.962   2.908
    1C        C  245   4.340   2.904   3.031
    1C        C  246   4.440   3.094   3.150
    1C        C  247   4.378   2.966   3.152
    1C        C  248   4.459   3.163   3.272
    1C        C  249   4.432   3.099   3.395
    1C        C  250   4.488   3.305   3.518
    1C        C  251   4.453   3.168   3.517
    1C        C  252   4.503   3.374   3.640
    1C        C  253   4.495   3.307   3.764
    1C        C  254   4.520   3.519   3.880
    1C        C  255   4.511   3.378   3.885
    1C        C  256   4.513   3.591   4.002
    1C        C  257   4.514   3.520   4.124
    1C        C  258   4.487   3.734   4.243
    1C        C  259   4.508   3.594   4.245
    1C        C  260   4.469   3.805   4.363
    1C        C  261   4.489   3.737   4.485
    1C        C  262   4.424   3.941   4.605
    1C        C  263   4.474   3.809   4.606
    1C        C  264   4.398   4.013   4.723
    1C        C  265   4.430   3.945   4.843
    1C        C  266   4.318   4.131   4.957
    1C        C  267   4.397   4.017   4.959
    1C        C  268   4.261   2.779   2.064
    1C        C  269   4.198   2.732   2.181
    1C        C  270   4.348   2.889   2.301
    1C        C  271   4.257   2.779   2.299
    1C        C  272   4.385   2.953   2.422
    1C        C  273   4.345   2.890   2.542
    1C        C  274   4.448   3.080   2.663
    1C        C  275   4.380   2.957   2.661
    1C        C  276   4.471   3.153   2.782
    1C        C  277   4.444   3.087   2.903
    1C        C  278   4.497   3.293   3.025
    1C        C  279   4.467   3.155   3.025
    1C        C  280   4.504   3.366   3.146
    1C        C  281   4.490   3.301   3.270
    1C        C  282   4.511   3.511   3.391
    1C        C  283   4.500   3.370   3.393
    1C        C  284   4.514   3.582   3.513
    1C        C  285   4.516   3.515   3.637
    1C        C  286   4.488   3.727   3.754
    1C        C  287   4.512   3.588   3.757
    1C        C  288   4.470   3.797   3.875
    1C        C  289   4.489   3.730   3.999
    1C        C  290   4.427   3.935   4.115
    1C        C  291   4.473   3.802   4.120
    1C        C  292   4.398   4.002   4.237
    1C        C  293   4.416   3.936   4.360
    1C        C  294   4.326   4.128   4.477
    1C        C  295   4.387   4.001   4.482
    1C        C  296   4.289   4.193   4.597
    1C        C  297   4.329   4.137   4.720
    1C        C  298   4.197   4.314   4.841
    1C        C  299   4.281   4.198   4.840
    1C        C  300   4.168   4.401   4.951
    1C        C  301   4.352   2.883   2.066
    1C        C  302   4.472   3.069   2.175
    1C        C  303   4.402   2.944   2.182
    1C        C  304   4.481   3.141   2.297
    1C        C  305   4.445   3.081   2.420
    1C        C  306   4.510   3.284   2.536
    1C        C  307   4.474   3.147   2.541
    1C        C  308   4.517   3.356   2.657
    1C        C  309   4.502   3.291   2.781
    1C        C  310   4.527   3.503   2.901
    1C        C  311   4.511   3.362   2.903
    1C        C  312   4.517   3.576   3.022
    1C        C  313   4.511   3.507   3.145
    1C        C  314   4.484   3.717   3.264
    1C        C  315   4.510   3.578   3.267
    1C        C  316   4.472   3.790   3.385
    1C        C  317   4.490   3.721   3.507
    1C        C  318   4.429   3.926   3.628
    1C        C  319   4.475   3.792   3.629
    1C        C  320   4.395   3.991   3.748
    1C        C  321   4.423   3.930   3.872
    1C        C  322   4.323   4.119   3.990
    1C        C  323   4.397   3.999   3.993
    1C        C  324   4.282   4.177   4.112
    1C        C  325   4.324   4.122   4.235
    1C        C  326   4.188   4.288   4.354
    1C        C  327   4.285   4.187   4.354
    1C        C  328   4.139   4.342   4.475
    1C        C  329   4.196   4.299   4.597
    1C        C  330   4.027   4.437   4.714
    1C        C  331   4.140   4.351   4.716
    1C        C  332   3.972   4.496   4.830
    1C        C  333   4.054   4.482   4.942
    1C        C  334   4.555   3.267   2.060
    1C        C  335   4.540   3.128   2.064
    1C        C  336   4.538   3.349   2.173
    1C        C  337   4.510   3.280   2.293
    1C        C  338   4.524   3.495   2.413
    1C        C  339   4.519   3.354   2.413
    1C        C  340   4.514   3.568   2.533
    1C        C  341   4.516   3.498   2.656
    1C        C  342   4.491   3.709   2.774
    1C        C  343   4.518   3.570   2.777
    1C        C  344   4.481   3.783   2.894
    1C        C  345   4.492   3.715   3.017
    1C        C  346   4.424   3.915   3.137
    1C        C  347   4.471   3.782   3.140
    1C        C  348   4.393   3.982   3.258
    1C        C  349   4.424   3.923   3.382
    1C        C  350   4.322   4.107   3.501
    1C        C  351   4.398   3.988   3.505
    1C        C  352   4.282   4.168   3.622
    1C        C  353   4.322   4.112   3.746
    1C        C  354   4.177   4.269   3.866
    1C        C  355   4.280   4.172   3.866
    1C        C  356   4.124   4.318   3.988
    1C        C  357   4.183   4.278   4.110
    1C        C  358   4.014   4.408   4.230
    1C        C  359   4.132   4.330   4.231
    1C        C  360   3.954   4.447   4.351
    1C        C  361   4.021   4.420   4.473
    1C        C  362   3.831   4.520   4.592
    1C        C  363   3.961   4.467   4.592
    1C        C  364   3.766   4.554   4.712
    1C        C  365   3.842   4.550   4.831
    1C        C  366   3.632   4.596   4.948
    1C        C  367   3.771   4.584   4.947
    1C        C  368   4.505   3.563   2.052
    1C        C  369   4.526   3.489   2.170
    1C        C  370   4.503   3.704   2.288
    1C        C  371   4.524   3.564   2.290
    1C        C  372   4.480   3.776   2.407
    1C        C  373   4.496   3.708   2.530
    1C        C  374   4.425   3.909   2.651
    1C        C  375   4.477   3.778   2.651
    1C        C  376   4.397   3.978   2.771
    1C        C  377   4.433   3.916   2.893
    1C        C  378   4.323   4.099   3.013
    1C        C  379   4.397   3.979   3.014
    1C        C  380   4.275   4.155   3.134
    1C        C  381   4.320   4.103   3.257
    1C        C  382   4.177   4.260   3.376
    1C        C  383   4.277   4.160   3.378
    1C        C  384   4.126   4.311   3.498
    1C        C  385   4.182   4.268   3.620
    1C        C  386   4.008   4.390   3.742
    1C        C  387   4.125   4.312   3.742
    1C        C  388   3.946   4.432   3.862
    1C        C  389   4.007   4.398   3.985
    1C        C  390   3.820   4.493   4.106
    1C        C  391   3.950   4.437   4.108
    1C        C  392   3.755   4.520   4.229
    1C        C  393   3.825   4.504   4.351
    1C        C  394   3.618   4.556   4.474
    1C        C  395   3.757   4.530   4.472
    1C        C  396   3.548   4.569   4.596
    1C        C  397   3.626   4.573   4.714
    1C        C  398   3.414   4.554   4.840
    1C        C  399   3.553   4.578   4.835
    1C        C  400   3.346   4.513   4.956
    1C        C  401   4.501   3.702   2.050
    1C        C  402   4.453   3.913   2.163
    1C        C  403   4.491   3.777   2.168
    1C        C  404   4.413   3.976   2.283
    1C        C  405   4.436   3.910   2.406
    1C        C  406   4.329   4.095   2.525
    1C        C  407   4.402   3.974   2.527
    1C        C  408   4.282   4.152   2.645
    1C        C  409   4.325   4.100   2.769
    1C        C  410   4.178   4.254   2.890
    1C        C  411   4.277   4.153   2.890
    1C        C  412   4.123   4.303   3.011
    1C        C  413   4.174   4.254   3.134
    1C        C  414   4.001   4.378   3.254
    1C        C  415   4.123   4.306   3.254
    1C        C  416   3.946   4.420   3.377
    1C        C  417   4.012   4.394   3.499
    1C        C  418   3.815   4.477   3.618
    1C        C  419   3.945   4.424   3.620
    1C        C  420   3.748   4.503   3.740
    1C        C  421   3.816   4.487   3.863
    1C        C  422   3.611   4.536   3.988
    1C        C  423   3.750   4.512   3.985
    1C        C  424   3.543   4.539   4.111
    1C        C  425   3.616   4.546   4.232
    1C        C  426   3.404   4.550   4.356
    1C        C  427   3.545   4.557   4.353
    1C        C  428   3.336   4.542   4.479
    1C        C  429   3.407   4.557   4.600
    1C        C  430   3.198   4.513   4.724
    1C        C  431   3.337   4.544   4.722
    1C        C  432   3.126   4.494   4.846
    1C        C  433   3.208   4.499   4.959
    1C        C  434   4.388   4.123   2.055
    1C        C  435   4.444   3.995   2.050
    1C        C  436   4.302   4.161   2.164
    1C        C  437   4.339   4.097   2.286
    1C        C  438   4.186   4.253   2.401
    1C        C  439   4.287   4.154   2.404
    1C        C  440   4.127   4.295   2.522
    1C        C  441   4.177   4.247   2.646
    1C        C  442   4.009   4.378   2.762
    1C        C  443   4.126   4.298   2.767
    1C        C  444   3.947   4.414   2.884
    1C        C  445   4.005   4.379   3.008
    1C        C  446   3.812   4.470   3.130
    1C        C  447   3.941   4.412   3.130
    1C        C  448   3.748   4.494   3.253
    1C        C  449   3.814   4.472   3.376
    1C        C  450   3.607   4.524   3.496
    1C        C  451   3.746   4.500   3.497
    1C        C  452   3.538   4.537   3.619
    1C        C  453   3.609   4.532   3.741
    1C        C  454   3.401   4.537   3.865
    1C        C  455   3.542   4.546   3.865
    1C        C  456   3.333   4.528   3.988
    1C        C  457   3.402   4.534   4.112
    1C        C  458   3.194   4.505   4.236
    1C        C  459   3.333   4.533   4.235
    1C        C  460   3.131   4.485   4.361
    1C        C  461   3.198   4.512   4.482
    1C        C  462   3.001   4.431   4.602
    1C        C  463   3.130   4.489   4.603
    1C        C  464   2.935   4.399   4.723
    1C        C  465   2.991   4.448   4.845
    1C        C  466   2.805   4.339   4.961
    1C        C  467   2.916   4.425   4.965
    1C        C  468   4.121   4.282   2.040
    1C        C  469   4.184   4.241   2.158
    1C        C  470   4.009   4.371   2.279
    1C        C  471   4.128   4.292   2.279
    1C        C  472   3.944   4.404   2.400
    1C        C  473   4.008   4.370   2.521
    1C        C  474   3.815   4.469   2.641
    1C        C  475   3.944   4.410   2.641
    1C        C  476   3.746   4.488   2.762
    1C        C  477   3.815   4.465   2.883
    1C        C  478   3.610   4.519   3.009
    1C        C  479   3.748   4.488   3.005
    1C        C  480   3.539   4.529   3.131
    1C        C  481   3.610   4.523   3.253
    1C        C  482   3.395   4.531   3.377
    1C        C  483   3.536   4.529   3.374
    1C        C  484   3.324   4.531   3.499
    1C        C  485   3.397   4.542   3.620
    1C        C  486   3.192   4.497   3.745
    1C        C  487   3.330   4.531   3.743
    1C        C  488   3.128   4.473   3.869
    1C        C  489   3.196   4.492   3.992
    1C        C  490   3.003   4.412   4.115
    1C        C  491   3.128   4.479   4.114
    1C        C  492   2.946   4.379   4.239
    1C        C  493   3.003   4.424   4.360
    1C        C  494   2.832   4.299   4.481
    1C        C  495   2.940   4.389   4.482
    1C        C  496   2.780   4.252   4.604
    1C        C  497   2.825   4.310   4.725
    1C        C  498   2.673   4.164   4.846
    1C        C  499   2.759   4.276   4.845
    1C        C  500   2.599   4.120   4.957
    1C        C  501   4.007   4.361   2.038
    1C        C  502   3.820   4.466   2.157
    1C        C  503   3.948   4.406   2.157
    1C        C  504   3.745   4.476   2.276
    1C        C  505   3.814   4.459   2.398
    1C        C  506   3.607   4.512   2.518
    1C        C  507   3.746   4.487   2.519
    1C        C  508   3.537   4.512   2.641
    1C        C  509   3.607   4.509   2.763
    1C        C  510   3.398   4.523   2.887
    1C        C  511   3.539   4.521   2.887
    1C        C  512   3.327   4.513   3.009
    1C        C  513   3.398   4.522   3.130
    1C        C  514   3.189   4.493   3.254
    1C        C  515   3.328   4.520   3.253
    1C        C  516   3.122   4.471   3.376
    1C        C  517   3.187   4.497   3.499
    1C        C  518   2.996   4.416   3.622
    1C        C  519   3.124   4.475   3.624
    1C        C  520   2.940   4.378   3.746
    1C        C  521   3.003   4.408   3.868
    1C        C  522   2.835   4.286   3.995
    1C        C  523   2.943   4.376   3.992
    1C        C  524   2.788   4.236   4.119
    1C        C  525   2.833   4.293   4.240
    1C        C  526   2.694   4.132   4.362
    1C        C  527   2.781   4.243   4.361
    1C        C  528   2.652   4.079   4.487
    1C        C  529   2.689   4.144   4.606
    1C        C  530   2.585   3.961   4.731
    1C        C  531   2.649   4.088   4.729
    1C        C  532   2.543   3.904   4.855
    1C        C  533   2.528   3.999   4.961
    1C        C  534   3.618   4.559   2.039
    1C        C  535   3.751   4.515   2.045
    1C        C  536   3.537   4.534   2.155
    1C        C  537   3.606   4.504   2.275
    1C        C  538   3.393   4.519   2.400
    1C        C  539   3.535   4.518   2.397
    1C        C  540   3.324   4.508   2.522
    1C        C  541   3.395   4.512   2.644
    1C        C  542   3.187   4.479   2.767
    1C        C  543   3.325   4.509   2.767
    1C        C  544   3.120   4.462   2.890
    1C        C  545   3.189   4.485   3.011
    1C        C  546   2.994   4.404   3.136
    1C        C  547   3.120   4.467   3.133
    1C        C  548   2.934   4.369   3.259
    1C        C  549   2.995   4.411   3.379
    1C        C  550   2.832   4.277   3.505
    1C        C  551   2.936   4.372   3.502
    1C        C  552   2.780   4.232   3.628
    1C        C  553   2.832   4.286   3.748
    1C        C  554   2.700   4.126   3.873
    1C        C  555   2.783   4.240   3.872
    1C        C  556   2.666   4.063   3.995
    1C        C  557   2.706   4.121   4.117
    1C        C  558   2.602   3.941   4.246
    1C        C  559   2.662   4.068   4.240
    1C        C  560   2.576   3.880   4.371
    1C        C  561   2.594   3.951   4.492
    1C        C  562   2.531   3.748   4.616
    1C        C  563   2.563   3.886   4.614
    1C        C  564   2.515   3.681   4.739
    1C        C  565   2.522   3.762   4.855
    1C        C  566   2.536   3.551   4.979
    1C        C  567   2.528   3.690   4.975
    1C        C  568   3.330   4.468   2.043
    1C        C  569   3.397   4.512   2.158
    1C        C  570   3.185   4.470   2.279
    1C        C  571   3.322   4.509   2.279
    1C        C  572   3.118   4.450   2.402
    1C        C  573   3.188   4.470   2.523
    1C        C  574   2.986   4.409   2.648
    1C        C  575   3.117   4.460   2.645
    1C        C  576   2.931   4.366   2.771
    1C        C  577   2.992   4.401   2.893
    1C        C  578   2.822   4.275   3.017
    1C        C  579   2.931   4.366   3.015
    1C        C  580   2.776   4.224   3.140
    1C        C  581   2.827   4.277   3.261
    1C        C  582   2.696   4.111   3.385
    1C        C  583   2.779   4.225   3.384
    1C        C  584   2.661   4.053   3.509
    1C        C  585   2.700   4.116   3.629
    1C        C  586   2.599   3.934   3.756
    1C        C  587   2.661   4.061   3.754
    1C        C  588   2.574   3.872   3.880
    1C        C  589   2.601   3.937   4.003
    1C        C  590   2.541   3.735   4.128
    1C        C  591   2.574   3.873   4.125
    1C        C  592   2.531   3.671   4.253
    1C        C  593   2.535   3.745   4.373
    1C        C  594   2.509   3.535   4.498
    1C        C  595   2.517   3.676   4.495
    1C        C  596   2.515   3.464   4.620
    1C        C  597   2.511   3.539   4.739
    1C        C  598   2.530   3.331   4.862
    1C        C  599   2.525   3.472   4.863
    1C        C  600   2.532   3.253   4.978
    1C        C  601   3.197   4.432   2.041
    1C        C  602   2.984   4.391   2.161
    1C        C  603   3.119   4.438   2.157
    1C        C  604   2.922   4.363   2.286
    1C        C  605   2.985   4.402   2.406
    1C        C  606   2.819   4.271   2.529
    1C        C  607   2.923   4.367   2.528
    1C        C  608   2.771   4.220   2.651
    1C        C  609   2.824   4.273   2.771
    1C        C  610   2.684   4.116   2.896
    1C        C  611   2.774   4.225   2.894
    1C        C  612   2.648   4.056   3.019
    1C        C  613   2.695   4.109   3.141
    1C        C  614   2.589   3.926   3.266
    1C        C  615   2.657   4.050   3.264
    1C        C  616   2.562   3.866   3.391
    1C        C  617   2.588   3.932   3.513
    1C        C  618   2.529   3.731   3.638
    1C        C  619   2.562   3.868   3.637
    1C        C  620   2.521   3.664   3.762
    1C        C  621   2.533   3.737   3.883
    1C        C  622   2.508   3.527   4.009
    1C        C  623   2.521   3.668   4.005
    1C        C  624   2.513   3.457   4.132
    1C        C  625   2.514   3.531   4.252
    1C        C  626   2.540   3.325   4.380
    1C        C  627   2.511   3.463   4.377
    1C        C  628   2.558   3.255   4.501
    1C        C  629   2.541   3.325   4.623
    1C        C  630   2.594   3.119   4.745
    1C        C  631   2.552   3.255   4.745
    1C        C  632   2.622   3.053   4.868
    1C        C  633   2.565   3.117   4.983
    1C        C  634   2.780   4.307   2.055
    1C        C  635   2.894   4.389   2.050
    1C        C  636   2.743   4.234   2.169
    1C        C  637   2.809   4.276   2.286
    1C        C  638   2.679   4.110   2.411
    1C        C  639   2.764   4.223   2.408
    1C        C  640   2.641   4.047   2.532
    1C        C  641   2.686   4.107   2.652
    1C        C  642   2.583   3.926   2.779
    1C        C  643   2.645   4.053   2.776
    1C        C  644   2.559   3.859   2.901
    1C        C  645   2.588   3.928   3.021
    1C        C  646   2.532   3.724   3.148
    1C        C  647   2.564   3.861   3.143
    1C        C  648   2.515   3.656   3.271
    1C        C  649   2.529   3.729   3.392
    1C        C  650   2.507   3.520   3.517
    1C        C  651   2.519   3.661   3.515
    1C        C  652   2.516   3.453   3.641
    1C        C  653   2.515   3.523   3.763
    1C        C  654   2.533   3.316   3.890
    1C        C  655   2.510   3.455   3.887
    1C        C  656   2.550   3.248   4.013
    1C        C  657   2.534   3.318   4.135
    1C        C  658   2.604   3.121   4.260
    1C        C  659   2.555   3.254   4.259
    1C        C  660   2.630   3.055   4.382
    1C        C  661   2.594   3.119   4.502
    1C        C  662   2.710   2.940   4.626
    1C        C  663   2.631   3.057   4.624
    1C        C  664   2.755   2.882   4.746
    1C        C  665   2.699   2.932   4.867
    1C        C  666   2.743   2.866   4.982
    1C        C  667   2.676   4.026   2.055
    1C        C  668   2.680   4.107   2.169
    1C        C  669   2.591   3.913   2.293
    1C        C  670   2.645   4.044   2.291
    1C        C  671   2.559   3.848   2.415
    1C        C  672   2.583   3.918   2.535
    1C        C  673   2.525   3.718   2.662
    1C        C  674   2.561   3.854   2.659
    1C        C  675   2.511   3.650   2.785
    1C        C  676   2.530   3.721   2.905
    1C        C  677   2.506   3.511   3.032
    1C        C  678   2.520   3.652   3.027
    1C        C  679   2.506   3.441   3.154
    1C        C  680   2.508   3.515   3.275
    1C        C  681   2.530   3.305   3.401
    1C        C  682   2.511   3.445   3.397
    1C        C  683   2.551   3.241   3.525
    1C        C  684   2.538   3.314   3.646
    1C        C  685   2.604   3.114   3.770
    1C        C  686   2.554   3.246   3.769
    1C        C  687   2.634   3.054   3.894
    1C        C  688   2.601   3.117   4.016
    1C        C  689   2.712   2.937   4.138
    1C        C  690   2.631   3.053   4.139
    1C        C  691   2.754   2.882   4.261
    1C        C  692   2.708   2.937   4.383
    1C        C  693   2.753   2.881   4.504
    1C        C  694   2.632   3.893   2.055
    1C        C  695   2.528   3.708   2.178
    1C        C  696   2.582   3.838   2.174
    1C        C  697   2.510   3.639   2.300
    1C        C  698   2.522   3.712   2.420
    1C        C  699   2.488   3.505   2.543
    1C        C  700   2.502   3.645   2.543
    1C        C  701   2.500   3.436   2.666
    1C        C  702   2.502   3.509   2.787
    1C        C  703   2.536   3.301   2.915
    1C        C  704   2.508   3.440   2.910
    1C        C  705   2.550   3.232   3.037
    1C        C  706   2.527   3.301   3.159
    1C        C  707   2.597   3.101   3.282
    1C        C  708   2.545   3.232   3.281
    1C        C  709   2.629   3.041   3.406
    1C        C  710   2.600   3.108   3.527
    1C        C  711   2.709   2.929   3.649
    1C        C  712   2.630   3.046   3.650
    1C        C  713   2.754   2.876   3.773
    1C        C  714   2.710   2.934   3.894
    1C        C  715   2.756   2.881   4.016
    1C        C  716   2.452   3.501   2.062
    1C        C  717   2.490   3.636   2.064
    1C        C  718   2.460   3.425   2.183
    1C        C  719   2.479   3.500   2.303
    1C        C  720   2.507   3.289   2.426
    1C        C  721   2.485   3.428   2.424
    1C        C  722   2.533   3.224   2.549
    1C        C  723   2.526   3.297   2.669
    1C        C  724   2.593   3.098   2.792
    1C        C  725   2.548   3.232   2.793
    1C        C  726   2.620   3.033   2.914
    1C        C  727   2.593   3.098   3.037
    1C        C  728   2.706   2.919   3.160
    1C        C  729   2.628   3.038   3.159
    1C        C  730   2.754   2.872   3.284
    1C        C  731   2.709   2.925   3.407
    1C        C  732   2.755   2.871   3.529
    1C        C  733   2.495   3.202   2.076
    1C        C  734   2.485   3.284   2.189
    1C        C  735   2.579   3.084   2.306
    1C        C  736   2.521   3.214   2.307
    1C        C  737   2.606   3.019   2.428
    1C        C  738   2.584   3.092   2.547
    1C        C  739   2.697   2.914   2.669
    1C        C  740   2.618   3.031   2.670
    1C        C  741   2.743   2.859   2.790
    1C        C  742   2.701   2.917   2.912
    1C        C  743   2.747   2.866   3.036
    1C        C  744   2.548   3.073   2.074
    1C        C  745   2.689   2.900   2.184
    1C        C  746   2.613   3.019   2.185
    1C        C  747   2.731   2.843   2.306
    1C        C  748   2.687   2.903   2.426
    1C        C  749   2.734   2.850   2.548
    1C        C  750   2.736   2.839   2.067
    1C        C  751   3.664   2.304   1.992
    1C        O  752   3.709   2.196   2.038
    1C        O  753   3.716   2.340   1.867
    1C        C  754   4.640   3.052   1.986
    1C        O  755   4.621   3.008   1.869
    1C        O  756   4.771   3.034   2.033
    1C        C  757   4.484   4.220   1.999
    1C        O  758   4.574   4.282   2.062
    1C        O  759   4.491   4.224   1.859
    1C        C  760   3.590   4.679   1.958
    1C        O  761   3.569   4.787   2.020
    1C        O  762   3.527   4.681   1.833
    1C        C  763   2.896   4.489   1.941
    1C        O  764   2.938   4.456   1.827
    1C        O  765   2.831   4.613   1.949
    1C        C  766   2.346   3.470   1.964
    1C        O  767   2.373   3.477   1.841
    1C        O  768   2.210   3.470   1.999
    1C        C  769   4.679   3.586   5.067
    1C        O  770   4.651   3.549   5.184
    1C        O  771   4.816   3.610   5.047
    1C        C  772   4.280   4.461   5.026
    1C        O  773   4.311   4.415   5.139
    1C        O  774   4.380   4.543   4.972
    1C        C  775   4.139   2.478   5.046
    1C        O  776   4.170   2.363   5.005
    1C        O  777   4.152   2.488   5.185
    1C        C  778   2.902   4.526   5.073
    1C        O  779   2.817   4.618   5.065
    1C        O  780   2.952   4.513   5.203
    1C        C  781   2.479   3.044   5.078
    1C        O  782   2.354   3.049   5.057
    1C        O  783   2.504   3.056   5.215
    1C        C  784   2.410   3.996   5.050
    1C        O  785   2.298   4.052   5.033
    1C        O  786   2.421   3.943   5.179
    1C        C  787   2.952   2.421   2.007
    1C        O  788   2.908   2.457   1.894
    1C        O  789   2.953   2.283   2.023
    1C        C  790   3.177   2.357   5.038
    1C        O  791   3.096   2.266   5.003
    1C        O  792   3.224   2.353   5.170
    1C        H  793   4.274   3.018   5.066
    1C        H  794   4.196   2.795   5.074
    1C        H  795   4.502   3.122   5.053
    1C        H  796   4.583   3.338   5.054
    1C        H  797   4.540   3.806   5.052
    1C        H  798   4.432   3.989   5.056
    1C        H  799   4.316   4.191   5.046
    1C        H  800   4.031   4.541   5.029
    1C        H  801   3.828   4.597   5.037
    1C        H  802   3.592   4.658   5.026
    1C        H  803   3.404   4.474   5.037
    1C        H  804   3.161   4.515   5.054
    1C        H  805   3.886   2.486   5.072
    1C        H  806   3.677   2.449   5.070
    1C        H  807   2.990   2.539   5.056
    1C        H  808   3.443   2.494   5.077
    1C        H  809   2.845   2.720   5.082
    1C        H  810   2.697   2.891   5.076
    1C        H  811   2.480   3.295   5.062
    1C        H  812   2.592   3.512   5.061
    1C        H  813   2.514   3.743   5.067
    1C        H  814   2.583   4.190   5.036
    1C        H  815   2.728   4.371   5.027
    1C        H  816   2.666   2.841   1.985
    1C        H  817   2.863   2.701   1.983
    1C        H  818   3.220   2.483   1.986
    1C        H  819   3.431   2.417   1.979
    1C        H  820   3.883   2.479   1.982
    1C        H  821   4.071   2.630   1.969
    1C        H  822   4.248   2.735   1.968
    1C        H  823   4.376   2.923   1.969
    1C        H  824   4.568   3.314   1.965
    1C        H  825   4.478   3.513   1.961
    1C        H  826   4.531   3.754   1.962
    1C        H  827   3.804   4.518   1.952
    1C        H  828   4.010   4.430   1.956
    1C        H  829   4.150   4.235   1.948
    1C        H  830   4.502   3.970   1.964
    1C        H  831   2.692   3.833   1.990
    1C        H  832   2.729   4.053   1.966
    1C        H  833   2.723   4.307   1.965
    1C        H  834   3.369   4.504   1.949
    1C        H  835   3.150   4.433   1.945
    1C        H  836   2.571   3.029   1.979
    1C        H  837   2.415   3.213   2.006
    1C        H  838   2.515   3.680   1.970
    2V3OU   H29  839   2.801   3.556   1.943
    2V3OU   C27  840   2.783   3.503   2.039
    2V3OU   H27  841   2.729   3.566   2.114
    2V3OU   H28  842   2.737   3.402   2.021
    2V3OU   O11  843   2.904   3.479   2.112
    2V3OU   C15  844   2.920   3.401   2.224
    2V3OU   C13  845   3.050   3.378   2.276
    2V3OU   C14  846   3.076   3.273   2.364
    2V3OU   C16  847   2.977   3.186   2.409
    2V3OU    H6  848   2.992   3.095   2.468
    2V3OU   C12  849   3.214   3.235   2.400
    2V3OU    O2  850   3.237   3.128   2.461
    2V3OU   C10  851   3.324   3.302   2.329
    2V3OU    C8  852   3.455   3.266   2.355
    2V3OU   O10  853   3.486   3.150   2.421
    2V3OU   H26  854   3.404   3.117   2.460
    2V3OU    C6  855   3.564   3.350   2.316
    2V3OU    C5  856   3.539   3.468   2.246
    2V3OU    C4  857   3.702   3.296   2.326
    2V3OU    H4  858   3.725   3.235   2.418
    2V3OU    H5  859   3.715   3.227   2.238
    2V3OU    C2  860   3.817   3.397   2.323
    2V3OU    O6  861   3.811   3.476   2.442
    2V3OU   H21  862   3.766   3.559   2.418
    2V3OU    C3  863   3.781   3.494   2.210
    2V3OU    H2  864   3.856   3.576   2.196
    2V3OU    H3  865   3.782   3.437   2.114
    2V3OU   C25  866   3.952   3.327   2.308
    2V3OU    O7  867   4.000   3.295   2.199
    2V3OU   C26  868   4.034   3.295   2.432
    2V3OU   H22  869   4.063   3.383   2.494
    2V3OU   H23  870   4.122   3.229   2.406
    2V3OU    O8  871   3.967   3.212   2.524
    2V3OU   H24  872   3.938   3.260   2.603
    2V3OU    C1  873   3.649   3.567   2.222
    2V3OU    H1  874   3.626   3.623   2.126
    2V3OU    O3  875   3.657   3.655   2.334
    2V3OU   C19  876   3.622   3.794   2.339
    2V3OU    H9  877   3.523   3.801   2.283
    2V3OU    O4  878   3.712   3.856   2.249
    2V3OU   C20  879   3.846   3.873   2.297
    2V3OU   H10  880   3.891   3.771   2.308
    2V3OU   C24  881   3.615   3.858   2.477
    2V3OU   H16  882   3.555   3.792   2.545
    2V3OU   H17  883   3.563   3.956   2.467
    2V3OU   C23  884   3.756   3.876   2.533
    2V3OU   H15  885   3.797   3.772   2.558
    2V3OU    N1  886   3.740   3.959   2.651
    2V3OU   H19  887   3.807   3.927   2.718
    2V3OU   H20  888   3.654   3.934   2.695
    2V3OU   C21  889   3.850   3.947   2.431
    2V3OU   H11  890   3.956   3.923   2.463
    2V3OU    O5  891   3.831   4.088   2.432
    2V3OU   H18  892   3.781   4.107   2.514
    2V3OU   C22  893   3.913   3.947   2.182
    2V3OU   H12  894   3.862   4.046   2.165
    2V3OU   H13  895   3.907   3.889   2.087
    2V3OU   H14  896   4.022   3.962   2.201
    2V3OU   C11  897   3.158   3.468   2.235
    2V3OU    O1  898   3.136   3.590   2.215
    2V3OU    C9  899   3.297   3.425   2.262
    2V3OU    C7  900   3.403   3.503   2.219
    2V3OU    O9  901   3.385   3.616   2.141
    2V3OU   H25  902   3.288   3.625   2.146
    2V3OU   C17  903   2.823   3.318   2.284
    2V3OU    H7  904   2.720   3.339   2.253
    2V3OU   C18  905   2.846   3.211   2.370
    2V3OU    H8  906   2.776   3.161   2.438
    3SOL     OW  907   3.181   4.641   0.487
    3SOL    HW1  908   3.206   4.607   0.397
    3SOL    HW2  909   3.244   4.603   0.555
    4SOL     OW  910   6.562   6.167   1.652
    4SOL    HW1  911   6.632   6.127   1.593
    4SOL    HW2  912   6.481   6.191   1.598
    5SOL     OW  913   3.841   1.762   3.020
    5SOL    HW1  914   3.791   1.719   2.944
    5SOL    HW2  915   3.862   1.693   3.089
    6SOL     OW  916   4.386   1.490   1.300
    6SOL    HW1  917   4.371   1.496   1.399
    6SOL    HW2  918   4.484   1.501   1.281
    7SOL     OW  919   6.412   3.374   2.145
    7SOL    HW1  920   6.323   3.360   2.189
    7SOL    HW2  921   6.479   3.312   2.185
    8SOL     OW  922   2.800   0.041   6.080
    8SOL    HW1  923   2.721   0.102   6.068
    8SOL    HW2  924   2.843   0.024   5.991
    9SOL     OW  925   6.711   5.727   5.796
    9SOL    HW1  926   6.626   5.692   5.757
    9SOL    HW2  927   6.772   5.651   5.818
   10SOL     OW  928   0.729   4.679   6.163
   10SOL    HW1  929   0.723   4.697   6.065
   10SOL    HW2  930   0.652   4.723   6.209
   11SOL     OW  931   2.848   0.234   0.147
   11SOL    HW1  932   2.798   0.279   0.072
   11SOL    HW2  933   2.920   0.176   0.108
   12SOL     OW  934   3.845   6.226   4.403
   12SOL    HW1  935   3.901   6.275   4.469
   12SOL    HW2  936   3.750   6.223   4.435
   13SOL     OW  937   3.200   5.491   3.847
   13SOL    HW1  938   3.263   5.417   3.821
   13SOL    HW2  939   3.157   5.467   3.934
   14SOL     OW  940   5.233   5.651   6.397
   14SOL    HW1  941   5.180   5.625   6.478
   14SOL    HW2  942   5.197   5.737   6.360
   15SOL     OW  943   0.754   5.388   0.779
   15SOL    HW1  944   0.655   5.379   0.777
   15SOL    HW2  945   0.784   5.411   0.872
   16SOL     OW  946   5.535   3.172   5.522
   16SOL    HW1  947   5.633   3.187   5.537
   16SOL    HW2  948   5.520   3.152   5.425
   17SOL     OW  949   5.500   6.272   5.799
   17SOL    HW1  950   5.452   6.338   5.741
   17SOL    HW2  951   5.558   6.214   5.743
   18SOL     OW  952   3.407   1.147   5.902
   18SOL    HW1  953   3.430   1.149   5.804
   18SOL    HW2  954   3.404   1.052   5.934
   19SOL     OW  955   0.453   6.935   3.246
   19SOL    HW1  956   0.487   6.840   3.242
   19SOL    HW2  957   0.501   6.984   3.319
   20SOL     OW  958   4.829   2.284   4.570
   20SOL    HW1  959   4.779   2.260   4.487
   20SOL    HW2  960   4.925   2.258   4.560
   21SOL     OW  961   3.202   2.113   2.370
   21SOL    HW1  962   3.117   2.136   2.322
   21SOL    HW2  963   3.249   2.039   2.321
   22SOL     OW  964   2.312   6.972   0.392
   22SOL    HW1  965   2.339   7.003   0.483
   22SOL    HW2  966   2.380   6.906   0.359
   23SOL     OW  967   4.622   6.575   3.439
   23SOL    HW1  968   4.526   6.564   3.410
   23SOL    HW2  969   4.628   6.568   3.538
   24SOL     OW  970   5.153   1.234   2.907
   24SOL    HW1  971   5.216   1.274   2.973
   24SOL    HW2  972   5.093   1.168   2.953
   25SOL     OW  973   3.332   6.516   5.247
   25SOL    HW1  974   3.422   6.522   5.205
   25SOL    HW2  975   3.283   6.603   5.235
   26SOL     OW  976   6.307   1.357   0.539
   26SOL    HW1  977   6.377   1.376   0.608
   26SOL    HW2  978   6.289   1.441   0.486
   27SOL     OW  979   0.549   1.628   1.608
   27SOL    HW1  980   0.558   1.599   1.513
   27SOL    HW2  981   0.544   1.728   1.612
   28SOL     OW  982   3.613   1.554   0.089
   28SOL    HW1  983   3.556   1.536   0.009
   28SOL    HW2  984   3.701   1.507   0.079
   29SOL     OW  985   5.221   3.473   1.771
   29SOL    HW1  986   5.204   3.395   1.712
   29SOL    HW2  987   5.224   3.557   1.716
   30SOL     OW  988   3.804   0.717   4.591
   30SOL    HW1  989   3.817   0.694   4.494
   30SOL    HW2  990   3.706   0.716   4.612
   31SOL     OW  991   0.806   1.786   5.958
   31SOL    HW1  992   0.797   1.696   5.917
   31SOL    HW2  993   0.879   1.837   5.912
   32SOL     OW  994   0.105   1.618   3.002
   32SOL    HW1  995   0.203   1.638   2.997
   32SOL    HW2  996   0.057   1.672   2.932
   33SOL     OW  997   2.256   3.838   0.060
   33SOL    HW1  998   2.262   3.907   7.013
   33SOL    HW2  999   2.162   3.831   0.091
   34SOL     OW 1000   2.315   1.765   2.991
   34SOL    HW1 1001   2.325   1.833   2.919
   34SOL    HW2 1002   2.222   1.768   3.027
   35SOL     OW 1003   3.437   2.810   6.972
   35SOL    HW1 1004   3.467   2.719   6.943
   35SOL    HW2 1005   3.388   2.855   6.898
   36SOL     OW 1006   6.738   0.554   5.941
   36SOL    HW1 1007   6.807   0.613   5.898
   36SOL    HW2 1008   6.728   0.581   6.037
   37SOL     OW 1009   1.455   0.040   0.654
   37SOL    HW1 1010   1.363   0.027   0.616
   37SOL    HW2 1011   1.447   0.073   0.748
   38SOL     OW 1012   6.938   4.821   2.448
   38SOL    HW1 1013   6.936   4.734   2.399
   38SOL    HW2 1014   6.999   4.885   2.401
   39SOL     OW 1015   6.427   5.001   6.544
   39SOL    HW1 1016   6.445   5.048   6.631
   39SOL    HW2 1017   6.351   4.937   6.556
   40SOL     OW 1018   5.498   2.318   1.235
   40SOL    HW1 1019   5.461   2.390   1.177
   40SOL    HW2 1020   5.595   2.334   1.251
   41SOL     OW 1021   6.900   6.780   3.862
   41SOL    HW1 1022   6.998   6.796   3.874
   41SOL    HW2 1023   6.883   6.681   3.858
   42SOL     OW 1024   2.355   5.476   5.490
   42SOL    HW1 1025   2.329   5.504   5.398
   42SOL    HW2 1026   2.446   5.433   5.488
   43SOL     OW 1027   5.377   6.541   5.119
   43SOL    HW1 1028   5.424   6.618   5.161
   43SOL    HW2 1029   5.383   6.461   5.179
   44SOL     OW 1030   5.808   1.775   6.342
   44SOL    HW1 1031   5.862   1.696   6.312
   44SOL    HW2 1032   5.718   1.772   6.298
   45SOL     OW 1033   3.362   6.782   3.238
   45SOL    HW1 1034   3.455   6.749   3.252
   45SOL    HW2 1035   3.331   6.830   3.321
   46SOL     OW 1036   1.237   3.394   3.670
   46SOL    HW1 1037   1.318   3.443   3.705
   46SOL    HW2 1038   1.225   3.415   3.573
   47SOL     OW 1039   4.932   4.780   1.561
   47SOL    HW1 1040   4.927   4.834   1.477
   47SOL    HW2 1041   4.901   4.687   1.543
   48SOL     OW 1042   6.827   2.779   6.348
   48SOL    HW1 1043   6.759   2.706   6.350
   48SOL    HW2 1044   6.804   2.844   6.275
   49SOL     OW 1045   4.768   4.151   1.907
   49SOL    HW1 1046   4.726   4.222   1.963
   49SOL    HW2 1047   4.721   4.146   1.819
   50SOL     OW 1048   6.794   2.505   5.535
   50SOL    HW1 1049   6.722   2.569   5.508
   50SOL    HW2 1050   6.806   2.508   5.634
   51SOL     OW 1051   3.261   6.231   2.161
   51SOL    HW1 1052   3.206   6.155   2.194
   51SOL    HW2 1053   3.220   6.270   2.079
   52SOL     OW 1054   5.374   2.532   3.414
   52SOL    HW1 1055   5.412   2.530   3.321
   52SOL    HW2 1056   5.334   2.622   3.432
   53SOL     OW 1057   4.241   6.891   4.913
   53SOL    HW1 1058   4.218   6.945   4.832
   53SOL    HW2 1059   4.243   6.794   4.889
   54SOL     OW 1060   3.891   4.640   0.870
   54SOL    HW1 1061   3.835   4.682   0.799
   54SOL    HW2 1062   3.832   4.600   0.940
   55SOL     OW 1063   3.159   1.397   6.155
   55SOL    HW1 1064   3.146   1.333   6.231
   55SOL    HW2 1065   3.112   1.362   6.074
   56SOL     OW 1066   0.183   0.130   1.005
   56SOL    HW1 1067   0.224   0.053   1.053
   56SOL    HW2 1068   0.088   0.141   1.035
   57SOL     OW 1069   5.222   0.718   0.640
   57SOL    HW1 1070   5.149   0.689   0.577
   57SOL    HW2 1071   5.234   0.817   0.633
   58SOL     OW 1072   6.393   6.771   6.036
   58SOL    HW1 1073   6.295   6.767   6.021
   58SOL    HW2 1074   6.436   6.828   5.966
   59SOL     OW 1075   1.398   1.138   5.797
   59SOL    HW1 1076   1.494   1.163   5.787
   59SOL    HW2 1077   1.349   1.214   5.840
   60SOL     OW 1078   5.454   1.122   5.865
   60SOL    HW1 1079   5.387   1.156   5.930
   60SOL    HW2 1080   5.546   1.143   5.898
   61SOL     OW 1081   5.151   1.727   4.893
   61SOL    HW1 1082   5.246   1.706   4.916
   61SOL    HW2 1083   5.091   1.660   4.937
   62SOL     OW 1084   0.142   0.865   3.140
   62SOL    HW1 1085   0.079   0.894   3.212
   62SOL    HW2 1086   0.214   0.809   3.181
   63SOL     OW 1087   5.459   1.722   4.013
   63SOL    HW1 1088   5.377   1.777   4.032
   63SOL    HW2 1089   5.469   1.711   3.914
   64SOL     OW 1090   0.514   3.658   6.111
   64SOL    HW1 1091   0.518   3.586   6.042
   64SOL    HW2 1092   0.567   3.630   6.191
   65SOL     OW 1093   6.597   4.969   5.081
   65SOL    HW1 1094   6.529   4.989   5.151
   65SOL    HW2 1095   6.687   4.960   5.123
   66SOL     OW 1096   3.833   0.861   6.363
   66SOL    HW1 1097   3.812   0.923   6.289
   66SOL    HW2 1098   3.778   0.778   6.354
   67SOL     OW 1099   5.224   4.390   5.555
   67SOL    HW1 1100   5.127   4.373   5.572
   67SOL    HW2 1101   5.259   4.454   5.624
   68SOL     OW 1102   5.482   0.826   6.722
   68SOL    HW1 1103   5.404   0.819   6.785
   68SOL    HW2 1104   5.515   0.734   6.700
   69SOL     OW 1105   0.923   3.594   6.705
   69SOL    HW1 1106   0.877   3.639   6.628
   69SOL    HW2 1107   0.994   3.533   6.669
   70SOL     OW 1108   5.627   4.950   3.884
   70SOL    HW1 1109   5.691   4.899   3.942
   70SOL    HW2 1110   5.634   4.916   3.790
   71SOL     OW 1111   4.361   1.460   2.972
   71SOL    HW1 1112   4.326   1.405   2.896
   71SOL    HW2 1113   4.406   1.542   2.937
   72SOL     OW 1114   2.607   5.973   4.885
   72SOL    HW1 1115   2.545   6.007   4.957
   72SOL    HW2 1116   2.657   5.894   4.919
   73SOL     OW 1117   3.759   0.756   0.643
   73SOL    HW1 1118   3.786   0.821   0.714
   73SOL    HW2 1119   3.705   0.682   0.684
   74SOL     OW 1120   5.248   6.512   6.157
   74SOL    HW1 1121   5.331   6.462   6.180
   74SOL    HW2 1122   5.232   6.585   6.224
   75SOL     OW 1123   3.910   0.181   6.748
   75SOL    HW1 1124   3.815   0.197   6.724
   75SOL    HW2 1125   3.916   0.156   6.845
   76SOL     OW 1126   2.516   2.550   0.948
   76SOL    HW1 1127   2.449   2.477   0.936
   76SOL    HW2 1128   2.487   2.610   1.023
   77SOL     OW 1129   6.283   6.233   3.948
   77SOL    HW1 1130   6.206   6.252   4.009
   77SOL    HW2 1131   6.316   6.318   3.909
   78SOL     OW 1132   5.785   0.681   5.883
   78SOL    HW1 1133   5.737   0.769   5.891
   78SOL    HW2 1134   5.737   0.623   5.817
   79SOL     OW 1135   2.862   6.920   0.248
   79SOL    HW1 1136   2.795   6.993   0.235
   79SOL    HW2 1137   2.898   6.891   0.160
   80SOL     OW 1138   5.368   2.086   4.349
   80SOL    HW1 1139   5.432   2.057   4.279
   80SOL    HW2 1140   5.353   2.010   4.413
   81SOL     OW 1141   2.006   0.412   3.246
   81SOL    HW1 1142   2.053   0.326   3.231
   81SOL    HW2 1143   1.941   0.428   3.172
   82SOL     OW 1144   6.653   4.822   0.627
   82SOL    HW1 1145   6.655   4.871   0.715
   82SOL    HW2 1146   6.613   4.732   0.641
   83SOL     OW 1147   0.753   0.645   0.544
   83SOL    HW1 1148   0.665   0.628   0.499
   83SOL    HW2 1149   0.741   0.713   0.615
   84SOL     OW 1150   5.326   2.938   3.660
   84SOL    HW1 1151   5.315   2.868   3.730
   84SOL    HW2 1152   5.351   3.025   3.703
   85SOL     OW 1153   1.959   1.567   4.595
   85SOL    HW1 1154   1.973   1.620   4.678
   85SOL    HW2 1155   2.036   1.581   4.533
   86SOL     OW 1156   0.073   0.522   5.086
   86SOL    HW1 1157   0.084   0.509   5.184
   86SOL    HW2 1158   0.051   0.434   5.043
   87SOL     OW 1159   5.136   3.489   0.652
   87SOL    HW1 1160   5.046   3.526   0.676
   87SOL    HW2 1161   5.128   3.391   0.635
   88SOL     OW 1162   3.610   1.680   6.422
   88SOL    HW1 1163   3.616   1.580   6.429
   88SOL    HW2 1164   3.685   1.714   6.366
   89SOL     OW 1165   0.878   2.237   5.484
   89SOL    HW1 1166   0.854   2.146   5.517
   89SOL    HW2 1167   0.970   2.235   5.446
   90SOL     OW 1168   4.139   6.488   2.906
   90SOL    HW1 1169   4.123   6.474   2.808
   90SOL    HW2 1170   4.083   6.564   2.938
   91SOL     OW 1171   4.611   4.443   5.036
   91SOL    HW1 1172   4.637   4.355   5.076
   91SOL    HW2 1173   4.526   4.433   4.984
   92SOL     OW 1174   3.358   3.913   0.321
   92SOL    HW1 1175   3.430   3.870   0.267
   92SOL    HW2 1176   3.349   3.866   0.409
   93SOL     OW 1177   2.567   3.710   6.469
   93SOL    HW1 1178   2.516   3.627   6.492
   93SOL    HW2 1179   2.574   3.719   6.370
   94SOL     OW 1180   2.644   6.025   5.938
   94SOL    HW1 1181   2.569   6.025   5.872
   94SOL    HW2 1182   2.687   6.116   5.939
   95SOL     OW 1183   1.403   0.722   2.910
   95SOL    HW1 1184   1.357   0.792   2.965
   95SOL    HW2 1185   1.340   0.647   2.892
   96SOL     OW 1186   3.530   0.298   4.784
   96SOL    HW1 1187   3.491   0.212   4.817
   96SOL    HW2 1188   3.457   0.353   4.742
   97SOL     OW 1189   2.032   3.412   5.944
   97SOL    HW1 1190   2.089   3.355   5.885
   97SOL    HW2 1191   1.984   3.481   5.889
   98SOL     OW 1192   6.534   4.077   0.691
   98SOL    HW1 1193   6.500   4.168   0.668
   98SOL    HW2 1194   6.605   4.085   0.761
   99SOL     OW 1195   4.622   3.549   1.156
   99SOL    HW1 1196   4.549   3.573   1.221
   99SOL    HW2 1197   4.588   3.479   1.093
  100SOL     OW 1198   0.027   0.329   4.875
  100SOL    HW1 1199   0.058   0.316   4.781
  100SOL    HW2 1200   0.098   0.297   4.938
  101SOL     OW 1201   1.463   5.540   1.987
  101SOL    HW1 1202   1.412   5.456   1.968
  101SOL    HW2 1203   1.517   5.528   2.070
  102SOL     OW 1204   4.165   0.141   2.555
  102SOL    HW1 1205   4.092   0.207   2.570
  102SOL    HW2 1206   4.211   0.121   2.642
  103SOL     OW 1207   3.042   1.011   2.161
  103SOL    HW1 1208   2.990   1.014   2.076
  103SOL    HW2 1209   2.979   1.020   2.238
  104SOL     OW 1210   0.373   5.288   2.567
  104SOL    HW1 1211   0.312   5.241   2.631
  104SOL    HW2 1212   0.323   5.362   2.522
  105SOL     OW 1213   6.817   2.610   6.766
  105SOL    HW1 1214   6.795   2.512   6.764
  105SOL    HW2 1215   6.914   2.622   6.748
  106SOL     OW 1216   4.023   5.790   4.611
  106SOL    HW1 1217   4.074   5.767   4.694
  106SOL    HW2 1218   4.087   5.822   4.541
  107SOL     OW 1219   2.121   1.348   2.089
  107SOL    HW1 1220   2.218   1.373   2.090
  107SOL    HW2 1221   2.082   1.371   2.000
  108SOL     OW 1222   3.917   5.190   5.912
  108SOL    HW1 1223   3.857   5.112   5.891
  108SOL    HW2 1224   3.864   5.261   5.957
  109SOL     OW 1225   0.022   0.567   1.184
  109SOL    HW1 1226   0.038   0.631   1.258
  109SOL    HW2 1227   0.104   0.512   1.169
  110SOL     OW 1228   3.470   6.053   5.600
  110SOL    HW1 1229   3.382   6.055   5.646
  110SOL    HW2 1230   3.470   6.119   5.525
  111SOL     OW 1231   3.037   1.320   4.249
  111SOL    HW1 1232   2.950   1.333   4.297
  111SOL    HW2 1233   3.019   1.306   4.151
  112SOL     OW 1234   4.796   6.768   6.162
  112SOL    HW1 1235   4.762   6.779   6.068
  112SOL    HW2 1236   4.733   6.711   6.214
  113SOL     OW 1237   6.236   5.473   3.008
  113SOL    HW1 1238   6.305   5.487   3.080
  113SOL    HW2 1239   6.241   5.379   2.975
  114SOL     OW 1240   0.744   0.631   0.963
  114SOL    HW1 1241   0.677   0.561   0.987
  114SOL    HW2 1242   0.836   0.601   0.989
  115SOL     OW 1243   3.935   1.408   3.648
  115SOL    HW1 1244   3.871   1.461   3.591
  115SOL    HW2 1245   4.021   1.396   3.598
  116SOL     OW 1246   5.653   5.036   1.527
  116SOL    HW1 1247   5.731   5.043   1.589
  116SOL    HW2 1248   5.667   5.096   1.448
  117SOL     OW 1249   1.454   1.615   0.648
  117SOL    HW1 1250   1.388   1.564   0.593
  117SOL    HW2 1251   1.476   1.564   0.730
  118SOL     OW 1252   1.931   1.157   3.084
  118SOL    HW1 1253   1.996   1.098   3.131
  118SOL    HW2 1254   1.844   1.158   3.134
  119SOL     OW 1255   0.667   1.074   6.731
  119SOL    HW1 1256   0.714   1.085   6.819
  119SOL    HW2 1257   0.681   0.981   6.697
  120SOL     OW 1258   6.457   6.927   0.365
  120SOL    HW1 1259   6.541   6.934   0.311
  120SOL    HW2 1260   6.378   6.930   0.304
  121SOL     OW 1261   2.399   3.442   6.439
  121SOL    HW1 1262   2.465   3.386   6.490
  121SOL    HW2 1263   2.402   3.417   6.342
  122SOL     OW 1264   1.828   4.561   6.435
  122SOL    HW1 1265   1.925   4.571   6.456
  122SOL    HW2 1266   1.781   4.519   6.512
  123SOL     OW 1267   0.166   1.486   1.624
  123SOL    HW1 1268   0.070   1.504   1.643
  123SOL    HW2 1269   0.180   1.387   1.619
  124SOL     OW 1270   4.907   3.100   0.595
  124SOL    HW1 1271   4.848   3.021   0.611
  124SOL    HW2 1272   4.853   3.175   0.557
  125SOL     OW 1273   3.276   1.848   1.597
  125SOL    HW1 1274   3.259   1.937   1.639
  125SOL    HW2 1275   3.375   1.832   1.593
  126SOL     OW 1276   2.668   3.585   1.176
  126SOL    HW1 1277   2.661   3.555   1.271
  126SOL    HW2 1278   2.592   3.547   1.123
  127SOL     OW 1279   0.583   5.136   6.580
  127SOL    HW1 1280   0.616   5.202   6.513
  127SOL    HW2 1281   0.498   5.170   6.621
  128SOL     OW 1282   4.875   2.827   1.425
  128SOL    HW1 1283   4.820   2.759   1.473
  128SOL    HW2 1284   4.862   2.818   1.327
  129SOL     OW 1285   2.422   2.712   6.191
  129SOL    HW1 1286   2.474   2.744   6.112
  129SOL    HW2 1287   2.415   2.786   6.258
  130SOL     OW 1288   0.681   1.540   4.032
  130SOL    HW1 1289   0.659   1.447   4.001
  130SOL    HW2 1290   0.779   1.557   4.020
  131SOL     OW 1291   5.155   1.952   3.510
  131SOL    HW1 1292   5.161   2.027   3.576
  131SOL    HW2 1293   5.113   1.984   3.426
  132SOL     OW 1294   2.405   2.199   1.189
  132SOL    HW1 1295   2.348   2.124   1.156
  132SOL    HW2 1296   2.347   2.278   1.208
  133SOL     OW 1297   4.982   6.391   4.416
  133SOL    HW1 1298   5.045   6.423   4.488
  133SOL    HW2 1299   4.911   6.460   4.403
  134SOL     OW 1300   6.771   1.976   2.292
  134SOL    HW1 1301   6.757   1.967   2.193
  134SOL    HW2 1302   6.682   1.985   2.337
  135SOL     OW 1303   5.869   3.631   3.457
  135SOL    HW1 1304   5.936   3.639   3.531
  135SOL    HW2 1305   5.902   3.566   3.389
  136SOL     OW 1306   3.445   3.794   6.142
  136SOL    HW1 1307   3.474   3.747   6.225
  136SOL    HW2 1308   3.353   3.762   6.117
  137SOL     OW 1309   5.494   1.563   4.698
  137SOL    HW1 1310   5.479   1.609   4.610
  137SOL    HW2 1311   5.503   1.465   4.683
  138SOL     OW 1312   0.755   4.552   3.356
  138SOL    HW1 1313   0.811   4.626   3.319
  138SOL    HW2 1314   0.677   4.590   3.406
  139SOL     OW 1315   2.174   6.889   4.779
  139SOL    HW1 1316   2.259   6.856   4.819
  139SOL    HW2 1317   2.125   6.812   4.736
  140SOL     OW 1318   0.635   5.772   2.650
  140SOL    HW1 1319   0.685   5.717   2.717
  140SOL    HW2 1320   0.545   5.794   2.686
  141SOL     OW 1321   6.213   3.422   4.846
  141SOL    HW1 1322   6.149   3.384   4.780
  141SOL    HW2 1323   6.164   3.483   4.908
  142SOL     OW 1324   1.936   4.085   0.402
  142SOL    HW1 1325   1.871   4.154   0.433
  142SOL    HW2 1326   2.025   4.128   0.384
  143SOL     OW 1327   5.636   4.620   0.918
  143SOL    HW1 1328   5.729   4.645   0.893
  143SOL    HW2 1329   5.578   4.620   0.837
  144SOL     OW 1330   1.074   6.146   5.867
  144SOL    HW1 1331   1.165   6.105   5.871
  144SOL    HW2 1332   1.009   6.088   5.916
  145SOL     OW 1333   6.848   5.915   0.219
  145SOL    HW1 1334   6.830   5.987   0.287
  145SOL    HW2 1335   6.761   5.879   0.185
  146SOL     OW 1336   4.778   0.457   6.283
  146SOL    HW1 1337   4.837   0.380   6.261
  146SOL    HW2 1338   4.697   0.455   6.224
  147SOL     OW 1339   6.240   3.858   6.896
  147SOL    HW1 1340   6.147   3.847   6.860
  147SOL    HW2 1341   6.242   3.934   6.962
  148SOL     OW 1342   0.377   5.572   6.360
  148SOL    HW1 1343   0.388   5.527   6.448
  148SOL    HW2 1344   0.303   5.529   6.308
  149SOL     OW 1345   2.914   1.671   4.249
  149SOL    HW1 1346   2.911   1.610   4.328
  149SOL    HW2 1347   2.855   1.750   4.266
  150SOL     OW 1348   5.626   6.126   6.695
  150SOL    HW1 1349   5.612   6.073   6.779
  150SOL    HW2 1350   5.539   6.164   6.664
  151SOL     OW 1351   2.953   2.446   0.988
  151SOL    HW1 1352   2.970   2.354   1.023
  151SOL    HW2 1353   2.896   2.441   0.906
  152SOL     OW 1354   1.118   0.932   2.922
  152SOL    HW1 1355   1.189   0.920   2.991
  152SOL    HW2 1356   1.155   0.985   2.846
  153SOL     OW 1357   3.008   0.457   1.433
  153SOL    HW1 1358   3.017   0.363   1.467
  153SOL    HW2 1359   2.928   0.499   1.476
  154SOL     OW 1360   0.685   1.962   2.801
  154SOL    HW1 1361   0.716   2.056   2.792
  154SOL    HW2 1362   0.595   1.960   2.844
  155SOL     OW 1363   6.647   1.731   3.110
  155SOL    HW1 1364   6.592   1.786   3.173
  155SOL    HW2 1365   6.617   1.749   3.016
  156SOL     OW 1366   0.609   1.845   0.819
  156SOL    HW1 1367   0.522   1.836   0.771
  156SOL    HW2 1368   0.595   1.830   0.917
  157SOL     OW 1369   5.797   3.196   1.066
  157SOL    HW1 1370   5.835   3.159   0.981
  157SOL    HW2 1371   5.698   3.180   1.067
  158SOL     OW 1372   2.067   5.804   2.449
  158SOL    HW1 1373   2.070   5.903   2.461
  158SOL    HW2 1374   2.125   5.777   2.372
  159SOL     OW 1375   4.589   4.784   1.793
  159SOL    HW1 1376   4.549   4.695   1.770
  159SOL    HW2 1377   4.611   4.785   1.891
  160SOL     OW 1378   6.126   5.347   0.193
  160SOL    HW1 1379   6.136   5.248   0.198
  160SOL    HW2 1380   6.168   5.389   0.274
  161SOL     OW 1381   1.868   5.658   4.283
  161SOL    HW1 1382   1.795   5.598   4.250
  161SOL    HW2 1383   1.950   5.645   4.227
  162SOL     OW 1384   3.779   6.343   6.881
  162SOL    HW1 1385   3.818   6.423   6.835
  162SOL    HW2 1386   3.853   6.281   6.907
  163SOL     OW 1387   5.209   5.718   0.771
  163SOL    HW1 1388   5.251   5.684   0.855
  163SOL    HW2 1389   5.274   5.711   0.696
  164SOL     OW 1390   6.242   4.413   6.988
  164SOL    HW1 1391   6.194   4.383   6.906
  164SOL    HW2 1392   6.315   4.476   6.962
  165SOL     OW 1393   5.310   3.219   1.632
  165SOL    HW1 1394   5.213   3.196   1.636
  165SOL    HW2 1395   5.364   3.144   1.671
  166SOL     OW 1396   6.974   5.047   3.367
  166SOL    HW1 1397   6.893   5.046   3.426
  166SOL    HW2 1398   0.031   5.064   3.422
  167SOL     OW 1399   5.585   2.802   0.222
  167SOL    HW1 1400   5.615   2.868   0.153
  167SOL    HW2 1401   5.510   2.747   0.185
  168SOL     OW 1402   2.489   2.979   1.342
  168SOL    HW1 1403   2.396   2.954   1.316
  168SOL    HW2 1404   2.552   2.908   1.310
  169SOL     OW 1405   4.770   0.860   1.722
  169SOL    HW1 1406   4.826   0.790   1.768
  169SOL    HW2 1407   4.756   0.937   1.784
  170SOL     OW 1408   1.125   1.104   3.597
  170SOL    HW1 1409   1.191   1.093   3.671
  170SOL    HW2 1410   1.087   1.015   3.572
  171SOL     OW 1411   3.928   4.432   0.098
  171SOL    HW1 1412   3.901   4.351   0.150
  171SOL    HW2 1413   3.856   4.455   0.033
  172SOL     OW 1414   5.954   1.827   3.945
  172SOL    HW1 1415   6.030   1.763   3.935
  172SOL    HW2 1416   5.987   1.913   3.985
  173SOL     OW 1417   6.999   2.091   4.543
  173SOL    HW1 1418   6.950   2.176   4.556
  173SOL    HW2 1419   0.067   2.100   4.582
  174SOL     OW 1420   3.249   5.288   4.237
  174SOL    HW1 1421   3.282   5.232   4.161
  174SOL    HW2 1422   3.154   5.264   4.256
  175SOL     OW 1423   2.287   0.103   1.757
  175SOL    HW1 1424   2.344   0.178   1.792
  175SOL    HW2 1425   2.234   0.135   1.679
  176SOL     OW 1426   1.122   4.239   0.961
  176SOL    HW1 1427   1.161   4.271   1.048
  176SOL    HW2 1428   1.188   4.256   0.888
  177SOL     OW 1429   5.910   3.421   2.197
  177SOL    HW1 1430   5.994   3.460   2.159
  177SOL    HW2 1431   5.919   3.322   2.206
  178SOL     OW 1432   2.576   2.448   6.640
  178SOL    HW1 1433   2.498   2.492   6.597
  178SOL    HW2 1434   2.550   2.415   6.731
  179SOL     OW 1435   2.485   1.571   6.143
  179SOL    HW1 1436   2.441   1.579   6.053
  179SOL    HW2 1437   2.444   1.496   6.193
  180SOL     OW 1438   1.473   6.411   7.003
  180SOL    HW1 1439   1.525   6.491   0.009
  180SOL    HW2 1440   1.487   6.398   6.905
  181SOL     OW 1441   3.209   2.594   6.263
  181SOL    HW1 1442   3.151   2.576   6.343
  181SOL    HW2 1443   3.180   2.536   6.187
  182SOL     OW 1444   3.307   1.454   3.917
  182SOL    HW1 1445   3.320   1.546   3.880
  182SOL    HW2 1446   3.272   1.461   4.011
  183SOL     OW 1447   3.399   1.942   3.445
  183SOL    HW1 1448   3.390   2.014   3.514
  183SOL    HW2 1449   3.447   1.978   3.365
  184SOL     OW 1450   2.079   6.168   4.310
  184SOL    HW1 1451   2.125   6.132   4.228
  184SOL    HW2 1452   2.005   6.229   4.282
  185SOL     OW 1453   0.149   1.615   6.383
  185SOL    HW1 1454   0.098   1.578   6.306
  185SOL    HW2 1455   0.169   1.542   6.449
  186SOL     OW 1456   5.742   0.991   4.103
  186SOL    HW1 1457   5.816   1.057   4.092
  186SOL    HW2 1458   5.702   0.971   4.013
  187SOL     OW 1459   4.381   0.342   3.037
  187SOL    HW1 1460   4.480   0.332   3.028
  187SOL    HW2 1461   4.335   0.305   2.956
  188SOL     OW 1462   0.008   1.807   2.804
  188SOL    HW1 1463   6.976   1.773   2.729
  188SOL    HW2 1464   6.981   1.876   2.855
  189SOL     OW 1465   2.409   5.437   1.438
  189SOL    HW1 1466   2.454   5.525   1.422
  189SOL    HW2 1467   2.419   5.412   1.535
  190SOL     OW 1468   4.751   1.754   4.715
  190SOL    HW1 1469   4.671   1.723   4.665
  190SOL    HW2 1470   4.809   1.810   4.655
  191SOL     OW 1471   5.747   6.370   6.818
  191SOL    HW1 1472   5.829   6.385   6.764
  191SOL    HW2 1473   5.712   6.277   6.800
  192SOL     OW 1474   0.591   5.623   1.956
  192SOL    HW1 1475   0.646   5.539   1.964
  192SOL    HW2 1476   0.612   5.684   2.032
  193SOL     OW 1477   4.600   3.063   5.342
  193SOL    HW1 1478   4.511   3.039   5.380
  193SOL    HW2 1479   4.655   3.107   5.413
  194SOL     OW 1480   4.022   0.768   2.859
  194SOL    HW1 1481   3.977   0.708   2.924
  194SOL    HW2 1482   4.010   0.733   2.766
  195SOL     OW 1483   1.959   0.234   4.857
  195SOL    HW1 1484   1.962   0.175   4.938
  195SOL    HW2 1485   2.039   0.216   4.800
  196SOL     OW 1486   2.696   0.483   0.482
  196SOL    HW1 1487   2.672   0.509   0.576
  196SOL    HW2 1488   2.794   0.491   0.469
  197SOL     OW 1489   2.761   0.603   0.956
  197SOL    HW1 1490   2.813   0.528   0.997
  197SOL    HW2 1491   2.663   0.588   0.972
  198SOL     OW 1492   4.802   0.648   2.746
  198SOL    HW1 1493   4.889   0.600   2.747
  198SOL    HW2 1494   4.728   0.586   2.771
  199SOL     OW 1495   0.349   2.540   3.811
  199SOL    HW1 1496   0.295   2.475   3.757
  199SOL    HW2 1497   0.440   2.548   3.771
  200SOL     OW 1498   1.512   3.560   0.765
  200SOL    HW1 1499   1.426   3.609   0.782
  200SOL    HW2 1500   1.556   3.539   0.853
  201SOL     OW 1501   0.084   0.161   6.477
  201SOL    HW1 1502   0.002   0.123   6.520
  201SOL    HW2 1503   0.145   0.086   6.452
  202SOL     OW 1504   3.715   1.293   0.200
  202SOL    HW1 1505   3.748   1.279   0.294
  202SOL    HW2 1506   3.625   1.336   0.203
  203SOL     OW 1507   6.203   2.531   5.489
  203SOL    HW1 1508   6.180   2.499   5.397
  203SOL    HW2 1509   6.224   2.453   5.548
  204SOL     OW 1510   1.056   0.030   4.527
  204SOL    HW1 1511   1.066   0.085   4.444
  204SOL    HW2 1512   1.125   6.982   4.528
  205SOL     OW 1513   0.809   2.544   2.832
  205SOL    HW1 1514   0.718   2.509   2.850
  205SOL    HW2 1515   0.820   2.632   2.879
  206SOL     OW 1516   0.463   4.101   0.913
  206SOL    HW1 1517   0.416   4.170   0.968
  206SOL    HW2 1518   0.561   4.105   0.930
  207SOL     OW 1519   6.427   1.649   3.678
  207SOL    HW1 1520   6.494   1.612   3.742
  207SOL    HW2 1521   6.432   1.598   3.592
  208SOL     OW 1522   6.641   4.423   5.532
  208SOL    HW1 1523   6.570   4.436   5.463
  208SOL    HW2 1524   6.726   4.396   5.487
  209SOL     OW 1525   0.242   5.402   4.010
  209SOL    HW1 1526   0.222   5.427   4.105
  209SOL    HW2 1527   0.157   5.401   3.958
  210SOL     OW 1528   4.539   1.266   0.459
  210SOL    HW1 1529   4.489   1.348   0.430
  210SOL    HW2 1530   4.545   1.265   0.559
  211SOL     OW 1531   1.448   6.419   1.884
  211SOL    HW1 1532   1.429   6.331   1.926
  211SOL    HW2 1533   1.535   6.454   1.917
  212SOL     OW 1534   1.352   3.637   1.659
  212SOL    HW1 1535   1.316   3.731   1.667
  212SOL    HW2 1536   1.339   3.590   1.746
  213SOL     OW 1537   3.040   6.672   0.744
  213SOL    HW1 1538   3.114   6.726   0.703
  213SOL    HW2 1539   3.075   6.624   0.824
  214SOL     OW 1540   3.646   5.542   2.739
  214SOL    HW1 1541   3.551   5.570   2.725
  214SOL    HW2 1542   3.697   5.553   2.654
  215SOL     OW 1543   2.867   3.693   0.475
  215SOL    HW1 1544   2.818   3.611   0.447
  215SOL    HW2 1545   2.950   3.668   0.524
  216SOL     OW 1546   0.935   5.589   3.095
  216SOL    HW1 1547   0.965   5.607   3.189
  216SOL    HW2 1548   0.835   5.596   3.091
  217SOL     OW 1549   1.263   2.732   4.156
  217SOL    HW1 1550   1.176   2.683   4.164
  217SOL    HW2 1551   1.298   2.723   4.063
  218SOL     OW 1552   1.066   3.078   4.274
  218SOL    HW1 1553   1.060   3.014   4.351
  218SOL    HW2 1554   0.974   3.109   4.250
  219SOL     OW 1555   4.296   0.334   0.240
  219SOL    HW1 1556   4.362   0.266   0.206
  219SOL    HW2 1557   4.265   0.391   0.164
  220SOL     OW 1558   2.678   0.021   1.492
  220SOL    HW1 1559   2.681   0.119   1.515
  220SOL    HW2 1560   2.587   7.010   1.512
  221SOL     OW 1561   5.690   4.291   0.826
  221SOL    HW1 1562   5.677   4.390   0.827
  221SOL    HW2 1563   5.783   4.269   0.855
  222SOL     OW 1564   1.189   4.610   5.442
  222SOL    HW1 1565   1.255   4.607   5.367
  222SOL    HW2 1566   1.237   4.627   5.528
  223SOL     OW 1567   6.810   3.225   6.192
  223SOL    HW1 1568   6.828   3.309   6.142
  223SOL    HW2 1569   6.818   3.243   6.290
  224SOL     OW 1570   2.714   1.932   5.955
  224SOL    HW1 1571   2.776   2.006   5.928
  224SOL    HW2 1572   2.722   1.915   6.053
  225SOL     OW 1573   5.181   3.765   6.553
  225SOL    HW1 1574   5.191   3.864   6.547
  225SOL    HW2 1575   5.090   3.743   6.589
  226SOL     OW 1576   0.935   1.229   5.679
  226SOL    HW1 1577   0.901   1.138   5.657
  226SOL    HW2 1578   0.984   1.266   5.600
  227SOL     OW 1579   0.572   4.176   1.938
  227SOL    HW1 1580   0.543   4.214   2.026
  227SOL    HW2 1581   0.621   4.090   1.953
  228SOL     OW 1582   2.286   0.313   3.063
  228SOL    HW1 1583   2.232   0.229   3.066
  228SOL    HW2 1584   2.370   0.297   3.012
  229SOL     OW 1585   6.080   6.044   6.068
  229SOL    HW1 1586   6.094   6.026   5.971
  229SOL    HW2 1587   6.124   5.972   6.122
  230SOL     OW 1588   3.566   5.144   3.701
  230SOL    HW1 1589   3.635   5.211   3.675
  230SOL    HW2 1590   3.552   5.079   3.626
  231SOL     OW 1591   6.151   1.750   0.113
  231SOL    HW1 1592   6.241   1.755   0.155
  231SOL    HW2 1593   6.160   1.725   0.017
  232SOL     OW 1594   0.278   3.370   6.489
  232SOL    HW1 1595   0.244   3.462   6.510
  232SOL    HW2 1596   0.247   3.343   6.398
  233SOL     OW 1597   3.386   1.097   3.155
  233SOL    HW1 1598   3.452   1.077   3.227
  233SOL    HW2 1599   3.431   1.148   3.081
  234SOL     OW 1600   5.070   0.979   6.275
  234SOL    HW1 1601   4.986   0.972   6.222
  234SOL    HW2 1602   5.049   1.010   6.368
  235SOL     OW 1603   4.931   2.760   1.997
  235SOL    HW1 1604   4.875   2.833   1.959
  235SOL    HW2 1605   4.991   2.797   2.068
  236SOL     OW 1606   5.746   2.617   6.663
  236SOL    HW1 1607   5.794   2.659   6.740
  236SOL    HW2 1608   5.675   2.679   6.630
  237SOL     OW 1609   0.094   4.686   2.097
  237SOL    HW1 1610   0.017   4.642   2.143
  237SOL    HW2 1611   0.076   4.689   1.998
  238SOL     OW 1612   5.413   1.234   0.451
  238SOL    HW1 1613   5.370   1.160   0.400
  238SOL    HW2 1614   5.470   1.288   0.389
  239SOL     OW 1615   1.019   4.330   6.445
  239SOL    HW1 1616   0.950   4.275   6.398
  239SOL    HW2 1617   0.976   4.412   6.483
  240SOL     OW 1618   6.830   3.079   3.185
  240SOL    HW1 1619   6.879   3.130   3.256
  240SOL    HW2 1620   6.826   2.982   3.212
  241SOL     OW 1621   2.857   2.206   5.131
  241SOL    HW1 1622   2.940   2.238   5.086
  241SOL    HW2 1623   2.777   2.239   5.081
  242SOL     OW 1624   3.470   3.993   4.461
  242SOL    HW1 1625   3.492   3.987   4.364
  242SOL    HW2 1626   3.554   4.009   4.513
  243SOL     OW 1627   4.484   0.856   6.584
  243SOL    HW1 1628   4.524   0.921   6.649
  243SOL    HW2 1629   4.533   0.769   6.590
  244SOL     OW 1630   6.610   3.605   5.421
  244SOL    HW1 1631   6.690   3.613   5.480
  244SOL    HW2 1632   6.593   3.508   5.401
  245SOL     OW 1633   5.082   2.347   3.943
  245SOL    HW1 1634   5.115   2.254   3.929
  245SOL    HW2 1635   5.067   2.363   4.041
  246SOL     OW 1636   5.171   2.299   3.132
  246SOL    HW1 1637   5.130   2.268   3.217
  246SOL    HW2 1638   5.157   2.398   3.121
  247SOL     OW 1639   2.486   1.502   0.641
  247SOL    HW1 1640   2.490   1.593   0.682
  247SOL    HW2 1641   2.442   1.507   0.552
  248SOL     OW 1642   3.835   1.357   2.894
  248SOL    HW1 1643   3.898   1.323   2.964
  248SOL    HW2 1644   3.829   1.291   2.819
  249SOL     OW 1645   4.825   0.457   5.037
  249SOL    HW1 1646   4.810   0.550   5.069
  249SOL    HW2 1647   4.907   0.419   5.080
  250SOL     OW 1648   4.916   3.467   0.269
  250SOL    HW1 1649   5.004   3.472   0.222
  250SOL    HW2 1650   4.917   3.391   0.333
  251SOL     OW 1651   4.987   3.533   5.373
  251SOL    HW1 1652   4.888   3.547   5.375
  251SOL    HW2 1653   5.015   3.504   5.282
  252SOL     OW 1654   6.841   6.212   5.228
  252SOL    HW1 1655   6.912   6.181   5.291
  252SOL    HW2 1656   6.858   6.308   5.204
  253SOL     OW 1657   3.027   5.066   6.128
  253SOL    HW1 1658   3.107   5.047   6.072
  253SOL    HW2 1659   3.040   5.151   6.179
  254SOL     OW 1660   6.087   2.264   3.820
  254SOL    HW1 1661   6.016   2.326   3.854
  254SOL    HW2 1662   6.107   2.286   3.724
  255SOL     OW 1663   1.650   4.612   5.275
  255SOL    HW1 1664   1.612   4.700   5.246
  255SOL    HW2 1665   1.576   4.548   5.293
  256SOL     OW 1666   6.321   4.047   6.291
  256SOL    HW1 1667   6.241   4.104   6.270
  256SOL    HW2 1668   6.394   4.105   6.327
  257SOL     OW 1669   5.002   0.394   3.704
  257SOL    HW1 1670   4.965   0.319   3.759
  257SOL    HW2 1671   4.993   0.480   3.755
  258SOL     OW 1672   2.425   4.920   4.928
  258SOL    HW1 1673   2.338   4.967   4.911
  258SOL    HW2 1674   2.464   4.889   4.841
  259SOL     OW 1675   6.601   2.181   2.961
  259SOL    HW1 1676   6.598   2.280   2.943
  259SOL    HW2 1677   6.563   2.132   2.883
  260SOL     OW 1678   4.198   6.983   1.931
  260SOL    HW1 1679   4.163   0.017   2.004
  260SOL    HW2 1680   4.131   6.910   1.912
  261SOL     OW 1681   6.823   3.100   0.496
  261SOL    HW1 1682   6.745   3.128   0.440
  261SOL    HW2 1683   6.864   3.018   0.456
  262SOL     OW 1684   0.651   3.623   0.014
  262SOL    HW1 1685   0.669   3.585   6.948
  262SOL    HW2 1686   0.582   3.568   0.060
  263SOL     OW 1687   2.252   0.824   4.770
  263SOL    HW1 1688   2.231   0.893   4.701
  263SOL    HW2 1689   2.344   0.839   4.807
  264SOL     OW 1690   5.613   3.016   6.798
  264SOL    HW1 1691   5.621   3.020   6.897
  264SOL    HW2 1692   5.705   3.004   6.758
  265SOL     OW 1693   5.618   6.644   2.570
  265SOL    HW1 1694   5.602   6.742   2.581
  265SOL    HW2 1695   5.549   6.592   2.621
  266SOL     OW 1696   3.355   2.661   6.004
  266SOL    HW1 1697   3.352   2.757   5.979
  266SOL    HW2 1698   3.384   2.652   6.100
  267SOL     OW 1699   0.617   1.248   6.363
  267SOL    HW1 1700   0.596   1.340   6.329
  267SOL    HW2 1701   0.679   1.203   6.299
  268SOL     OW 1702   3.566   1.392   6.394
  268SOL    HW1 1703   3.516   1.347   6.320
  268SOL    HW2 1704   3.662   1.402   6.368
  269SOL     OW 1705   1.532   3.477   1.473
  269SOL    HW1 1706   1.487   3.521   1.551
  269SOL    HW2 1707   1.569   3.389   1.502
  270SOL     OW 1708   1.168   6.189   0.733
  270SOL    HW1 1709   1.130   6.230   0.816
  270SOL    HW2 1710   1.258   6.228   0.714
  271SOL     OW 1711   0.029   2.008   6.975
  271SOL    HW1 1712   6.960   2.016   6.941
  271SOL    HW2 1713   0.060   1.913   6.964
  272SOL     OW 1714   3.518   5.399   3.961
  272SOL    HW1 1715   3.453   5.350   3.903
  272SOL    HW2 1716   3.554   5.338   4.031
  273SOL     OW 1717   2.498   4.483   4.387
  273SOL    HW1 1718   2.443   4.428   4.450
  273SOL    HW2 1719   2.525   4.427   4.309
  274SOL     OW 1720   4.045   1.815   3.391
  274SOL    HW1 1721   3.957   1.767   3.395
  274SOL    HW2 1722   4.082   1.824   3.484
  275SOL     OW 1723   6.438   5.247   3.598
  275SOL    HW1 1724   6.438   5.191   3.514
  275SOL    HW2 1725   6.404   5.338   3.577
  276SOL     OW 1726   6.585   6.505   2.502
  276SOL    HW1 1727   6.663   6.564   2.519
  276SOL    HW2 1728   6.549   6.471   2.589
  277SOL     OW 1729   1.751   4.306   0.422
  277SOL    HW1 1730   1.791   4.396   0.403
  277SOL    HW2 1731   1.660   4.300   0.379
  278SOL     OW 1732   0.315   4.849   2.101
  278SOL    HW1 1733   0.236   4.789   2.094
  278SOL    HW2 1734   0.338   4.862   2.198
  279SOL     OW 1735   5.622   3.315   4.445
  279SOL    HW1 1736   5.568   3.307   4.362
  279SOL    HW2 1737   5.574   3.372   4.512
  280SOL     OW 1738   2.921   6.785   3.380
  280SOL    HW1 1739   3.001   6.735   3.346
  280SOL    HW2 1740   2.949   6.848   3.452
  281SOL     OW 1741   2.519   4.408   1.402
  281SOL    HW1 1742   2.567   4.347   1.465
  281SOL    HW2 1743   2.550   4.390   1.309
  282SOL     OW 1744   3.083   1.181   6.343
  282SOL    HW1 1745   2.986   1.159   6.329
  282SOL    HW2 1746   3.139   1.103   6.315
  283SOL     OW 1747   6.006   1.593   6.279
  283SOL    HW1 1748   6.101   1.601   6.247
  283SOL    HW2 1749   6.002   1.524   6.352
  284SOL     OW 1750   1.174   3.941   3.782
  284SOL    HW1 1751   1.120   3.875   3.835
  284SOL    HW2 1752   1.175   4.029   3.830
  285SOL     OW 1753   5.942   4.906   4.633
  285SOL    HW1 1754   5.944   4.984   4.570
  285SOL    HW2 1755   5.887   4.929   4.713
  286SOL     OW 1756   3.398   5.527   6.319
  286SOL    HW1 1757   3.313   5.554   6.274
  286SOL    HW2 1758   3.384   5.441   6.368
  287SOL     OW 1759   1.046   3.590   1.067
  287SOL    HW1 1760   1.103   3.508   1.064
  287SOL    HW2 1761   0.956   3.570   1.029
  288SOL     OW 1762   3.542   1.437   6.865
  288SOL    HW1 1763   3.453   1.470   6.895
  288SOL    HW2 1764   3.530   1.356   6.807
  289SOL     OW 1765   1.178   4.341   5.382
  289SOL    HW1 1766   1.162   4.435   5.411
  289SOL    HW2 1767   1.104   4.283   5.416
  290SOL     OW 1768   6.093   2.287   4.643
  290SOL    HW1 1769   6.002   2.285   4.602
  290SOL    HW2 1770   6.153   2.223   4.595
  291SOL     OW 1771   1.470   2.402   4.306
  291SOL    HW1 1772   1.490   2.319   4.255
  291SOL    HW2 1773   1.543   2.468   4.292
  292SOL     OW 1774   1.471   2.638   3.313
  292SOL    HW1 1775   1.463   2.542   3.339
  292SOL    HW2 1776   1.535   2.684   3.375
  293SOL     OW 1777   4.104   6.444   2.622
  293SOL    HW1 1778   4.015   6.441   2.575
  293SOL    HW2 1779   4.142   6.536   2.615
  294SOL     OW 1780   0.810   6.039   6.442
  294SOL    HW1 1781   0.878   5.999   6.380
  294SOL    HW2 1782   0.730   6.068   6.388
  295SOL     OW 1783   3.170   1.596   3.608
  295SOL    HW1 1784   3.202   1.637   3.523
  295SOL    HW2 1785   3.233   1.621   3.683
  296SOL     OW 1786   3.569   2.081   3.257
  296SOL    HW1 1787   3.628   2.059   3.179
  296SOL    HW2 1788   3.626   2.114   3.333
  297SOL     OW 1789   2.920   4.993   3.482
  297SOL    HW1 1790   2.939   4.951   3.393
  297SOL    HW2 1791   2.822   4.987   3.502
  298SOL     OW 1792   3.105   5.773   1.849
  298SOL    HW1 1793   3.042   5.783   1.926
  298SOL    HW2 1794   3.199   5.780   1.882
  299SOL     OW 1795   5.453   3.356   6.088
  299SOL    HW1 1796   5.380   3.369   6.155
  299SOL    HW2 1797   5.426   3.286   6.023
  300SOL     OW 1798   6.555   0.773   2.822
  300SOL    HW1 1799   6.492   0.848   2.838
  300SOL    HW2 1800   6.567   0.759   2.723
  301SOL     OW 1801   4.764   3.281   1.152
  301SOL    HW1 1802   4.705   3.354   1.118
  301SOL    HW2 1803   4.831   3.320   1.216
  302SOL     OW 1804   1.320   0.434   3.216
  302SOL    HW1 1805   1.297   0.421   3.313
  302SOL    HW2 1806   1.344   0.346   3.175
  303SOL     OW 1807   5.806   0.874   2.562
  303SOL    HW1 1808   5.859   0.941   2.510
  303SOL    HW2 1809   5.739   0.921   2.620
  304SOL     OW 1810   2.583   0.465   3.508
  304SOL    HW1 1811   2.539   0.459   3.598
  304SOL    HW2 1812   2.615   0.559   3.493
  305SOL     OW 1813   0.517   3.483   0.459
  305SOL    HW1 1814   0.492   3.386   0.462
  305SOL    HW2 1815   0.526   3.512   0.364
  306SOL     OW 1816   1.752   0.741   3.481
  306SOL    HW1 1817   1.668   0.744   3.536
  306SOL    HW2 1818   1.808   0.665   3.511
  307SOL     OW 1819   4.411   6.950   0.905
  307SOL    HW1 1820   4.319   6.946   0.865
  307SOL    HW2 1821   4.437   6.859   0.936
  308SOL     OW 1822   6.251   4.256   5.044
  308SOL    HW1 1823   6.187   4.186   5.011
  308SOL    HW2 1824   6.339   4.212   5.064
  309SOL     OW 1825   4.113   4.298   6.070
  309SOL    HW1 1826   4.027   4.275   6.116
  309SOL    HW2 1827   4.094   4.323   5.975
  310SOL     OW 1828   6.650   6.479   5.711
  310SOL    HW1 1829   6.602   6.403   5.754
  310SOL    HW2 1830   6.586   6.553   5.692
  311SOL     OW 1831   6.402   5.332   1.512
  311SOL    HW1 1832   6.358   5.307   1.427
  311SOL    HW2 1833   6.479   5.271   1.530
  312SOL     OW 1834   4.609   1.954   5.859
  312SOL    HW1 1835   4.520   1.980   5.822
  312SOL    HW2 1836   4.599   1.928   5.955
  313SOL     OW 1837   3.046   4.193   1.822
  313SOL    HW1 1838   3.045   4.115   1.884
  313SOL    HW2 1839   3.017   4.276   1.870
  314SOL     OW 1840   3.168   5.232   6.934
  314SOL    HW1 1841   3.176   5.243   6.835
  314SOL    HW2 1842   3.199   5.316   6.979
  315SOL     OW 1843   0.831   3.094   3.296
  315SOL    HW1 1844   0.761   3.025   3.313
  315SOL    HW2 1845   0.806   3.180   3.340
  316SOL     OW 1846   2.361   2.370   4.009
  316SOL    HW1 1847   2.432   2.430   3.971
  316SOL    HW2 1848   2.393   2.276   4.010
  317SOL     OW 1849   1.138   0.471   1.596
  317SOL    HW1 1850   1.160   0.404   1.667
  317SOL    HW2 1851   1.042   0.498   1.605
  318SOL     OW 1852   0.883   6.068   0.144
  318SOL    HW1 1853   0.801   6.015   0.124
  318SOL    HW2 1854   0.945   6.015   0.202
  319SOL     OW 1855   0.328   0.555   2.887
  319SOL    HW1 1856   0.269   0.566   2.807
  319SOL    HW2 1857   0.358   0.646   2.918
  320SOL     OW 1858   5.250   2.424   6.609
  320SOL    HW1 1859   5.306   2.488   6.661
  320SOL    HW2 1860   5.160   2.416   6.651
  321SOL     OW 1861   3.099   1.447   1.811
  321SOL    HW1 1862   3.041   1.481   1.886
  321SOL    HW2 1863   3.194   1.443   1.842
  322SOL     OW 1864   3.360   3.426   4.578
  322SOL    HW1 1865   3.261   3.439   4.587
  322SOL    HW2 1866   3.380   3.379   4.492
  323SOL     OW 1867   0.500   3.464   0.181
  323SOL    HW1 1868   0.514   3.380   0.129
  323SOL    HW2 1869   0.402   3.480   0.194
  324SOL     OW 1870   2.205   2.894   3.990
  324SOL    HW1 1871   2.123   2.852   3.953
  324SOL    HW2 1872   2.286   2.850   3.951
  325SOL     OW 1873   2.205   3.042   1.759
  325SOL    HW1 1874   2.297   3.033   1.721
  325SOL    HW2 1875   2.173   3.136   1.749
  326SOL     OW 1876   1.617   5.308   6.464
  326SOL    HW1 1877   1.655   5.217   6.479
  326SOL    HW2 1878   1.523   5.299   6.430
  327SOL     OW 1879   1.414   5.283   3.907
  327SOL    HW1 1880   1.353   5.218   3.861
  327SOL    HW2 1881   1.443   5.245   3.995
  328SOL     OW 1882   3.215   5.025   2.502
  328SOL    HW1 1883   3.174   5.035   2.411
  328SOL    HW2 1884   3.296   4.968   2.496
  329SOL     OW 1885   3.075   3.922   3.934
  329SOL    HW1 1886   3.076   3.846   4.000
  329SOL    HW2 1887   3.092   4.008   3.982
  330SOL     OW 1888   3.596   6.311   1.914
  330SOL    HW1 1889   3.519   6.282   1.858
  330SOL    HW2 1890   3.677   6.257   1.890
  331SOL     OW 1891   4.689   4.764   6.788
  331SOL    HW1 1892   4.772   4.805   6.826
  331SOL    HW2 1893   4.675   4.674   6.830
  332SOL     OW 1894   3.926   2.063   4.519
  332SOL    HW1 1895   3.943   2.064   4.618
  332SOL    HW2 1896   4.011   2.088   4.471
  333SOL     OW 1897   3.242   0.028   6.802
  333SOL    HW1 1898   3.322   7.000   6.773
  333SOL    HW2 1899   3.240   0.035   6.902
  334SOL     OW 1900   2.616   0.154   0.996
  334SOL    HW1 1901   2.690   0.091   0.975
  334SOL    HW2 1902   2.548   0.109   1.054
  335SOL     OW 1903   3.510   6.611   4.153
  335SOL    HW1 1904   3.451   6.647   4.080
  335SOL    HW2 1905   3.600   6.653   4.146
  336SOL     OW 1906   2.322   1.115   3.993
  336SOL    HW1 1907   2.413   1.100   3.954
  336SOL    HW2 1908   2.306   1.213   4.001
  337SOL     OW 1909   6.938   3.447   0.771
  337SOL    HW1 1910   6.973   3.541   0.769
  337SOL    HW2 1911   6.964   3.401   0.686
  338SOL     OW 1912   2.808   2.489   0.743
  338SOL    HW1 1913   2.872   2.460   0.672
  338SOL    HW2 1914   2.714   2.471   0.714
  339SOL     OW 1915   3.763   6.698   4.139
  339SOL    HW1 1916   3.858   6.687   4.110
  339SOL    HW2 1917   3.755   6.779   4.197
  340SOL     OW 1918   5.151   4.022   4.685
  340SOL    HW1 1919   5.060   3.998   4.650
  340SOL    HW2 1920   5.204   4.065   4.612
  341SOL     OW 1921   6.286   6.772   3.945
  341SOL    HW1 1922   6.347   6.719   3.887
  341SOL    HW2 1923   6.289   6.869   3.918
  342SOL     OW 1924   5.705   3.833   0.106
  342SOL    HW1 1925   5.635   3.802   0.041
  342SOL    HW2 1926   5.725   3.761   0.171
  343SOL     OW 1927   1.707   6.001   1.022
  343SOL    HW1 1928   1.663   5.997   1.111
  343SOL    HW2 1929   1.711   5.910   0.982
  344SOL     OW 1930   2.003   5.477   1.632
  344SOL    HW1 1931   2.024   5.572   1.610
  344SOL    HW2 1932   2.063   5.416   1.581
  345SOL     OW 1933   6.815   1.009   5.996
  345SOL    HW1 1934   6.886   0.975   5.934
  345SOL    HW2 1935   6.745   1.058   5.944
  346SOL     OW 1936   2.307   0.498   1.675
  346SOL    HW1 1937   2.234   0.476   1.741
  346SOL    HW2 1938   2.393   0.511   1.724
  347SOL     OW 1939   4.481   6.669   6.560
  347SOL    HW1 1940   4.446   6.576   6.562
  347SOL    HW2 1941   4.458   6.715   6.646
  348SOL     OW 1942   4.744   5.197   1.536
  348SOL    HW1 1943   4.739   5.103   1.571
  348SOL    HW2 1944   4.720   5.261   1.609
  349SOL     OW 1945   6.904   4.611   2.272
  349SOL    HW1 1946   6.806   4.614   2.292
  349SOL    HW2 1947   6.939   4.520   2.291
  350SOL     OW 1948   3.551   3.360   1.612
  350SOL    HW1 1949   3.593   3.413   1.537
  350SOL    HW2 1950   3.590   3.268   1.613
  351SOL     OW 1951   2.488   2.478   0.417
  351SOL    HW1 1952   2.434   2.549   0.372
  351SOL    HW2 1953   2.457   2.388   0.386
  352SOL     OW 1954   3.716   6.858   4.629
  352SOL    HW1 1955   3.789   6.816   4.684
  352SOL    HW2 1956   3.656   6.911   4.688
  353SOL     OW 1957   2.872   0.034   0.921
  353SOL    HW1 1958   2.901   7.015   0.836
  353SOL    HW2 1959   2.916   0.124   0.929
  354SOL     OW 1960   4.397   2.171   0.038
  354SOL    HW1 1961   4.358   2.263   0.041
  354SOL    HW2 1962   4.494   2.175   0.060
  355SOL     OW 1963   6.769   2.807   2.938
  355SOL    HW1 1964   6.784   2.728   2.878
  355SOL    HW2 1965   6.712   2.781   3.015
  356SOL     OW 1966   4.337   5.514   4.599
  356SOL    HW1 1967   4.261   5.498   4.536
  356SOL    HW2 1968   4.383   5.427   4.619
  357SOL     OW 1969   6.896   6.899   5.390
  357SOL    HW1 1970   6.930   6.984   5.430
  357SOL    HW2 1971   6.943   6.880   5.304
  358SOL     OW 1972   5.745   0.359   1.754
  358SOL    HW1 1973   5.804   0.287   1.791
  358SOL    HW2 1974   5.800   0.429   1.709
  359SOL     OW 1975   2.039   2.029   2.258
  359SOL    HW1 1976   1.942   2.005   2.258
  359SOL    HW2 1977   2.069   2.048   2.352
  360SOL     OW 1978   2.648   6.353   6.311
  360SOL    HW1 1979   2.742   6.342   6.343
  360SOL    HW2 1980   2.604   6.263   6.305
  361SOL     OW 1981   5.461   5.678   2.658
  361SOL    HW1 1982   5.449   5.687   2.757
  361SOL    HW2 1983   5.387   5.622   2.621
  362SOL     OW 1984   3.652   3.715   0.446
  362SOL    HW1 1985   3.682   3.764   0.365
  362SOL    HW2 1986   3.554   3.700   0.442
  363SOL     OW 1987   4.103   5.286   3.968
  363SOL    HW1 1988   4.046   5.290   4.050
  363SOL    HW2 1989   4.047   5.306   3.888
  364SOL     OW 1990   0.366   5.665   5.451
  364SOL    HW1 1991   0.359   5.670   5.351
  364SOL    HW2 1992   0.292   5.609   5.487
  365SOL     OW 1993   4.766   6.074   2.301
  365SOL    HW1 1994   4.821   6.137   2.248
  365SOL    HW2 1995   4.691   6.039   2.244
  366SOL     OW 1996   5.641   1.420   0.299
  366SOL    HW1 1997   5.671   1.325   0.306
  366SOL    HW2 1998   5.679   1.461   0.216
  367SOL     OW 1999   5.039   2.667   1.061
  367SOL    HW1 2000   5.099   2.722   1.004
  367SOL    HW2 2001   5.081   2.578   1.077
  368SOL     OW 2002   0.585   4.091   5.091
  368SOL    HW1 2003   0.565   4.186   5.068
  368SOL    HW2 2004   0.670   4.063   5.046
  369SOL     OW 2005   6.650   4.511   1.747
  369SOL    HW1 2006   6.590   4.432   1.735
  369SOL    HW2 2007   6.600   4.595   1.725
  370SOL     OW 2008   3.059   1.804   5.604
  370SOL    HW1 2009   3.048   1.886   5.661
  370SOL    HW2 2010   3.156   1.792   5.581
  371SOL     OW 2011   2.216   3.617   6.530
  371SOL    HW1 2012   2.170   3.665   6.455
  371SOL    HW2 2013   2.273   3.544   6.492
  372SOL     OW 2014   0.013   0.806   5.041
  372SOL    HW1 2015   7.002   0.829   4.951
  372SOL    HW2 2016   0.037   0.709   5.044
  373SOL     OW 2017   6.388   6.256   5.537
  373SOL    HW1 2018   6.385   6.288   5.632
  373SOL    HW2 2019   6.483   6.236   5.512
  374SOL     OW 2020   4.666   6.844   2.437
  374SOL    HW1 2021   4.694   6.755   2.473
  374SOL    HW2 2022   4.603   6.888   2.501
  375SOL     OW 2023   6.889   4.920   3.734
  375SOL    HW1 2024   6.904   4.931   3.833
  375SOL    HW2 2025   6.903   4.824   3.709
  376SOL     OW 2026   1.690   3.449   3.625
  376SOL    HW1 2027   1.676   3.352   3.605
  376SOL    HW2 2028   1.664   3.504   3.546
  377SOL     OW 2029   6.195   2.649   1.997
  377SOL    HW1 2030   6.178   2.743   1.969
  377SOL    HW2 2031   6.231   2.597   1.920
  378SOL     OW 2032   3.729   2.567   5.671
  378SOL    HW1 2033   3.706   2.511   5.591
  378SOL    HW2 2034   3.653   2.565   5.736
  379SOL     OW 2035   5.952   4.080   1.554
  379SOL    HW1 2036   5.981   3.985   1.569
  379SOL    HW2 2037   5.852   4.082   1.543
  380SOL     OW 2038   2.517   1.610   1.930
  380SOL    HW1 2039   2.435   1.636   1.877
  380SOL    HW2 2040   2.598   1.643   1.882
  381SOL     OW 2041   1.889   4.660   1.308
  381SOL    HW1 2042   1.823   4.698   1.373
  381SOL    HW2 2043   1.867   4.564   1.289
  382SOL     OW 2044   4.633   5.790   6.651
  382SOL    HW1 2045   4.698   5.865   6.638
  382SOL    HW2 2046   4.583   5.774   6.566
  383SOL     OW 2047   6.136   3.043   6.062
  383SOL    HW1 2048   6.208   2.975   6.048
  383SOL    HW2 2049   6.127   3.063   6.160
  384SOL     OW 2050   0.925   3.846   5.009
  384SOL    HW1 2051   0.922   3.853   5.109
  384SOL    HW2 2052   1.021   3.841   4.979
  385SOL     OW 2053   4.882   6.454   0.293
  385SOL    HW1 2054   4.854   6.428   0.201
  385SOL    HW2 2055   4.956   6.521   0.289
  386SOL     OW 2056   3.890   6.895   5.181
  386SOL    HW1 2057   3.955   6.962   5.145
  386SOL    HW2 2058   3.939   6.825   5.232
  387SOL     OW 2059   0.443   6.313   3.966
  387SOL    HW1 2060   0.495   6.232   3.937
  387SOL    HW2 2061   0.346   6.298   3.950
  388SOL     OW 2062   0.694   2.078   4.744
  388SOL    HW1 2063   0.605   2.107   4.708
  388SOL    HW2 2064   0.722   1.993   4.699
  389SOL     OW 2065   4.414   4.091   1.633
  389SOL    HW1 2066   4.446   3.997   1.644
  389SOL    HW2 2067   4.453   4.148   1.705
  390SOL     OW 2068   3.613   1.175   0.444
  390SOL    HW1 2069   3.620   1.242   0.518
  390SOL    HW2 2070   3.530   1.192   0.391
  391SOL     OW 2071   2.477   4.097   5.397
  391SOL    HW1 2072   2.427   4.085   5.483
  391SOL    HW2 2073   2.443   4.031   5.329
  392SOL     OW 2074   1.673   3.398   2.710
  392SOL    HW1 2075   1.631   3.425   2.623
  392SOL    HW2 2076   1.699   3.481   2.760
  393SOL     OW 2077   1.464   4.920   0.589
  393SOL    HW1 2078   1.368   4.905   0.617
  393SOL    HW2 2079   1.466   4.968   0.502
  394SOL     OW 2080   0.655   2.830   6.872
  394SOL    HW1 2081   0.587   2.902   6.861
  394SOL    HW2 2082   0.737   2.854   6.820
  395SOL     OW 2083   5.292   4.443   2.007
  395SOL    HW1 2084   5.297   4.376   1.933
  395SOL    HW2 2085   5.384   4.477   2.028
  396SOL     OW 2086   2.449   1.954   2.178
  396SOL    HW1 2087   2.463   2.008   2.095
  396SOL    HW2 2088   2.492   2.000   2.255
  397SOL     OW 2089   5.247   1.339   5.482
  397SOL    HW1 2090   5.205   1.300   5.400
  397SOL    HW2 2091   5.251   1.270   5.554
  398SOL     OW 2092   0.921   6.433   4.680
  398SOL    HW1 2093   0.946   6.451   4.585
  398SOL    HW2 2094   0.999   6.393   4.728
  399SOL     OW 2095   6.394   6.108   4.291
  399SOL    HW1 2096   6.463   6.051   4.245
  399SOL    HW2 2097   6.304   6.065   4.282
  400SOL     OW 2098   0.007   6.877   4.877
  400SOL    HW1 2099   0.002   6.798   4.815
  400SOL    HW2 2100   6.950   6.933   4.866
  401SOL     OW 2101   6.440   0.266   6.018
  401SOL    HW1 2102   6.454   0.316   6.103
  401SOL    HW2 2103   6.518   0.281   5.957
  402SOL     OW 2104   6.150   0.610   2.227
  402SOL    HW1 2105   6.144   0.696   2.277
  402SOL    HW2 2106   6.173   0.629   2.131
  403SOL     OW 2107   3.032   0.105   6.646
  403SOL    HW1 2108   2.986   0.019   6.621
  403SOL    HW2 2109   3.108   0.085   6.709
  404SOL     OW 2110   3.512   6.324   5.475
  404SOL    HW1 2111   3.582   6.367   5.419
  404SOL    HW2 2112   3.423   6.363   5.454
  405SOL     OW 2113   2.223   4.385   3.480
  405SOL    HW1 2114   2.127   4.410   3.467
  405SOL    HW2 2115   2.282   4.458   3.446
  406SOL     OW 2116   0.969   4.968   5.212
  406SOL    HW1 2117   0.889   4.925   5.254
  406SOL    HW2 2118   1.026   4.897   5.170
  407SOL     OW 2119   1.682   2.945   3.706
  407SOL    HW1 2120   1.769   2.961   3.659
  407SOL    HW2 2121   1.641   3.033   3.733
  408SOL     OW 2122   3.789   2.119   2.792
  408SOL    HW1 2123   3.834   2.188   2.735
  408SOL    HW2 2124   3.857   2.052   2.823
  409SOL     OW 2125   0.030   3.688   1.797
  409SOL    HW1 2126   7.007   3.641   1.872
  409SOL    HW2 2127   0.029   3.786   1.813
  410SOL     OW 2128   1.358   2.236   1.453
  410SOL    HW1 2129   1.301   2.165   1.412
  410SOL    HW2 2130   1.313   2.272   1.535
  411SOL     OW 2131   0.327   1.923   1.981
  411SOL    HW1 2132   0.360   1.830   1.966
  411SOL    HW2 2133   0.345   1.978   1.899
  412SOL     OW 2134   2.781   5.049   2.759
  412SOL    HW1 2135   2.732   4.962   2.757
  412SOL    HW2 2136   2.819   5.068   2.668
  413SOL     OW 2137   3.776   4.931   2.114
  413SOL    HW1 2138   3.705   4.863   2.092
  413SOL    HW2 2139   3.755   5.017   2.068
  414SOL     OW 2140   3.538   0.295   4.366
  414SOL    HW1 2141   3.481   0.377   4.369
  414SOL    HW2 2142   3.608   0.307   4.295
  415SOL     OW 2143   6.959   1.777   0.348
  415SOL    HW1 2144   0.025   1.815   0.329
  415SOL    HW2 2145   6.962   1.678   0.340
  416SOL     OW 2146   5.355   4.162   4.542
  416SOL    HW1 2147   5.436   4.211   4.574
  416SOL    HW2 2148   5.383   4.087   4.482
  417SOL     OW 2149   2.114   1.098   6.562
  417SOL    HW1 2150   2.065   1.175   6.520
  417SOL    HW2 2151   2.158   1.129   6.646
  418SOL     OW 2152   2.905   0.087   4.726
  418SOL    HW1 2153   2.891   0.179   4.765
  418SOL    HW2 2154   2.947   0.028   4.795
  419SOL     OW 2155   6.826   6.920   2.323
  419SOL    HW1 2156   6.851   6.951   2.415
  419SOL    HW2 2157   6.857   6.826   2.310
  420SOL     OW 2158   5.466   0.995   6.477
  420SOL    HW1 2159   5.532   0.927   6.445
  420SOL    HW2 2160   5.402   0.954   6.541
  421SOL     OW 2161   5.547   4.331   5.146
  421SOL    HW1 2162   5.501   4.257   5.097
  421SOL    HW2 2163   5.575   4.402   5.081
  422SOL     OW 2164   5.109   1.774   0.979
  422SOL    HW1 2165   5.193   1.720   0.981
  422SOL    HW2 2166   5.033   1.719   1.012
  423SOL     OW 2167   2.547   0.248   6.369
  423SOL    HW1 2168   2.626   0.250   6.429
  423SOL    HW2 2169   2.545   0.162   6.319
  424SOL     OW 2170   1.613   5.555   3.084
  424SOL    HW1 2171   1.572   5.622   3.022
  424SOL    HW2 2172   1.712   5.571   3.090
  425SOL     OW 2173   4.588   1.027   4.712
  425SOL    HW1 2174   4.597   1.092   4.637
  425SOL    HW2 2175   4.567   1.075   4.797
  426SOL     OW 2176   2.465   2.629   5.052
  426SOL    HW1 2177   2.406   2.563   5.006
  426SOL    HW2 2178   2.431   2.722   5.034
  427SOL     OW 2179   4.692   1.541   3.944
  427SOL    HW1 2180   4.746   1.486   4.007
  427SOL    HW2 2181   4.626   1.482   3.896
  428SOL     OW 2182   2.575   0.952   4.660
  428SOL    HW1 2183   2.545   0.990   4.748
  428SOL    HW2 2184   2.655   0.895   4.674
  429SOL     OW 2185   0.830   5.818   4.020
  429SOL    HW1 2186   0.914   5.803   3.968
  429SOL    HW2 2187   0.840   5.901   4.076
  430SOL     OW 2188   1.545   0.054   3.465
  430SOL    HW1 2189   1.625   0.028   3.520
  430SOL    HW2 2190   1.498   0.130   3.509
  431SOL     OW 2191   2.796   1.981   1.008
  431SOL    HW1 2192   2.759   2.010   0.920
  431SOL    HW2 2193   2.744   1.902   1.041
  432SOL     OW 2194   5.279   2.197   0.941
  432SOL    HW1 2195   5.208   2.131   0.918
  432SOL    HW2 2196   5.369   2.153   0.937
  433SOL     OW 2197   3.715   6.564   6.391
  433SOL    HW1 2198   3.680   6.506   6.465
  433SOL    HW2 2199   3.807   6.535   6.366
  434SOL     OW 2200   3.778   6.326   3.752
  434SOL    HW1 2201   3.679   6.339   3.755
  434SOL    HW2 2202   3.799   6.228   3.753
  435SOL     OW 2203   3.664   1.594   5.671
  435SOL    HW1 2204   3.631   1.503   5.643
  435SOL    HW2 2205   3.594   1.640   5.726
  436SOL     OW 2206   3.270   5.934   3.127
  436SOL    HW1 2207   3.216   5.884   3.194
  436SOL    HW2 2208   3.335   5.993   3.174
  437SOL     OW 2209   0.032   1.155   4.408
  437SOL    HW1 2210   0.035   1.098   4.490
  437SOL    HW2 2211   7.012   1.104   4.334
  438SOL     OW 2212   1.167   5.231   3.395
  438SOL    HW1 2213   1.259   5.215   3.431
  438SOL    HW2 2214   1.108   5.153   3.415
  439SOL     OW 2215   6.018   0.828   2.722
  439SOL    HW1 2216   5.923   0.819   2.691
  439SOL    HW2 2217   6.075   0.762   2.673
  440SOL     OW 2218   3.758   1.046   0.046
  440SOL    HW1 2219   3.679   0.988   0.029
  440SOL    HW2 2220   3.730   1.127   0.098
  441SOL     OW 2221   6.725   4.095   3.234
  441SOL    HW1 2222   6.805   4.037   3.215
  441SOL    HW2 2223   6.749   4.163   3.304
  442SOL     OW 2224   4.844   4.398   5.825
  442SOL    HW1 2225   4.902   4.366   5.751
  442SOL    HW2 2226   4.888   4.378   5.913
  443SOL     OW 2227   4.725   4.260   2.989
  443SOL    HW1 2228   4.760   4.346   3.024
  443SOL    HW2 2229   4.800   4.205   2.953
  444SOL     OW 2230   3.847   1.654   0.426
  444SOL    HW1 2231   3.750   1.669   0.407
  444SOL    HW2 2232   3.888   1.602   0.351
  445SOL     OW 2233   2.801   6.372   2.716
  445SOL    HW1 2234   2.832   6.340   2.806
  445SOL    HW2 2235   2.701   6.382   2.717
  446SOL     OW 2236   5.186   5.682   2.930
  446SOL    HW1 2237   5.281   5.701   2.952
  446SOL    HW2 2238   5.148   5.618   2.998
  447SOL     OW 2239   6.361   3.853   6.115
  447SOL    HW1 2240   6.365   3.908   6.198
  447SOL    HW2 2241   6.266   3.844   6.086
  448SOL     OW 2242   2.866   1.196   2.579
  448SOL    HW1 2243   2.815   1.276   2.546
  448SOL    HW2 2244   2.888   1.208   2.676
  449SOL     OW 2245   1.999   2.759   3.804
  449SOL    HW1 2246   2.062   2.793   3.734
  449SOL    HW2 2247   2.030   2.670   3.837
  450SOL     OW 2248   0.385   4.988   3.613
  450SOL    HW1 2249   0.417   4.969   3.706
  450SOL    HW2 2250   0.461   5.022   3.558
  451SOL     OW 2251   0.239   2.542   3.517
  451SOL    HW1 2252   0.205   2.456   3.555
  451SOL    HW2 2253   0.262   2.529   3.421
  452SOL     OW 2254   3.568   6.482   2.900
  452SOL    HW1 2255   3.522   6.395   2.885
  452SOL    HW2 2256   3.508   6.557   2.874
  453SOL     OW 2257   4.118   0.351   6.798
  453SOL    HW1 2258   4.193   0.350   6.732
  453SOL    HW2 2259   4.054   0.277   6.777
  454SOL     OW 2260   6.506   4.293   6.040
  454SOL    HW1 2261   6.423   4.335   6.075
  454SOL    HW2 2262   6.570   4.278   6.116
  455SOL     OW 2263   0.169   4.075   5.896
  455SOL    HW1 2264   0.176   4.070   5.797
  455SOL    HW2 2265   0.247   4.027   5.937
  456SOL     OW 2266   1.884   0.939   3.367
  456SOL    HW1 2267   1.821   0.878   3.413
  456SOL    HW2 2268   1.955   0.969   3.431
  457SOL     OW 2269   1.442   5.910   6.022
  457SOL    HW1 2270   1.540   5.926   6.009
  457SOL    HW2 2271   1.429   5.824   6.071
  458SOL     OW 2272   2.759   1.629   3.228
  458SOL    HW1 2273   2.779   1.570   3.307
  458SOL    HW2 2274   2.680   1.593   3.179
  459SOL     OW 2275   2.266   0.104   5.089
  459SOL    HW1 2276   2.293   0.166   5.163
  459SOL    HW2 2277   2.168   0.113   5.072
  460SOL     OW 2278   1.249   1.339   5.045
  460SOL    HW1 2279   1.214   1.429   5.072
  460SOL    HW2 2280   1.323   1.351   4.979
  461SOL     OW 2281   6.868   4.671   5.436
  461SOL    HW1 2282   6.789   4.715   5.477
  461SOL    HW2 2283   6.926   4.632   5.507
  462SOL     OW 2284   3.491   3.695   4.287
  462SOL    HW1 2285   3.484   3.792   4.266
  462SOL    HW2 2286   3.419   3.670   4.352
  463SOL     OW 2287   6.186   0.050   2.524
  463SOL    HW1 2288   6.205   0.085   2.432
  463SOL    HW2 2289   6.091   0.068   2.548
  464SOL     OW 2290   3.566   6.406   6.064
  464SOL    HW1 2291   3.550   6.373   5.971
  464SOL    HW2 2292   3.494   6.371   6.124
  465SOL     OW 2293   1.425   1.983   0.786
  465SOL    HW1 2294   1.405   2.081   0.778
  465SOL    HW2 2295   1.403   1.938   0.699
  466SOL     OW 2296   3.452   6.276   4.956
  466SOL    HW1 2297   3.418   6.362   4.994
  466SOL    HW2 2298   3.546   6.261   4.989
  467SOL     OW 2299   0.419   2.038   2.844
  467SOL    HW1 2300   0.376   2.051   2.933
  467SOL    HW2 2301   0.411   2.123   2.791
  468SOL     OW 2302   4.534   0.215   6.395
  468SOL    HW1 2303   4.495   0.132   6.353
  468SOL    HW2 2304   4.610   0.190   6.454
  469SOL     OW 2305   2.833   4.341   5.602
  469SOL    HW1 2306   2.849   4.424   5.549
  469SOL    HW2 2307   2.794   4.270   5.543
  470SOL     OW 2308   2.569   5.435   3.272
  470SOL    HW1 2309   2.628   5.355   3.282
  470SOL    HW2 2310   2.517   5.428   3.186
  471SOL     OW 2311   2.673   2.406   3.821
  471SOL    HW1 2312   2.617   2.338   3.774
  471SOL    HW2 2313   2.759   2.363   3.851
  472SOL     OW 2314   6.087   4.395   6.435
  472SOL    HW1 2315   6.080   4.395   6.335
  472SOL    HW2 2316   6.172   4.349   6.462
  473SOL     OW 2317   6.858   2.639   2.687
  473SOL    HW1 2318   6.944   2.604   2.725
  473SOL    HW2 2319   6.804   2.563   2.650
  474SOL     OW 2320   6.523   6.095   4.715
  474SOL    HW1 2321   6.547   6.022   4.651
  474SOL    HW2 2322   6.518   6.182   4.665
  475SOL     OW 2323   5.635   2.319   0.139
  475SOL    HW1 2324   5.621   2.330   0.041
  475SOL    HW2 2325   5.726   2.283   0.157
  476SOL     OW 2326   0.830   4.200   2.168
  476SOL    HW1 2327   0.833   4.104   2.196
  476SOL    HW2 2328   0.737   4.235   2.178
  477SOL     OW 2329   2.826   6.274   3.904
  477SOL    HW1 2330   2.800   6.289   3.808
  477SOL    HW2 2331   2.807   6.179   3.929
  478SOL     OW 2332   4.546   5.889   2.684
  478SOL    HW1 2333   4.535   5.794   2.656
  478SOL    HW2 2334   4.508   5.901   2.775
  479SOL     OW 2335   4.089   3.593   4.156
  479SOL    HW1 2336   4.110   3.531   4.080
  479SOL    HW2 2337   3.994   3.624   4.148
  480SOL     OW 2338   1.252   6.472   2.778
  480SOL    HW1 2339   1.153   6.487   2.778
  480SOL    HW2 2340   1.283   6.457   2.872
  481SOL     OW 2341   0.697   5.966   0.942
  481SOL    HW1 2342   0.779   5.940   0.890
  481SOL    HW2 2343   0.722   6.029   1.015
  482SOL     OW 2344   5.597   4.254   2.588
  482SOL    HW1 2345   5.683   4.304   2.575
  482SOL    HW2 2346   5.549   4.248   2.501
  483SOL     OW 2347   6.081   1.925   2.868
  483SOL    HW1 2348   6.017   1.963   2.802
  483SOL    HW2 2349   6.097   1.992   2.941
  484SOL     OW 2350   2.015   4.370   4.766
  484SOL    HW1 2351   2.038   4.453   4.817
  484SOL    HW2 2352   2.087   4.302   4.778
  485SOL     OW 2353   5.780   3.414   2.760
  485SOL    HW1 2354   5.749   3.324   2.731
  485SOL    HW2 2355   5.860   3.404   2.818
  486SOL     OW 2356   6.188   6.967   6.358
  486SOL    HW1 2357   6.215   6.872   6.342
  486SOL    HW2 2358   6.107   6.968   6.416
  487SOL     OW 2359   0.292   6.562   3.531
  487SOL    HW1 2360   0.258   6.654   3.555
  487SOL    HW2 2361   0.290   6.551   3.431
  488SOL     OW 2362   1.951   6.886   3.152
  488SOL    HW1 2363   1.868   6.898   3.097
  488SOL    HW2 2364   1.937   6.809   3.215
  489SOL     OW 2365   6.902   5.941   4.701
  489SOL    HW1 2366   6.833   5.898   4.759
  489SOL    HW2 2367   6.860   6.013   4.646
  490SOL     OW 2368   1.504   5.484   5.919
  490SOL    HW1 2369   1.561   5.407   5.948
  490SOL    HW2 2370   1.501   5.487   5.819
  491SOL     OW 2371   0.058   2.918   0.367
  491SOL    HW1 2372   0.041   2.886   0.460
  491SOL    HW2 2373   0.065   2.839   0.305
  492SOL     OW 2374   1.382   1.341   5.576
  492SOL    HW1 2375   1.339   1.251   5.570
  492SOL    HW2 2376   1.341   1.392   5.652
  493SOL     OW 2377   2.717   6.875   5.046
  493SOL    HW1 2378   2.790   6.808   5.060
  493SOL    HW2 2379   2.678   6.863   4.956
  494SOL     OW 2380   2.347   0.540   5.543
  494SOL    HW1 2381   2.429   0.494   5.574
  494SOL    HW2 2382   2.341   0.631   5.584
  495SOL     OW 2383   4.297   6.270   5.570
  495SOL    HW1 2384   4.200   6.285   5.583
  495SOL    HW2 2385   4.329   6.199   5.632
  496SOL     OW 2386   6.137   2.315   2.529
  496SOL    HW1 2387   6.041   2.339   2.543
  496SOL    HW2 2388   6.159   2.234   2.584
  497SOL     OW 2389   3.504   0.917   6.258
  497SOL    HW1 2390   3.549   0.829   6.274
  497SOL    HW2 2391   3.573   0.988   6.246
  498SOL     OW 2392   0.196   5.586   2.149
  498SOL    HW1 2393   0.262   5.659   2.165
  498SOL    HW2 2394   0.156   5.597   2.057
  499SOL     OW 2395   3.324   4.515   6.347
  499SOL    HW1 2396   3.423   4.529   6.336
  499SOL    HW2 2397   3.295   4.436   6.293
  500SOL     OW 2398   5.749   2.479   6.434
  500SOL    HW1 2399   5.739   2.521   6.525
  500SOL    HW2 2400   5.838   2.502   6.397
  501SOL     OW 2401   1.472   6.859   2.750
  501SOL    HW1 2402   1.501   6.891   2.660
  501SOL    HW2 2403   1.536   6.789   2.784
  502SOL     OW 2404   2.065   4.513   5.926
  502SOL    HW1 2405   2.082   4.415   5.928
  502SOL    HW2 2406   2.052   4.547   6.020
  503SOL     OW 2407   3.294   4.544   6.810
  503SOL    HW1 2408   3.195   4.534   6.798
  503SOL    HW2 2409   3.341   4.480   6.750
  504SOL     OW 2410   6.695   6.131   1.899
  504SOL    HW1 2411   6.649   6.171   1.820
  504SOL    HW2 2412   6.683   6.191   1.978
  505SOL     OW 2413   4.753   6.808   5.167
  505SOL    HW1 2414   4.691   6.797   5.245
  505SOL    HW2 2415   4.744   6.730   5.106
  506SOL     OW 2416   3.089   5.691   2.853
  506SOL    HW1 2417   3.163   5.647   2.904
  506SOL    HW2 2418   3.087   5.788   2.874
  507SOL     OW 2419   4.307   1.105   1.892
  507SOL    HW1 2420   4.235   1.043   1.861
  507SOL    HW2 2421   4.376   1.114   1.821
  508SOL     OW 2422   6.993   3.985   4.201
  508SOL    HW1 2423   0.029   3.951   4.273
  508SOL    HW2 2424   6.967   3.910   4.141
  509SOL     OW 2425   4.862   0.546   6.715
  509SOL    HW1 2426   4.874   0.613   6.789
  509SOL    HW2 2427   4.923   0.569   6.639
  510SOL     OW 2428   6.409   4.531   6.250
  510SOL    HW1 2429   6.313   4.506   6.239
  510SOL    HW2 2430   6.463   4.450   6.271
  511SOL     OW 2431   1.537   1.556   0.025
  511SOL    HW1 2432   1.532   1.581   0.121
  511SOL    HW2 2433   1.450   1.579   7.005
  512SOL     OW 2434   5.424   2.726   0.017
  512SOL    HW1 2435   5.457   2.713   6.948
  512SOL    HW2 2436   5.339   2.676   0.030
  513SOL     OW 2437   5.317   0.383   2.355
  513SOL    HW1 2438   5.371   0.385   2.272
  513SOL    HW2 2439   5.230   0.430   2.340
  514SOL     OW 2440   6.927   6.746   4.246
  514SOL    HW1 2441   6.978   6.796   4.175
  514SOL    HW2 2442   6.957   6.650   4.247
  515SOL     OW 2443   2.748   0.555   6.227
  515SOL    HW1 2444   2.828   0.521   6.276
  515SOL    HW2 2445   2.774   0.637   6.175
  516SOL     OW 2446   2.587   4.479   1.137
  516SOL    HW1 2447   2.534   4.473   1.053
  516SOL    HW2 2448   2.679   4.445   1.121
  517SOL     OW 2449   3.019   5.262   2.521
  517SOL    HW1 2450   3.043   5.325   2.595
  517SOL    HW2 2451   3.072   5.178   2.530
  518SOL     OW 2452   2.092   3.356   3.447
  518SOL    HW1 2453   2.096   3.358   3.547
  518SOL    HW2 2454   2.047   3.438   3.413
  519SOL     OW 2455   6.581   6.238   3.697
  519SOL    HW1 2456   6.502   6.294   3.722
  519SOL    HW2 2457   6.612   6.188   3.778
  520SOL     OW 2458   1.171   3.454   0.018
  520SOL    HW1 2459   1.209   3.461   6.951
  520SOL    HW2 2460   1.109   3.375   0.022
  521SOL     OW 2461   4.881   4.972   4.414
  521SOL    HW1 2462   4.887   4.874   4.435
  521SOL    HW2 2463   4.804   5.012   4.465
  522SOL     OW 2464   4.355   3.857   1.364
  522SOL    HW1 2465   4.281   3.838   1.428
  522SOL    HW2 2466   4.318   3.868   1.272
  523SOL     OW 2467   0.137   6.227   1.576
  523SOL    HW1 2468   0.143   6.154   1.508
  523SOL    HW2 2469   0.075   6.299   1.542
  524SOL     OW 2470   0.347   2.949   2.198
  524SOL    HW1 2471   0.368   2.932   2.102
  524SOL    HW2 2472   0.422   2.916   2.255
  525SOL     OW 2473   1.004   3.047   6.987
  525SOL    HW1 2474   1.095   3.036   0.001
  525SOL    HW2 2475   0.966   3.135   7.013
  526SOL     OW 2476   3.740   6.910   4.354
  526SOL    HW1 2477   3.723   6.906   4.452
  526SOL    HW2 2478   3.672   6.970   4.311
  527SOL     OW 2479   1.445   1.945   0.143
  527SOL    HW1 2480   1.437   2.032   0.192
  527SOL    HW2 2481   1.390   1.875   0.190
  528SOL     OW 2482   0.003   3.791   4.010
  528SOL    HW1 2483   0.098   3.822   4.006
  528SOL    HW2 2484   6.979   3.824   3.929
  529SOL     OW 2485   3.016   0.183   5.497
  529SOL    HW1 2486   2.957   0.225   5.428
  529SOL    HW2 2487   2.967   0.106   5.539
  530SOL     OW 2488   3.684   3.311   1.913
  530SOL    HW1 2489   3.622   3.353   1.847
  530SOL    HW2 2490   3.632   3.254   1.977
  531SOL     OW 2491   2.644   0.879   2.599
  531SOL    HW1 2492   2.684   0.925   2.520
  531SOL    HW2 2493   2.664   0.932   2.682
  532SOL     OW 2494   2.232   3.499   0.302
  532SOL    HW1 2495   2.212   3.505   0.400
  532SOL    HW2 2496   2.148   3.512   0.249
  533SOL     OW 2497   4.787   0.054   3.662
  533SOL    HW1 2498   4.846   7.014   3.614
  533SOL    HW2 2499   4.767   0.132   3.603
  534SOL     OW 2500   0.944   5.658   1.219
  534SOL    HW1 2501   0.946   5.757   1.204
  534SOL    HW2 2502   0.955   5.639   1.317
  535SOL     OW 2503   6.235   4.284   3.267
  535SOL    HW1 2504   6.320   4.232   3.272
  535SOL    HW2 2505   6.159   4.222   3.247
  536SOL     OW 2506   6.672   5.886   3.050
  536SOL    HW1 2507   6.599   5.817   3.046
  536SOL    HW2 2508   6.732   5.866   3.127
  537SOL     OW 2509   4.024   6.750   4.315
  537SOL    HW1 2510   3.939   6.798   4.338
  537SOL    HW2 2511   4.020   6.657   4.350
  538SOL     OW 2512   2.181   4.961   5.519
  538SOL    HW1 2513   2.115   5.028   5.553
  538SOL    HW2 2514   2.135   4.900   5.454
  539SOL     OW 2515   1.512   5.544   1.552
  539SOL    HW1 2516   1.513   5.446   1.533
  539SOL    HW2 2517   1.604   5.582   1.539
  540SOL     OW 2518   1.835   1.435   4.074
  540SOL    HW1 2519   1.855   1.341   4.103
  540SOL    HW2 2520   1.758   1.434   4.010
  541SOL     OW 2521   4.223   6.008   3.735
  541SOL    HW1 2522   4.172   5.955   3.802
  541SOL    HW2 2523   4.185   6.101   3.730
  542SOL     OW 2524   3.740   5.673   6.605
  542SOL    HW1 2525   3.691   5.747   6.652
  542SOL    HW2 2526   3.676   5.601   6.582
  543SOL     OW 2527   5.878   3.683   4.072
  543SOL    HW1 2528   5.815   3.647   4.003
  543SOL    HW2 2529   5.924   3.764   4.036
  544SOL     OW 2530   0.840   4.721   0.052
  544SOL    HW1 2531   0.774   4.677   7.016
  544SOL    HW2 2532   0.917   4.755   7.022
  545SOL     OW 2533   5.588   1.647   1.254
  545SOL    HW1 2534   5.636   1.732   1.276
  545SOL    HW2 2535   5.490   1.662   1.257
  546SOL     OW 2536   0.249   4.433   2.282
  546SOL    HW1 2537   0.153   4.405   2.276
  546SOL    HW2 2538   0.277   4.472   2.194
  547SOL     OW 2539   3.575   2.065   0.573
  547SOL    HW1 2540   3.589   1.991   0.507
  547SOL    HW2 2541   3.603   2.152   0.531
  548SOL     OW 2542   3.553   3.248   0.791
  548SOL    HW1 2543   3.486   3.174   0.796
  548SOL    HW2 2544   3.631   3.226   0.850
  549SOL     OW 2545   5.190   2.575   0.769
  549SOL    HW1 2546   5.199   2.512   0.692
  549SOL    HW2 2547   5.217   2.529   0.853
  550SOL     OW 2548   7.000   4.284   3.337
  550SOL    HW1 2549   6.919   4.291   3.395
  550SOL    HW2 2550   0.044   4.227   3.382
  551SOL     OW 2551   6.628   1.035   0.968
  551SOL    HW1 2552   6.604   0.939   0.987
  551SOL    HW2 2553   6.727   1.046   0.976
  552SOL     OW 2554   5.354   5.480   4.885
  552SOL    HW1 2555   5.260   5.448   4.895
  552SOL    HW2 2556   5.360   5.576   4.913
  553SOL     OW 2557   3.418   0.520   4.367
  553SOL    HW1 2558   3.437   0.591   4.299
  553SOL    HW2 2559   3.319   0.508   4.375
  554SOL     OW 2560   5.768   5.661   0.076
  554SOL    HW1 2561   5.806   5.593   0.139
  554SOL    HW2 2562   5.668   5.663   0.085
  555SOL     OW 2563   3.515   5.773   5.529
  555SOL    HW1 2564   3.510   5.873   5.516
  555SOL    HW2 2565   3.593   5.737   5.479
  556SOL     OW 2566   5.313   1.885   4.546
  556SOL    HW1 2567   5.253   1.832   4.605
  556SOL    HW2 2568   5.360   1.823   4.483
  557SOL     OW 2569   6.777   4.361   6.265
  557SOL    HW1 2570   6.680   4.360   6.290
  557SOL    HW2 2571   6.798   4.281   6.209
  558SOL     OW 2572   4.066   3.706   3.371
  558SOL    HW1 2573   4.131   3.653   3.317
  558SOL    HW2 2574   4.079   3.804   3.351
  559SOL     OW 2575   6.187   5.651   5.728
  559SOL    HW1 2576   6.147   5.683   5.814
  559SOL    HW2 2577   6.139   5.569   5.698
  560SOL     OW 2578   6.599   2.953   3.995
  560SOL    HW1 2579   6.511   2.917   4.028
  560SOL    HW2 2580   6.657   2.878   3.966
  561SOL     OW 2581   6.835   3.310   6.473
  561SOL    HW1 2582   6.929   3.279   6.487
  561SOL    HW2 2583   6.803   3.356   6.556
  562SOL     OW 2584   5.136   6.904   5.704
  562SOL    HW1 2585   5.114   6.866   5.614
  562SOL    HW2 2586   5.172   6.997   5.693
  563SOL     OW 2587   1.723   1.816   4.259
  563SOL    HW1 2588   1.804   1.853   4.213
  563SOL    HW2 2589   1.644   1.875   4.241
  564SOL     OW 2590   0.099   1.518   6.815
  564SOL    HW1 2591   0.066   1.444   6.756
  564SOL    HW2 2592   0.043   1.521   6.898
  565SOL     OW 2593   3.158   2.993   3.800
  565SOL    HW1 2594   3.141   2.928   3.875
  565SOL    HW2 2595   3.235   3.052   3.825
  566SOL     OW 2596   2.427   4.948   2.814
  566SOL    HW1 2597   2.435   4.963   2.715
  566SOL    HW2 2598   2.486   4.871   2.841
  567SOL     OW 2599   2.743   2.640   0.464
  567SOL    HW1 2600   2.714   2.709   0.531
  567SOL    HW2 2601   2.670   2.573   0.453
  568SOL     OW 2602   5.543   6.790   0.680
  568SOL    HW1 2603   5.478   6.864   0.664
  568SOL    HW2 2604   5.635   6.819   0.653
  569SOL     OW 2605   1.023   2.460   0.465
  569SOL    HW1 2606   1.072   2.431   0.547
  569SOL    HW2 2607   1.026   2.560   0.457
  570SOL     OW 2608   2.949   0.214   5.786
  570SOL    HW1 2609   2.961   0.270   5.704
  570SOL    HW2 2610   3.000   0.254   5.862
  571SOL     OW 2611   2.637   5.008   3.456
  571SOL    HW1 2612   2.612   4.949   3.380
  571SOL    HW2 2613   2.594   5.098   3.443
  572SOL     OW 2614   1.860   5.907   4.683
  572SOL    HW1 2615   1.867   5.814   4.647
  572SOL    HW2 2616   1.952   5.942   4.704
  573SOL     OW 2617   6.447   1.447   5.464
  573SOL    HW1 2618   6.499   1.507   5.525
  573SOL    HW2 2619   6.415   1.367   5.514
  574SOL     OW 2620   3.493   1.049   5.028
  574SOL    HW1 2621   3.560   0.988   5.072
  574SOL    HW2 2622   3.533   1.140   5.018
  575SOL     OW 2623   4.178   2.900   1.056
  575SOL    HW1 2624   4.264   2.884   1.006
  575SOL    HW2 2625   4.178   2.845   1.139
  576SOL     OW 2626   1.958   2.848   2.716
  576SOL    HW1 2627   2.036   2.907   2.697
  576SOL    HW2 2628   1.877   2.904   2.731
  577SOL     OW 2629   0.851   0.511   2.499
  577SOL    HW1 2630   0.883   0.591   2.447
  577SOL    HW2 2631   0.784   0.461   2.444
  578SOL     OW 2632   1.718   5.558   0.064
  578SOL    HW1 2633   1.775   5.596   0.137
  578SOL    HW2 2634   1.756   5.470   0.035
  579SOL     OW 2635   1.971   4.887   2.569
  579SOL    HW1 2636   1.927   4.813   2.620
  579SOL    HW2 2637   2.070   4.870   2.563
  580SOL     OW 2638   4.606   5.173   5.212
  580SOL    HW1 2639   4.580   5.177   5.309
  580SOL    HW2 2640   4.542   5.114   5.163
  581SOL     OW 2641   0.643   3.439   3.763
  581SOL    HW1 2642   0.692   3.360   3.727
  581SOL    HW2 2643   0.690   3.523   3.736
  582SOL     OW 2644   4.731   5.544   3.566
  582SOL    HW1 2645   4.763   5.584   3.652
  582SOL    HW2 2646   4.809   5.531   3.505
  583SOL     OW 2647   3.261   5.394   5.404
  583SOL    HW1 2648   3.329   5.352   5.463
  583SOL    HW2 2649   3.194   5.325   5.377
  584SOL     OW 2650   3.259   6.822   6.317
  584SOL    HW1 2651   3.336   6.839   6.255
  584SOL    HW2 2652   3.287   6.755   6.386
  585SOL     OW 2653   4.109   0.179   1.197
  585SOL    HW1 2654   4.134   0.084   1.178
  585SOL    HW2 2655   4.033   0.181   1.261
  586SOL     OW 2656   3.592   0.426   1.092
  586SOL    HW1 2657   3.610   0.524   1.084
  586SOL    HW2 2658   3.678   0.376   1.086
  587SOL     OW 2659   5.577   2.320   2.389
  587SOL    HW1 2660   5.516   2.324   2.310
  587SOL    HW2 2661   5.543   2.381   2.460
  588SOL     OW 2662   1.769   5.191   1.032
  588SOL    HW1 2663   1.798   5.108   0.986
  588SOL    HW2 2664   1.780   5.180   1.131
  589SOL     OW 2665   3.062   5.566   1.349
  589SOL    HW1 2666   3.014   5.638   1.399
  589SOL    HW2 2667   3.160   5.581   1.355
  590SOL     OW 2668   5.304   1.455   0.589
  590SOL    HW1 2669   5.207   1.434   0.597
  590SOL    HW2 2670   5.347   1.390   0.527
  591SOL     OW 2671   4.665   5.926   3.568
  591SOL    HW1 2672   4.621   5.874   3.494
  591SOL    HW2 2673   4.597   5.952   3.636
  592SOL     OW 2674   4.931   0.826   3.558
  592SOL    HW1 2675   4.934   0.908   3.500
  592SOL    HW2 2676   4.888   0.849   3.645
  593SOL     OW 2677   4.129   2.098   4.994
  593SOL    HW1 2678   4.206   2.040   4.969
  593SOL    HW2 2679   4.148   2.193   4.969
  594SOL     OW 2680   5.884   1.691   0.983
  594SOL    HW1 2681   5.940   1.654   0.909
  594SOL    HW2 2682   5.791   1.704   0.950
  595SOL     OW 2683   5.311   6.063   3.247
  595SOL    HW1 2684   5.316   6.155   3.284
  595SOL    HW2 2685   5.344   5.997   3.315
  596SOL     OW 2686   0.117   5.067   3.652
  596SOL    HW1 2687   0.088   5.002   3.722
  596SOL    HW2 2688   0.210   5.045   3.622
  597SOL     OW 2689   2.983   0.250   6.106
  597SOL    HW1 2690   2.893   0.217   6.077
  597SOL    HW2 2691   3.002   0.219   6.199
  598SOL     OW 2692   3.295   4.091   4.881
  598SOL    HW1 2693   3.229   4.108   4.953
  598SOL    HW2 2694   3.336   4.001   4.893
  599SOL     OW 2695   1.974   6.698   1.917
  599SOL    HW1 2696   2.025   6.734   1.839
  599SOL    HW2 2697   2.025   6.716   2.001
  600SOL     OW 2698   0.377   3.591   5.716
  600SOL    HW1 2699   0.421   3.678   5.691
  600SOL    HW2 2700   0.280   3.608   5.735
  601SOL     OW 2701   1.689   0.886   5.184
  601SOL    HW1 2702   1.692   0.983   5.205
  601SOL    HW2 2703   1.630   0.871   5.104
  602SOL     OW 2704   3.078   0.464   5.985
  602SOL    HW1 2705   3.076   0.375   6.032
  602SOL    HW2 2706   3.054   0.536   6.049
  603SOL     OW 2707   1.703   1.598   5.533
  603SOL    HW1 2708   1.708   1.508   5.491
  603SOL    HW2 2709   1.790   1.646   5.520
  604SOL     OW 2710   0.386   2.605   1.728
  604SOL    HW1 2711   0.416   2.535   1.792
  604SOL    HW2 2712   0.465   2.640   1.678
  605SOL     OW 2713   0.077   4.980   2.315
  605SOL    HW1 2714   0.171   4.967   2.346
  605SOL    HW2 2715   0.035   5.055   2.366
  606SOL     OW 2716   4.547   6.931   5.353
  606SOL    HW1 2717   4.466   6.883   5.387
  606SOL    HW2 2718   4.520   7.014   5.305
  607SOL     OW 2719   0.519   4.631   5.540
  607SOL    HW1 2720   0.441   4.616   5.479
  607SOL    HW2 2721   0.487   4.668   5.627
  608SOL     OW 2722   3.529   7.002   6.931
  608SOL    HW1 2723   3.522   6.922   6.872
  608SOL    HW2 2724   3.465   6.993   7.008
  609SOL     OW 2725   3.761   2.549   1.701
  609SOL    HW1 2726   3.705   2.620   1.743
  609SOL    HW2 2727   3.755   2.465   1.756
  610SOL     OW 2728   4.145   2.229   0.276
  610SOL    HW1 2729   4.172   2.322   0.253
  610SOL    HW2 2730   4.218   2.185   0.328
  611SOL     OW 2731   3.996   0.130   2.929
  611SOL    HW1 2732   4.039   0.050   2.887
  611SOL    HW2 2733   3.971   0.195   2.858
  612SOL     OW 2734   2.925   5.065   5.219
  612SOL    HW1 2735   2.915   5.136   5.150
  612SOL    HW2 2736   2.848   5.001   5.213
  613SOL     OW 2737   5.375   4.878   4.891
  613SOL    HW1 2738   5.341   4.972   4.892
  613SOL    HW2 2739   5.314   4.819   4.944
  614SOL     OW 2740   4.945   4.888   5.136
  614SOL    HW1 2741   4.961   4.892   5.038
  614SOL    HW2 2742   4.923   4.979   5.170
  615SOL     OW 2743   6.783   3.839   0.629
  615SOL    HW1 2744   6.773   3.745   0.660
  615SOL    HW2 2745   6.792   3.900   0.708
  616SOL     OW 2746   6.434   2.748   2.883
  616SOL    HW1 2747   6.350   2.694   2.873
  616SOL    HW2 2748   6.421   2.818   2.953
  617SOL     OW 2749   1.585   4.963   6.640
  617SOL    HW1 2750   1.663   5.024   6.624
  617SOL    HW2 2751   1.507   5.017   6.671
  618SOL     OW 2752   1.895   2.387   1.557
  618SOL    HW1 2753   1.872   2.319   1.487
  618SOL    HW2 2754   1.814   2.440   1.580
  619SOL     OW 2755   1.812   2.036   1.014
  619SOL    HW1 2756   1.832   2.116   0.957
  619SOL    HW2 2757   1.889   2.020   1.077
  620SOL     OW 2758   4.345   1.663   0.448
  620SOL    HW1 2759   4.367   1.699   0.358
  620SOL    HW2 2760   4.269   1.715   0.487
  621SOL     OW 2761   5.947   5.100   6.675
  621SOL    HW1 2762   5.919   5.154   6.597
  621SOL    HW2 2763   6.029   5.141   6.717
  622SOL     OW 2764   1.526   1.153   0.281
  622SOL    HW1 2765   1.575   1.228   0.325
  622SOL    HW2 2766   1.523   1.170   0.182
  623SOL     OW 2767   0.474   6.238   5.572
  623SOL    HW1 2768   0.541   6.179   5.528
  623SOL    HW2 2769   0.515   6.328   5.589
  624SOL     OW 2770   0.631   2.914   2.375
  624SOL    HW1 2771   0.668   2.872   2.293
  624SOL    HW2 2772   0.647   2.855   2.454
  625SOL     OW 2773   3.137   2.197   1.489
  625SOL    HW1 2774   3.190   2.151   1.560
  625SOL    HW2 2775   3.107   2.286   1.521
  626SOL     OW 2776   2.055   5.862   3.613
  626SOL    HW1 2777   2.034   5.857   3.516
  626SOL    HW2 2778   2.099   5.777   3.642
  627SOL     OW 2779   5.117   0.457   0.279
  627SOL    HW1 2780   5.123   0.373   0.333
  627SOL    HW2 2781   5.198   0.513   0.297
  628SOL     OW 2782   4.736   4.810   4.867
  628SOL    HW1 2783   4.809   4.876   4.852
  628SOL    HW2 2784   4.763   4.721   4.830
  629SOL     OW 2785   0.444   0.263   1.247
  629SOL    HW1 2786   0.413   0.339   1.305
  629SOL    HW2 2787   0.428   0.176   1.294
  630SOL     OW 2788   5.284   2.711   2.197
  630SOL    HW1 2789   5.208   2.680   2.255
  630SOL    HW2 2790   5.365   2.725   2.253
  631SOL     OW 2791   3.264   0.677   5.113
  631SOL    HW1 2792   3.225   0.587   5.097
  631SOL    HW2 2793   3.354   0.668   5.156
  632SOL     OW 2794   2.289   1.282   0.435
  632SOL    HW1 2795   2.309   1.269   0.532
  632SOL    HW2 2796   2.286   1.192   0.390
  633SOL     OW 2797   3.238   5.438   0.116
  633SOL    HW1 2798   3.176   5.390   0.179
  633SOL    HW2 2799   3.252   5.532   0.148
  634SOL     OW 2800   4.474   5.041   1.769
  634SOL    HW1 2801   4.453   5.065   1.674
  634SOL    HW2 2802   4.494   4.943   1.776
  635SOL     OW 2803   4.767   6.454   3.149
  635SOL    HW1 2804   4.744   6.506   3.231
  635SOL    HW2 2805   4.806   6.365   3.175
  636SOL     OW 2806   5.089   5.576   6.616
  636SOL    HW1 2807   5.146   5.548   6.693
  636SOL    HW2 2808   4.995   5.589   6.646
  637SOL     OW 2809   5.569   5.009   2.000
  637SOL    HW1 2810   5.565   5.105   1.972
  637SOL    HW2 2811   5.541   5.000   2.095
  638SOL     OW 2812   4.952   1.256   2.301
  638SOL    HW1 2813   4.926   1.338   2.249
  638SOL    HW2 2814   5.040   1.223   2.269
  639SOL     OW 2815   4.770   5.075   2.513
  639SOL    HW1 2816   4.740   5.170   2.512
  639SOL    HW2 2817   4.785   5.043   2.419
  640SOL     OW 2818   2.587   4.386   5.685
  640SOL    HW1 2819   2.533   4.305   5.708
  640SOL    HW2 2820   2.678   4.357   5.654
  641SOL     OW 2821   0.729   5.421   4.176
  641SOL    HW1 2822   0.696   5.461   4.090
  641SOL    HW2 2823   0.651   5.389   4.230
  642SOL     OW 2824   0.245   3.893   3.971
  642SOL    HW1 2825   0.264   3.977   4.021
  642SOL    HW2 2826   0.326   3.834   3.972
  643SOL     OW 2827   6.173   5.595   4.642
  643SOL    HW1 2828   6.140   5.505   4.613
  643SOL    HW2 2829   6.095   5.656   4.657
  644SOL     OW 2830   0.765   6.297   2.713
  644SOL    HW1 2831   0.718   6.365   2.658
  644SOL    HW2 2832   0.715   6.210   2.709
  645SOL     OW 2833   4.829   2.555   4.699
  645SOL    HW1 2834   4.829   2.460   4.667
  645SOL    HW2 2835   4.745   2.572   4.751
  646SOL     OW 2836   1.888   1.867   3.439
  646SOL    HW1 2837   1.834   1.951   3.438
  646SOL    HW2 2838   1.826   1.788   3.433
  647SOL     OW 2839   5.875   2.969   6.676
  647SOL    HW1 2840   5.851   2.919   6.593
  647SOL    HW2 2841   5.964   2.938   6.709
  648SOL     OW 2842   5.974   3.726   2.767
  648SOL    HW1 2843   5.931   3.699   2.681
  648SOL    HW2 2844   6.065   3.684   2.774
  649SOL     OW 2845   4.231   4.243   0.533
  649SOL    HW1 2846   4.321   4.200   0.527
  649SOL    HW2 2847   4.209   4.260   0.629
  650SOL     OW 2848   4.886   4.466   0.386
  650SOL    HW1 2849   4.804   4.437   0.436
  650SOL    HW2 2850   4.866   4.465   0.288
  651SOL     OW 2851   0.480   5.987   0.754
  651SOL    HW1 2852   0.412   5.915   0.761
  651SOL    HW2 2853   0.544   5.980   0.831
  652SOL     OW 2854   4.896   6.575   3.439
  652SOL    HW1 2855   4.804   6.606   3.462
  652SOL    HW2 2856   4.905   6.478   3.462
  653SOL     OW 2857   3.554   5.219   5.268
  653SOL    HW1 2858   3.552   5.179   5.360
  653SOL    HW2 2859   3.578   5.149   5.201
  654SOL     OW 2860   6.868   5.047   6.177
  654SOL    HW1 2861   6.815   5.070   6.259
  654SOL    HW2 2862   6.890   5.130   6.127
  655SOL     OW 2863   0.972   6.949   1.931
  655SOL    HW1 2864   1.042   6.880   1.948
  655SOL    HW2 2865   0.980   7.022   1.998
  656SOL     OW 2866   2.357   6.214   1.771
  656SOL    HW1 2867   2.425   6.252   1.709
  656SOL    HW2 2868   2.401   6.188   1.857
  657SOL     OW 2869   2.063   2.011   1.456
  657SOL    HW1 2870   2.154   1.984   1.425
  657SOL    HW2 2871   2.070   2.052   1.547
  658SOL     OW 2872   3.300   3.187   6.972
  658SOL    HW1 2873   3.380   3.150   7.018
  658SOL    HW2 2874   3.245   3.240   0.012
  659SOL     OW 2875   3.201   6.564   6.180
  659SOL    HW1 2876   3.204   6.654   6.223
  659SOL    HW2 2877   3.106   6.541   6.158
  660SOL     OW 2878   4.025   5.788   1.811
  660SOL    HW1 2879   4.076   5.731   1.745
  660SOL    HW2 2880   4.018   5.739   1.898
  661SOL     OW 2881   4.250   5.987   3.413
  661SOL    HW1 2882   4.251   6.072   3.361
  661SOL    HW2 2883   4.253   6.008   3.511
  662SOL     OW 2884   3.523   0.658   5.189
  662SOL    HW1 2885   3.593   0.728   5.174
  662SOL    HW2 2886   3.522   0.633   5.286
  663SOL     OW 2887   2.414   3.736   5.621
  663SOL    HW1 2888   2.439   3.729   5.524
  663SOL    HW2 2889   2.407   3.644   5.660
  664SOL     OW 2890   6.862   6.274   6.155
  664SOL    HW1 2891   6.871   6.341   6.081
  664SOL    HW2 2892   6.871   6.321   6.243
  665SOL     OW 2893   3.445   5.292   2.802
  665SOL    HW1 2894   3.490   5.381   2.804
  665SOL    HW2 2895   3.463   5.246   2.714
  666SOL     OW 2896   4.481   0.672   2.161
  666SOL    HW1 2897   4.526   0.616   2.091
  666SOL    HW2 2898   4.452   0.759   2.121
  667SOL     OW 2899   0.780   5.355   1.689
  667SOL    HW1 2900   0.868   5.310   1.706
  667SOL    HW2 2901   0.734   5.311   1.612
  668SOL     OW 2902   5.045   6.019   5.851
  668SOL    HW1 2903   5.143   6.036   5.865
  668SOL    HW2 2904   5.029   5.921   5.843
  669SOL     OW 2905   5.769   0.959   3.184
  669SOL    HW1 2906   5.711   1.026   3.232
  669SOL    HW2 2907   5.790   0.993   3.093
  670SOL     OW 2908   2.590   1.641   2.443
  670SOL    HW1 2909   2.499   1.680   2.439
  670SOL    HW2 2910   2.648   1.683   2.372
  671SOL     OW 2911   3.514   5.893   1.420
  671SOL    HW1 2912   3.486   5.963   1.486
  671SOL    HW2 2913   3.512   5.932   1.328
  672SOL     OW 2914   6.718   5.231   1.809
  672SOL    HW1 2915   6.674   5.309   1.855
  672SOL    HW2 2916   6.702   5.148   1.861
  673SOL     OW 2917   5.724   0.239   1.250
  673SOL    HW1 2918   5.817   0.205   1.240
  673SOL    HW2 2919   5.702   0.247   1.347
  674SOL     OW 2920   0.740   1.658   4.985
  674SOL    HW1 2921   0.794   1.707   5.053
  674SOL    HW2 2922   0.797   1.589   4.940
  675SOL     OW 2923   5.897   2.578   2.371
  675SOL    HW1 2924   5.942   2.615   2.290
  675SOL    HW2 2925   5.875   2.482   2.356
  676SOL     OW 2926   2.103   4.835   4.607
  676SOL    HW1 2927   2.047   4.809   4.686
  676SOL    HW2 2928   2.128   4.753   4.555
  677SOL     OW 2929   5.349   0.837   1.537
  677SOL    HW1 2930   5.427   0.848   1.599
  677SOL    HW2 2931   5.283   0.909   1.555
  678SOL     OW 2932   2.537   4.883   4.659
  678SOL    HW1 2933   2.550   4.789   4.692
  678SOL    HW2 2934   2.617   4.911   4.605
  679SOL     OW 2935   5.322   1.344   4.986
  679SOL    HW1 2936   5.296   1.336   4.890
  679SOL    HW2 2937   5.416   1.312   4.997
  680SOL     OW 2938   4.597   5.962   4.358
  680SOL    HW1 2939   4.607   5.872   4.401
  680SOL    HW2 2940   4.516   6.008   4.394
  681SOL     OW 2941   4.242   6.052   2.156
  681SOL    HW1 2942   4.227   6.045   2.058
  681SOL    HW2 2943   4.157   6.031   2.204
  682SOL     OW 2944   6.637   1.293   1.614
  682SOL    HW1 2945   6.588   1.235   1.550
  682SOL    HW2 2946   6.593   1.287   1.704
  683SOL     OW 2947   4.782   2.771   0.790
  683SOL    HW1 2948   4.838   2.690   0.802
  683SOL    HW2 2949   4.753   2.806   0.879
  684SOL     OW 2950   5.894   1.126   6.979
  684SOL    HW1 2951   5.909   1.069   6.898
  684SOL    HW2 2952   5.797   1.128   7.002
  685SOL     OW 2953   2.912   2.303   3.739
  685SOL    HW1 2954   3.004   2.280   3.708
  685SOL    HW2 2955   2.894   2.400   3.721
  686SOL     OW 2956   4.761   1.448   4.749
  686SOL    HW1 2957   4.687   1.439   4.682
  686SOL    HW2 2958   4.786   1.544   4.758
  687SOL     OW 2959   0.834   1.921   4.581
  687SOL    HW1 2960   0.931   1.907   4.600
  687SOL    HW2 2961   0.783   1.838   4.603
  688SOL     OW 2962   0.074   1.282   5.830
  688SOL    HW1 2963   0.112   1.361   5.782
  688SOL    HW2 2964   7.000   1.278   5.813
  689SOL     OW 2965   2.327   4.363   6.124
  689SOL    HW1 2966   2.267   4.335   6.049
  689SOL    HW2 2967   2.400   4.421   6.088
  690SOL     OW 2968   6.904   3.885   3.778
  690SOL    HW1 2969   6.864   3.799   3.746
  690SOL    HW2 2970   6.913   3.949   3.702
  691SOL     OW 2971   3.452   1.563   1.268
  691SOL    HW1 2972   3.482   1.593   1.359
  691SOL    HW2 2973   3.397   1.480   1.276
  692SOL     OW 2974   3.957   1.715   5.135
  692SOL    HW1 2975   4.001   1.712   5.225
  692SOL    HW2 2976   3.876   1.656   5.136
  693SOL     OW 2977   5.168   6.670   3.887
  693SOL    HW1 2978   5.106   6.605   3.930
  693SOL    HW2 2979   5.142   6.684   3.791
  694SOL     OW 2980   4.343   5.976   4.084
  694SOL    HW1 2981   4.396   6.059   4.063
  694SOL    HW2 2982   4.404   5.907   4.122
  695SOL     OW 2983   3.674   5.772   4.113
  695SOL    HW1 2984   3.600   5.709   4.135
  695SOL    HW2 2985   3.642   5.866   4.124
  696SOL     OW 2986   5.115   4.215   3.597
  696SOL    HW1 2987   5.101   4.307   3.633
  696SOL    HW2 2988   5.027   4.177   3.568
  697SOL     OW 2989   1.386   3.365   2.641
  697SOL    HW1 2990   1.399   3.441   2.704
  697SOL    HW2 2991   1.464   3.361   2.578
  698SOL     OW 2992   4.657   6.243   1.075
  698SOL    HW1 2993   4.639   6.149   1.049
  698SOL    HW2 2994   4.645   6.254   1.173
  699SOL     OW 2995   2.180   3.012   6.661
  699SOL    HW1 2996   2.157   3.077   6.588
  699SOL    HW2 2997   2.097   2.985   6.710
  700SOL     OW 2998   3.408   0.262   2.031
  700SOL    HW1 2999   3.347   0.194   2.073
  700SOL    HW2 3000   3.437   0.229   1.942
  701SOL     OW 3001   0.020   4.496   0.722
  701SOL    HW1 3002   0.012   4.487   0.821
  701SOL    HW2 3003   6.953   4.501   0.682
  702SOL     OW 3004   2.241   0.171   3.930
  702SOL    HW1 3005   2.294   0.160   3.846
  702SOL    HW2 3006   2.196   0.261   3.930
  703SOL     OW 3007   3.237   3.426   5.661
  703SOL    HW1 3008   3.258   3.395   5.569
  703SOL    HW2 3009   3.173   3.503   5.657
  704SOL     OW 3010   2.203   2.235   6.294
  704SOL    HW1 3011   2.279   2.288   6.256
  704SOL    HW2 3012   2.239   2.160   6.350
  705SOL     OW 3013   6.473   5.871   3.353
  705SOL    HW1 3014   6.379   5.838   3.342
  705SOL    HW2 3015   6.472   5.969   3.371
  706SOL     OW 3016   4.247   1.615   5.583
  706SOL    HW1 3017   4.315   1.653   5.645
  706SOL    HW2 3018   4.290   1.547   5.524
  707SOL     OW 3019   3.802   5.127   3.410
  707SOL    HW1 3020   3.842   5.169   3.328
  707SOL    HW2 3021   3.741   5.053   3.383
  708SOL     OW 3022   2.680   1.913   3.255
  708SOL    HW1 3023   2.718   1.829   3.217
  708SOL    HW2 3024   2.732   1.940   3.336
  709SOL     OW 3025   1.025   6.529   1.201
  709SOL    HW1 3026   1.107   6.579   1.175
  709SOL    HW2 3027   0.957   6.536   1.128
  710SOL     OW 3028   4.981   2.683   1.686
  710SOL    HW1 3029   4.963   2.640   1.774
  710SOL    HW2 3030   4.934   2.772   1.682
  711SOL     OW 3031   6.925   2.905   6.548
  711SOL    HW1 3032   6.891   2.859   6.467
  711SOL    HW2 3033   6.903   2.851   6.630
  712SOL     OW 3034   5.074   2.020   0.879
  712SOL    HW1 3035   5.083   2.005   0.780
  712SOL    HW2 3036   5.112   1.942   0.928
  713SOL     OW 3037   4.248   2.708   5.304
  713SOL    HW1 3038   4.163   2.749   5.337
  713SOL    HW2 3039   4.227   2.621   5.259
  714SOL     OW 3040   5.451   5.533   3.890
  714SOL    HW1 3041   5.543   5.504   3.862
  714SOL    HW2 3042   5.415   5.468   3.957
  715SOL     OW 3043   6.395   5.636   6.001
  715SOL    HW1 3044   6.402   5.548   5.953
  715SOL    HW2 3045   6.350   5.622   6.089
  716SOL     OW 3046   1.682   1.103   3.235
  716SOL    HW1 3047   1.636   1.148   3.311
  716SOL    HW2 3048   1.734   1.024   3.270
  717SOL     OW 3049   6.246   4.587   4.010
  717SOL    HW1 3050   6.325   4.526   4.005
  717SOL    HW2 3051   6.277   4.680   4.030
  718SOL     OW 3052   4.801   3.138   5.122
  718SOL    HW1 3053   4.887   3.095   5.152
  718SOL    HW2 3054   4.731   3.068   5.113
  719SOL     OW 3055   5.421   0.096   2.369
  719SOL    HW1 3056   5.334   0.139   2.346
  719SOL    HW2 3057   5.493   0.165   2.369
  720SOL     OW 3058   2.360   0.226   5.819
  720SOL    HW1 3059   2.350   0.278   5.904
  720SOL    HW2 3060   2.435   0.266   5.765
  721SOL     OW 3061   1.742   1.434   2.179
  721SOL    HW1 3062   1.830   1.451   2.223
  721SOL    HW2 3063   1.745   1.465   2.084
  722SOL     OW 3064   3.053   0.672   6.184
  722SOL    HW1 3065   3.030   0.768   6.199
  722SOL    HW2 3066   3.115   0.641   6.256
  723SOL     OW 3067   1.709   6.081   3.607
  723SOL    HW1 3068   1.632   6.045   3.555
  723SOL    HW2 3069   1.749   6.008   3.662
  724SOL     OW 3070   0.348   1.254   4.132
  724SOL    HW1 3071   0.252   1.282   4.121
  724SOL    HW2 3072   0.406   1.335   4.139
  725SOL     OW 3073   2.000   4.493   2.567
  725SOL    HW1 3074   1.987   4.578   2.617
  725SOL    HW2 3075   2.038   4.424   2.629
  726SOL     OW 3076   2.373   4.942   0.830
  726SOL    HW1 3077   2.308   5.006   0.789
  726SOL    HW2 3078   2.352   4.849   0.801
  727SOL     OW 3079   4.835   5.450   6.439
  727SOL    HW1 3080   4.911   5.392   6.468
  727SOL    HW2 3081   4.859   5.497   6.354
  728SOL     OW 3082   6.801   2.990   4.396
  728SOL    HW1 3083   6.724   3.024   4.450
  728SOL    HW2 3084   6.780   2.998   4.299
  729SOL     OW 3085   0.293   2.888   1.536
  729SOL    HW1 3086   0.231   2.898   1.615
  729SOL    HW2 3087   0.244   2.913   1.453
  730SOL     OW 3088   5.568   1.094   3.353
  730SOL    HW1 3089   5.505   1.105   3.276
  730SOL    HW2 3090   5.521   1.045   3.428
  731SOL     OW 3091   5.137   4.554   6.627
  731SOL    HW1 3092   5.219   4.503   6.602
  731SOL    HW2 3093   5.070   4.548   6.552
  732SOL     OW 3094   5.556   2.746   2.431
  732SOL    HW1 3095   5.603   2.718   2.348
  732SOL    HW2 3096   5.623   2.769   2.502
  733SOL     OW 3097   5.965   0.720   4.389
  733SOL    HW1 3098   5.890   0.757   4.335
  733SOL    HW2 3099   6.051   0.765   4.364
  734SOL     OW 3100   5.898   5.074   2.947
  734SOL    HW1 3101   5.968   5.069   2.875
  734SOL    HW2 3102   5.923   5.015   3.023
  735SOL     OW 3103   4.465   0.976   1.320
  735SOL    HW1 3104   4.532   1.031   1.370
  735SOL    HW2 3105   4.479   0.879   1.342
  736SOL     OW 3106   1.105   1.889   3.671
  736SOL    HW1 3107   1.136   1.814   3.613
  736SOL    HW2 3108   1.008   1.876   3.694
  737SOL     OW 3109   5.962   1.589   6.005
  737SOL    HW1 3110   5.930   1.570   6.098
  737SOL    HW2 3111   6.057   1.619   6.008
  738SOL     OW 3112   2.546   4.136   1.529
  738SOL    HW1 3113   2.476   4.076   1.568
  738SOL    HW2 3114   2.622   4.146   1.593
  739SOL     OW 3115   3.518   0.395   5.050
  739SOL    HW1 3116   3.487   0.387   4.955
  739SOL    HW2 3117   3.529   0.492   5.073
  740SOL     OW 3118   6.246   1.728   2.805
  740SOL    HW1 3119   6.237   1.682   2.717
  740SOL    HW2 3120   6.172   1.795   2.816
  741SOL     OW 3121   1.608   0.909   4.586
  741SOL    HW1 3122   1.528   0.914   4.645
  741SOL    HW2 3123   1.680   0.969   4.621
  742SOL     OW 3124   2.395   5.915   1.417
  742SOL    HW1 3125   2.369   5.923   1.514
  742SOL    HW2 3126   2.316   5.885   1.364
  743SOL     OW 3127   0.148   6.278   2.878
  743SOL    HW1 3128   0.158   6.364   2.928
  743SOL    HW2 3129   0.221   6.216   2.905
  744SOL     OW 3130   6.241   0.909   0.516
  744SOL    HW1 3131   6.193   0.996   0.525
  744SOL    HW2 3132   6.332   0.925   0.479
  745SOL     OW 3133   2.450   5.844   5.213
  745SOL    HW1 3134   2.464   5.767   5.152
  745SOL    HW2 3135   2.460   5.930   5.163
  746SOL     OW 3136   6.065   4.631   5.602
  746SOL    HW1 3137   6.054   4.532   5.596
  746SOL    HW2 3138   6.009   4.675   5.532
  747SOL     OW 3139   5.015   6.164   4.237
  747SOL    HW1 3140   4.992   6.236   4.302
  747SOL    HW2 3141   5.111   6.174   4.209
  748SOL     OW 3142   5.078   5.368   2.403
  748SOL    HW1 3143   4.981   5.393   2.397
  748SOL    HW2 3144   5.086   5.280   2.450
  749SOL     OW 3145   5.558   3.725   3.746
  749SOL    HW1 3146   5.634   3.688   3.799
  749SOL    HW2 3147   5.552   3.677   3.659
  750SOL     OW 3148   3.407   0.937   1.159
  750SOL    HW1 3149   3.355   0.882   1.224
  750SOL    HW2 3150   3.406   0.894   1.069
  751SOL     OW 3151   5.275   1.440   1.438
  751SOL    HW1 3152   5.360   1.392   1.417
  751SOL    HW2 3153   5.204   1.411   1.374
  752SOL     OW 3154   3.309   2.424   6.492
  752SOL    HW1 3155   3.278   2.366   6.568
  752SOL    HW2 3156   3.247   2.502   6.483
  753SOL     OW 3157   2.820   3.402   5.484
  753SOL    HW1 3158   2.792   3.313   5.449
  753SOL    HW2 3159   2.845   3.394   5.580
  754SOL     OW 3160   4.170   1.153   0.287
  754SOL    HW1 3161   4.263   1.118   0.278
  754SOL    HW2 3162   4.106   1.092   0.241
  755SOL     OW 3163   2.859   4.573   5.451
  755SOL    HW1 3164   2.766   4.609   5.458
  755SOL    HW2 3165   2.880   4.551   5.356
  756SOL     OW 3166   3.299   4.533   0.281
  756SOL    HW1 3167   3.304   4.576   0.191
  756SOL    HW2 3168   3.310   4.434   0.272
  757SOL     OW 3169   2.021   6.520   2.350
  757SOL    HW1 3170   2.070   6.576   2.284
  757SOL    HW2 3171   1.944   6.572   2.388
  758SOL     OW 3172   3.530   1.272   4.206
  758SOL    HW1 3173   3.444   1.317   4.231
  758SOL    HW2 3174   3.510   1.182   4.167
  759SOL     OW 3175   0.015   2.614   3.191
  759SOL    HW1 3176   6.999   2.667   3.117
  759SOL    HW2 3177   0.106   2.583   3.165
  760SOL     OW 3178   6.021   6.705   4.082
  760SOL    HW1 3179   6.038   6.735   4.175
  760SOL    HW2 3180   6.108   6.687   4.036
  761SOL     OW 3181   5.782   4.703   5.857
  761SOL    HW1 3182   5.795   4.619   5.803
  761SOL    HW2 3183   5.856   4.767   5.838
  762SOL     OW 3184   2.512   6.738   5.657
  762SOL    HW1 3185   2.518   6.833   5.688
  762SOL    HW2 3186   2.465   6.734   5.569
  763SOL     OW 3187   5.025   0.020   6.572
  763SOL    HW1 3188   4.974   0.078   6.635
  763SOL    HW2 3189   5.047   6.958   6.617
  764SOL     OW 3190   5.968   1.149   5.059
  764SOL    HW1 3191   5.943   1.189   4.971
  764SOL    HW2 3192   5.984   1.222   5.126
  765SOL     OW 3193   1.378   6.297   0.404
  765SOL    HW1 3194   1.403   6.310   0.500
  765SOL    HW2 3195   1.460   6.287   0.349
  766SOL     OW 3196   2.779   1.945   5.182
  766SOL    HW1 3197   2.744   1.978   5.270
  766SOL    HW2 3198   2.864   1.994   5.159
  767SOL     OW 3199   6.386   6.409   3.750
  767SOL    HW1 3200   6.438   6.482   3.705
  767SOL    HW2 3201   6.291   6.413   3.720
  768SOL     OW 3202   2.217   6.805   3.100
  768SOL    HW1 3203   2.137   6.855   3.133
  768SOL    HW2 3204   2.266   6.861   3.034
  769SOL     OW 3205   3.305   1.505   4.986
  769SOL    HW1 3206   3.357   1.550   5.059
  769SOL    HW2 3207   3.357   1.508   4.901
  770SOL     OW 3208   2.237   4.604   4.451
  770SOL    HW1 3209   2.293   4.579   4.372
  770SOL    HW2 3210   2.287   4.582   4.535
  771SOL     OW 3211   1.432   5.208   3.495
  771SOL    HW1 3212   1.496   5.153   3.441
  771SOL    HW2 3213   1.472   5.228   3.584
  772SOL     OW 3214   5.461   4.925   5.747
  772SOL    HW1 3215   5.559   4.910   5.753
  772SOL    HW2 3216   5.442   5.006   5.692
  773SOL     OW 3217   1.297   3.993   3.066
  773SOL    HW1 3218   1.339   4.054   3.134
  773SOL    HW2 3219   1.200   4.015   3.057
  774SOL     OW 3220   2.435   1.319   3.027
  774SOL    HW1 3221   2.419   1.383   2.952
  774SOL    HW2 3222   2.523   1.339   3.071
  775SOL     OW 3223   1.868   2.440   4.303
  775SOL    HW1 3224   1.854   2.343   4.325
  775SOL    HW2 3225   1.966   2.460   4.304
  776SOL     OW 3226   6.860   0.298   6.872
  776SOL    HW1 3227   6.915   0.353   6.935
  776SOL    HW2 3228   6.901   0.207   6.864
  777SOL     OW 3229   1.613   3.461   0.996
  777SOL    HW1 3230   1.640   3.365   1.005
  777SOL    HW2 3231   1.655   3.514   1.070
  778SOL     OW 3232   2.412   0.228   1.533
  778SOL    HW1 3233   2.371   0.302   1.586
  778SOL    HW2 3234   2.503   0.254   1.502
  779SOL     OW 3235   0.130   2.512   1.714
  779SOL    HW1 3236   0.151   2.461   1.630
  779SOL    HW2 3237   0.210   2.566   1.741
  780SOL     OW 3238   1.092   2.854   4.445
  780SOL    HW1 3239   1.044   2.770   4.469
  780SOL    HW2 3240   1.186   2.833   4.421
  781SOL     OW 3241   6.758   4.893   6.833
  781SOL    HW1 3242   6.741   4.861   6.926
  781SOL    HW2 3243   6.734   4.820   6.768
  782SOL     OW 3244   2.256   3.965   5.578
  782SOL    HW1 3245   2.296   3.876   5.597
  782SOL    HW2 3246   2.159   3.953   5.553
  783SOL     OW 3247   5.650   5.426   0.295
  783SOL    HW1 3248   5.744   5.453   0.276
  783SOL    HW2 3249   5.629   5.444   0.391
  784SOL     OW 3250   2.700   5.789   2.175
  784SOL    HW1 3251   2.697   5.866   2.239
  784SOL    HW2 3252   2.624   5.727   2.192
  785SOL     OW 3253   0.238   1.350   3.846
  785SOL    HW1 3254   0.211   1.430   3.901
  785SOL    HW2 3255   0.336   1.353   3.829
  786SOL     OW 3256   6.776   0.955   2.962
  786SOL    HW1 3257   6.731   0.936   2.875
  786SOL    HW2 3258   6.798   1.053   2.967
  787SOL     OW 3259   2.350   0.132   0.164
  787SOL    HW1 3260   2.424   0.174   0.217
  787SOL    HW2 3261   2.334   0.039   0.197
  788SOL     OW 3262   3.978   2.712   1.700
  788SOL    HW1 3263   4.070   2.674   1.710
  788SOL    HW2 3264   3.913   2.637   1.683
  789SOL     OW 3265   4.232   5.711   2.458
  789SOL    HW1 3266   4.141   5.684   2.492
  789SOL    HW2 3267   4.280   5.762   2.529
  790SOL     OW 3268   1.781   1.493   1.907
  790SOL    HW1 3269   1.862   1.468   1.854
  790SOL    HW2 3270   1.783   1.591   1.927
  791SOL     OW 3271   2.546   6.178   5.480
  791SOL    HW1 3272   2.599   6.098   5.453
  791SOL    HW2 3273   2.605   6.259   5.482
  792SOL     OW 3274   0.504   1.154   1.039
  792SOL    HW1 3275   0.487   1.107   0.952
  792SOL    HW2 3276   0.551   1.092   1.101
  793SOL     OW 3277   4.755   5.906   5.017
  793SOL    HW1 3278   4.771   5.906   5.116
  793SOL    HW2 3279   4.812   5.835   4.975
  794SOL     OW 3280   3.575   3.378   5.293
  794SOL    HW1 3281   3.606   3.467   5.258
  794SOL    HW2 3282   3.577   3.310   5.220
  795SOL     OW 3283   3.761   0.448   6.204
  795SOL    HW1 3284   3.731   0.353   6.209
  795SOL    HW2 3285   3.833   0.457   6.136
  796SOL     OW 3286   2.179   2.854   6.972
  796SOL    HW1 3287   2.159   2.756   6.967
  796SOL    HW2 3288   2.233   2.873   0.029
  797SOL     OW 3289   3.881   0.113   0.881
  797SOL    HW1 3290   3.939   0.129   0.801
  797SOL    HW2 3291   3.786   0.099   0.852
  798SOL     OW 3292   3.230   6.180   1.310
  798SOL    HW1 3293   3.177   6.139   1.384
  798SOL    HW2 3294   3.326   6.185   1.336
  799SOL     OW 3295   6.967   1.764   6.179
  799SOL    HW1 3296   6.923   1.796   6.263
  799SOL    HW2 3297   0.030   1.811   6.167
  800SOL     OW 3298   0.159   1.815   2.269
  800SOL    HW1 3299   0.215   1.898   2.269
  800SOL    HW2 3300   0.097   1.817   2.190
  801SOL     OW 3301   1.868   4.657   5.456
  801SOL    HW1 3302   1.939   4.712   5.412
  801SOL    HW2 3303   1.797   4.635   5.389
  802SOL     OW 3304   4.034   2.253   6.608
  802SOL    HW1 3305   4.077   2.332   6.565
  802SOL    HW2 3306   4.067   2.244   6.702
  803SOL     OW 3307   2.521   7.016   5.701
  803SOL    HW1 3308   2.499   0.053   5.625
  803SOL    HW2 3309   2.471   0.021   5.783
  804SOL     OW 3310   6.399   6.441   1.590
  804SOL    HW1 3311   6.489   6.435   1.631
  804SOL    HW2 3312   6.382   6.360   1.535
  805SOL     OW 3313   1.758   6.990   3.637
  805SOL    HW1 3314   1.850   0.003   3.623
  805SOL    HW2 3315   1.764   6.902   3.684
  806SOL     OW 3316   0.172   0.527   5.651
  806SOL    HW1 3317   0.179   0.440   5.700
  806SOL    HW2 3318   0.263   0.567   5.641
  807SOL     OW 3319   0.753   6.876   4.198
  807SOL    HW1 3320   0.809   6.798   4.167
  807SOL    HW2 3321   0.807   6.960   4.189
  808SOL     OW 3322   5.821   3.049   0.277
  808SOL    HW1 3323   5.768   2.964   0.276
  808SOL    HW2 3324   5.806   3.097   0.363
  809SOL     OW 3325   0.710   5.056   6.994
  809SOL    HW1 3326   0.717   5.031   6.897
  809SOL    HW2 3327   0.785   5.118   7.018
  810SOL     OW 3328   2.690   3.498   0.372
  810SOL    HW1 3329   2.683   3.457   0.463
  810SOL    HW2 3330   2.762   3.451   0.320
  811SOL     OW 3331   5.783   5.106   4.803
  811SOL    HW1 3332   5.856   5.172   4.817
  811SOL    HW2 3333   5.695   5.152   4.803
  812SOL     OW 3334   0.340   2.285   2.710
  812SOL    HW1 3335   0.287   2.360   2.749
  812SOL    HW2 3336   0.278   2.215   2.674
  813SOL     OW 3337   2.617   0.435   4.338
  813SOL    HW1 3338   2.717   0.428   4.345
  813SOL    HW2 3339   2.575   0.383   4.411
  814SOL     OW 3340   6.583   5.847   1.974
  814SOL    HW1 3341   6.525   5.808   1.903
  814SOL    HW2 3342   6.632   5.926   1.937
  815SOL     OW 3343   5.297   2.783   3.903
  815SOL    HW1 3344   5.232   2.709   3.891
  815SOL    HW2 3345   5.375   2.752   3.958
  816SOL     OW 3346   4.562   4.255   0.120
  816SOL    HW1 3347   4.483   4.301   0.160
  816SOL    HW2 3348   4.646   4.302   0.148
  817SOL     OW 3349   1.005   5.299   1.376
  817SOL    HW1 3350   0.964   5.208   1.372
  817SOL    HW2 3351   1.100   5.291   1.405
  818SOL     OW 3352   5.525   2.614   3.873
  818SOL    HW1 3353   5.540   2.592   3.777
  818SOL    HW2 3354   5.544   2.533   3.929
  819SOL     OW 3355   5.622   2.729   1.682
  819SOL    HW1 3356   5.559   2.666   1.637
  819SOL    HW2 3357   5.640   2.807   1.622
  820SOL     OW 3358   3.273   2.164   4.326
  820SOL    HW1 3359   3.193   2.175   4.267
  820SOL    HW2 3360   3.289   2.248   4.377
  821SOL     OW 3361   5.797   4.981   5.064
  821SOL    HW1 3362   5.858   4.903   5.066
  821SOL    HW2 3363   5.783   5.012   4.970
  822SOL     OW 3364   0.269   4.710   3.547
  822SOL    HW1 3365   0.258   4.699   3.448
  822SOL    HW2 3366   0.312   4.798   3.566
  823SOL     OW 3367   6.997   3.842   5.878
  823SOL    HW1 3368   0.022   3.928   5.869
  823SOL    HW2 3369   6.947   3.841   5.964
  824SOL     OW 3370   5.834   0.924   5.146
  824SOL    HW1 3371   5.910   0.882   5.195
  824SOL    HW2 3372   5.870   0.991   5.081
  825SOL     OW 3373   6.490   5.906   0.597
  825SOL    HW1 3374   6.483   5.866   0.506
  825SOL    HW2 3375   6.403   5.949   0.622
  826SOL     OW 3376   3.857   2.276   6.253
  826SOL    HW1 3377   3.883   2.215   6.178
  826SOL    HW2 3378   3.840   2.223   6.335
  827SOL     OW 3379   2.985   4.274   5.289
  827SOL    HW1 3380   2.896   4.242   5.322
  827SOL    HW2 3381   2.980   4.373   5.273
  828SOL     OW 3382   6.418   5.411   5.203
  828SOL    HW1 3383   6.459   5.477   5.140
  828SOL    HW2 3384   6.437   5.318   5.171
  829SOL     OW 3385   3.203   2.924   2.275
  829SOL    HW1 3386   3.253   2.972   2.347
  829SOL    HW2 3387   3.142   2.856   2.316
  830SOL     OW 3388   5.926   4.796   6.978
  830SOL    HW1 3389   5.872   4.804   0.038
  830SOL    HW2 3390   5.873   4.833   6.901
  831SOL     OW 3391   5.855   0.056   0.784
  831SOL    HW1 3392   5.766   0.035   0.825
  831SOL    HW2 3393   5.926   0.044   0.853
  832SOL     OW 3394   4.306   1.086   4.166
  832SOL    HW1 3395   4.242   1.013   4.143
  832SOL    HW2 3396   4.321   1.088   4.264
  833SOL     OW 3397   1.463   3.794   6.760
  833SOL    HW1 3398   1.399   3.786   6.684
  833SOL    HW2 3399   1.422   3.755   6.842
  834SOL     OW 3400   4.971   3.639   6.870
  834SOL    HW1 3401   5.031   3.565   6.901
  834SOL    HW2 3402   4.910   3.666   6.945
  835SOL     OW 3403   1.911   0.375   5.405
  835SOL    HW1 3404   1.921   0.413   5.313
  835SOL    HW2 3405   1.837   0.422   5.452
  836SOL     OW 3406   3.134   1.421   5.662
  836SOL    HW1 3407   3.150   1.460   5.571
  836SOL    HW2 3408   3.069   1.346   5.654
  837SOL     OW 3409   1.515   0.036   1.587
  837SOL    HW1 3410   1.572   0.009   1.509
  837SOL    HW2 3411   1.507   0.136   1.589
  838SOL     OW 3412   2.240   6.009   4.501
  838SOL    HW1 3413   2.288   5.930   4.461
  838SOL    HW2 3414   2.175   6.045   4.434
  839SOL     OW 3415   2.407   1.519   1.301
  839SOL    HW1 3416   2.458   1.551   1.381
  839SOL    HW2 3417   2.471   1.503   1.226
  840SOL     OW 3418   6.012   5.795   0.110
  840SOL    HW1 3419   6.050   5.738   0.183
  840SOL    HW2 3420   5.928   5.753   0.075
  841SOL     OW 3421   3.861   5.908   6.446
  841SOL    HW1 3422   3.884   5.962   6.527
  841SOL    HW2 3423   3.906   5.819   6.451
  842SOL     OW 3424   3.167   6.462   0.057
  842SOL    HW1 3425   3.091   6.427   0.111
  842SOL    HW2 3426   3.210   6.387   0.007
  843SOL     OW 3427   2.763   1.909   2.011
  843SOL    HW1 3428   2.752   1.828   1.953
  843SOL    HW2 3429   2.849   1.955   1.988
  844SOL     OW 3430   0.033   6.853   1.091
  844SOL    HW1 3431   0.109   6.899   1.136
  844SOL    HW2 3432   0.046   6.754   1.096
  845SOL     OW 3433   4.894   2.506   3.419
  845SOL    HW1 3434   4.795   2.522   3.416
  845SOL    HW2 3435   4.937   2.548   3.339
  846SOL     OW 3436   2.706   0.880   6.506
  846SOL    HW1 3437   2.781   0.815   6.513
  846SOL    HW2 3438   2.743   0.972   6.492
  847SOL     OW 3439   2.127   3.310   1.786
  847SOL    HW1 3440   2.189   3.380   1.823
  847SOL    HW2 3441   2.047   3.302   1.846
  848SOL     OW 3442   6.953   6.713   5.789
  848SOL    HW1 3443   6.883   6.736   5.857
  848SOL    HW2 3444   7.020   6.787   5.784
  849SOL     OW 3445   6.034   3.628   6.996
  849SOL    HW1 3446   5.957   3.610   6.934
  849SOL    HW2 3447   6.039   3.726   7.015
  850SOL     OW 3448   0.295   0.226   4.965
  850SOL    HW1 3449   0.350   0.211   5.047
  850SOL    HW2 3450   0.321   0.314   4.923
  851SOL     OW 3451   6.758   2.948   0.088
  851SOL    HW1 3452   6.779   2.897   0.004
  851SOL    HW2 3453   6.826   3.020   0.101
  852SOL     OW 3454   0.289   4.809   0.551
  852SOL    HW1 3455   0.261   4.854   0.466
  852SOL    HW2 3456   0.215   4.812   0.617
  853SOL     OW 3457   2.132   4.129   6.253
  853SOL    HW1 3458   2.137   4.128   6.353
  853SOL    HW2 3459   2.224   4.126   6.215
  854SOL     OW 3460   5.489   6.882   0.157
  854SOL    HW1 3461   5.565   6.823   0.129
  854SOL    HW2 3462   5.525   6.971   0.186
  855SOL     OW 3463   6.036   0.596   0.290
  855SOL    HW1 3464   6.073   0.601   0.383
  855SOL    HW2 3465   5.936   0.596   0.294
  856SOL     OW 3466   1.263   6.516   5.653
  856SOL    HW1 3467   1.190   6.457   5.687
  856SOL    HW2 3468   1.345   6.502   5.708
  857SOL     OW 3469   6.978   5.245   2.357
  857SOL    HW1 3470   6.980   5.263   2.455
  857SOL    HW2 3471   7.007   5.328   2.307
  858SOL     OW 3472   3.050   3.633   1.105
  858SOL    HW1 3473   3.146   3.607   1.115
  858SOL    HW2 3474   3.044   3.724   1.065
  859SOL     OW 3475   5.160   6.172   5.595
  859SOL    HW1 3476   5.133   6.260   5.633
  859SOL    HW2 3477   5.104   6.151   5.515
  860SOL     OW 3478   5.567   2.851   6.285
  860SOL    HW1 3479   5.483   2.897   6.313
  860SOL    HW2 3480   5.547   2.756   6.260
  861SOL     OW 3481   2.094   5.938   3.344
  861SOL    HW1 3482   2.191   5.926   3.324
  861SOL    HW2 3483   2.077   6.029   3.380
  862SOL     OW 3484   2.063   5.205   3.637
  862SOL    HW1 3485   2.160   5.182   3.649
  862SOL    HW2 3486   2.052   5.260   3.554
  863SOL     OW 3487   5.946   0.999   5.956
  863SOL    HW1 3488   5.989   0.989   5.866
  863SOL    HW2 3489   5.973   0.922   6.014
  864SOL     OW 3490   4.746   0.034   5.050
  864SOL    HW1 3491   4.767   6.969   5.090
  864SOL    HW2 3492   4.652   0.035   5.017
  865SOL     OW 3493   1.768   6.874   5.692
  865SOL    HW1 3494   1.777   6.891   5.594
  865SOL    HW2 3495   1.674   6.848   5.713
  866SOL     OW 3496   3.848   6.772   0.824
  866SOL    HW1 3497   3.838   6.672   0.822
  866SOL    HW2 3498   3.894   6.799   0.909
  867SOL     OW 3499   5.546   3.073   0.421
  867SOL    HW1 3500   5.570   3.064   0.518
  867SOL    HW2 3501   5.510   3.165   0.405
  868SOL     OW 3502   0.114   2.044   2.644
  868SOL    HW1 3503   0.077   2.019   2.734
  868SOL    HW2 3504   0.042   2.033   2.575
  869SOL     OW 3505   6.729   3.691   3.701
  869SOL    HW1 3506   6.782   3.607   3.702
  869SOL    HW2 3507   6.753   3.745   3.620
  870SOL     OW 3508   3.988   4.305   1.090
  870SOL    HW1 3509   4.071   4.355   1.115
  870SOL    HW2 3510   3.941   4.276   1.173
  871SOL     OW 3511   5.511   2.035   4.127
  871SOL    HW1 3512   5.455   2.004   4.049
  871SOL    HW2 3513   5.598   1.985   4.126
  872SOL     OW 3514   0.319   2.326   4.736
  872SOL    HW1 3515   0.300   2.333   4.834
  872SOL    HW2 3516   0.391   2.391   4.711
  873SOL     OW 3517   4.037   6.365   5.647
  873SOL    HW1 3518   3.942   6.334   5.646
  873SOL    HW2 3519   4.064   6.387   5.740
  874SOL     OW 3520   5.851   4.287   0.123
  874SOL    HW1 3521   5.862   4.382   0.151
  874SOL    HW2 3522   5.917   4.229   0.170
  875SOL     OW 3523   4.918   5.761   0.418
  875SOL    HW1 3524   4.928   5.672   0.462
  875SOL    HW2 3525   4.985   5.825   0.456
  876SOL     OW 3526   0.457   5.331   1.973
  876SOL    HW1 3527   0.379   5.271   1.989
  876SOL    HW2 3528   0.430   5.405   1.912
  877SOL     OW 3529   3.433   4.056   6.059
  877SOL    HW1 3530   3.357   4.084   6.001
  877SOL    HW2 3531   3.424   3.958   6.081
  878SOL     OW 3532   4.977   0.043   4.090
  878SOL    HW1 3533   5.049   7.014   4.044
  878SOL    HW2 3534   5.004   0.059   4.185
  879SOL     OW 3535   3.826   0.631   1.576
  879SOL    HW1 3536   3.822   0.678   1.664
  879SOL    HW2 3537   3.735   0.633   1.533
  880SOL     OW 3538   3.909   4.040   4.210
  880SOL    HW1 3539   3.834   4.086   4.163
  880SOL    HW2 3540   3.883   4.021   4.304
  881SOL     OW 3541   4.862   3.228   4.824
  881SOL    HW1 3542   4.909   3.315   4.840
  881SOL    HW2 3543   4.771   3.231   4.866
  882SOL     OW 3544   0.984   3.294   3.895
  882SOL    HW1 3545   1.051   3.239   3.844
  882SOL    HW2 3546   0.922   3.233   3.944
  883SOL     OW 3547   3.575   1.115   1.569
  883SOL    HW1 3548   3.524   1.030   1.585
  883SOL    HW2 3549   3.596   1.122   1.471
  884SOL     OW 3550   5.510   3.866   5.871
  884SOL    HW1 3551   5.584   3.801   5.888
  884SOL    HW2 3552   5.435   3.819   5.824
  885SOL     OW 3553   3.258   1.237   5.049
  885SOL    HW1 3554   3.338   1.177   5.040
  885SOL    HW2 3555   3.277   1.325   5.006
  886SOL     OW 3556   3.739   0.007   0.256
  886SOL    HW1 3557   3.732   6.981   0.342
  886SOL    HW2 3558   3.704   0.100   0.269
  887SOL     OW 3559   3.797   6.574   3.588
  887SOL    HW1 3560   3.716   6.544   3.538
  887SOL    HW2 3561   3.791   6.543   3.683
  888SOL     OW 3562   6.772   6.193   3.276
  888SOL    HW1 3563   6.784   6.094   3.286
  888SOL    HW2 3564   6.713   6.212   3.197
  889SOL     OW 3565   6.649   3.595   0.624
  889SOL    HW1 3566   6.679   3.547   0.707
  889SOL    HW2 3567   6.683   3.546   0.544
  890SOL     OW 3568   1.262   5.462   2.999
  890SOL    HW1 3569   1.335   5.468   3.067
  890SOL    HW2 3570   1.301   5.452   2.908
  891SOL     OW 3571   5.834   4.661   0.550
  891SOL    HW1 3572   5.917   4.646   0.604
  891SOL    HW2 3573   5.762   4.598   0.581
  892SOL     OW 3574   2.654   3.890   5.569
  892SOL    HW1 3575   2.563   3.931   5.580
  892SOL    HW2 3576   2.666   3.862   5.473
  893SOL     OW 3577   2.091   6.403   2.894
  893SOL    HW1 3578   2.047   6.351   2.967
  893SOL    HW2 3579   2.032   6.480   2.868
  894SOL     OW 3580   1.148   2.774   2.167
  894SOL    HW1 3581   1.099   2.727   2.093
  894SOL    HW2 3582   1.157   2.871   2.145
  895SOL     OW 3583   0.674   5.018   3.768
  895SOL    HW1 3584   0.770   5.046   3.756
  895SOL    HW2 3585   0.663   4.978   3.859
  896SOL     OW 3586   5.344   5.089   0.885
  896SOL    HW1 3587   5.391   5.002   0.900
  896SOL    HW2 3588   5.396   5.162   0.929
  897SOL     OW 3589   3.916   1.414   0.036
  897SOL    HW1 3590   3.847   1.362   0.085
  897SOL    HW2 3591   3.993   1.354   0.013
  898SOL     OW 3592   2.978   6.378   3.116
  898SOL    HW1 3593   3.059   6.398   3.060
  898SOL    HW2 3594   3.005   6.324   3.195
  899SOL     OW 3595   0.260   6.617   0.232
  899SOL    HW1 3596   0.340   6.568   0.199
  899SOL    HW2 3597   0.285   6.711   0.255
  900SOL     OW 3598   5.683   0.060   0.480
  900SOL    HW1 3599   5.745   0.136   0.498
  900SOL    HW2 3600   5.724   6.999   0.510
  901SOL     OW 3601   2.398   6.933   2.922
  901SOL    HW1 3602   2.385   6.956   2.825
  901SOL    HW2 3603   2.477   6.982   2.957
  902SOL     OW 3604   0.518   2.173   0.653
  902SOL    HW1 3605   0.587   2.103   0.635
  902SOL    HW2 3606   0.535   2.252   0.595
  903SOL     OW 3607   0.176   2.230   0.012
  903SOL    HW1 3608   0.133   2.141   7.021
  903SOL    HW2 3609   0.188   2.245   0.110
  904SOL     OW 3610   2.272   2.335   2.834
  904SOL    HW1 3611   2.194   2.279   2.862
  904SOL    HW2 3612   2.342   2.275   2.795
  905SOL     OW 3613   4.842   1.573   6.678
  905SOL    HW1 3614   4.819   1.573   6.581
  905SOL    HW2 3615   4.767   1.614   6.730
  906SOL     OW 3616   6.863   1.934   6.374
  906SOL    HW1 3617   6.935   1.995   6.341
  906SOL    HW2 3618   6.778   1.986   6.386
  907SOL     OW 3619   5.139   3.213   0.553
  907SOL    HW1 3620   5.230   3.190   0.587
  907SOL    HW2 3621   5.076   3.137   0.568
  908SOL     OW 3622   2.387   4.633   2.680
  908SOL    HW1 3623   2.475   4.639   2.632
  908SOL    HW2 3624   2.380   4.545   2.727
  909SOL     OW 3625   4.478   5.658   1.195
  909SOL    HW1 3626   4.530   5.705   1.124
  909SOL    HW2 3627   4.385   5.640   1.161
  910SOL     OW 3628   3.198   1.876   0.820
  910SOL    HW1 3629   3.137   1.833   0.753
  910SOL    HW2 3630   3.217   1.970   0.792
  911SOL     OW 3631   0.376   6.388   6.530
  911SOL    HW1 3632   0.295   6.355   6.579
  911SOL    HW2 3633   0.402   6.321   6.460
  912SOL     OW 3634   6.358   2.236   3.166
  912SOL    HW1 3635   6.276   2.201   3.121
  912SOL    HW2 3636   6.420   2.160   3.184
  913SOL     OW 3637   4.381   6.968   2.999
  913SOL    HW1 3638   4.475   6.992   2.975
  913SOL    HW2 3639   4.361   6.998   3.092
  914SOL     OW 3640   2.549   6.871   6.179
  914SOL    HW1 3641   2.558   6.794   6.116
  914SOL    HW2 3642   2.553   6.956   6.128
  915SOL     OW 3643   6.090   4.361   6.774
  915SOL    HW1 3644   6.060   4.266   6.763
  915SOL    HW2 3645   6.010   4.421   6.774
  916SOL     OW 3646   1.714   2.551   1.702
  916SOL    HW1 3647   1.769   2.551   1.786
  916SOL    HW2 3648   1.672   2.641   1.689
  917SOL     OW 3649   0.442   6.632   0.521
  917SOL    HW1 3650   0.445   6.532   0.523
  917SOL    HW2 3651   0.494   6.665   0.443
  918SOL     OW 3652   3.305   0.650   0.485
  918SOL    HW1 3653   3.358   0.581   0.436
  918SOL    HW2 3654   3.254   0.706   0.420
  919SOL     OW 3655   5.777   1.566   2.577
  919SOL    HW1 3656   5.715   1.577   2.654
  919SOL    HW2 3657   5.774   1.471   2.544
  920SOL     OW 3658   2.551   3.776   1.699
  920SOL    HW1 3659   2.502   3.689   1.705
  920SOL    HW2 3660   2.489   3.851   1.722
  921SOL     OW 3661   4.927   6.032   4.031
  921SOL    HW1 3662   4.833   6.002   4.052
  921SOL    HW2 3663   4.963   6.083   4.109
  922SOL     OW 3664   4.012   3.946   4.763
  922SOL    HW1 3665   3.976   3.883   4.694
  922SOL    HW2 3666   4.111   3.955   4.751
  923SOL     OW 3667   2.302   3.284   6.903
  923SOL    HW1 3668   2.261   3.259   6.815
  923SOL    HW2 3669   2.387   3.335   6.886
  924SOL     OW 3670   6.214   3.941   1.722
  924SOL    HW1 3671   6.306   3.970   1.694
  924SOL    HW2 3672   6.168   3.898   1.644
  925SOL     OW 3673   0.101   2.476   0.031
  925SOL    HW1 3674   0.187   2.527   0.026
  925SOL    HW2 3675   0.116   2.384   7.019
  926SOL     OW 3676   6.801   0.767   1.078
  926SOL    HW1 3677   6.822   0.669   1.089
  926SOL    HW2 3678   6.702   0.779   1.069
  927SOL     OW 3679   5.327   3.609   3.835
  927SOL    HW1 3680   5.409   3.660   3.810
  927SOL    HW2 3681   5.247   3.668   3.829
  928SOL     OW 3682   2.214   6.005   0.502
  928SOL    HW1 3683   2.162   5.939   0.556
  928SOL    HW2 3684   2.237   6.084   0.559
  929SOL     OW 3685   6.972   1.200   0.119
  929SOL    HW1 3686   0.012   1.277   0.121
  929SOL    HW2 3687   6.970   1.161   0.027
  930SOL     OW 3688   5.151   6.063   6.521
  930SOL    HW1 3689   5.124   6.071   6.425
  930SOL    HW2 3690   5.122   6.145   6.570
  931SOL     OW 3691   6.760   1.522   4.936
  931SOL    HW1 3692   6.742   1.451   5.004
  931SOL    HW2 3693   6.817   1.486   4.863
  932SOL     OW 3694   2.312   1.932   2.774
  932SOL    HW1 3695   2.287   1.907   2.681
  932SOL    HW2 3696   2.384   2.002   2.772
  933SOL     OW 3697   1.410   5.479   3.280
  933SOL    HW1 3698   1.487   5.511   3.225
  933SOL    HW2 3699   1.444   5.421   3.354
  934SOL     OW 3700   2.740   5.532   6.071
  934SOL    HW1 3701   2.801   5.508   6.146
  934SOL    HW2 3702   2.761   5.624   6.039
  935SOL     OW 3703   5.292   4.368   4.150
  935SOL    HW1 3704   5.221   4.299   4.134
  935SOL    HW2 3705   5.348   4.376   4.067
  936SOL     OW 3706   1.081   6.620   5.956
  936SOL    HW1 3707   1.049   6.703   5.909
  936SOL    HW2 3708   1.138   6.646   6.034
  937SOL     OW 3709   5.696   1.635   5.574
  937SOL    HW1 3710   5.741   1.654   5.662
  937SOL    HW2 3711   5.623   1.702   5.559
  938SOL     OW 3712   6.409   5.279   4.342
  938SOL    HW1 3713   6.461   5.224   4.276
  938SOL    HW2 3714   6.396   5.371   4.306
  939SOL     OW 3715   0.126   6.763   3.812
  939SOL    HW1 3716   0.177   6.681   3.839
  939SOL    HW2 3717   0.160   6.796   3.724
  940SOL     OW 3718   0.565   3.838   0.661
  940SOL    HW1 3719   0.610   3.872   0.579
  940SOL    HW2 3720   0.630   3.837   0.737
  941SOL     OW 3721   5.006   0.428   6.435
  941SOL    HW1 3722   5.041   0.340   6.402
  941SOL    HW2 3723   4.930   0.457   6.378
  942SOL     OW 3724   5.956   6.686   1.357
  942SOL    HW1 3725   5.906   6.609   1.397
  942SOL    HW2 3726   6.053   6.661   1.350
  943SOL     OW 3727   1.636   4.757   2.654
  943SOL    HW1 3728   1.653   4.658   2.660
  943SOL    HW2 3729   1.614   4.781   2.559
  944SOL     OW 3730   0.783   5.383   4.932
  944SOL    HW1 3731   0.756   5.303   4.877
  944SOL    HW2 3732   0.882   5.381   4.947
  945SOL     OW 3733   0.331   4.589   5.355
  945SOL    HW1 3734   0.282   4.502   5.368
  945SOL    HW2 3735   0.306   4.627   5.266
  946SOL     OW 3736   4.597   4.858   4.437
  946SOL    HW1 3737   4.534   4.914   4.384
  946SOL    HW2 3738   4.579   4.870   4.535
  947SOL     OW 3739   3.361   3.173   3.939
  947SOL    HW1 3740   3.344   3.109   4.014
  947SOL    HW2 3741   3.300   3.252   3.948
  948SOL     OW 3742   4.697   1.223   2.770
  948SOL    HW1 3743   4.657   1.193   2.857
  948SOL    HW2 3744   4.683   1.321   2.759
  949SOL     OW 3745   2.890   6.023   0.433
  949SOL    HW1 3746   2.976   6.050   0.478
  949SOL    HW2 3747   2.893   6.051   0.337
  950SOL     OW 3748   5.863   5.713   2.550
  950SOL    HW1 3749   5.793   5.784   2.542
  950SOL    HW2 3750   5.862   5.654   2.469
  951SOL     OW 3751   1.291   0.098   3.681
  951SOL    HW1 3752   1.334   0.170   3.626
  951SOL    HW2 3753   1.286   0.128   3.776
  952SOL     OW 3754   4.375   2.403   2.917
  952SOL    HW1 3755   4.379   2.306   2.892
  952SOL    HW2 3756   4.432   2.456   2.854
  953SOL     OW 3757   6.098   5.685   5.078
  953SOL    HW1 3758   6.014   5.631   5.064
  953SOL    HW2 3759   6.117   5.692   5.176
  954SOL     OW 3760   3.771   6.299   2.329
  954SOL    HW1 3761   3.690   6.340   2.288
  954SOL    HW2 3762   3.805   6.226   2.269
  955SOL     OW 3763   1.983   4.225   0.043
  955SOL    HW1 3764   1.994   4.212   6.969
  955SOL    HW2 3765   1.890   4.257   0.063
  956SOL     OW 3766   6.724   0.620   1.466
  956SOL    HW1 3767   6.745   0.717   1.480
  956SOL    HW2 3768   6.810   0.568   1.460
  957SOL     OW 3769   6.220   2.039   1.502
  957SOL    HW1 3770   6.174   1.950   1.505
  957SOL    HW2 3771   6.317   2.027   1.526
  958SOL     OW 3772   4.363   6.278   2.260
  958SOL    HW1 3773   4.315   6.342   2.200
  958SOL    HW2 3774   4.327   6.186   2.248
  959SOL     OW 3775   3.503   6.634   4.753
  959SOL    HW1 3776   3.599   6.653   4.733
  959SOL    HW2 3777   3.481   6.540   4.729
  960SOL     OW 3778   1.738   0.283   1.201
  960SOL    HW1 3779   1.679   0.304   1.123
  960SOL    HW2 3780   1.799   0.207   1.177
  961SOL     OW 3781   4.110   6.576   3.233
  961SOL    HW1 3782   4.057   6.523   3.299
  961SOL    HW2 3783   4.059   6.586   3.148
  962SOL     OW 3784   6.798   1.057   4.218
  962SOL    HW1 3785   6.748   1.103   4.146
  962SOL    HW2 3786   6.848   0.979   4.180
  963SOL     OW 3787   4.436   1.032   0.313
  963SOL    HW1 3788   4.397   0.955   0.365
  963SOL    HW2 3789   4.477   1.098   0.376
  964SOL     OW 3790   4.558   5.199   5.490
  964SOL    HW1 3791   4.489   5.131   5.517
  964SOL    HW2 3792   4.637   5.193   5.551
  965SOL     OW 3793   6.390   1.846   2.085
  965SOL    HW1 3794   6.437   1.882   2.005
  965SOL    HW2 3795   6.373   1.749   2.073
  966SOL     OW 3796   5.208   2.742   3.492
  966SOL    HW1 3797   5.129   2.701   3.537
  966SOL    HW2 3798   5.252   2.808   3.553
  967SOL     OW 3799   2.911   5.199   0.002
  967SOL    HW1 3800   2.988   5.188   6.964
  967SOL    HW2 3801   2.890   5.296   0.013
  968SOL     OW 3802   3.818   6.754   1.497
  968SOL    HW1 3803   3.863   6.844   1.499
  968SOL    HW2 3804   3.731   6.762   1.449
  969SOL     OW 3805   2.453   5.269   5.254
  969SOL    HW1 3806   2.481   5.296   5.346
  969SOL    HW2 3807   2.375   5.207   5.261
  970SOL     OW 3808   5.558   0.711   6.084
  970SOL    HW1 3809   5.551   0.674   5.991
  970SOL    HW2 3810   5.505   0.655   6.147
  971SOL     OW 3811   0.239   3.221   2.587
  971SOL    HW1 3812   0.296   3.291   2.543
  971SOL    HW2 3813   0.289   3.181   2.664
  972SOL     OW 3814   6.788   2.626   1.866
  972SOL    HW1 3815   6.814   2.543   1.817
  972SOL    HW2 3816   6.693   2.618   1.897
  973SOL     OW 3817   0.731   4.692   6.808
  973SOL    HW1 3818   0.757   4.788   6.801
  973SOL    HW2 3819   0.636   4.680   6.778
  974SOL     OW 3820   0.784   5.439   2.263
  974SOL    HW1 3821   0.842   5.479   2.192
  974SOL    HW2 3822   0.802   5.484   2.350
  975SOL     OW 3823   2.525   6.845   0.317
  975SOL    HW1 3824   2.588   6.781   0.359
  975SOL    HW2 3825   2.573   6.930   0.295
  976SOL     OW 3826   6.965   3.736   1.222
  976SOL    HW1 3827   0.030   3.779   1.232
  976SOL    HW2 3828   6.919   3.735   1.311
  977SOL     OW 3829   0.558   0.930   2.129
  977SOL    HW1 3830   0.470   0.900   2.092
  977SOL    HW2 3831   0.545   1.008   2.189
  978SOL     OW 3832   5.275   1.569   0.862
  978SOL    HW1 3833   5.288   1.522   0.949
  978SOL    HW2 3834   5.288   1.505   0.787
  979SOL     OW 3835   0.598   2.760   6.498
  979SOL    HW1 3836   0.516   2.815   6.516
  979SOL    HW2 3837   0.678   2.820   6.497
  980SOL     OW 3838   4.437   1.267   4.854
  980SOL    HW1 3839   4.366   1.303   4.914
  980SOL    HW2 3840   4.526   1.277   4.898
  981SOL     OW 3841   0.548   0.186   4.755
  981SOL    HW1 3842   0.629   0.135   4.725
  981SOL    HW2 3843   0.472   0.123   4.768
  982SOL     OW 3844   1.035   1.408   5.493
  982SOL    HW1 3845   1.085   1.487   5.528
  982SOL    HW2 3846   1.057   1.394   5.396
  983SOL     OW 3847   6.965   3.502   2.733
  983SOL    HW1 3848   0.010   3.567   2.761
  983SOL    HW2 3849   6.961   3.426   2.798
  984SOL     OW 3850   1.459   2.133   2.766
  984SOL    HW1 3851   1.386   2.137   2.834
  984SOL    HW2 3852   1.432   2.074   2.690
  985SOL     OW 3853   6.545   4.130   4.581
  985SOL    HW1 3854   6.601   4.071   4.523
  985SOL    HW2 3855   6.604   4.183   4.642
  986SOL     OW 3856   4.510   5.287   1.357
  986SOL    HW1 3857   4.603   5.287   1.319
  986SOL    HW2 3858   4.500   5.364   1.419
  987SOL     OW 3859   5.610   6.310   2.347
  987SOL    HW1 3860   5.674   6.299   2.271
  987SOL    HW2 3861   5.588   6.407   2.358
  988SOL     OW 3862   3.265   3.863   2.295
  988SOL    HW1 3863   3.266   3.961   2.276
  988SOL    HW2 3864   3.196   3.818   2.239
  989SOL     OW 3865   6.483   2.037   0.068
  989SOL    HW1 3866   6.467   1.942   0.095
  989SOL    HW2 3867   6.419   2.062   7.020
  990SOL     OW 3868   3.560   0.229   2.648
  990SOL    HW1 3869   3.521   0.260   2.734
  990SOL    HW2 3870   3.658   0.209   2.662
  991SOL     OW 3871   6.818   4.671   3.472
  991SOL    HW1 3872   6.884   4.683   3.546
  991SOL    HW2 3873   6.867   4.660   3.386
  992SOL     OW 3874   0.989   3.244   1.366
  992SOL    HW1 3875   0.940   3.202   1.442
  992SOL    HW2 3876   1.047   3.318   1.399
  993SOL     OW 3877   0.724   3.825   0.928
  993SOL    HW1 3878   0.764   3.869   1.009
  993SOL    HW2 3879   0.796   3.809   0.861
  994SOL     OW 3880   3.518   5.148   1.055
  994SOL    HW1 3881   3.582   5.071   1.054
  994SOL    HW2 3882   3.437   5.122   1.108
  995SOL     OW 3883   4.186   3.194   5.734
  995SOL    HW1 3884   4.222   3.102   5.715
  995SOL    HW2 3885   4.128   3.223   5.658
  996SOL     OW 3886   3.621   5.446   5.410
  996SOL    HW1 3887   3.546   5.509   5.392
  996SOL    HW2 3888   3.593   5.354   5.383
  997SOL     OW 3889   1.229   6.942   3.256
  997SOL    HW1 3890   1.319   6.936   3.213
  997SOL    HW2 3891   1.175   7.013   3.211
  998SOL     OW 3892   6.711   0.038   6.355
  998SOL    HW1 3893   6.696   0.120   6.301
  998SOL    HW2 3894   6.634   6.999   6.341
  999SOL     OW 3895   4.995   3.963   1.654
  999SOL    HW1 3896   4.996   3.884   1.716
  999SOL    HW2 3897   5.016   3.932   1.561
 1000SOL     OW 3898   4.318   1.431   1.571
 1000SOL    HW1 3899   4.266   1.459   1.652
 1000SOL    HW2 3900   4.320   1.331   1.566
 1001SOL     OW 3901   3.404   5.936   2.157
 1001SOL    HW1 3902   3.431   6.029   2.133
 1001SOL    HW2 3903   3.482   5.890   2.200
 1002SOL     OW 3904   5.437   2.052   1.284
 1002SOL    HW1 3905   5.435   2.143   1.243
 1002SOL    HW2 3906   5.503   1.995   1.236
 1003SOL     OW 3907   1.812   5.882   2.594
 1003SOL    HW1 3908   1.897   5.864   2.545
 1003SOL    HW2 3909   1.737   5.833   2.550
 1004SOL     OW 3910   6.711   1.366   2.539
 1004SOL    HW1 3911   6.661   1.445   2.573
 1004SOL    HW2 3912   6.707   1.363   2.440
 1005SOL     OW 3913   1.403   4.123   3.997
 1005SOL    HW1 3914   1.443   4.032   4.001
 1005SOL    HW2 3915   1.458   4.180   3.935
 1006SOL     OW 3916   2.228   4.152   0.375
 1006SOL    HW1 3917   2.212   4.057   0.402
 1006SOL    HW2 3918   2.239   4.157   0.276
 1007SOL     OW 3919   4.144   1.579   6.353
 1007SOL    HW1 3920   4.136   1.630   6.267
 1007SOL    HW2 3921   4.196   1.633   6.419
 1008SOL     OW 3922   0.172   3.548   5.376
 1008SOL    HW1 3923   0.101   3.617   5.366
 1008SOL    HW2 3924   0.131   3.457   5.375
 1009SOL     OW 3925   6.329   4.420   5.776
 1009SOL    HW1 3926   6.258   4.354   5.752
 1009SOL    HW2 3927   6.360   4.402   5.870
 1010SOL     OW 3928   2.929   2.616   1.344
 1010SOL    HW1 3929   2.962   2.673   1.268
 1010SOL    HW2 3930   2.889   2.532   1.307
 1011SOL     OW 3931   0.241   5.685   3.359
 1011SOL    HW1 3932   0.330   5.646   3.378
 1011SOL    HW2 3933   0.196   5.710   3.445
 1012SOL     OW 3934   6.918   6.993   2.565
 1012SOL    HW1 3935   6.865   0.027   2.626
 1012SOL    HW2 3936   7.015   7.011   2.578
 1013SOL     OW 3937   6.878   1.250   6.180
 1013SOL    HW1 3938   6.788   1.291   6.166
 1013SOL    HW2 3939   6.881   1.160   6.137
 1014SOL     OW 3940   0.969   3.637   4.813
 1014SOL    HW1 3941   0.929   3.702   4.878
 1014SOL    HW2 3942   1.068   3.638   4.820
 1015SOL     OW 3943   2.486   0.597   6.151
 1015SOL    HW1 3944   2.453   0.676   6.203
 1015SOL    HW2 3945   2.580   0.577   6.177
 1016SOL     OW 3946   4.314   4.805   1.337
 1016SOL    HW1 3947   4.224   4.809   1.380
 1016SOL    HW2 3948   4.376   4.753   1.395
 1017SOL     OW 3949   2.720   1.670   1.218
 1017SOL    HW1 3950   2.807   1.700   1.178
 1017SOL    HW2 3951   2.719   1.694   1.316
 1018SOL     OW 3952   0.023   4.722   3.663
 1018SOL    HW1 3953   0.121   4.715   3.641
 1018SOL    HW2 3954   0.011   4.717   3.762
 1019SOL     OW 3955   6.864   5.131   0.414
 1019SOL    HW1 3956   6.851   5.109   0.318
 1019SOL    HW2 3957   6.919   5.059   0.458
 1020SOL     OW 3958   5.949   0.778   1.423
 1020SOL    HW1 3959   5.987   0.868   1.443
 1020SOL    HW2 3960   5.863   0.788   1.372
 1021SOL     OW 3961   6.652   6.472   2.247
 1021SOL    HW1 3962   6.646   6.377   2.217
 1021SOL    HW2 3963   6.621   6.479   2.341
 1022SOL     OW 3964   2.469   5.619   5.930
 1022SOL    HW1 3965   2.442   5.688   5.863
 1022SOL    HW2 3966   2.564   5.635   5.957
 1023SOL     OW 3967   0.341   0.414   2.515
 1023SOL    HW1 3968   0.310   0.509   2.512
 1023SOL    HW2 3969   0.269   0.357   2.555
 1024SOL     OW 3970   0.609   1.696   4.354
 1024SOL    HW1 3971   0.629   1.638   4.433
 1024SOL    HW2 3972   0.554   1.775   4.382
 1025SOL     OW 3973   4.748   2.884   0.527
 1025SOL    HW1 3974   4.681   2.913   0.458
 1025SOL    HW2 3975   4.700   2.839   0.603
 1026SOL     OW 3976   2.684   2.605   1.661
 1026SOL    HW1 3977   2.771   2.651   1.644
 1026SOL    HW2 3978   2.701   2.522   1.714
 1027SOL     OW 3979   1.953   6.984   1.743
 1027SOL    HW1 3980   2.022   6.913   1.729
 1027SOL    HW2 3981   1.909   6.971   1.832
 1028SOL     OW 3982   1.371   6.441   3.023
 1028SOL    HW1 3983   1.468   6.441   3.045
 1028SOL    HW2 3984   1.328   6.523   3.061
 1029SOL     OW 3985   1.277   2.444   6.004
 1029SOL    HW1 3986   1.237   2.357   5.976
 1029SOL    HW2 3987   1.323   2.486   5.926
 1030SOL     OW 3988   3.609   3.092   1.601
 1030SOL    HW1 3989   3.629   2.997   1.578
 1030SOL    HW2 3990   3.666   3.119   1.679
 1031SOL     OW 3991   4.432   3.220   1.323
 1031SOL    HW1 3992   4.530   3.203   1.311
 1031SOL    HW2 3993   4.398   3.166   1.399
 1032SOL     OW 3994   2.307   1.212   5.374
 1032SOL    HW1 3995   2.372   1.164   5.433
 1032SOL    HW2 3996   2.319   1.311   5.384
 1033SOL     OW 3997   1.779   5.832   2.128
 1033SOL    HW1 3998   1.848   5.763   2.106
 1033SOL    HW2 3999   1.823   5.922   2.134
 1034SOL     OW 4000   1.656   6.093   4.226
 1034SOL    HW1 4001   1.667   6.126   4.320
 1034SOL    HW2 4002   1.725   6.022   4.208
 1035SOL     OW 4003   0.171   2.067   6.351
 1035SOL    HW1 4004   0.139   2.146   6.403
 1035SOL    HW2 4005   0.170   2.089   6.253
 1036SOL     OW 4006   3.981   1.085   1.388
 1036SOL    HW1 4007   3.944   1.106   1.478
 1036SOL    HW2 4008   3.941   1.146   1.320
 1037SOL     OW 4009   1.469   1.962   3.095
 1037SOL    HW1 4010   1.401   2.014   3.044
 1037SOL    HW2 4011   1.539   1.927   3.033
 1038SOL     OW 4012   1.673   0.879   5.833
 1038SOL    HW1 4013   1.704   0.937   5.758
 1038SOL    HW2 4014   1.591   0.829   5.804
 1039SOL     OW 4015   3.306   3.570   4.068
 1039SOL    HW1 4016   3.382   3.632   4.086
 1039SOL    HW2 4017   3.315   3.489   4.126
 1040SOL     OW 4018   5.287   1.038   2.456
 1040SOL    HW1 4019   5.285   1.122   2.400
 1040SOL    HW2 4020   5.316   1.061   2.549
 1041SOL     OW 4021   6.978   6.771   3.446
 1041SOL    HW1 4022   6.997   6.702   3.516
 1041SOL    HW2 4023   0.005   6.750   3.363
 1042SOL     OW 4024   4.593   5.058   3.109
 1042SOL    HW1 4025   4.637   5.143   3.138
 1042SOL    HW2 4026   4.500   5.054   3.148
 1043SOL     OW 4027   4.259   2.313   3.359
 1043SOL    HW1 4028   4.315   2.323   3.441
 1043SOL    HW2 4029   4.318   2.299   3.279
 1044SOL     OW 4030   6.380   5.606   1.407
 1044SOL    HW1 4031   6.459   5.602   1.468
 1044SOL    HW2 4032   6.322   5.526   1.422
 1045SOL     OW 4033   3.319   0.417   3.027
 1045SOL    HW1 4034   3.236   0.425   2.972
 1045SOL    HW2 4035   3.369   0.504   3.024
 1046SOL     OW 4036   1.876   1.579   0.745
 1046SOL    HW1 4037   1.957   1.614   0.791
 1046SOL    HW2 4038   1.812   1.654   0.727
 1047SOL     OW 4039   3.169   0.528   4.112
 1047SOL    HW1 4040   3.101   0.601   4.102
 1047SOL    HW2 4041   3.230   0.529   4.033
 1048SOL     OW 4042   3.352   5.291   2.347
 1048SOL    HW1 4043   3.257   5.295   2.377
 1048SOL    HW2 4044   3.369   5.204   2.301
 1049SOL     OW 4045   5.352   6.863   3.567
 1049SOL    HW1 4046   5.358   6.923   3.486
 1049SOL    HW2 4047   5.436   6.871   3.620
 1050SOL     OW 4048   3.837   5.828   2.570
 1050SOL    HW1 4049   3.900   5.810   2.646
 1050SOL    HW2 4050   3.871   5.903   2.515
 1051SOL     OW 4051   0.070   5.971   0.280
 1051SOL    HW1 4052   0.108   5.886   0.315
 1051SOL    HW2 4053   6.997   5.959   0.262
 1052SOL     OW 4054   5.080   1.037   5.116
 1052SOL    HW1 4055   5.143   1.104   5.156
 1052SOL    HW2 4056   5.122   0.946   5.120
 1053SOL     OW 4057   5.562   4.026   2.753
 1053SOL    HW1 4058   5.567   4.114   2.706
 1053SOL    HW2 4059   5.617   3.958   2.704
 1054SOL     OW 4060   3.208   3.106   0.935
 1054SOL    HW1 4061   3.254   3.069   0.854
 1054SOL    HW2 4062   3.109   3.094   0.925
 1055SOL     OW 4063   4.461   6.332   6.201
 1055SOL    HW1 4064   4.447   6.260   6.269
 1055SOL    HW2 4065   4.559   6.350   6.192
 1056SOL     OW 4066   0.694   3.899   0.433
 1056SOL    HW1 4067   0.675   3.914   0.336
 1056SOL    HW2 4068   0.789   3.867   0.443
 1057SOL     OW 4069   3.811   2.213   1.544
 1057SOL    HW1 4070   3.733   2.163   1.584
 1057SOL    HW2 4071   3.778   2.296   1.500
 1058SOL     OW 4072   4.645   2.739   3.483
 1058SOL    HW1 4073   4.652   2.816   3.420
 1058SOL    HW2 4074   4.670   2.769   3.575
 1059SOL     OW 4075   2.114   6.905   2.314
 1059SOL    HW1 4076   2.171   6.983   2.340
 1059SOL    HW2 4077   2.032   6.904   2.371
 1060SOL     OW 4078   0.357   5.095   4.157
 1060SOL    HW1 4079   0.394   5.161   4.223
 1060SOL    HW2 4080   0.379   5.126   4.064
 1061SOL     OW 4081   6.452   3.692   6.829
 1061SOL    HW1 4082   6.537   3.721   6.873
 1061SOL    HW2 4083   6.379   3.756   6.854
 1062SOL     OW 4084   3.761   6.188   5.370
 1062SOL    HW1 4085   3.674   6.141   5.353
 1062SOL    HW2 4086   3.761   6.276   5.324
 1063SOL     OW 4087   0.218   0.021   0.042
 1063SOL    HW1 4088   0.228   0.114   0.077
 1063SOL    HW2 4089   0.307   7.013   0.008
 1064SOL     OW 4090   0.410   4.374   1.696
 1064SOL    HW1 4091   0.348   4.402   1.623
 1064SOL    HW2 4092   0.465   4.453   1.725
 1065SOL     OW 4093   3.336   0.580   3.911
 1065SOL    HW1 4094   3.280   0.646   3.860
 1065SOL    HW2 4095   3.426   0.573   3.868
 1066SOL     OW 4096   4.849   6.989   2.301
 1066SOL    HW1 4097   4.773   6.948   2.351
 1066SOL    HW2 4098   4.815   0.010   2.219
 1067SOL     OW 4099   2.255   0.790   6.792
 1067SOL    HW1 4100   2.268   0.880   6.834
 1067SOL    HW2 4101   2.179   0.743   6.835
 1068SOL     OW 4102   5.855   4.013   1.057
 1068SOL    HW1 4103   5.886   4.098   1.098
 1068SOL    HW2 4104   5.876   3.936   1.118
 1069SOL     OW 4105   5.475   5.358   0.586
 1069SOL    HW1 4106   5.487   5.262   0.610
 1069SOL    HW2 4107   5.406   5.366   0.513
 1070SOL     OW 4108   2.461   6.991   2.356
 1070SOL    HW1 4109   2.455   0.048   2.299
 1070SOL    HW2 4110   2.486   6.913   2.299
 1071SOL     OW 4111   1.271   1.984   4.342
 1071SOL    HW1 4112   1.188   2.035   4.362
 1071SOL    HW2 4113   1.262   1.890   4.375
 1072SOL     OW 4114   2.252   1.077   1.836
 1072SOL    HW1 4115   2.347   1.060   1.862
 1072SOL    HW2 4116   2.249   1.115   1.744
 1073SOL     OW 4117   5.557   1.948   2.979
 1073SOL    HW1 4118   5.630   1.924   3.043
 1073SOL    HW2 4119   5.586   2.023   2.921
 1074SOL     OW 4120   2.619   4.904   2.068
 1074SOL    HW1 4121   2.646   4.833   2.002
 1074SOL    HW2 4122   2.654   4.880   2.158
 1075SOL     OW 4123   6.122   1.403   4.071
 1075SOL    HW1 4124   6.220   1.397   4.087
 1075SOL    HW2 4125   6.084   1.480   4.123
 1076SOL     OW 4126   1.150   2.873   5.775
 1076SOL    HW1 4127   1.215   2.834   5.709
 1076SOL    HW2 4128   1.086   2.802   5.804
 1077SOL     OW 4129   0.078   6.860   0.289
 1077SOL    HW1 4130   0.137   6.842   0.368
 1077SOL    HW2 4131   0.130   6.908   0.219
 1078SOL     OW 4132   6.146   0.289   3.253
 1078SOL    HW1 4133   6.113   0.272   3.346
 1078SOL    HW2 4134   6.221   0.226   3.232
 1079SOL     OW 4135   1.464   5.273   1.850
 1079SOL    HW1 4136   1.527   5.249   1.776
 1079SOL    HW2 4137   1.374   5.232   1.831
 1080SOL     OW 4138   2.557   5.723   4.564
 1080SOL    HW1 4139   2.491   5.753   4.495
 1080SOL    HW2 4140   2.636   5.681   4.520
 1081SOL     OW 4141   0.073   5.469   4.693
 1081SOL    HW1 4142   0.009   5.471   4.615
 1081SOL    HW2 4143   0.140   5.397   4.678
 1082SOL     OW 4144   5.825   2.005   5.578
 1082SOL    HW1 4145   5.814   2.087   5.634
 1082SOL    HW2 4146   5.902   1.952   5.612
 1083SOL     OW 4147   4.804   3.019   6.956
 1083SOL    HW1 4148   4.816   3.058   6.865
 1083SOL    HW2 4149   4.715   3.045   6.993
 1084SOL     OW 4150   6.702   6.659   6.350
 1084SOL    HW1 4151   6.784   6.716   6.350
 1084SOL    HW2 4152   6.667   6.650   6.443
 1085SOL     OW 4153   2.113   3.435   3.741
 1085SOL    HW1 4154   2.179   3.509   3.731
 1085SOL    HW2 4155   2.149   3.366   3.804
 1086SOL     OW 4156   6.372   5.508   6.558
 1086SOL    HW1 4157   6.381   5.580   6.489
 1086SOL    HW2 4158   6.381   5.548   6.649
 1087SOL     OW 4159   1.157   1.276   5.290
 1087SOL    HW1 4160   1.221   1.235   5.356
 1087SOL    HW2 4161   1.200   1.279   5.200
 1088SOL     OW 4162   0.383   5.212   3.270
 1088SOL    HW1 4163   0.330   5.277   3.324
 1088SOL    HW2 4164   0.440   5.157   3.330
 1089SOL     OW 4165   0.839   5.650   5.185
 1089SOL    HW1 4166   0.921   5.607   5.223
 1089SOL    HW2 4167   0.795   5.586   5.121
 1090SOL     OW 4168   4.599   2.244   3.199
 1090SOL    HW1 4169   4.524   2.181   3.178
 1090SOL    HW2 4170   4.562   2.334   3.219
 1091SOL     OW 4171   1.936   3.607   3.394
 1091SOL    HW1 4172   1.837   3.615   3.408
 1091SOL    HW2 4173   1.981   3.691   3.426
 1092SOL     OW 4174   0.695   5.347   0.423
 1092SOL    HW1 4175   0.788   5.372   0.449
 1092SOL    HW2 4176   0.631   5.387   0.489
 1093SOL     OW 4177   2.607   6.775   1.367
 1093SOL    HW1 4178   2.631   6.779   1.270
 1093SOL    HW2 4179   2.628   6.863   1.410
 1094SOL     OW 4180   0.593   6.764   2.633
 1094SOL    HW1 4181   0.528   6.808   2.695
 1094SOL    HW2 4182   0.655   6.833   2.596
 1095SOL     OW 4183   0.505   1.966   6.914
 1095SOL    HW1 4184   0.594   1.972   6.960
 1095SOL    HW2 4185   0.469   2.059   6.898
 1096SOL     OW 4186   3.562   4.330   1.215
 1096SOL    HW1 4187   3.618   4.405   1.251
 1096SOL    HW2 4188   3.470   4.363   1.196
 1097SOL     OW 4189   2.186   5.484   2.976
 1097SOL    HW1 4190   2.132   5.445   3.050
 1097SOL    HW2 4191   2.146   5.458   2.888
 1098SOL     OW 4192   6.077   4.090   6.723
 1098SOL    HW1 4193   6.169   4.074   6.687
 1098SOL    HW2 4194   6.010   4.078   6.649
 1099SOL     OW 4195   4.496   1.154   6.767
 1099SOL    HW1 4196   4.397   1.150   6.753
 1099SOL    HW2 4197   4.520   1.242   6.809
 1100SOL     OW 4198   3.829   0.930   3.924
 1100SOL    HW1 4199   3.909   0.989   3.911
 1100SOL    HW2 4200   3.753   0.964   3.869
 1101SOL     OW 4201   5.212   4.405   5.041
 1101SOL    HW1 4202   5.181   4.417   5.135
 1101SOL    HW2 4203   5.137   4.425   4.979
 1102SOL     OW 4204   2.618   1.488   4.624
 1102SOL    HW1 4205   2.597   1.398   4.586
 1102SOL    HW2 4206   2.680   1.478   4.702
 1103SOL     OW 4207   2.322   1.614   0.146
 1103SOL    HW1 4208   2.262   1.591   0.222
 1103SOL    HW2 4209   2.268   1.622   0.062
 1104SOL     OW 4210   1.777   4.047   3.773
 1104SOL    HW1 4211   1.772   4.093   3.685
 1104SOL    HW2 4212   1.867   4.063   3.814
 1105SOL     OW 4213   4.945   2.926   4.816
 1105SOL    HW1 4214   4.877   2.854   4.830
 1105SOL    HW2 4215   4.904   3.014   4.840
 1106SOL     OW 4216   0.439   1.056   0.805
 1106SOL    HW1 4217   0.409   0.960   0.804
 1106SOL    HW2 4218   0.372   1.112   0.757
 1107SOL     OW 4219   0.715   0.791   0.120
 1107SOL    HW1 4220   0.641   0.800   0.054
 1107SOL    HW2 4221   0.803   0.784   0.072
 1108SOL     OW 4222   3.888   6.687   4.755
 1108SOL    HW1 4223   3.868   6.691   4.853
 1108SOL    HW2 4224   3.937   6.603   4.734
 1109SOL     OW 4225   5.816   1.369   4.311
 1109SOL    HW1 4226   5.749   1.419   4.366
 1109SOL    HW2 4227   5.812   1.401   4.216
 1110SOL     OW 4228   3.633   0.638   3.515
 1110SOL    HW1 4229   3.726   0.673   3.502
 1110SOL    HW2 4230   3.630   0.541   3.489
 1111SOL     OW 4231   5.664   4.248   6.237
 1111SOL    HW1 4232   5.731   4.175   6.221
 1111SOL    HW2 4233   5.684   4.324   6.175
 1112SOL     OW 4234   6.568   0.359   3.231
 1112SOL    HW1 4235   6.660   0.330   3.256
 1112SOL    HW2 4236   6.538   0.433   3.291
 1113SOL     OW 4237   6.404   4.204   1.477
 1113SOL    HW1 4238   6.467   4.267   1.430
 1113SOL    HW2 4239   6.311   4.219   1.443
 1114SOL     OW 4240   3.391   2.293   6.268
 1114SOL    HW1 4241   3.406   2.195   6.283
 1114SOL    HW2 4242   3.361   2.336   6.354
 1115SOL     OW 4243   4.289   4.014   5.310
 1115SOL    HW1 4244   4.290   3.991   5.408
 1115SOL    HW2 4245   4.347   4.094   5.294
 1116SOL     OW 4246   5.797   0.169   0.102
 1116SOL    HW1 4247   5.793   0.134   0.008
 1116SOL    HW2 4248   5.708   0.153   0.146
 1117SOL     OW 4249   1.005   2.151   1.459
 1117SOL    HW1 4250   1.049   2.151   1.549
 1117SOL    HW2 4251   1.065   2.106   1.393
 1118SOL     OW 4252   2.217   5.439   0.064
 1118SOL    HW1 4253   2.199   5.525   0.016
 1118SOL    HW2 4254   2.315   5.420   0.061
 1119SOL     OW 4255   4.481   4.498   1.740
 1119SOL    HW1 4256   4.382   4.498   1.723
 1119SOL    HW2 4257   4.508   4.408   1.774
 1120SOL     OW 4258   6.026   5.933   1.153
 1120SOL    HW1 4259   6.106   5.897   1.104
 1120SOL    HW2 4260   6.053   6.014   1.205
 1121SOL     OW 4261   0.153   4.383   5.155
 1121SOL    HW1 4262   0.168   4.466   5.101
 1121SOL    HW2 4263   0.085   4.325   5.109
 1122SOL     OW 4264   6.229   2.937   1.990
 1122SOL    HW1 4265   6.252   3.013   1.929
 1122SOL    HW2 4266   6.312   2.906   2.036
 1123SOL     OW 4267   4.728   2.247   3.881
 1123SOL    HW1 4268   4.661   2.244   3.807
 1123SOL    HW2 4269   4.771   2.157   3.890
 1124SOL     OW 4270   0.952   3.479   5.961
 1124SOL    HW1 4271   0.875   3.439   5.912
 1124SOL    HW2 4272   1.029   3.493   5.898
 1125SOL     OW 4273   1.867   3.214   4.320
 1125SOL    HW1 4274   1.911   3.203   4.409
 1125SOL    HW2 4275   1.823   3.128   4.294
 1126SOL     OW 4276   5.419   6.162   5.521
 1126SOL    HW1 4277   5.326   6.146   5.554
 1126SOL    HW2 4278   5.416   6.208   5.432
 1127SOL     OW 4279   5.727   6.743   4.828
 1127SOL    HW1 4280   5.775   6.697   4.902
 1127SOL    HW2 4281   5.793   6.769   4.757
 1128SOL     OW 4282   6.077   1.788   4.876
 1128SOL    HW1 4283   6.026   1.716   4.924
 1128SOL    HW2 4284   6.169   1.755   4.856
 1129SOL     OW 4285   1.687   6.392   0.538
 1129SOL    HW1 4286   1.612   6.443   0.497
 1129SOL    HW2 4287   1.698   6.419   0.633
 1130SOL     OW 4288   1.847   5.120   1.859
 1130SOL    HW1 4289   1.803   5.207   1.839
 1130SOL    HW2 4290   1.781   5.046   1.851
 1131SOL     OW 4291   1.519   0.563   4.768
 1131SOL    HW1 4292   1.422   0.584   4.778
 1131SOL    HW2 4293   1.530   0.478   4.716
 1132SOL     OW 4294   4.271   0.309   2.797
 1132SOL    HW1 4295   4.296   0.370   2.721
 1132SOL    HW2 4296   4.173   0.319   2.816
 1133SOL     OW 4297   0.650   0.921   0.352
 1133SOL    HW1 4298   0.707   1.002   0.338
 1133SOL    HW2 4299   0.685   0.846   0.296
 1134SOL     OW 4300   5.419   0.025   1.959
 1134SOL    HW1 4301   5.506   0.052   2.000
 1134SOL    HW2 4302   5.402   6.953   1.979
 1135SOL     OW 4303   2.373   0.034   3.723
 1135SOL    HW1 4304   2.344   0.051   3.628
 1135SOL    HW2 4305   2.471   0.051   3.731
 1136SOL     OW 4306   3.378   4.918   3.047
 1136SOL    HW1 4307   3.418   4.898   2.958
 1136SOL    HW2 4308   3.436   4.984   3.095
 1137SOL     OW 4309   0.462   5.892   6.805
 1137SOL    HW1 4310   0.448   5.985   6.841
 1137SOL    HW2 4311   0.495   5.833   6.879
 1138SOL     OW 4312   1.259   2.196   5.095
 1138SOL    HW1 4313   1.339   2.145   5.125
 1138SOL    HW2 4314   1.208   2.142   5.027
 1139SOL     OW 4315   2.431   4.745   3.969
 1139SOL    HW1 4316   2.457   4.713   3.877
 1139SOL    HW2 4317   2.398   4.839   3.963
 1140SOL     OW 4318   2.481   0.204   2.631
 1140SOL    HW1 4319   2.421   0.125   2.614
 1140SOL    HW2 4320   2.540   0.219   2.552
 1141SOL     OW 4321   6.396   5.638   6.779
 1141SOL    HW1 4322   6.435   5.729   6.793
 1141SOL    HW2 4323   6.373   5.598   6.868
 1142SOL     OW 4324   2.721   0.137   3.323
 1142SOL    HW1 4325   2.643   0.197   3.340
 1142SOL    HW2 4326   2.695   0.042   3.341
 1143SOL     OW 4327   1.215   2.869   2.542
 1143SOL    HW1 4328   1.242   2.782   2.501
 1143SOL    HW2 4329   1.284   2.896   2.609
 1144SOL     OW 4330   5.389   4.400   2.717
 1144SOL    HW1 4331   5.416   4.489   2.680
 1144SOL    HW2 4332   5.441   4.328   2.672
 1145SOL     OW 4333   1.332   2.471   0.392
 1145SOL    HW1 4334   1.367   2.524   0.469
 1145SOL    HW2 4335   1.232   2.469   0.395
 1146SOL     OW 4336   0.569   1.922   1.547
 1146SOL    HW1 4337   0.577   1.974   1.632
 1146SOL    HW2 4338   0.658   1.883   1.523
 1147SOL     OW 4339   2.795   5.527   0.757
 1147SOL    HW1 4340   2.853   5.464   0.810
 1147SOL    HW2 4341   2.847   5.610   0.737
 1148SOL     OW 4342   3.784   6.380   1.252
 1148SOL    HW1 4343   3.834   6.456   1.294
 1148SOL    HW2 4344   3.705   6.416   1.202
 1149SOL     OW 4345   5.560   2.920   1.474
 1149SOL    HW1 4346   5.487   2.886   1.415
 1149SOL    HW2 4347   5.567   3.019   1.464
 1150SOL     OW 4348   0.625   4.237   0.318
 1150SOL    HW1 4349   0.656   4.204   0.407
 1150SOL    HW2 4350   0.692   4.212   0.248
 1151SOL     OW 4351   6.103   4.746   4.811
 1151SOL    HW1 4352   6.116   4.648   4.793
 1151SOL    HW2 4353   6.056   4.788   4.733
 1152SOL     OW 4354   4.683   6.066   6.368
 1152SOL    HW1 4355   4.704   5.998   6.298
 1152SOL    HW2 4356   4.585   6.063   6.389
 1153SOL     OW 4357   6.692   6.860   1.656
 1153SOL    HW1 4358   6.679   6.893   1.749
 1153SOL    HW2 4359   6.605   6.832   1.618
 1154SOL     OW 4360   0.779   3.959   1.221
 1154SOL    HW1 4361   0.727   3.980   1.304
 1154SOL    HW2 4362   0.871   3.928   1.247
 1155SOL     OW 4363   2.184   5.898   5.344
 1155SOL    HW1 4364   2.211   5.966   5.413
 1155SOL    HW2 4365   2.263   5.873   5.289
 1156SOL     OW 4366   4.346   1.915   5.004
 1156SOL    HW1 4367   4.299   1.906   5.092
 1156SOL    HW2 4368   4.391   1.829   4.981
 1157SOL     OW 4369   5.242   1.152   5.674
 1157SOL    HW1 4370   5.311   1.146   5.746
 1157SOL    HW2 4371   5.169   1.086   5.691
 1158SOL     OW 4372   6.498   6.286   4.469
 1158SOL    HW1 4373   6.453   6.217   4.413
 1158SOL    HW2 4374   6.430   6.332   4.526
 1159SOL     OW 4375   5.838   6.712   3.071
 1159SOL    HW1 4376   5.907   6.717   2.999
 1159SOL    HW2 4377   5.748   6.730   3.032
 1160SOL     OW 4378   4.271   5.706   2.162
 1160SOL    HW1 4379   4.313   5.792   2.192
 1160SOL    HW2 4380   4.322   5.629   2.201
 1161SOL     OW 4381   0.104   5.235   6.459
 1161SOL    HW1 4382   0.005   5.234   6.445
 1161SOL    HW2 4383   0.125   5.252   6.555
 1162SOL     OW 4384   2.374   2.597   5.814
 1162SOL    HW1 4385   2.293   2.599   5.756
 1162SOL    HW2 4386   2.386   2.505   5.852
 1163SOL     OW 4387   6.229   4.481   1.641
 1163SOL    HW1 4388   6.296   4.429   1.588
 1163SOL    HW2 4389   6.277   4.542   1.704
 1164SOL     OW 4390   5.396   2.552   5.423
 1164SOL    HW1 4391   5.469   2.619   5.409
 1164SOL    HW2 4392   5.318   2.597   5.467
 1165SOL     OW 4393   4.180   5.965   3.027
 1165SOL    HW1 4394   4.150   5.962   3.123
 1165SOL    HW2 4395   4.186   6.060   2.997
 1166SOL     OW 4396   1.947   5.699   6.599
 1166SOL    HW1 4397   1.911   5.673   6.509
 1166SOL    HW2 4398   1.871   5.729   6.657
 1167SOL     OW 4399   4.871   4.947   1.343
 1167SOL    HW1 4400   4.782   4.930   1.302
 1167SOL    HW2 4401   4.923   5.010   1.284
 1168SOL     OW 4402   6.309   2.552   1.407
 1168SOL    HW1 4403   6.376   2.497   1.458
 1168SOL    HW2 4404   6.356   2.604   1.336
 1169SOL     OW 4405   5.316   1.937   5.214
 1169SOL    HW1 4406   5.359   1.858   5.171
 1169SOL    HW2 4407   5.233   1.962   5.165
 1170SOL     OW 4408   5.449   0.329   2.847
 1170SOL    HW1 4409   5.433   0.382   2.764
 1170SOL    HW2 4410   5.385   0.253   2.851
 1171SOL     OW 4411   2.660   0.064   0.239
 1171SOL    HW1 4412   2.628   0.082   0.333
 1171SOL    HW2 4413   2.714   0.142   0.207
 1172SOL     OW 4414   5.117   4.327   1.060
 1172SOL    HW1 4415   5.162   4.302   1.146
 1172SOL    HW2 4416   5.166   4.405   1.019
 1173SOL     OW 4417   3.006   1.335   1.570
 1173SOL    HW1 4418   3.023   1.360   1.665
 1173SOL    HW2 4419   2.977   1.416   1.519
 1174SOL     OW 4420   3.570   3.948   2.031
 1174SOL    HW1 4421   3.483   3.998   2.030
 1174SOL    HW2 4422   3.595   3.926   2.126
 1175SOL     OW 4423   4.785   3.660   6.022
 1175SOL    HW1 4424   4.775   3.586   6.088
 1175SOL    HW2 4425   4.737   3.741   6.055
 1176SOL     OW 4426   5.305   3.631   6.781
 1176SOL    HW1 4427   5.225   3.572   6.793
 1176SOL    HW2 4428   5.281   3.707   6.720
 1177SOL     OW 4429   6.821   3.825   5.056
 1177SOL    HW1 4430   6.753   3.774   5.110
 1177SOL    HW2 4431   6.774   3.885   4.992
 1178SOL     OW 4432   2.565   3.750   0.376
 1178SOL    HW1 4433   2.663   3.727   0.374
 1178SOL    HW2 4434   2.521   3.715   0.294
 1179SOL     OW 4435   2.343   5.801   0.333
 1179SOL    HW1 4436   2.299   5.801   0.244
 1179SOL    HW2 4437   2.293   5.861   0.395
 1180SOL     OW 4438   2.796   6.395   3.621
 1180SOL    HW1 4439   2.889   6.358   3.620
 1180SOL    HW2 4440   2.763   6.405   3.527
 1181SOL     OW 4441   0.177   5.423   6.269
 1181SOL    HW1 4442   0.095   5.469   6.235
 1181SOL    HW2 4443   0.151   5.344   6.325
 1182SOL     OW 4444   4.044   4.896   3.501
 1182SOL    HW1 4445   4.074   4.989   3.523
 1182SOL    HW2 4446   3.944   4.892   3.501
 1183SOL     OW 4447   2.000   3.772   6.898
 1183SOL    HW1 4448   2.072   3.709   6.928
 1183SOL    HW2 4449   2.038   3.865   6.891
 1184SOL     OW 4450   0.255   1.266   5.018
 1184SOL    HW1 4451   0.224   1.319   4.938
 1184SOL    HW2 4452   0.175   1.228   5.065
 1185SOL     OW 4453   0.352   1.600   0.620
 1185SOL    HW1 4454   0.395   1.534   0.682
 1185SOL    HW2 4455   0.334   1.685   0.668
 1186SOL     OW 4456   5.749   6.482   5.798
 1186SOL    HW1 4457   5.767   6.385   5.782
 1186SOL    HW2 4458   5.671   6.492   5.860
 1187SOL     OW 4459   6.118   6.588   6.846
 1187SOL    HW1 4460   6.140   6.670   6.794
 1187SOL    HW2 4461   6.153   6.596   6.939
 1188SOL     OW 4462   3.785   6.295   5.666
 1188SOL    HW1 4463   3.742   6.250   5.587
 1188SOL    HW2 4464   3.743   6.261   5.750
 1189SOL     OW 4465   6.391   2.388   2.106
 1189SOL    HW1 4466   6.316   2.354   2.164
 1189SOL    HW2 4467   6.369   2.480   2.074
 1190SOL     OW 4468   2.850   5.698   4.041
 1190SOL    HW1 4469   2.815   5.733   4.128
 1190SOL    HW2 4470   2.927   5.755   4.011
 1191SOL     OW 4471   4.589   5.272   3.980
 1191SOL    HW1 4472   4.593   5.185   3.931
 1191SOL    HW2 4473   4.512   5.326   3.945
 1192SOL     OW 4474   3.956   5.649   3.144
 1192SOL    HW1 4475   3.967   5.716   3.071
 1192SOL    HW2 4476   3.908   5.569   3.108
 1193SOL     OW 4477   6.314   3.165   5.309
 1193SOL    HW1 4478   6.365   3.141   5.226
 1193SOL    HW2 4479   6.369   3.143   5.390
 1194SOL     OW 4480   5.684   6.920   1.449
 1194SOL    HW1 4481   5.706   6.930   1.546
 1194SOL    HW2 4482   5.690   7.009   1.404
 1195SOL     OW 4483   6.917   4.180   0.642
 1195SOL    HW1 4484   6.835   4.143   0.599
 1195SOL    HW2 4485   6.918   4.280   0.632
 1196SOL     OW 4486   0.365   5.890   2.699
 1196SOL    HW1 4487   0.287   5.952   2.691
 1196SOL    HW2 4488   0.353   5.833   2.780
 1197SOL     OW 4489   4.541   0.717   5.214
 1197SOL    HW1 4490   4.464   0.737   5.154
 1197SOL    HW2 4491   4.519   0.747   5.307
 1198SOL     OW 4492   1.296   2.674   2.367
 1198SOL    HW1 4493   1.255   2.696   2.278
 1198SOL    HW2 4494   1.385   2.718   2.374
 1199SOL     OW 4495   4.030   4.189   1.633
 1199SOL    HW1 4496   4.104   4.135   1.673
 1199SOL    HW2 4497   3.943   4.163   1.673
 1200SOL     OW 4498   3.074   3.724   4.113
 1200SOL    HW1 4499   3.063   3.716   4.212
 1200SOL    HW2 4500   3.156   3.674   4.085
 1201SOL     OW 4501   1.025   0.980   4.225
 1201SOL    HW1 4502   0.971   1.059   4.252
 1201SOL    HW2 4503   1.028   0.974   4.125
 1202SOL     OW 4504   0.517   5.646   5.661
 1202SOL    HW1 4505   0.460   5.661   5.581
 1202SOL    HW2 4506   0.612   5.634   5.633
 1203SOL     OW 4507   5.938   6.129   0.030
 1203SOL    HW1 4508   5.932   6.158   0.125
 1203SOL    HW2 4509   5.854   6.083   0.003
 1204SOL     OW 4510   3.332   6.253   1.724
 1204SOL    HW1 4511   3.289   6.215   1.807
 1204SOL    HW2 4512   3.289   6.341   1.702
 1205SOL     OW 4513   4.866   3.670   1.271
 1205SOL    HW1 4514   4.777   3.626   1.261
 1205SOL    HW2 4515   4.917   3.663   1.186
 1206SOL     OW 4516   2.997   2.726   5.343
 1206SOL    HW1 4517   3.001   2.689   5.436
 1206SOL    HW2 4518   2.989   2.825   5.347
 1207SOL     OW 4519   2.055   6.164   1.289
 1207SOL    HW1 4520   2.136   6.182   1.345
 1207SOL    HW2 4521   2.061   6.071   1.252
 1208SOL     OW 4522   3.050   3.998   1.343
 1208SOL    HW1 4523   3.015   4.006   1.437
 1208SOL    HW2 4524   2.989   3.939   1.290
 1209SOL     OW 4525   4.882   1.167   4.665
 1209SOL    HW1 4526   4.944   1.127   4.733
 1209SOL    HW2 4527   4.865   1.262   4.688
 1210SOL     OW 4528   3.163   0.774   3.749
 1210SOL    HW1 4529   3.065   0.755   3.746
 1210SOL    HW2 4530   3.197   0.788   3.656
 1211SOL     OW 4531   0.874   3.637   1.815
 1211SOL    HW1 4532   0.849   3.734   1.813
 1211SOL    HW2 4533   0.796   3.582   1.784
 1212SOL     OW 4534   6.266   0.651   6.986
 1212SOL    HW1 4535   6.265   0.581   6.914
 1212SOL    HW2 4536   6.323   0.619   0.037
 1213SOL     OW 4537   6.679   2.018   0.681
 1213SOL    HW1 4538   6.675   1.977   0.590
 1213SOL    HW2 4539   6.755   2.083   0.685
 1214SOL     OW 4540   0.861   2.183   6.801
 1214SOL    HW1 4541   0.803   2.113   6.761
 1214SOL    HW2 4542   0.827   2.274   6.775
 1215SOL     OW 4543   1.088   4.615   3.661
 1215SOL    HW1 4544   1.184   4.600   3.683
 1215SOL    HW2 4545   1.043   4.527   3.646
 1216SOL     OW 4546   4.777   0.834   1.090
 1216SOL    HW1 4547   4.751   0.738   1.086
 1216SOL    HW2 4548   4.838   0.855   1.014
 1217SOL     OW 4549   2.166   4.591   0.033
 1217SOL    HW1 4550   2.187   4.579   0.130
 1217SOL    HW2 4551   2.067   4.606   0.022
 1218SOL     OW 4552   2.319   4.301   4.530
 1218SOL    HW1 4553   2.278   4.273   4.443
 1218SOL    HW2 4554   2.289   4.239   4.603
 1219SOL     OW 4555   5.876   6.047   1.668
 1219SOL    HW1 4556   5.785   6.090   1.667
 1219SOL    HW2 4557   5.889   5.999   1.755
 1220SOL     OW 4558   1.012   5.036   3.468
 1220SOL    HW1 4559   0.953   5.046   3.548
 1220SOL    HW2 4560   1.021   4.940   3.445
 1221SOL     OW 4561   5.990   3.690   5.867
 1221SOL    HW1 4562   5.904   3.656   5.903
 1221SOL    HW2 4563   5.994   3.673   5.769
 1222SOL     OW 4564   6.452   6.997   6.687
 1222SOL    HW1 4565   6.437   0.012   6.778
 1222SOL    HW2 4566   6.442   0.044   6.618
 1223SOL     OW 4567   4.033   0.465   0.984
 1223SOL    HW1 4568   4.055   0.519   1.065
 1223SOL    HW2 4569   3.953   0.504   0.939
 1224SOL     OW 4570   3.037   5.796   6.996
 1224SOL    HW1 4571   3.020   5.721   6.932
 1224SOL    HW2 4572   2.955   5.814   0.025
 1225SOL     OW 4573   3.806   3.612   6.875
 1225SOL    HW1 4574   3.748   3.691   6.857
 1225SOL    HW2 4575   3.836   3.614   6.970
 1226SOL     OW 4576   2.457   5.150   1.086
 1226SOL    HW1 4577   2.429   5.067   1.136
 1226SOL    HW2 4578   2.523   5.201   1.141
 1227SOL     OW 4579   6.241   4.044   0.081
 1227SOL    HW1 4580   6.324   4.066   0.131
 1227SOL    HW2 4581   6.163   4.087   0.127
 1228SOL     OW 4582   4.440   2.746   6.782
 1228SOL    HW1 4583   4.533   2.783   6.786
 1228SOL    HW2 4584   4.378   2.806   6.832
 1229SOL     OW 4585   3.927   5.302   6.283
 1229SOL    HW1 4586   3.964   5.321   6.373
 1229SOL    HW2 4587   3.978   5.353   6.214
 1230SOL     OW 4588   4.736   0.204   3.439
 1230SOL    HW1 4589   4.666   0.154   3.389
 1230SOL    HW2 4590   4.766   0.283   3.384
 1231SOL     OW 4591   1.371   3.561   4.249
 1231SOL    HW1 4592   1.292   3.604   4.292
 1231SOL    HW2 4593   1.430   3.631   4.209
 1232SOL     OW 4594   0.426   2.286   6.285
 1232SOL    HW1 4595   0.434   2.384   6.264
 1232SOL    HW2 4596   0.337   2.253   6.256
 1233SOL     OW 4597   0.979   3.454   4.142
 1233SOL    HW1 4598   0.973   3.372   4.085
 1233SOL    HW2 4599   0.898   3.511   4.128
 1234SOL     OW 4600   6.317   4.263   4.709
 1234SOL    HW1 4601   6.374   4.306   4.778
 1234SOL    HW2 4602   6.375   4.217   4.642
 1235SOL     OW 4603   6.995   5.501   2.248
 1235SOL    HW1 4604   0.062   5.513   2.211
 1235SOL    HW2 4605   6.953   5.591   2.259
 1236SOL     OW 4606   5.017   1.264   0.349
 1236SOL    HW1 4607   4.918   1.274   0.340
 1236SOL    HW2 4608   5.046   1.180   0.302
 1237SOL     OW 4609   2.351   4.726   5.903
 1237SOL    HW1 4610   2.434   4.674   5.883
 1237SOL    HW2 4611   2.274   4.664   5.913
 1238SOL     OW 4612   2.310   0.597   0.600
 1238SOL    HW1 4613   2.310   0.514   0.545
 1238SOL    HW2 4614   2.246   0.663   0.562
 1239SOL     OW 4615   6.907   6.813   6.320
 1239SOL    HW1 4616   6.975   6.856   6.379
 1239SOL    HW2 4617   6.906   6.861   6.231
 1240SOL     OW 4618   5.562   5.649   1.757
 1240SOL    HW1 4619   5.582   5.604   1.670
 1240SOL    HW2 4620   5.469   5.626   1.786
 1241SOL     OW 4621   6.503   4.034   3.970
 1241SOL    HW1 4622   6.561   4.028   4.051
 1241SOL    HW2 4623   6.428   3.968   3.977
 1242SOL     OW 4624   0.392   3.556   1.933
 1242SOL    HW1 4625   0.336   3.533   1.853
 1242SOL    HW2 4626   0.459   3.625   1.909
 1243SOL     OW 4627   0.879   6.716   5.067
 1243SOL    HW1 4628   0.837   6.633   5.030
 1243SOL    HW2 4629   0.900   6.703   5.164
 1244SOL     OW 4630   6.666   6.505   3.623
 1244SOL    HW1 4631   6.645   6.408   3.629
 1244SOL    HW2 4632   6.752   6.523   3.672
 1245SOL     OW 4633   5.218   4.046   6.488
 1245SOL    HW1 4634   5.143   4.106   6.517
 1245SOL    HW2 4635   5.249   4.073   6.397
 1246SOL     OW 4636   2.206   6.213   1.537
 1246SOL    HW1 4637   2.133   6.282   1.538
 1246SOL    HW2 4638   2.247   6.206   1.628
 1247SOL     OW 4639   2.758   0.212   6.518
 1247SOL    HW1 4640   2.725   0.195   6.611
 1247SOL    HW2 4641   2.845   0.165   6.504
 1248SOL     OW 4642   2.294   7.003   4.440
 1248SOL    HW1 4643   2.205   6.986   4.397
 1248SOL    HW2 4644   2.340   0.053   4.391
 1249SOL     OW 4645   5.879   2.307   2.332
 1249SOL    HW1 4646   5.889   2.270   2.239
 1249SOL    HW2 4647   5.787   2.288   2.366
 1250SOL     OW 4648   6.648   4.832   4.350
 1250SOL    HW1 4649   6.721   4.775   4.388
 1250SOL    HW2 4650   6.687   4.913   4.306
 1251SOL     OW 4651   3.131   6.721   4.367
 1251SOL    HW1 4652   3.086   6.653   4.309
 1251SOL    HW2 4653   3.207   6.678   4.416
 1252SOL     OW 4654   3.743   3.354   5.824
 1252SOL    HW1 4655   3.729   3.260   5.854
 1252SOL    HW2 4656   3.829   3.389   5.861
 1253SOL     OW 4657   3.454   5.043   1.534
 1253SOL    HW1 4658   3.474   5.016   1.629
 1253SOL    HW2 4659   3.396   5.124   1.535
 1254SOL     OW 4660   6.581   3.133   2.337
 1254SOL    HW1 4661   6.660   3.193   2.326
 1254SOL    HW2 4662   6.521   3.170   2.408
 1255SOL     OW 4663   6.620   1.814   4.579
 1255SOL    HW1 4664   6.649   1.867   4.659
 1255SOL    HW2 4665   6.688   1.743   4.561
 1256SOL     OW 4666   6.830   6.979   2.994
 1256SOL    HW1 4667   6.847   6.882   2.977
 1256SOL    HW2 4668   6.876   7.008   3.077
 1257SOL     OW 4669   6.578   6.987   3.619
 1257SOL    HW1 4670   6.530   6.899   3.617
 1257SOL    HW2 4671   6.674   6.972   3.595
 1258SOL     OW 4672   1.259   5.104   3.769
 1258SOL    HW1 4673   1.251   5.036   3.842
 1258SOL    HW2 4674   1.278   5.057   3.682
 1259SOL     OW 4675   3.694   2.127   4.402
 1259SOL    HW1 4676   3.790   2.120   4.428
 1259SOL    HW2 4677   3.639   2.147   4.483
 1260SOL     OW 4678   1.116   1.347   6.910
 1260SOL    HW1 4679   1.045   1.416   6.895
 1260SOL    HW2 4680   1.145   1.350   7.005
 1261SOL     OW 4681   7.017   5.780   6.316
 1261SOL    HW1 4682   0.071   5.828   6.276
 1261SOL    HW2 4683   6.974   5.838   6.385
 1262SOL     OW 4684   5.095   5.192   1.182
 1262SOL    HW1 4685   5.145   5.277   1.164
 1262SOL    HW2 4686   5.137   5.146   1.261
 1263SOL     OW 4687   0.577   0.839   2.572
 1263SOL    HW1 4688   0.639   0.763   2.592
 1263SOL    HW2 4689   0.483   0.805   2.569
 1264SOL     OW 4690   0.477   4.093   6.511
 1264SOL    HW1 4691   0.398   4.132   6.464
 1264SOL    HW2 4692   0.523   4.164   6.564
 1265SOL     OW 4693   6.214   5.037   4.368
 1265SOL    HW1 4694   6.220   5.069   4.462
 1265SOL    HW2 4695   6.140   5.085   4.321
 1266SOL     OW 4696   0.751   0.684   4.201
 1266SOL    HW1 4697   0.683   0.691   4.128
 1266SOL    HW2 4698   0.714   0.629   4.276
 1267SOL     OW 4699   4.677   1.044   1.478
 1267SOL    HW1 4700   4.676   0.975   1.550
 1267SOL    HW2 4701   4.755   1.105   1.491
 1268SOL     OW 4702   2.854   2.883   6.507
 1268SOL    HW1 4703   2.904   2.808   6.464
 1268SOL    HW2 4704   2.768   2.848   6.545
 1269SOL     OW 4705   5.844   2.924   3.586
 1269SOL    HW1 4706   5.777   2.942   3.514
 1269SOL    HW2 4707   5.800   2.936   3.675
 1270SOL     OW 4708   2.142   4.438   2.311
 1270SOL    HW1 4709   2.099   4.495   2.240
 1270SOL    HW2 4710   2.093   4.451   2.397
 1271SOL     OW 4711   3.520   0.957   1.985
 1271SOL    HW1 4712   3.549   1.030   1.923
 1271SOL    HW2 4713   3.449   0.992   2.046
 1272SOL     OW 4714   6.222   4.578   6.636
 1272SOL    HW1 4715   6.156   4.508   6.662
 1272SOL    HW2 4716   6.281   4.599   6.714
 1273SOL     OW 4717   1.499   3.786   5.331
 1273SOL    HW1 4718   1.418   3.738   5.365
 1273SOL    HW2 4719   1.550   3.727   5.269
 1274SOL     OW 4720   0.572   4.317   1.329
 1274SOL    HW1 4721   0.522   4.252   1.387
 1274SOL    HW2 4722   0.613   4.267   1.252
 1275SOL     OW 4723   3.139   0.413   3.401
 1275SOL    HW1 4724   3.177   0.480   3.465
 1275SOL    HW2 4725   3.065   0.456   3.349
 1276SOL     OW 4726   5.664   5.260   4.556
 1276SOL    HW1 4727   5.598   5.328   4.588
 1276SOL    HW2 4728   5.617   5.173   4.542
 1277SOL     OW 4729   1.534   5.057   0.310
 1277SOL    HW1 4730   1.609   5.122   0.299
 1277SOL    HW2 4731   1.534   4.993   0.232
 1278SOL     OW 4732   1.375   0.048   4.118
 1278SOL    HW1 4733   1.384   7.014   4.199
 1278SOL    HW2 4734   1.446   0.024   4.051
 1279SOL     OW 4735   2.369   4.086   6.131
 1279SOL    HW1 4736   2.438   4.157   6.148
 1279SOL    HW2 4737   2.363   4.068   6.033
 1280SOL     OW 4738   4.298   0.082   3.846
 1280SOL    HW1 4739   4.271   0.177   3.866
 1280SOL    HW2 4740   4.384   0.061   3.892
 1281SOL     OW 4741   2.929   5.712   3.613
 1281SOL    HW1 4742   2.974   5.726   3.701
 1281SOL    HW2 4743   2.842   5.762   3.612
 1282SOL     OW 4744   0.041   2.737   0.134
 1282SOL    HW1 4745   6.968   2.741   0.113
 1282SOL    HW2 4746   0.077   2.648   0.108
 1283SOL     OW 4747   6.310   3.936   5.668
 1283SOL    HW1 4748   6.331   3.846   5.630
 1283SOL    HW2 4749   6.392   3.993   5.662
 1284SOL     OW 4750   4.030   0.734   1.142
 1284SOL    HW1 4751   3.944   0.742   1.193
 1284SOL    HW2 4752   4.038   0.810   1.078
 1285SOL     OW 4753   4.220   1.204   5.499
 1285SOL    HW1 4754   4.256   1.145   5.571
 1285SOL    HW2 4755   4.277   1.285   5.490
 1286SOL     OW 4756   4.538   2.500   1.027
 1286SOL    HW1 4757   4.502   2.416   0.985
 1286SOL    HW2 4758   4.625   2.480   1.070
 1287SOL     OW 4759   5.197   4.881   5.275
 1287SOL    HW1 4760   5.237   4.820   5.207
 1287SOL    HW2 4761   5.101   4.897   5.253
 1288SOL     OW 4762   4.121   4.857   5.517
 1288SOL    HW1 4763   4.044   4.827   5.573
 1288SOL    HW2 4764   4.135   4.955   5.529
 1289SOL     OW 4765   0.074   0.741   1.993
 1289SOL    HW1 4766   0.084   0.662   1.932
 1289SOL    HW2 4767   7.002   0.767   1.998
 1290SOL     OW 4768   1.629   7.005   1.342
 1290SOL    HW1 4769   1.590   0.002   1.253
 1290SOL    HW2 4770   1.713   6.953   1.330
 1291SOL     OW 4771   6.466   5.086   4.171
 1291SOL    HW1 4772   6.392   5.044   4.223
 1291SOL    HW2 4773   6.475   5.042   4.082
 1292SOL     OW 4774   0.772   5.403   1.970
 1292SOL    HW1 4775   0.753   5.368   1.879
 1292SOL    HW2 4776   0.749   5.333   2.038
 1293SOL     OW 4777   2.487   2.218   0.305
 1293SOL    HW1 4778   2.526   2.147   0.364
 1293SOL    HW2 4779   2.414   2.177   0.249
 1294SOL     OW 4780   1.545   4.406   6.432
 1294SOL    HW1 4781   1.557   4.493   6.479
 1294SOL    HW2 4782   1.580   4.412   6.339
 1295SOL     OW 4783   0.393   3.544   1.281
 1295SOL    HW1 4784   0.323   3.521   1.349
 1295SOL    HW2 4785   0.405   3.467   1.219
 1296SOL     OW 4786   4.726   6.844   5.552
 1296SOL    HW1 4787   4.749   6.925   5.607
 1296SOL    HW2 4788   4.664   6.870   5.478
 1297SOL     OW 4789   1.127   6.211   1.557
 1297SOL    HW1 4790   1.184   6.215   1.476
 1297SOL    HW2 4791   1.100   6.303   1.585
 1298SOL     OW 4792   4.912   5.804   3.207
 1298SOL    HW1 4793   4.986   5.842   3.152
 1298SOL    HW2 4794   4.879   5.873   3.271
 1299SOL     OW 4795   1.889   2.938   3.974
 1299SOL    HW1 4796   1.882   3.023   3.923
 1299SOL    HW2 4797   1.908   2.863   3.911
 1300SOL     OW 4798   1.778   3.183   1.606
 1300SOL    HW1 4799   1.847   3.223   1.545
 1300SOL    HW2 4800   1.693   3.167   1.555
 1301SOL     OW 4801   0.845   6.652   1.877
 1301SOL    HW1 4802   0.808   6.643   1.785
 1301SOL    HW2 4803   0.898   6.737   1.884
 1302SOL     OW 4804   5.498   0.882   5.274
 1302SOL    HW1 4805   5.465   0.836   5.356
 1302SOL    HW2 4806   5.510   0.814   5.201
 1303SOL     OW 4807   4.159   0.893   1.815
 1303SOL    HW1 4808   4.059   0.890   1.810
 1303SOL    HW2 4809   4.194   0.800   1.827
 1304SOL     OW 4810   1.817   1.281   1.506
 1304SOL    HW1 4811   1.837   1.231   1.590
 1304SOL    HW2 4812   1.891   1.345   1.487
 1305SOL     OW 4813   5.996   4.461   6.143
 1305SOL    HW1 4814   6.015   4.363   6.136
 1305SOL    HW2 4815   5.898   4.476   6.154
 1306SOL     OW 4816   1.469   5.861   4.620
 1306SOL    HW1 4817   1.381   5.813   4.613
 1306SOL    HW2 4818   1.523   5.843   4.538
 1307SOL     OW 4819   2.056   3.572   4.022
 1307SOL    HW1 4820   1.976   3.629   4.042
 1307SOL    HW2 4821   2.051   3.487   4.075
 1308SOL     OW 4822   6.849   0.081   5.943
 1308SOL    HW1 4823   6.810   7.014   5.933
 1308SOL    HW2 4824   6.789   0.148   5.899
 1309SOL     OW 4825   5.395   4.631   5.614
 1309SOL    HW1 4826   5.406   4.625   5.514
 1309SOL    HW2 4827   5.346   4.715   5.637
 1310SOL     OW 4828   0.427   4.514   3.721
 1310SOL    HW1 4829   0.351   4.574   3.695
 1310SOL    HW2 4830   0.507   4.534   3.664
 1311SOL     OW 4831   6.609   6.025   6.532
 1311SOL    HW1 4832   6.708   6.022   6.540
 1311SOL    HW2 4833   6.570   5.938   6.561
 1312SOL     OW 4834   1.689   0.368   0.173
 1312SOL    HW1 4835   1.734   0.404   0.255
 1312SOL    HW2 4836   1.687   0.268   0.177
 1313SOL     OW 4837   6.763   5.220   2.640
 1313SOL    HW1 4838   6.743   5.131   2.599
 1313SOL    HW2 4839   6.704   5.234   2.719
 1314SOL     OW 4840   3.491   1.852   4.492
 1314SOL    HW1 4841   3.521   1.761   4.519
 1314SOL    HW2 4842   3.456   1.850   4.398
 1315SOL     OW 4843   6.832   0.816   3.716
 1315SOL    HW1 4844   6.813   0.751   3.642
 1315SOL    HW2 4845   6.752   0.875   3.730
 1316SOL     OW 4846   3.586   6.969   4.831
 1316SOL    HW1 4847   3.654   7.023   4.882
 1316SOL    HW2 4848   3.504   6.957   4.887
 1317SOL     OW 4849   1.587   4.315   5.169
 1317SOL    HW1 4850   1.529   4.333   5.249
 1317SOL    HW2 4851   1.681   4.299   5.199
 1318SOL     OW 4852   1.350   2.608   6.719
 1318SOL    HW1 4853   1.263   2.633   6.762
 1318SOL    HW2 4854   1.414   2.684   6.727
 1319SOL     OW 4855   0.187   5.565   6.887
 1319SOL    HW1 4856   0.282   5.589   6.906
 1319SOL    HW2 4857   0.183   5.496   6.815
 1320SOL     OW 4858   2.593   3.050   6.921
 1320SOL    HW1 4859   2.612   2.953   6.903
 1320SOL    HW2 4860   2.562   3.093   6.836
 1321SOL     OW 4861   4.757   2.620   6.316
 1321SOL    HW1 4862   4.666   2.643   6.351
 1321SOL    HW2 4863   4.793   2.543   6.369
 1322SOL     OW 4864   3.761   1.453   4.151
 1322SOL    HW1 4865   3.724   1.512   4.079
 1322SOL    HW2 4866   3.687   1.395   4.187
 1323SOL     OW 4867   3.357   6.097   0.554
 1323SOL    HW1 4868   3.437   6.090   0.614
 1323SOL    HW2 4869   3.376   6.048   0.468
 1324SOL     OW 4870   0.684   3.568   0.657
 1324SOL    HW1 4871   0.620   3.559   0.580
 1324SOL    HW2 4872   0.633   3.574   0.743
 1325SOL     OW 4873   4.092   6.129   5.144
 1325SOL    HW1 4874   4.017   6.066   5.166
 1325SOL    HW2 4875   4.085   6.211   5.203
 1326SOL     OW 4876   4.786   4.042   5.353
 1326SOL    HW1 4877   4.855   4.106   5.319
 1326SOL    HW2 4878   4.809   3.949   5.326
 1327SOL     OW 4879   0.605   6.665   1.142
 1327SOL    HW1 4880   0.560   6.657   1.231
 1327SOL    HW2 4881   0.574   6.749   1.097
 1328SOL     OW 4882   1.978   2.981   6.828
 1328SOL    HW1 4883   2.043   2.958   6.901
 1328SOL    HW2 4884   1.904   3.036   6.866
 1329SOL     OW 4885   6.979   2.095   3.223
 1329SOL    HW1 4886   0.012   2.108   3.304
 1329SOL    HW2 4887   7.024   2.032   3.160
 1330SOL     OW 4888   0.712   2.396   1.050
 1330SOL    HW1 4889   0.716   2.489   1.086
 1330SOL    HW2 4890   0.673   2.336   1.119
 1331SOL     OW 4891   4.752   2.759   2.724
 1331SOL    HW1 4892   4.704   2.769   2.812
 1331SOL    HW2 4893   4.769   2.849   2.685
 1332SOL     OW 4894   2.356   6.585   0.368
 1332SOL    HW1 4895   2.296   6.662   0.346
 1332SOL    HW2 4896   2.316   6.501   0.331
 1333SOL     OW 4897   2.888   3.647   3.428
 1333SOL    HW1 4898   2.876   3.643   3.329
 1333SOL    HW2 4899   2.814   3.597   3.472
 1334SOL     OW 4900   6.231   1.878   3.664
 1334SOL    HW1 4901   6.226   1.894   3.762
 1334SOL    HW2 4902   6.299   1.807   3.645
 1335SOL     OW 4903   1.913   1.959   1.867
 1335SOL    HW1 4904   1.876   1.982   1.777
 1335SOL    HW2 4905   1.969   2.035   1.900
 1336SOL     OW 4906   3.862   1.305   5.324
 1336SOL    HW1 4907   3.952   1.347   5.316
 1336SOL    HW2 4908   3.799   1.348   5.258
 1337SOL     OW 4909   6.911   1.592   3.157
 1337SOL    HW1 4910   6.976   1.611   3.083
 1337SOL    HW2 4911   6.825   1.561   3.118
 1338SOL     OW 4912   0.124   4.206   4.207
 1338SOL    HW1 4913   0.220   4.185   4.188
 1338SOL    HW2 4914   0.069   4.124   4.194
 1339SOL     OW 4915   6.818   0.871   0.477
 1339SOL    HW1 4916   6.736   0.854   0.532
 1339SOL    HW2 4917   6.818   0.810   0.398
 1340SOL     OW 4918   5.581   1.650   2.745
 1340SOL    HW1 4919   5.562   1.675   2.840
 1340SOL    HW2 4920   5.532   1.712   2.683
 1341SOL     OW 4921   3.969   6.067   0.157
 1341SOL    HW1 4922   3.894   6.127   0.184
 1341SOL    HW2 4923   4.012   6.103   0.074
 1342SOL     OW 4924   3.012   5.326   6.451
 1342SOL    HW1 4925   3.072   5.246   6.459
 1342SOL    HW2 4926   2.919   5.301   6.474
 1343SOL     OW 4927   5.324   5.078   2.697
 1343SOL    HW1 4928   5.258   5.141   2.738
 1343SOL    HW2 4929   5.387   5.046   2.768
 1344SOL     OW 4930   0.307   6.316   4.292
 1344SOL    HW1 4931   0.401   6.282   4.289
 1344SOL    HW2 4932   0.293   6.380   4.217
 1345SOL     OW 4933   0.675   4.492   2.314
 1345SOL    HW1 4934   0.740   4.541   2.256
 1345SOL    HW2 4935   0.686   4.520   2.409
 1346SOL     OW 4936   1.819   5.425   6.152
 1346SOL    HW1 4937   1.821   5.498   6.220
 1346SOL    HW2 4938   1.894   5.437   6.087
 1347SOL     OW 4939   1.114   6.726   6.859
 1347SOL    HW1 4940   1.164   6.776   6.789
 1347SOL    HW2 4941   1.025   6.698   6.824
 1348SOL     OW 4942   6.939   6.653   5.509
 1348SOL    HW1 4943   6.930   6.738   5.457
 1348SOL    HW2 4944   6.919   6.671   5.605
 1349SOL     OW 4945   5.195   2.445   4.205
 1349SOL    HW1 4946   5.294   2.439   4.197
 1349SOL    HW2 4947   5.163   2.382   4.276
 1350SOL     OW 4948   4.517   5.168   6.065
 1350SOL    HW1 4949   4.616   5.179   6.064
 1350SOL    HW2 4950   4.483   5.169   6.159
 1351SOL     OW 4951   5.957   2.550   4.167
 1351SOL    HW1 4952   5.886   2.618   4.187
 1351SOL    HW2 4953   6.045   2.597   4.158
 1352SOL     OW 4954   6.947   6.306   3.467
 1352SOL    HW1 4955   6.883   6.302   3.390
 1352SOL    HW2 4956   6.995   6.218   3.475
 1353SOL     OW 4957   1.370   1.855   0.532
 1353SOL    HW1 4958   1.276   1.844   0.501
 1353SOL    HW2 4959   1.396   1.778   0.590
 1354SOL     OW 4960   0.065   3.949   1.882
 1354SOL    HW1 4961   0.017   3.930   1.968
 1354SOL    HW2 4962   0.099   4.044   1.883
 1355SOL     OW 4963   5.965   3.423   4.133
 1355SOL    HW1 4964   5.924   3.407   4.223
 1355SOL    HW2 4965   5.947   3.517   4.105
 1356SOL     OW 4966   3.795   3.123   1.788
 1356SOL    HW1 4967   3.857   3.054   1.826
 1356SOL    HW2 4968   3.767   3.186   1.860
 1357SOL     OW 4969   6.897   4.449   6.483
 1357SOL    HW1 4970   6.860   4.413   6.398
 1357SOL    HW2 4971   6.857   4.539   6.501
 1358SOL     OW 4972   6.148   6.688   0.096
 1358SOL    HW1 4973   6.096   6.681   0.181
 1358SOL    HW2 4974   6.211   6.611   0.088
 1359SOL     OW 4975   6.435   4.949   2.168
 1359SOL    HW1 4976   6.454   4.887   2.245
 1359SOL    HW2 4977   6.338   4.945   2.146
 1360SOL     OW 4978   3.143   3.162   0.357
 1360SOL    HW1 4979   3.052   3.141   0.320
 1360SOL    HW2 4980   3.133   3.214   0.442
 1361SOL     OW 4981   6.813   4.450   4.472
 1361SOL    HW1 4982   6.902   4.440   4.427
 1361SOL    HW2 4983   6.797   4.370   4.531
 1362SOL     OW 4984   3.898   4.001   2.998
 1362SOL    HW1 4985   3.826   3.973   3.062
 1362SOL    HW2 4986   3.935   3.920   2.953
 1363SOL     OW 4987   0.520   5.305   4.307
 1363SOL    HW1 4988   0.524   5.235   4.378
 1363SOL    HW2 4989   0.428   5.344   4.304
 1364SOL     OW 4990   4.574   4.004   0.312
 1364SOL    HW1 4991   4.526   4.007   0.400
 1364SOL    HW2 4992   4.562   4.091   0.265
 1365SOL     OW 4993   0.612   4.316   6.603
 1365SOL    HW1 4994   0.623   4.348   6.509
 1365SOL    HW2 4995   0.699   4.326   6.652
 1366SOL     OW 4996   1.411   6.410   6.037
 1366SOL    HW1 4997   1.343   6.484   6.038
 1366SOL    HW2 4998   1.496   6.444   5.997
 1367SOL     OW 4999   1.959   0.641   2.356
 1367SOL    HW1 5000   1.972   0.723   2.300
 1367SOL    HW2 5001   1.913   0.665   2.441
 1368SOL     OW 5002   5.345   6.915   5.229
 1368SOL    HW1 5003   5.396   6.921   5.143
 1368SOL    HW2 5004   5.249   6.894   5.209
 1369SOL     OW 5005   1.901   6.278   3.090
 1369SOL    HW1 5006   1.860   6.296   3.180
 1369SOL    HW2 5007   1.829   6.279   3.020
 1370SOL     OW 5008   3.712   0.859   2.309
 1370SOL    HW1 5009   3.646   0.814   2.248
 1370SOL    HW2 5010   3.717   0.808   2.395
 1371SOL     OW 5011   4.644   1.151   4.462
 1371SOL    HW1 5012   4.737   1.121   4.481
 1371SOL    HW2 5013   4.618   1.124   4.369
 1372SOL     OW 5014   2.039   2.719   1.215
 1372SOL    HW1 5015   1.943   2.715   1.189
 1372SOL    HW2 5016   2.049   2.691   1.310
 1373SOL     OW 5017   6.275   4.710   0.434
 1373SOL    HW1 5018   6.263   4.614   0.409
 1373SOL    HW2 5019   6.284   4.765   0.351
 1374SOL     OW 5020   4.609   2.153   0.774
 1374SOL    HW1 5021   4.567   2.063   0.768
 1374SOL    HW2 5022   4.565   2.206   0.847
 1375SOL     OW 5023   6.495   5.196   6.300
 1375SOL    HW1 5024   6.519   5.249   6.381
 1375SOL    HW2 5025   6.546   5.110   6.300
 1376SOL     OW 5026   4.613   2.718   3.958
 1376SOL    HW1 5027   4.590   2.634   4.006
 1376SOL    HW2 5028   4.650   2.785   4.022
 1377SOL     OW 5029   0.357   4.362   6.322
 1377SOL    HW1 5030   0.447   4.399   6.345
 1377SOL    HW2 5031   0.313   4.420   6.254
 1378SOL     OW 5032   1.032   2.384   5.734
 1378SOL    HW1 5033   0.982   2.332   5.665
 1378SOL    HW2 5034   0.996   2.363   5.825
 1379SOL     OW 5035   3.630   6.175   2.873
 1379SOL    HW1 5036   3.539   6.172   2.912
 1379SOL    HW2 5037   3.638   6.107   2.800
 1380SOL     OW 5038   6.785   0.090   2.767
 1380SOL    HW1 5039   6.805   0.041   2.851
 1380SOL    HW2 5040   6.686   0.104   2.759
 1381SOL     OW 5041   5.330   2.989   0.055
 1381SOL    HW1 5042   5.400   2.918   0.055
 1381SOL    HW2 5043   5.300   3.008   0.148
 1382SOL     OW 5044   5.946   5.119   5.988
 1382SOL    HW1 5045   6.016   5.048   5.986
 1382SOL    HW2 5046   5.858   5.081   5.960
 1383SOL     OW 5047   0.817   1.315   0.400
 1383SOL    HW1 5048   0.858   1.241   0.452
 1383SOL    HW2 5049   0.742   1.356   0.453
 1384SOL     OW 5050   2.923   1.800   3.720
 1384SOL    HW1 5051   2.878   1.712   3.707
 1384SOL    HW2 5052   2.896   1.839   3.808
 1385SOL     OW 5053   6.587   2.670   3.182
 1385SOL    HW1 5054   6.620   2.706   3.269
 1385SOL    HW2 5055   6.647   2.596   3.152
 1386SOL     OW 5056   2.232   3.029   4.270
 1386SOL    HW1 5057   2.266   3.031   4.176
 1386SOL    HW2 5058   2.133   3.018   4.269
 1387SOL     OW 5059   3.747   0.253   4.605
 1387SOL    HW1 5060   3.682   0.270   4.679
 1387SOL    HW2 5061   3.724   0.311   4.527
 1388SOL     OW 5062   6.674   0.490   3.916
 1388SOL    HW1 5063   6.740   0.534   3.855
 1388SOL    HW2 5064   6.681   0.391   3.905
 1389SOL     OW 5065   0.007   0.125   4.244
 1389SOL    HW1 5066   6.968   0.062   4.288
 1389SOL    HW2 5067   0.069   0.163   4.313
 1390SOL     OW 5068   4.156   1.886   0.539
 1390SOL    HW1 5069   4.137   1.832   0.621
 1390SOL    HW2 5070   4.196   1.974   0.565
 1391SOL     OW 5071   5.931   0.787   5.674
 1391SOL    HW1 5072   6.006   0.848   5.698
 1391SOL    HW2 5073   5.887   0.752   5.757
 1392SOL     OW 5074   4.485   6.006   6.083
 1392SOL    HW1 5075   4.467   5.916   6.125
 1392SOL    HW2 5076   4.423   6.073   6.123
 1393SOL     OW 5077   6.372   1.598   6.413
 1393SOL    HW1 5078   6.363   1.498   6.415
 1393SOL    HW2 5079   6.336   1.637   6.498
 1394SOL     OW 5080   4.258   6.294   3.527
 1394SOL    HW1 5081   4.192   6.251   3.465
 1394SOL    HW2 5082   4.209   6.348   3.596
 1395SOL     OW 5083   0.959   4.728   3.264
 1395SOL    HW1 5084   0.987   4.675   3.184
 1395SOL    HW2 5085   0.923   4.817   3.235
 1396SOL     OW 5086   1.810   1.290   4.714
 1396SOL    HW1 5087   1.877   1.218   4.733
 1396SOL    HW2 5088   1.813   1.357   4.787
 1397SOL     OW 5089   0.685   5.152   4.805
 1397SOL    HW1 5090   0.623   5.128   4.880
 1397SOL    HW2 5091   0.773   5.106   4.819
 1398SOL     OW 5092   1.570   1.099   0.579
 1398SOL    HW1 5093   1.473   1.117   0.570
 1398SOL    HW2 5094   1.612   1.170   0.636
 1399SOL     OW 5095   4.020   6.972   0.390
 1399SOL    HW1 5096   4.003   0.041   0.360
 1399SOL    HW2 5097   3.955   6.948   0.462
 1400SOL     OW 5098   6.853   0.347   4.538
 1400SOL    HW1 5099   6.800   0.269   4.571
 1400SOL    HW2 5100   6.804   0.392   4.463
 1401SOL     OW 5101   5.530   0.644   4.176
 1401SOL    HW1 5102   5.448   0.601   4.139
 1401SOL    HW2 5103   5.505   0.729   4.222
 1402SOL     OW 5104   5.661   4.129   1.467
 1402SOL    HW1 5105   5.690   4.040   1.433
 1402SOL    HW2 5106   5.561   4.130   1.475
 1403SOL     OW 5107   3.855   3.518   0.138
 1403SOL    HW1 5108   3.951   3.545   0.129
 1403SOL    HW2 5109   3.831   3.516   0.235
 1404SOL     OW 5110   4.774   0.100   1.192
 1404SOL    HW1 5111   4.859   0.082   1.143
 1404SOL    HW2 5112   4.711   0.024   1.178
 1405SOL     OW 5113   2.053   3.600   1.039
 1405SOL    HW1 5114   2.130   3.570   1.096
 1405SOL    HW2 5115   2.047   3.699   1.041
 1406SOL     OW 5116   2.214   3.267   1.326
 1406SOL    HW1 5117   2.130   3.214   1.313
 1406SOL    HW2 5118   2.293   3.205   1.323
 1407SOL     OW 5119   1.056   3.272   2.008
 1407SOL    HW1 5120   1.086   3.343   2.071
 1407SOL    HW2 5121   1.055   3.307   1.915
 1408SOL     OW 5122   5.619   5.892   6.349
 1408SOL    HW1 5123   5.700   5.936   6.386
 1408SOL    HW2 5124   5.550   5.884   6.421
 1409SOL     OW 5125   0.103   0.814   6.006
 1409SOL    HW1 5126   0.040   0.812   6.084
 1409SOL    HW2 5127   0.068   0.753   5.935
 1410SOL     OW 5128   2.923   2.849   5.929
 1410SOL    HW1 5129   2.918   2.943   5.963
 1410SOL    HW2 5130   2.914   2.850   5.829
 1411SOL     OW 5131   4.043   5.719   0.278
 1411SOL    HW1 5132   4.077   5.648   0.340
 1411SOL    HW2 5133   4.084   5.807   0.302
 1412SOL     OW 5134   1.456   2.643   0.574
 1412SOL    HW1 5135   1.451   2.580   0.651
 1412SOL    HW2 5136   1.537   2.702   0.584
 1413SOL     OW 5137   2.013   1.490   4.970
 1413SOL    HW1 5138   2.032   1.392   4.978
 1413SOL    HW2 5139   1.990   1.526   5.060
 1414SOL     OW 5140   1.016   3.516   2.433
 1414SOL    HW1 5141   1.065   3.436   2.466
 1414SOL    HW2 5142   0.958   3.553   2.507
 1415SOL     OW 5143   2.397   2.060   4.396
 1415SOL    HW1 5144   2.458   1.991   4.434
 1415SOL    HW2 5145   2.355   2.111   4.471
 1416SOL     OW 5146   4.188   6.891   5.871
 1416SOL    HW1 5147   4.113   6.949   5.904
 1416SOL    HW2 5148   4.154   6.830   5.800
 1417SOL     OW 5149   3.050   3.098   6.390
 1417SOL    HW1 5150   3.077   3.017   6.339
 1417SOL    HW2 5151   2.972   3.076   6.449
 1418SOL     OW 5152   3.636   3.337   0.146
 1418SOL    HW1 5153   3.618   3.351   0.049
 1418SOL    HW2 5154   3.725   3.377   0.170
 1419SOL     OW 5155   1.900   4.977   3.631
 1419SOL    HW1 5156   1.959   5.057   3.619
 1419SOL    HW2 5157   1.926   4.929   3.715
 1420SOL     OW 5158   3.800   5.269   2.517
 1420SOL    HW1 5159   3.798   5.361   2.476
 1420SOL    HW2 5160   3.867   5.213   2.467
 1421SOL     OW 5161   0.877   4.727   5.334
 1421SOL    HW1 5162   0.889   4.628   5.336
 1421SOL    HW2 5163   0.867   4.761   5.427
 1422SOL     OW 5164   2.789   3.889   6.073
 1422SOL    HW1 5165   2.799   3.886   5.974
 1422SOL    HW2 5166   2.852   3.958   6.110
 1423SOL     OW 5167   4.070   0.744   4.922
 1423SOL    HW1 5168   3.999   0.685   4.959
 1423SOL    HW2 5169   4.032   0.801   4.849
 1424SOL     OW 5170   5.828   3.283   6.352
 1424SOL    HW1 5171   5.836   3.292   6.253
 1424SOL    HW2 5172   5.732   3.273   6.377
 1425SOL     OW 5173   3.613   6.147   4.517
 1425SOL    HW1 5174   3.520   6.169   4.490
 1425SOL    HW2 5175   3.612   6.092   4.601
 1426SOL     OW 5176   2.102   1.573   6.416
 1426SOL    HW1 5177   2.076   1.535   6.327
 1426SOL    HW2 5178   2.185   1.627   6.406
 1427SOL     OW 5179   1.208   1.171   3.091
 1427SOL    HW1 5180   1.216   1.203   3.186
 1427SOL    HW2 5181   1.165   1.243   3.036
 1428SOL     OW 5182   6.794   3.045   2.791
 1428SOL    HW1 5183   6.763   2.971   2.852
 1428SOL    HW2 5184   6.840   3.006   2.711
 1429SOL     OW 5185   6.123   1.685   0.663
 1429SOL    HW1 5186   6.174   1.683   0.577
 1429SOL    HW2 5187   6.031   1.721   0.646
 1430SOL     OW 5188   2.126   4.119   3.535
 1430SOL    HW1 5189   2.166   4.075   3.615
 1430SOL    HW2 5190   2.155   4.214   3.531
 1431SOL     OW 5191   2.643   1.352   6.199
 1431SOL    HW1 5192   2.560   1.306   6.230
 1431SOL    HW2 5193   2.621   1.446   6.173
 1432SOL     OW 5194   2.183   1.040   1.119
 1432SOL    HW1 5195   2.208   1.003   1.030
 1432SOL    HW2 5196   2.109   1.107   1.108
 1433SOL     OW 5197   2.888   0.482   4.480
 1433SOL    HW1 5198   2.817   0.431   4.530
 1433SOL    HW2 5199   2.875   0.580   4.494
 1434SOL     OW 5200   0.058   2.651   6.730
 1434SOL    HW1 5201   0.123   2.585   6.691
 1434SOL    HW2 5202   0.106   2.715   6.789
 1435SOL     OW 5203   0.480   0.146   3.674
 1435SOL    HW1 5204   0.397   0.194   3.646
 1435SOL    HW2 5205   0.462   0.094   3.758
 1436SOL     OW 5206   5.672   2.276   0.877
 1436SOL    HW1 5207   5.637   2.184   0.896
 1436SOL    HW2 5208   5.738   2.302   0.947
 1437SOL     OW 5209   4.043   1.798   6.159
 1437SOL    HW1 5210   4.085   1.878   6.203
 1437SOL    HW2 5211   4.060   1.801   6.061
 1438SOL     OW 5212   2.542   1.034   1.876
 1438SOL    HW1 5213   2.557   1.132   1.881
 1438SOL    HW2 5214   2.621   0.991   1.831
 1439SOL     OW 5215   6.916   5.533   6.771
 1439SOL    HW1 5216   6.921   5.434   6.787
 1439SOL    HW2 5217   6.960   5.555   6.684
 1440SOL     OW 5218   3.937   3.013   3.404
 1440SOL    HW1 5219   3.956   2.989   3.499
 1440SOL    HW2 5220   3.840   3.035   3.394
 1441SOL     OW 5221   0.141   3.077   4.301
 1441SOL    HW1 5222   0.136   2.981   4.276
 1441SOL    HW2 5223   0.096   3.091   4.389
 1442SOL     OW 5224   4.803   4.432   0.106
 1442SOL    HW1 5225   4.877   4.386   0.056
 1442SOL    HW2 5226   4.777   4.515   0.058
 1443SOL     OW 5227   0.669   1.296   3.510
 1443SOL    HW1 5228   0.747   1.295   3.573
 1443SOL    HW2 5229   0.664   1.386   3.466
 1444SOL     OW 5230   4.392   0.231   3.543
 1444SOL    HW1 5231   4.405   0.272   3.634
 1444SOL    HW2 5232   4.463   0.163   3.527
 1445SOL     OW 5233   0.412   2.363   1.548
 1445SOL    HW1 5234   0.371   2.294   1.488
 1445SOL    HW2 5235   0.443   2.441   1.493
 1446SOL     OW 5236   4.270   2.108   1.316
 1446SOL    HW1 5237   4.288   2.145   1.408
 1446SOL    HW2 5238   4.185   2.146   1.281
 1447SOL     OW 5239   6.476   1.248   5.218
 1447SOL    HW1 5240   6.419   1.271   5.139
 1447SOL    HW2 5241   6.474   1.324   5.283
 1448SOL     OW 5242   5.193   1.304   6.966
 1448SOL    HW1 5243   5.223   1.375   0.006
 1448SOL    HW2 5244   5.142   1.347   6.892
 1449SOL     OW 5245   4.991   6.425   0.833
 1449SOL    HW1 5246   4.938   6.354   0.786
 1449SOL    HW2 5247   5.006   6.502   0.772
 1450SOL     OW 5248   5.608   3.203   2.658
 1450SOL    HW1 5249   5.588   3.216   2.561
 1450SOL    HW2 5250   5.657   3.117   2.671
 1451SOL     OW 5251   1.878   6.829   2.779
 1451SOL    HW1 5252   1.891   6.927   2.795
 1451SOL    HW2 5253   1.967   6.786   2.763
 1452SOL     OW 5254   5.163   0.755   5.100
 1452SOL    HW1 5255   5.122   0.666   5.116
 1452SOL    HW2 5256   5.260   0.743   5.078
 1453SOL     OW 5257   4.995   4.229   4.920
 1453SOL    HW1 5258   5.063   4.257   4.852
 1453SOL    HW2 5259   4.970   4.308   4.976
 1454SOL     OW 5260   5.076   2.998   1.527
 1454SOL    HW1 5261   5.078   3.002   1.627
 1454SOL    HW2 5262   5.002   2.936   1.499
 1455SOL     OW 5263   0.913   0.857   1.897
 1455SOL    HW1 5264   0.946   0.930   1.956
 1455SOL    HW2 5265   0.987   0.825   1.839
 1456SOL     OW 5266   6.902   6.957   4.392
 1456SOL    HW1 5267   6.992   6.954   4.434
 1456SOL    HW2 5268   6.887   6.875   4.338
 1457SOL     OW 5269   1.563   0.753   3.653
 1457SOL    HW1 5270   1.520   0.670   3.689
 1457SOL    HW2 5271   1.571   0.821   3.725
 1458SOL     OW 5272   5.092   6.899   6.157
 1458SOL    HW1 5273   5.010   6.860   6.116
 1458SOL    HW2 5274   5.116   6.847   6.239
 1459SOL     OW 5275   2.786   6.165   6.598
 1459SOL    HW1 5276   2.765   6.113   6.681
 1459SOL    HW2 5277   2.880   6.198   6.603
 1460SOL     OW 5278   1.076   6.457   6.980
 1460SOL    HW1 5279   1.075   6.556   6.967
 1460SOL    HW2 5280   1.147   6.433   0.021
 1461SOL     OW 5281   5.892   4.587   3.083
 1461SOL    HW1 5282   5.818   4.523   3.104
 1461SOL    HW2 5283   5.976   4.558   3.129
 1462SOL     OW 5284   6.124   1.150   0.899
 1462SOL    HW1 5285   6.147   1.068   0.949
 1462SOL    HW2 5286   6.107   1.225   0.963
 1463SOL     OW 5287   0.924   0.281   4.956
 1463SOL    HW1 5288   0.826   0.272   4.937
 1463SOL    HW2 5289   0.976   0.225   4.892
 1464SOL     OW 5290   0.036   6.524   0.490
 1464SOL    HW1 5291   0.058   6.522   0.588
 1464SOL    HW2 5292   0.120   6.527   0.437
 1465SOL     OW 5293   0.211   0.304   3.982
 1465SOL    HW1 5294   0.274   0.365   3.934
 1465SOL    HW2 5295   0.228   0.310   4.081
 1466SOL     OW 5296   6.433   5.907   2.420
 1466SOL    HW1 5297   6.358   5.886   2.483
 1466SOL    HW2 5298   6.460   6.003   2.429
 1467SOL     OW 5299   1.225   1.234   3.346
 1467SOL    HW1 5300   1.223   1.145   3.391
 1467SOL    HW2 5301   1.298   1.290   3.386
 1468SOL     OW 5302   5.419   5.786   3.749
 1468SOL    HW1 5303   5.409   5.712   3.815
 1468SOL    HW2 5304   5.355   5.773   3.674
 1469SOL     OW 5305   0.522   0.158   2.705
 1469SOL    HW1 5306   0.608   0.190   2.744
 1469SOL    HW2 5307   0.446   0.188   2.763
 1470SOL     OW 5308   1.319   0.923   3.096
 1470SOL    HW1 5309   1.331   1.022   3.100
 1470SOL    HW2 5310   1.338   0.883   3.186
 1471SOL     OW 5311   0.301   0.463   0.472
 1471SOL    HW1 5312   0.241   0.383   0.475
 1471SOL    HW2 5313   0.248   0.543   0.446
 1472SOL     OW 5314   4.701   0.391   5.770
 1472SOL    HW1 5315   4.711   0.458   5.697
 1472SOL    HW2 5316   4.765   0.315   5.754
 1473SOL     OW 5317   6.276   5.696   2.818
 1473SOL    HW1 5318   6.361   5.749   2.808
 1473SOL    HW2 5319   6.288   5.629   2.891
 1474SOL     OW 5320   6.085   5.383   4.408
 1474SOL    HW1 5321   6.124   5.455   4.350
 1474SOL    HW2 5322   6.151   5.309   4.417
 1475SOL     OW 5323   6.782   0.555   2.734
 1475SOL    HW1 5324   6.771   0.473   2.790
 1475SOL    HW2 5325   6.715   0.624   2.763
 1476SOL     OW 5326   1.308   1.807   2.161
 1476SOL    HW1 5327   1.305   1.708   2.148
 1476SOL    HW2 5328   1.388   1.831   2.216
 1477SOL     OW 5329   3.102   0.133   5.025
 1477SOL    HW1 5330   3.134   0.135   5.119
 1477SOL    HW2 5331   3.065   0.042   5.004
 1478SOL     OW 5332   6.398   5.121   1.027
 1478SOL    HW1 5333   6.402   5.202   0.969
 1478SOL    HW2 5334   6.460   5.051   0.991
 1479SOL     OW 5335   2.216   4.407   0.479
 1479SOL    HW1 5336   2.228   4.309   0.466
 1479SOL    HW2 5337   2.152   4.442   0.410
 1480SOL     OW 5338   1.923   1.017   6.934
 1480SOL    HW1 5339   1.864   1.027   6.854
 1480SOL    HW2 5340   1.913   0.925   6.972
 1481SOL     OW 5341   5.990   1.835   5.759
 1481SOL    HW1 5342   5.962   1.801   5.849
 1481SOL    HW2 5343   6.070   1.895   5.770
 1482SOL     OW 5344   5.262   0.990   0.385
 1482SOL    HW1 5345   5.176   0.982   0.334
 1482SOL    HW2 5346   5.244   0.979   0.482
 1483SOL     OW 5347   6.618   2.873   0.316
 1483SOL    HW1 5348   6.679   2.821   0.375
 1483SOL    HW2 5349   6.661   2.886   0.227
 1484SOL     OW 5350   6.752   4.449   2.547
 1484SOL    HW1 5351   6.669   4.500   2.522
 1484SOL    HW2 5352   6.823   4.514   2.576
 1485SOL     OW 5353   5.563   2.941   3.445
 1485SOL    HW1 5354   5.593   3.033   3.470
 1485SOL    HW2 5355   5.465   2.931   3.463
 1486SOL     OW 5356   4.962   2.520   3.109
 1486SOL    HW1 5357   4.986   2.600   3.053
 1486SOL    HW2 5358   4.876   2.481   3.075
 1487SOL     OW 5359   5.845   1.275   5.623
 1487SOL    HW1 5360   5.863   1.330   5.705
 1487SOL    HW2 5361   5.746   1.276   5.604
 1488SOL     OW 5362   4.794   0.811   3.240
 1488SOL    HW1 5363   4.846   0.890   3.275
 1488SOL    HW2 5364   4.854   0.756   3.181
 1489SOL     OW 5365   4.106   4.973   4.872
 1489SOL    HW1 5366   4.152   5.058   4.849
 1489SOL    HW2 5367   4.035   4.954   4.804
 1490SOL     OW 5368   1.248   1.432   0.597
 1490SOL    HW1 5369   1.307   1.358   0.564
 1490SOL    HW2 5370   1.184   1.459   0.525
 1491SOL     OW 5371   0.112   3.555   3.629
 1491SOL    HW1 5372   0.090   3.651   3.648
 1491SOL    HW2 5373   0.183   3.550   3.559
 1492SOL     OW 5374   5.122   2.215   1.619
 1492SOL    HW1 5375   5.192   2.270   1.573
 1492SOL    HW2 5376   5.152   2.195   1.712
 1493SOL     OW 5377   4.328   0.264   5.366
 1493SOL    HW1 5378   4.334   0.325   5.288
 1493SOL    HW2 5379   4.291   0.175   5.337
 1494SOL     OW 5380   3.920   2.632   5.850
 1494SOL    HW1 5381   3.854   2.596   5.784
 1494SOL    HW2 5382   3.874   2.694   5.913
 1495SOL     OW 5383   0.789   3.263   3.059
 1495SOL    HW1 5384   0.689   3.259   3.054
 1495SOL    HW2 5385   0.821   3.208   3.136
 1496SOL     OW 5386   6.575   0.438   2.473
 1496SOL    HW1 5387   6.507   0.420   2.402
 1496SOL    HW2 5388   6.636   0.358   2.481
 1497SOL     OW 5389   6.823   5.473   4.165
 1497SOL    HW1 5390   6.907   5.523   4.189
 1497SOL    HW2 5391   6.844   5.376   4.159
 1498SOL     OW 5392   2.277   4.738   6.251
 1498SOL    HW1 5393   2.352   4.691   6.298
 1498SOL    HW2 5394   2.312   4.816   6.200
 1499SOL     OW 5395   1.127   3.371   4.983
 1499SOL    HW1 5396   1.191   3.316   5.037
 1499SOL    HW2 5397   1.047   3.315   4.959
 1500SOL     OW 5398   5.422   0.315   0.218
 1500SOL    HW1 5399   5.424   0.358   0.128
 1500SOL    HW2 5400   5.451   0.382   0.287
 1501SOL     OW 5401   4.177   0.027   6.739
 1501SOL    HW1 5402   4.079   0.040   6.754
 1501SOL    HW2 5403   4.225   0.037   6.826
 1502SOL     OW 5404   6.312   6.472   0.036
 1502SOL    HW1 5405   6.296   6.391   7.004
 1502SOL    HW2 5406   6.406   6.503   0.025
 1503SOL     OW 5407   2.391   2.967   0.095
 1503SOL    HW1 5408   2.410   2.869   0.103
 1503SOL    HW2 5409   2.434   3.003   0.012
 1504SOL     OW 5410   3.013   6.911   4.893
 1504SOL    HW1 5411   2.950   6.833   4.891
 1504SOL    HW2 5412   3.107   6.879   4.881
 1505SOL     OW 5413   5.489   6.877   5.446
 1505SOL    HW1 5414   5.469   6.869   5.349
 1505SOL    HW2 5415   5.501   6.786   5.486
 1506SOL     OW 5416   0.809   5.423   3.771
 1506SOL    HW1 5417   0.876   5.348   3.775
 1506SOL    HW2 5418   0.838   5.489   3.701
 1507SOL     OW 5419   1.836   1.840   5.123
 1507SOL    HW1 5420   1.824   1.871   5.028
 1507SOL    HW2 5421   1.930   1.857   5.152
 1508SOL     OW 5422   4.273   6.933   0.598
 1508SOL    HW1 5423   4.217   6.955   0.519
 1508SOL    HW2 5424   4.341   7.005   0.612
 1509SOL     OW 5425   4.417   3.278   6.409
 1509SOL    HW1 5426   4.370   3.195   6.438
 1509SOL    HW2 5427   4.462   3.262   6.321
 1510SOL     OW 5428   0.216   2.259   4.458
 1510SOL    HW1 5429   0.249   2.273   4.551
 1510SOL    HW2 5430   0.142   2.323   4.439
 1511SOL     OW 5431   2.639   1.591   6.868
 1511SOL    HW1 5432   2.704   1.622   6.798
 1511SOL    HW2 5433   2.671   1.506   6.908
 1512SOL     OW 5434   6.831   0.171   1.513
 1512SOL    HW1 5435   6.776   0.199   1.593
 1512SOL    HW2 5436   6.913   0.228   1.508
 1513SOL     OW 5437   3.541   7.014   4.213
 1513SOL    HW1 5438   3.461   6.965   4.177
 1513SOL    HW2 5439   3.513   0.081   4.241
 1514SOL     OW 5440   5.783   2.019   5.208
 1514SOL    HW1 5441   5.713   1.989   5.272
 1514SOL    HW2 5442   5.866   1.966   5.221
 1515SOL     OW 5443   0.201   4.257   5.402
 1515SOL    HW1 5444   0.172   4.308   5.321
 1515SOL    HW2 5445   0.260   4.181   5.375
 1516SOL     OW 5446   0.872   1.762   0.745
 1516SOL    HW1 5447   0.776   1.785   0.759
 1516SOL    HW2 5448   0.925   1.789   0.824
 1517SOL     OW 5449   3.938   5.815   3.577
 1517SOL    HW1 5450   4.000   5.796   3.501
 1517SOL    HW2 5451   3.873   5.740   3.587
 1518SOL     OW 5452   6.738   4.343   0.116
 1518SOL    HW1 5453   6.644   4.323   0.088
 1518SOL    HW2 5454   6.781   4.260   0.152
 1519SOL     OW 5455   6.506   4.741   0.930
 1519SOL    HW1 5456   6.566   4.661   0.926
 1519SOL    HW2 5457   6.540   4.805   0.999
 1520SOL     OW 5458   2.121   3.483   2.446
 1520SOL    HW1 5459   2.129   3.544   2.367
 1520SOL    HW2 5460   2.114   3.388   2.414
 1521SOL     OW 5461   1.354   3.425   6.833
 1521SOL    HW1 5462   1.373   3.490   6.760
 1521SOL    HW2 5463   1.440   3.384   6.865
 1522SOL     OW 5464   6.217   1.738   6.122
 1522SOL    HW1 5465   6.316   1.730   6.129
 1522SOL    HW2 5466   6.193   1.808   6.056
 1523SOL     OW 5467   6.127   2.739   0.993
 1523SOL    HW1 5468   6.051   2.702   0.940
 1523SOL    HW2 5469   6.148   2.676   1.068
 1524SOL     OW 5470   0.344   1.479   1.406
 1524SOL    HW1 5471   0.386   1.388   1.399
 1524SOL    HW2 5472   0.295   1.487   1.492
 1525SOL     OW 5473   3.897   1.627   5.800
 1525SOL    HW1 5474   3.982   1.575   5.790
 1525SOL    HW2 5475   3.823   1.579   5.755
 1526SOL     OW 5476   0.367   1.757   1.409
 1526SOL    HW1 5477   0.354   1.661   1.384
 1526SOL    HW2 5478   0.352   1.769   1.507
 1527SOL     OW 5479   3.459   1.617   4.780
 1527SOL    HW1 5480   3.556   1.619   4.754
 1527SOL    HW2 5481   3.440   1.694   4.842
 1528SOL     OW 5482   4.644   6.604   2.966
 1528SOL    HW1 5483   4.558   6.603   3.016
 1528SOL    HW2 5484   4.716   6.562   3.022
 1529SOL     OW 5485   4.135   1.010   6.096
 1529SOL    HW1 5486   4.080   1.058   6.165
 1529SOL    HW2 5487   4.150   0.915   6.126
 1530SOL     OW 5488   2.979   6.648   2.037
 1530SOL    HW1 5489   2.955   6.736   2.079
 1530SOL    HW2 5490   2.923   6.576   2.077
 1531SOL     OW 5491   6.806   0.242   3.840
 1531SOL    HW1 5492   6.868   0.168   3.868
 1531SOL    HW2 5493   6.804   0.248   3.740
 1532SOL     OW 5494   3.420   2.264   5.352
 1532SOL    HW1 5495   3.380   2.292   5.265
 1532SOL    HW2 5496   3.367   2.303   5.427
 1533SOL     OW 5497   6.616   3.512   0.116
 1533SOL    HW1 5498   6.558   3.454   0.059
 1533SOL    HW2 5499   6.705   3.524   0.072
 1534SOL     OW 5500   1.325   5.629   0.334
 1534SOL    HW1 5501   1.325   5.727   0.354
 1534SOL    HW2 5502   1.359   5.578   0.413
 1535SOL     OW 5503   5.519   4.596   4.478
 1535SOL    HW1 5504   5.506   4.503   4.511
 1535SOL    HW2 5505   5.605   4.602   4.428
 1536SOL     OW 5506   2.354   5.761   4.397
 1536SOL    HW1 5507   2.375   5.755   4.300
 1536SOL    HW2 5508   2.260   5.731   4.413
 1537SOL     OW 5509   2.342   5.844   3.880
 1537SOL    HW1 5510   2.324   5.936   3.846
 1537SOL    HW2 5511   2.433   5.815   3.852
 1538SOL     OW 5512   2.270   4.828   6.559
 1538SOL    HW1 5513   2.326   4.793   6.483
 1538SOL    HW2 5514   2.326   4.836   6.641
 1539SOL     OW 5515   3.399   4.462   1.699
 1539SOL    HW1 5516   3.463   4.387   1.677
 1539SOL    HW2 5517   3.441   4.523   1.765
 1540SOL     OW 5518   0.799   0.083   4.418
 1540SOL    HW1 5519   0.702   0.071   4.438
 1540SOL    HW2 5520   0.852   0.011   4.463
 1541SOL     OW 5521   4.174   2.726   1.263
 1541SOL    HW1 5522   4.108   2.655   1.239
 1541SOL    HW2 5523   4.246   2.687   1.320
 1542SOL     OW 5524   0.435   6.045   1.381
 1542SOL    HW1 5525   0.466   6.136   1.352
 1542SOL    HW2 5526   0.428   6.042   1.481
 1543SOL     OW 5527   3.186   3.378   3.905
 1543SOL    HW1 5528   3.089   3.375   3.928
 1543SOL    HW2 5529   3.230   3.452   3.956
 1544SOL     OW 5530   3.081   3.947   2.594
 1544SOL    HW1 5531   3.132   3.968   2.678
 1544SOL    HW2 5532   3.110   4.008   2.521
 1545SOL     OW 5533   6.263   1.164   5.009
 1545SOL    HW1 5534   6.301   1.163   4.916
 1545SOL    HW2 5535   6.165   1.146   5.005
 1546SOL     OW 5536   6.341   6.726   6.364
 1546SOL    HW1 5537   6.341   6.665   6.443
 1546SOL    HW2 5538   6.431   6.769   6.355
 1547SOL     OW 5539   2.929   4.804   2.867
 1547SOL    HW1 5540   3.003   4.830   2.803
 1547SOL    HW2 5541   2.949   4.842   2.957
 1548SOL     OW 5542   4.072   4.769   5.253
 1548SOL    HW1 5543   4.118   4.783   5.341
 1548SOL    HW2 5544   4.025   4.680   5.253
 1549SOL     OW 5545   6.860   2.078   1.469
 1549SOL    HW1 5546   6.904   2.046   1.553
 1549SOL    HW2 5547   6.805   2.159   1.489
 1550SOL     OW 5548   2.228   6.289   5.019
 1550SOL    HW1 5549   2.133   6.272   4.994
 1550SOL    HW2 5550   2.247   6.388   5.014
 1551SOL     OW 5551   1.529   2.922   1.215
 1551SOL    HW1 5552   1.434   2.939   1.190
 1551SOL    HW2 5553   1.546   2.952   1.308
 1552SOL     OW 5554   1.543   0.485   1.418
 1552SOL    HW1 5555   1.523   0.496   1.320
 1552SOL    HW2 5556   1.641   0.471   1.431
 1553SOL     OW 5557   5.932   2.006   0.034
 1553SOL    HW1 5558   5.897   2.099   0.046
 1553SOL    HW2 5559   6.027   2.003   0.065
 1554SOL     OW 5560   4.409   2.480   3.182
 1554SOL    HW1 5561   4.323   2.517   3.219
 1554SOL    HW2 5562   4.398   2.460   3.085
 1555SOL     OW 5563   4.773   1.434   5.028
 1555SOL    HW1 5564   4.853   1.468   5.077
 1555SOL    HW2 5565   4.792   1.431   4.930
 1556SOL     OW 5566   3.616   0.395   0.780
 1556SOL    HW1 5567   3.530   0.433   0.747
 1556SOL    HW2 5568   3.605   0.297   0.797
 1557SOL     OW 5569   1.856   2.203   1.354
 1557SOL    HW1 5570   1.840   2.244   1.265
 1557SOL    HW2 5571   1.856   2.103   1.345
 1558SOL     OW 5572   6.478   3.145   5.581
 1558SOL    HW1 5573   6.540   3.180   5.651
 1558SOL    HW2 5574   6.456   3.049   5.600
 1559SOL     OW 5575   1.356   4.144   2.700
 1559SOL    HW1 5576   1.363   4.049   2.667
 1559SOL    HW2 5577   1.370   4.207   2.624
 1560SOL     OW 5578   3.865   1.227   0.697
 1560SOL    HW1 5579   3.959   1.193   0.687
 1560SOL    HW2 5580   3.840   1.282   0.617
 1561SOL     OW 5581   5.761   6.259   2.045
 1561SOL    HW1 5582   5.680   6.316   2.028
 1561SOL    HW2 5583   5.843   6.316   2.041
 1562SOL     OW 5584   2.994   0.016   1.936
 1562SOL    HW1 5585   2.954   6.980   2.005
 1562SOL    HW2 5586   3.010   6.988   1.852
 1563SOL     OW 5587   3.258   2.204   4.661
 1563SOL    HW1 5588   3.343   2.163   4.627
 1563SOL    HW2 5589   3.279   2.259   4.742
 1564SOL     OW 5590   1.106   1.949   2.291
 1564SOL    HW1 5591   1.050   1.878   2.334
 1564SOL    HW2 5592   1.193   1.910   2.260
 1565SOL     OW 5593   3.587   6.387   3.994
 1565SOL    HW1 5594   3.661   6.338   4.040
 1565SOL    HW2 5595   3.562   6.467   4.047
 1566SOL     OW 5596   5.119   4.726   3.796
 1566SOL    HW1 5597   5.211   4.765   3.791
 1566SOL    HW2 5598   5.069   4.750   3.713
 1567SOL     OW 5599   5.799   5.821   6.089
 1567SOL    HW1 5600   5.832   5.782   6.175
 1567SOL    HW2 5601   5.700   5.834   6.095
 1568SOL     OW 5602   2.171   6.333   3.253
 1568SOL    HW1 5603   2.229   6.253   3.237
 1568SOL    HW2 5604   2.078   6.314   3.221
 1569SOL     OW 5605   3.062   0.169   2.772
 1569SOL    HW1 5606   3.077   0.262   2.804
 1569SOL    HW2 5607   3.082   0.104   2.845
 1570SOL     OW 5608   3.033   0.102   0.012
 1570SOL    HW1 5609   3.095   0.029   0.043
 1570SOL    HW2 5610   2.973   0.066   6.965
 1571SOL     OW 5611   1.110   2.608   3.494
 1571SOL    HW1 5612   1.104   2.707   3.480
 1571SOL    HW2 5613   1.181   2.589   3.562
 1572SOL     OW 5614   1.676   4.908   1.846
 1572SOL    HW1 5615   1.673   4.825   1.790
 1572SOL    HW2 5616   1.692   4.883   1.941
 1573SOL     OW 5617   4.538   5.490   1.595
 1573SOL    HW1 5618   4.451   5.459   1.632
 1573SOL    HW2 5619   4.613   5.444   1.643
 1574SOL     OW 5620   6.346   3.429   1.847
 1574SOL    HW1 5621   6.249   3.407   1.844
 1574SOL    HW2 5622   6.382   3.406   1.938
 1575SOL     OW 5623   1.214   1.025   1.517
 1575SOL    HW1 5624   1.141   1.093   1.521
 1575SOL    HW2 5625   1.298   1.065   1.555
 1576SOL     OW 5626   0.374   6.328   2.221
 1576SOL    HW1 5627   0.450   6.357   2.163
 1576SOL    HW2 5628   0.296   6.302   2.164
 1577SOL     OW 5629   2.952   0.438   6.371
 1577SOL    HW1 5630   3.041   0.430   6.326
 1577SOL    HW2 5631   2.940   0.363   6.435
 1578SOL     OW 5632   4.102   0.880   0.492
 1578SOL    HW1 5633   4.020   0.922   0.454
 1578SOL    HW2 5634   4.077   0.797   0.541
 1579SOL     OW 5635   1.374   2.928   1.829
 1579SOL    HW1 5636   1.289   2.972   1.799
 1579SOL    HW2 5637   1.358   2.879   1.914
 1580SOL     OW 5638   3.019   3.866   3.079
 1580SOL    HW1 5639   3.118   3.853   3.076
 1580SOL    HW2 5640   2.986   3.852   3.172
 1581SOL     OW 5641   0.213   4.137   6.274
 1581SOL    HW1 5642   0.241   4.103   6.184
 1581SOL    HW2 5643   0.248   4.229   6.287
 1582SOL     OW 5644   4.587   6.372   5.504
 1582SOL    HW1 5645   4.636   6.307   5.562
 1582SOL    HW2 5646   4.513   6.325   5.456
 1583SOL     OW 5647   0.793   5.902   4.772
 1583SOL    HW1 5648   0.763   5.884   4.866
 1583SOL    HW2 5649   0.877   5.956   4.773
 1584SOL     OW 5650   0.819   5.693   6.518
 1584SOL    HW1 5651   0.880   5.769   6.497
 1584SOL    HW2 5652   0.724   5.726   6.522
 1585SOL     OW 5653   3.982   0.925   3.465
 1585SOL    HW1 5654   3.973   0.836   3.510
 1585SOL    HW2 5655   4.072   0.963   3.483
 1586SOL     OW 5656   2.619   5.528   4.067
 1586SOL    HW1 5657   2.681   5.455   4.038
 1586SOL    HW2 5658   2.671   5.611   4.084
 1587SOL     OW 5659   1.677   6.131   5.715
 1587SOL    HW1 5660   1.648   6.072   5.790
 1587SOL    HW2 5661   1.737   6.203   5.750
 1588SOL     OW 5662   4.878   0.747   2.122
 1588SOL    HW1 5663   4.780   0.752   2.143
 1588SOL    HW2 5664   4.927   0.817   2.173
 1589SOL     OW 5665   6.284   4.101   2.592
 1589SOL    HW1 5666   6.195   4.083   2.634
 1589SOL    HW2 5667   6.356   4.088   2.659
 1590SOL     OW 5668   5.601   2.126   3.301
 1590SOL    HW1 5669   5.503   2.110   3.298
 1590SOL    HW2 5670   5.650   2.043   3.274
 1591SOL     OW 5671   0.164   6.068   1.338
 1591SOL    HW1 5672   0.262   6.052   1.349
 1591SOL    HW2 5673   0.142   6.074   1.240
 1592SOL     OW 5674   1.443   4.060   6.999
 1592SOL    HW1 5675   1.416   4.070   0.070
 1592SOL    HW2 5676   1.456   3.963   6.978
 1593SOL     OW 5677   1.285   0.057   6.544
 1593SOL    HW1 5678   1.278   0.145   6.592
 1593SOL    HW2 5679   1.194   0.016   6.536
 1594SOL     OW 5680   0.134   0.595   2.279
 1594SOL    HW1 5681   0.093   0.628   2.194
 1594SOL    HW2 5682   0.199   0.521   2.258
 1595SOL     OW 5683   1.574   4.306   6.922
 1595SOL    HW1 5684   1.525   4.221   6.941
 1595SOL    HW2 5685   1.654   4.312   6.982
 1596SOL     OW 5686   5.990   4.219   2.955
 1596SOL    HW1 5687   5.895   4.203   2.981
 1596SOL    HW2 5688   5.999   4.310   2.914
 1597SOL     OW 5689   2.896   5.279   1.270
 1597SOL    HW1 5690   2.916   5.205   1.334
 1597SOL    HW2 5691   2.982   5.316   1.235
 1598SOL     OW 5692   1.697   5.511   6.634
 1598SOL    HW1 5693   1.685   5.472   6.543
 1598SOL    HW2 5694   1.636   5.590   6.645
 1599SOL     OW 5695   3.665   5.219   4.107
 1599SOL    HW1 5696   3.761   5.240   4.088
 1599SOL    HW2 5697   3.646   5.124   4.084
 1600SOL     OW 5698   3.350   0.643   2.840
 1600SOL    HW1 5699   3.364   0.734   2.880
 1600SOL    HW2 5700   3.423   0.625   2.773
 1601SOL     OW 5701   6.176   6.393   4.327
 1601SOL    HW1 5702   6.273   6.409   4.307
 1601SOL    HW2 5703   6.169   6.337   4.410
 1602SOL     OW 5704   4.630   5.398   4.199
 1602SOL    HW1 5705   4.709   5.460   4.194
 1602SOL    HW2 5706   4.626   5.342   4.117
 1603SOL     OW 5707   3.023   5.868   4.544
 1603SOL    HW1 5708   3.103   5.898   4.595
 1603SOL    HW2 5709   3.041   5.779   4.502
 1604SOL     OW 5710   4.252   4.725   2.041
 1604SOL    HW1 5711   4.285   4.723   1.946
 1604SOL    HW2 5712   4.322   4.689   2.102
 1605SOL     OW 5713   5.719   5.342   1.762
 1605SOL    HW1 5714   5.785   5.417   1.766
 1605SOL    HW2 5715   5.646   5.364   1.698
 1606SOL     OW 5716   4.105   5.873   3.951
 1606SOL    HW1 5717   4.187   5.897   4.004
 1606SOL    HW2 5718   4.083   5.777   3.967
 1607SOL     OW 5719   4.257   0.039   2.330
 1607SOL    HW1 5720   4.219   0.078   2.414
 1607SOL    HW2 5721   4.252   6.964   2.335
 1608SOL     OW 5722   6.809   1.183   3.578
 1608SOL    HW1 5723   6.845   1.197   3.486
 1608SOL    HW2 5724   6.790   1.086   3.593
 1609SOL     OW 5725   3.088   6.109   0.620
 1609SOL    HW1 5726   3.186   6.099   0.605
 1609SOL    HW2 5727   3.069   6.102   0.718
 1610SOL     OW 5728   3.749   6.241   0.136
 1610SOL    HW1 5729   3.809   6.321   0.135
 1610SOL    HW2 5730   3.707   6.229   0.046
 1611SOL     OW 5731   1.382   3.997   1.200
 1611SOL    HW1 5732   1.469   3.985   1.153
 1611SOL    HW2 5733   1.395   3.986   1.298
 1612SOL     OW 5734   2.701   5.506   1.109
 1612SOL    HW1 5735   2.800   5.490   1.104
 1612SOL    HW2 5736   2.683   5.604   1.114
 1613SOL     OW 5737   1.043   5.866   2.486
 1613SOL    HW1 5738   1.075   5.911   2.570
 1613SOL    HW2 5739   0.973   5.923   2.443
 1614SOL     OW 5740   5.783   2.040   5.968
 1614SOL    HW1 5741   5.781   2.117   5.904
 1614SOL    HW2 5742   5.711   2.053   6.036
 1615SOL     OW 5743   0.422   5.295   6.785
 1615SOL    HW1 5744   0.426   5.248   6.873
 1615SOL    HW2 5745   0.504   5.351   6.772
 1616SOL     OW 5746   3.696   0.835   5.145
 1616SOL    HW1 5747   3.742   0.813   5.231
 1616SOL    HW2 5748   3.750   0.902   5.095
 1617SOL     OW 5749   5.097   6.742   3.630
 1617SOL    HW1 5750   5.157   6.816   3.598
 1617SOL    HW2 5751   5.010   6.746   3.581
 1618SOL     OW 5752   2.122   6.059   2.418
 1618SOL    HW1 5753   2.157   6.072   2.326
 1618SOL    HW2 5754   2.138   6.142   2.472
 1619SOL     OW 5755   1.081   5.053   0.081
 1619SOL    HW1 5756   1.156   5.026   0.141
 1619SOL    HW2 5757   1.054   4.976   0.024
 1620SOL     OW 5758   2.974   5.075   0.958
 1620SOL    HW1 5759   3.069   5.050   0.978
 1620SOL    HW2 5760   2.912   5.012   1.004
 1621SOL     OW 5761   5.745   6.135   1.100
 1621SOL    HW1 5762   5.711   6.058   1.152
 1621SOL    HW2 5763   5.793   6.102   1.018
 1622SOL     OW 5764   0.618   4.058   5.903
 1622SOL    HW1 5765   0.632   4.103   5.991
 1622SOL    HW2 5766   0.521   4.059   5.880
 1623SOL     OW 5767   0.834   2.319   4.723
 1623SOL    HW1 5768   0.789   2.232   4.740
 1623SOL    HW2 5769   0.917   2.326   4.779
 1624SOL     OW 5770   3.375   1.079   0.642
 1624SOL    HW1 5771   3.461   1.129   0.639
 1624SOL    HW2 5772   3.307   1.131   0.694
 1625SOL     OW 5773   2.078   5.226   0.167
 1625SOL    HW1 5774   2.099   5.211   0.263
 1625SOL    HW2 5775   2.130   5.304   0.133
 1626SOL     OW 5776   3.171   2.017   2.654
 1626SOL    HW1 5777   3.123   2.077   2.718
 1626SOL    HW2 5778   3.192   2.068   2.571
 1627SOL     OW 5779   5.298   2.701   4.544
 1627SOL    HW1 5780   5.385   2.652   4.537
 1627SOL    HW2 5781   5.232   2.661   4.481
 1628SOL     OW 5782   5.110   5.873   6.754
 1628SOL    HW1 5783   5.109   5.948   6.688
 1628SOL    HW2 5784   5.194   5.819   6.742
 1629SOL     OW 5785   3.110   2.184   3.407
 1629SOL    HW1 5786   3.069   2.264   3.364
 1629SOL    HW2 5787   3.109   2.107   3.343
 1630SOL     OW 5788   0.365   3.958   6.872
 1630SOL    HW1 5789   0.431   3.937   6.800
 1630SOL    HW2 5790   0.298   3.884   6.878
 1631SOL     OW 5791   6.795   3.546   1.150
 1631SOL    HW1 5792   6.747   3.562   1.064
 1631SOL    HW2 5793   6.856   3.622   1.169
 1632SOL     OW 5794   5.599   4.567   2.340
 1632SOL    HW1 5795   5.538   4.511   2.283
 1632SOL    HW2 5796   5.548   4.601   2.419
 1633SOL     OW 5797   4.832   4.134   3.987
 1633SOL    HW1 5798   4.771   4.133   4.067
 1633SOL    HW2 5799   4.902   4.063   3.998
 1634SOL     OW 5800   3.981   0.491   4.734
 1634SOL    HW1 5801   4.081   0.484   4.736
 1634SOL    HW2 5802   3.955   0.564   4.670
 1635SOL     OW 5803   3.508   4.803   6.070
 1635SOL    HW1 5804   3.533   4.890   6.028
 1635SOL    HW2 5805   3.576   4.778   6.139
 1636SOL     OW 5806   3.895   6.132   1.226
 1636SOL    HW1 5807   3.845   6.216   1.246
 1636SOL    HW2 5808   3.832   6.064   1.187
 1637SOL     OW 5809   6.717   6.822   3.400
 1637SOL    HW1 5810   6.664   6.739   3.414
 1637SOL    HW2 5811   6.814   6.802   3.411
 1638SOL     OW 5812   0.343   3.216   1.417
 1638SOL    HW1 5813   0.259   3.199   1.469
 1638SOL    HW2 5814   0.320   3.236   1.321
 1639SOL     OW 5815   6.674   3.871   1.488
 1639SOL    HW1 5816   6.639   3.856   1.395
 1639SOL    HW2 5817   6.761   3.822   1.498
 1640SOL     OW 5818   5.973   0.147   1.237
 1640SOL    HW1 5819   6.065   0.158   1.197
 1640SOL    HW2 5820   5.979   0.087   1.317
 1641SOL     OW 5821   6.934   2.160   3.665
 1641SOL    HW1 5822   6.874   2.092   3.622
 1641SOL    HW2 5823   6.903   2.177   3.758
 1642SOL     OW 5824   6.573   2.831   6.681
 1642SOL    HW1 5825   6.477   2.802   6.674
 1642SOL    HW2 5826   6.632   2.750   6.677
 1643SOL     OW 5827   3.153   4.866   3.632
 1643SOL    HW1 5828   3.077   4.878   3.568
 1643SOL    HW2 5829   3.165   4.950   3.685
 1644SOL     OW 5830   6.153   2.585   0.383
 1644SOL    HW1 5831   6.068   2.637   0.375
 1644SOL    HW2 5832   6.136   2.502   0.436
 1645SOL     OW 5833   2.717   0.322   6.069
 1645SOL    HW1 5834   2.728   0.357   6.162
 1645SOL    HW2 5835   2.697   0.398   6.006
 1646SOL     OW 5836   1.355   5.737   6.377
 1646SOL    HW1 5837   1.402   5.819   6.409
 1646SOL    HW2 5838   1.414   5.687   6.314
 1647SOL     OW 5839   5.765   2.901   3.853
 1647SOL    HW1 5840   5.693   2.902   3.921
 1647SOL    HW2 5841   5.852   2.927   3.895
 1648SOL     OW 5842   4.784   6.023   0.336
 1648SOL    HW1 5843   4.878   5.996   0.358
 1648SOL    HW2 5844   4.761   5.991   0.243
 1649SOL     OW 5845   3.160   0.297   3.799
 1649SOL    HW1 5846   3.086   0.361   3.777
 1649SOL    HW2 5847   3.147   0.262   3.891
 1650SOL     OW 5848   1.750   4.941   6.039
 1650SOL    HW1 5849   1.760   4.861   6.097
 1650SOL    HW2 5850   1.656   4.976   6.047
 1651SOL     OW 5851   0.454   2.748   3.575
 1651SOL    HW1 5852   0.532   2.720   3.630
 1651SOL    HW2 5853   0.375   2.690   3.596
 1652SOL     OW 5854   1.100   2.985   1.759
 1652SOL    HW1 5855   1.040   2.904   1.750
 1652SOL    HW2 5856   1.139   3.007   1.670
 1653SOL     OW 5857   0.312   5.464   2.357
 1653SOL    HW1 5858   0.398   5.420   2.330
 1653SOL    HW2 5859   0.264   5.496   2.275
 1654SOL     OW 5860   0.928   2.773   1.755
 1654SOL    HW1 5861   0.842   2.789   1.804
 1654SOL    HW2 5862   0.908   2.729   1.667
 1655SOL     OW 5863   0.047   1.473   4.427
 1655SOL    HW1 5864   0.141   1.507   4.422
 1655SOL    HW2 5865   0.046   1.375   4.405
 1656SOL     OW 5866   2.384   5.692   4.118
 1656SOL    HW1 5867   2.360   5.758   4.047
 1656SOL    HW2 5868   2.467   5.644   4.092
 1657SOL     OW 5869   0.024   1.043   5.205
 1657SOL    HW1 5870   0.015   0.944   5.191
 1657SOL    HW2 5871   7.000   1.091   5.132
 1658SOL     OW 5872   6.898   0.026   0.336
 1658SOL    HW1 5873   6.937   0.113   0.367
 1658SOL    HW2 5874   6.972   6.989   0.309
 1659SOL     OW 5875   3.927   0.108   7.015
 1659SOL    HW1 5876   3.876   0.029   0.024
 1659SOL    HW2 5877   4.024   0.097   0.013
 1660SOL     OW 5878   1.671   6.430   2.078
 1660SOL    HW1 5879   1.760   6.394   2.051
 1660SOL    HW2 5880   1.647   6.396   2.169
 1661SOL     OW 5881   2.645   4.630   2.591
 1661SOL    HW1 5882   2.689   4.540   2.589
 1661SOL    HW2 5883   2.694   4.692   2.529
 1662SOL     OW 5884   7.001   1.172   5.464
 1662SOL    HW1 5885   7.007   1.124   5.376
 1662SOL    HW2 5886   0.054   1.144   5.521
 1663SOL     OW 5887   5.105   5.092   2.463
 1663SOL    HW1 5888   5.135   5.006   2.423
 1663SOL    HW2 5889   5.120   5.090   2.562
 1664SOL     OW 5890   1.171   0.636   5.418
 1664SOL    HW1 5891   1.097   0.610   5.480
 1664SOL    HW2 5892   1.158   0.591   5.330
 1665SOL     OW 5893   1.496   3.213   1.499
 1665SOL    HW1 5894   1.420   3.253   1.551
 1665SOL    HW2 5895   1.501   3.115   1.518
 1666SOL     OW 5896   5.465   6.573   6.475
 1666SOL    HW1 5897   5.543   6.635   6.468
 1666SOL    HW2 5898   5.380   6.623   6.456
 1667SOL     OW 5899   6.805   6.837   1.206
 1667SOL    HW1 5900   6.896   6.821   1.168
 1667SOL    HW2 5901   6.814   6.872   1.299
 1668SOL     OW 5902   5.249   5.117   3.689
 1668SOL    HW1 5903   5.273   5.063   3.770
 1668SOL    HW2 5904   5.243   5.213   3.715
 1669SOL     OW 5905   0.092   4.420   5.647
 1669SOL    HW1 5906   0.125   4.344   5.592
 1669SOL    HW2 5907   0.008   4.394   5.694
 1670SOL     OW 5908   1.393   4.823   5.814
 1670SOL    HW1 5909   1.340   4.813   5.898
 1670SOL    HW2 5910   1.483   4.782   5.826
 1671SOL     OW 5911   5.194   1.680   2.690
 1671SOL    HW1 5912   5.223   1.682   2.786
 1671SOL    HW2 5913   5.129   1.754   2.674
 1672SOL     OW 5914   1.015   3.621   0.166
 1672SOL    HW1 5915   1.081   3.561   0.121
 1672SOL    HW2 5916   0.932   3.570   0.188
 1673SOL     OW 5917   2.162   1.906   4.622
 1673SOL    HW1 5918   2.090   1.883   4.688
 1673SOL    HW2 5919   2.153   1.847   4.542
 1674SOL     OW 5920   5.877   2.599   2.067
 1674SOL    HW1 5921   5.949   2.632   2.005
 1674SOL    HW2 5922   5.882   2.499   2.072
 1675SOL     OW 5923   4.648   0.353   1.208
 1675SOL    HW1 5924   4.712   0.278   1.195
 1675SOL    HW2 5925   4.554   0.320   1.198
 1676SOL     OW 5926   2.129   2.495   2.661
 1676SOL    HW1 5927   2.164   2.485   2.568
 1676SOL    HW2 5928   2.192   2.452   2.726
 1677SOL     OW 5929   3.642   4.128   2.980
 1677SOL    HW1 5930   3.736   4.121   2.946
 1677SOL    HW2 5931   3.631   4.070   3.060
 1678SOL     OW 5932   0.700   6.404   1.200
 1678SOL    HW1 5933   0.741   6.422   1.289
 1678SOL    HW2 5934   0.669   6.490   1.160
 1679SOL     OW 5935   1.797   1.127   5.229
 1679SOL    HW1 5936   1.882   1.089   5.265
 1679SOL    HW2 5937   1.814   1.167   5.139
 1680SOL     OW 5938   5.253   2.976   4.522
 1680SOL    HW1 5939   5.154   2.989   4.518
 1680SOL    HW2 5940   5.272   2.879   4.540
 1681SOL     OW 5941   1.639   5.675   4.754
 1681SOL    HW1 5942   1.709   5.747   4.751
 1681SOL    HW2 5943   1.555   5.708   4.710
 1682SOL     OW 5944   2.676   0.821   6.146
 1682SOL    HW1 5945   2.597   0.811   6.206
 1682SOL    HW2 5946   2.659   0.894   6.080
 1683SOL     OW 5947   5.437   5.745   2.944
 1683SOL    HW1 5948   5.473   5.832   2.976
 1683SOL    HW2 5949   5.485   5.670   2.990
 1684SOL     OW 5950   1.124   4.460   1.918
 1684SOL    HW1 5951   1.167   4.371   1.937
 1684SOL    HW2 5952   1.025   4.448   1.913
 1685SOL     OW 5953   1.917   1.742   5.873
 1685SOL    HW1 5954   1.829   1.695   5.857
 1685SOL    HW2 5955   1.901   1.840   5.883
 1686SOL     OW 5956   4.319   5.712   3.737
 1686SOL    HW1 5957   4.240   5.758   3.698
 1686SOL    HW2 5958   4.357   5.647   3.671
 1687SOL     OW 5959   0.226   4.164   1.844
 1687SOL    HW1 5960   0.226   4.211   1.756
 1687SOL    HW2 5961   0.312   4.182   1.892
 1688SOL     OW 5962   1.765   2.116   3.405
 1688SOL    HW1 5963   1.734   2.148   3.316
 1688SOL    HW2 5964   1.703   2.149   3.476
 1689SOL     OW 5965   6.649   1.342   2.239
 1689SOL    HW1 5966   6.580   1.286   2.286
 1689SOL    HW2 5967   6.606   1.389   2.162
 1690SOL     OW 5968   1.226   3.459   4.047
 1690SOL    HW1 5969   1.277   3.472   4.132
 1690SOL    HW2 5970   1.128   3.452   4.068
 1691SOL     OW 5971   4.888   3.797   4.210
 1691SOL    HW1 5972   4.915   3.706   4.178
 1691SOL    HW2 5973   4.805   3.826   4.163
 1692SOL     OW 5974   5.412   5.248   1.358
 1692SOL    HW1 5975   5.335   5.185   1.357
 1692SOL    HW2 5976   5.491   5.204   1.401
 1693SOL     OW 5977   0.188   1.942   4.662
 1693SOL    HW1 5978   0.135   1.889   4.595
 1693SOL    HW2 5979   0.165   1.911   4.754
 1694SOL     OW 5980   6.394   0.985   4.330
 1694SOL    HW1 5981   6.453   0.905   4.331
 1694SOL    HW2 5982   6.450   1.068   4.336
 1695SOL     OW 5983   3.584   0.654   6.956
 1695SOL    HW1 5984   3.674   0.613   6.971
 1695SOL    HW2 5985   3.515   0.600   7.005
 1696SOL     OW 5986   3.922   5.308   0.855
 1696SOL    HW1 5987   4.008   5.279   0.813
 1696SOL    HW2 5988   3.927   5.404   0.880
 1697SOL     OW 5989   5.902   2.266   0.513
 1697SOL    HW1 5990   5.931   2.286   0.607
 1697SOL    HW2 5991   5.834   2.193   0.514
 1698SOL     OW 5992   3.857   1.148   1.627
 1698SOL    HW1 5993   3.857   1.109   1.719
 1698SOL    HW2 5994   3.764   1.167   1.598
 1699SOL     OW 5995   2.321   1.759   6.288
 1699SOL    HW1 5996   2.300   1.822   6.213
 1699SOL    HW2 5997   2.378   1.684   6.254
 1700SOL     OW 5998   5.608   3.277   3.941
 1700SOL    HW1 5999   5.572   3.285   4.034
 1700SOL    HW2 6000   5.708   3.279   3.944
 1701SOL     OW 6001   6.535   5.221   4.579
 1701SOL    HW1 6002   6.477   5.243   4.501
 1701SOL    HW2 6003   6.483   5.169   4.647
 1702SOL     OW 6004   1.649   0.892   6.119
 1702SOL    HW1 6005   1.672   0.898   6.022
 1702SOL    HW2 6006   1.720   0.841   6.167
 1703SOL     OW 6007   3.696   1.667   5.989
 1703SOL    HW1 6008   3.752   1.710   5.918
 1703SOL    HW2 6009   3.694   1.568   5.975
 1704SOL     OW 6010   1.559   1.598   0.303
 1704SOL    HW1 6011   1.621   1.671   0.330
 1704SOL    HW2 6012   1.594   1.510   0.336
 1705SOL     OW 6013   4.136   2.231   1.963
 1705SOL    HW1 6014   4.099   2.226   2.055
 1705SOL    HW2 6015   4.061   2.230   1.897
 1706SOL     OW 6016   4.211   1.576   0.889
 1706SOL    HW1 6017   4.296   1.621   0.862
 1706SOL    HW2 6018   4.135   1.641   0.882
 1707SOL     OW 6019   4.977   2.093   3.042
 1707SOL    HW1 6020   5.041   2.168   3.029
 1707SOL    HW2 6021   4.884   2.128   3.043
 1708SOL     OW 6022   3.876   5.560   2.018
 1708SOL    HW1 6023   3.926   5.518   2.093
 1708SOL    HW2 6024   3.838   5.489   1.959
 1709SOL     OW 6025   4.482   6.403   0.953
 1709SOL    HW1 6026   4.486   6.392   0.854
 1709SOL    HW2 6027   4.560   6.356   0.995
 1710SOL     OW 6028   4.120   5.264   3.328
 1710SOL    HW1 6029   4.134   5.229   3.420
 1710SOL    HW2 6030   4.128   5.190   3.261
 1711SOL     OW 6031   2.788   5.057   5.922
 1711SOL    HW1 6032   2.826   5.146   5.948
 1711SOL    HW2 6033   2.849   5.014   5.855
 1712SOL     OW 6034   0.418   2.512   5.192
 1712SOL    HW1 6035   0.449   2.422   5.164
 1712SOL    HW2 6036   0.490   2.579   5.175
 1713SOL     OW 6037   3.709   1.175   3.134
 1713SOL    HW1 6038   3.801   1.213   3.119
 1713SOL    HW2 6039   3.642   1.231   3.086
 1714SOL     OW 6040   3.208   2.250   6.680
 1714SOL    HW1 6041   3.285   2.192   6.653
 1714SOL    HW2 6042   3.198   2.249   6.779
 1715SOL     OW 6043   1.895   6.079   2.094
 1715SOL    HW1 6044   1.867   6.152   2.031
 1715SOL    HW2 6045   1.993   6.086   2.113
 1716SOL     OW 6046   4.575   0.349   4.019
 1716SOL    HW1 6047   4.637   0.297   4.078
 1716SOL    HW2 6048   4.581   0.446   4.043
 1717SOL     OW 6049   3.903   5.971   5.271
 1717SOL    HW1 6050   3.843   5.935   5.199
 1717SOL    HW2 6051   3.861   6.052   5.312
 1718SOL     OW 6052   2.077   2.094   2.533
 1718SOL    HW1 6053   2.025   2.065   2.613
 1718SOL    HW2 6054   2.173   2.068   2.544
 1719SOL     OW 6055   1.637   4.473   1.364
 1719SOL    HW1 6056   1.645   4.565   1.402
 1719SOL    HW2 6057   1.582   4.476   1.280
 1720SOL     OW 6058   0.028   2.807   6.181
 1720SOL    HW1 6059   6.979   2.745   6.209
 1720SOL    HW2 6060   0.091   2.821   6.258
 1721SOL     OW 6061   1.438   0.350   2.310
 1721SOL    HW1 6062   1.447   0.278   2.241
 1721SOL    HW2 6063   1.343   0.379   2.317
 1722SOL     OW 6064   3.143   1.907   3.005
 1722SOL    HW1 6065   3.213   1.978   3.004
 1722SOL    HW2 6066   3.071   1.929   2.940
 1723SOL     OW 6067   4.913   2.387   0.167
 1723SOL    HW1 6068   4.923   2.336   0.253
 1723SOL    HW2 6069   4.878   2.326   0.096
 1724SOL     OW 6070   6.259   2.185   1.268
 1724SOL    HW1 6071   6.342   2.193   1.212
 1724SOL    HW2 6072   6.277   2.125   1.346
 1725SOL     OW 6073   1.932   4.469   6.770
 1725SOL    HW1 6074   1.836   4.487   6.748
 1725SOL    HW2 6075   1.961   4.528   6.845
 1726SOL     OW 6076   5.972   4.243   3.437
 1726SOL    HW1 6077   6.020   4.185   3.371
 1726SOL    HW2 6078   6.013   4.231   3.527
 1727SOL     OW 6079   3.724   3.488   3.654
 1727SOL    HW1 6080   3.648   3.423   3.660
 1727SOL    HW2 6081   3.753   3.513   3.747
 1728SOL     OW 6082   4.910   4.545   5.524
 1728SOL    HW1 6083   4.928   4.446   5.526
 1728SOL    HW2 6084   4.825   4.564   5.573
 1729SOL     OW 6085   1.488   3.792   1.958
 1729SOL    HW1 6086   1.445   3.724   2.017
 1729SOL    HW2 6087   1.453   3.782   1.865
 1730SOL     OW 6088   2.385   6.046   5.023
 1730SOL    HW1 6089   2.333   6.117   5.070
 1730SOL    HW2 6090   2.323   5.990   4.967
 1731SOL     OW 6091   5.195   5.043   3.968
 1731SOL    HW1 6092   5.169   5.138   3.951
 1731SOL    HW2 6093   5.125   4.999   4.026
 1732SOL     OW 6094   2.050   4.230   6.014
 1732SOL    HW1 6095   2.097   4.219   6.102
 1732SOL    HW2 6096   1.954   4.203   6.024
 1733SOL     OW 6097   2.807   3.945   0.105
 1733SOL    HW1 6098   2.718   3.968   0.145
 1733SOL    HW2 6099   2.826   4.008   0.030
 1734SOL     OW 6100   6.596   3.101   1.148
 1734SOL    HW1 6101   6.561   3.113   1.055
 1734SOL    HW2 6102   6.535   3.040   1.198
 1735SOL     OW 6103   4.512   5.356   0.311
 1735SOL    HW1 6104   4.588   5.300   0.278
 1735SOL    HW2 6105   4.477   5.412   0.236
 1736SOL     OW 6106   4.142   3.804   1.535
 1736SOL    HW1 6107   4.124   3.813   1.633
 1736SOL    HW2 6108   4.110   3.714   1.503
 1737SOL     OW 6109   5.411   0.911   4.306
 1737SOL    HW1 6110   5.422   1.008   4.326
 1737SOL    HW2 6111   5.333   0.897   4.246
 1738SOL     OW 6112   2.017   3.933   4.176
 1738SOL    HW1 6113   1.978   3.998   4.241
 1738SOL    HW2 6114   2.036   3.847   4.222
 1739SOL     OW 6115   5.688   0.013   3.397
 1739SOL    HW1 6116   5.720   0.010   3.492
 1739SOL    HW2 6117   5.664   6.945   3.367
 1740SOL     OW 6118   6.840   1.953   4.747
 1740SOL    HW1 6119   6.871   2.029   4.804
 1740SOL    HW2 6120   6.893   1.952   4.662
 1741SOL     OW 6121   1.488   1.905   4.124
 1741SOL    HW1 6122   1.425   1.909   4.046
 1741SOL    HW2 6123   1.467   1.980   4.187
 1742SOL     OW 6124   6.024   0.156   5.732
 1742SOL    HW1 6125   6.119   0.161   5.761
 1742SOL    HW2 6126   5.964   0.162   5.813
 1743SOL     OW 6127   1.327   1.697   3.163
 1743SOL    HW1 6128   1.386   1.758   3.110
 1743SOL    HW2 6129   1.266   1.647   3.101
 1744SOL     OW 6130   5.422   2.293   3.533
 1744SOL    HW1 6131   5.393   2.388   3.523
 1744SOL    HW2 6132   5.423   2.249   3.443
 1745SOL     OW 6133   5.905   6.343   0.842
 1745SOL    HW1 6134   5.817   6.298   0.848
 1745SOL    HW2 6135   5.904   6.426   0.898
 1746SOL     OW 6136   1.585   3.896   3.897
 1746SOL    HW1 6137   1.651   3.952   3.847
 1746SOL    HW2 6138   1.516   3.861   3.833
 1747SOL     OW 6139   3.822   1.684   2.084
 1747SOL    HW1 6140   3.768   1.725   2.157
 1747SOL    HW2 6141   3.857   1.757   2.024
 1748SOL     OW 6142   6.878   1.397   4.699
 1748SOL    HW1 6143   6.893   1.402   4.600
 1748SOL    HW2 6144   6.803   1.334   4.718
 1749SOL     OW 6145   2.955   5.940   1.118
 1749SOL    HW1 6146   2.926   6.000   1.192
 1749SOL    HW2 6147   2.880   5.932   1.052
 1750SOL     OW 6148   4.335   0.514   5.254
 1750SOL    HW1 6149   4.244   0.547   5.280
 1750SOL    HW2 6150   4.403   0.582   5.282
 1751SOL     OW 6151   6.367   2.400   5.115
 1751SOL    HW1 6152   6.464   2.397   5.140
 1751SOL    HW2 6153   6.352   2.349   5.031
 1752SOL     OW 6154   6.709   1.317   1.218
 1752SOL    HW1 6155   6.646   1.307   1.141
 1752SOL    HW2 6156   6.684   1.252   1.290
 1753SOL     OW 6157   0.120   1.320   1.287
 1753SOL    HW1 6158   0.080   1.321   1.379
 1753SOL    HW2 6159   0.201   1.378   1.286
 1754SOL     OW 6160   3.222   6.034   5.692
 1754SOL    HW1 6161   3.143   6.066   5.640
 1754SOL    HW2 6162   3.206   5.940   5.723
 1755SOL     OW 6163   6.643   6.832   4.888
 1755SOL    HW1 6164   6.560   6.807   4.838
 1755SOL    HW2 6165   6.645   6.786   4.976
 1756SOL     OW 6166   5.166   0.311   6.084
 1756SOL    HW1 6167   5.195   0.240   6.148
 1756SOL    HW2 6168   5.192   0.284   5.991
 1757SOL     OW 6169   2.517   5.143   4.010
 1757SOL    HW1 6170   2.449   5.071   3.997
 1757SOL    HW2 6171   2.586   5.113   4.076
 1758SOL     OW 6172   2.056   6.794   5.327
 1758SOL    HW1 6173   1.964   6.819   5.356
 1758SOL    HW2 6174   2.105   6.751   5.404
 1759SOL     OW 6175   1.159   5.739   6.160
 1759SOL    HW1 6176   1.173   5.680   6.081
 1759SOL    HW2 6177   1.234   5.727   6.225
 1760SOL     OW 6178   6.275   0.611   4.671
 1760SOL    HW1 6179   6.351   0.559   4.631
 1760SOL    HW2 6180   6.289   0.708   4.654
 1761SOL     OW 6181   6.996   1.726   1.205
 1761SOL    HW1 6182   6.996   1.750   1.108
 1761SOL    HW2 6183   0.007   1.803   1.258
 1762SOL     OW 6184   0.803   1.598   5.334
 1762SOL    HW1 6185   0.793   1.500   5.350
 1762SOL    HW2 6186   0.873   1.635   5.395
 1763SOL     OW 6187   1.337   3.909   5.160
 1763SOL    HW1 6188   1.267   3.956   5.215
 1763SOL    HW2 6189   1.408   3.873   5.221
 1764SOL     OW 6190   1.513   4.066   1.859
 1764SOL    HW1 6191   1.596   4.050   1.805
 1764SOL    HW2 6192   1.489   3.983   1.909
 1765SOL     OW 6193   4.842   2.934   1.747
 1765SOL    HW1 6194   4.763   2.953   1.806
 1765SOL    HW2 6195   4.897   3.016   1.736
 1766SOL     OW 6196   4.462   4.536   3.840
 1766SOL    HW1 6197   4.364   4.530   3.862
 1766SOL    HW2 6198   4.515   4.540   3.924
 1767SOL     OW 6199   6.871   5.738   2.273
 1767SOL    HW1 6200   6.802   5.807   2.249
 1767SOL    HW2 6201   6.929   5.773   2.346
 1768SOL     OW 6202   4.516   5.978   1.911
 1768SOL    HW1 6203   4.534   5.969   2.009
 1768SOL    HW2 6204   4.526   6.074   1.884
 1769SOL     OW 6205   6.101   0.894   6.716
 1769SOL    HW1 6206   6.063   0.874   6.806
 1769SOL    HW2 6207   6.027   0.895   6.648
 1770SOL     OW 6208   1.311   4.595   5.692
 1770SOL    HW1 6209   1.349   4.680   5.727
 1770SOL    HW2 6210   1.383   4.526   5.685
 1771SOL     OW 6211   0.950   3.999   6.954
 1771SOL    HW1 6212   0.927   3.976   6.859
 1771SOL    HW2 6213   0.986   3.919   7.000
 1772SOL     OW 6214   3.172   5.085   3.777
 1772SOL    HW1 6215   3.092   5.129   3.736
 1772SOL    HW2 6216   3.159   5.077   3.876
 1773SOL     OW 6217   1.202   0.374   4.785
 1773SOL    HW1 6218   1.114   0.406   4.749
 1773SOL    HW2 6219   1.197   0.276   4.804
 1774SOL     OW 6220   5.748   6.531   1.422
 1774SOL    HW1 6221   5.720   6.454   1.365
 1774SOL    HW2 6222   5.697   6.612   1.397
 1775SOL     OW 6223   1.499   5.279   6.708
 1775SOL    HW1 6224   1.569   5.330   6.657
 1775SOL    HW2 6225   1.412   5.327   6.700
 1776SOL     OW 6226   4.667   1.101   5.343
 1776SOL    HW1 6227   4.677   1.194   5.308
 1776SOL    HW2 6228   4.757   1.063   5.363
 1777SOL     OW 6229   4.472   6.894   6.708
 1777SOL    HW1 6230   4.456   6.875   6.611
 1777SOL    HW2 6231   4.557   6.946   6.719
 1778SOL     OW 6232   5.555   1.198   4.176
 1778SOL    HW1 6233   5.591   1.259   4.106
 1778SOL    HW2 6234   5.610   1.114   4.178
 1779SOL     OW 6235   5.251   0.275   4.806
 1779SOL    HW1 6236   5.234   0.182   4.774
 1779SOL    HW2 6237   5.211   0.340   4.742
 1780SOL     OW 6238   1.289   4.984   4.983
 1780SOL    HW1 6239   1.277   5.041   5.064
 1780SOL    HW2 6240   1.229   5.017   4.910
 1781SOL     OW 6241   4.495   0.018   4.029
 1781SOL    HW1 6242   4.441   7.005   4.104
 1781SOL    HW2 6243   4.562   0.082   4.066
 1782SOL     OW 6244   1.604   1.779   2.661
 1782SOL    HW1 6245   1.633   1.870   2.690
 1782SOL    HW2 6246   1.663   1.746   2.587
 1783SOL     OW 6247   2.380   3.573   5.861
 1783SOL    HW1 6248   2.475   3.544   5.857
 1783SOL    HW2 6249   2.324   3.498   5.898
 1784SOL     OW 6250   2.497   0.573   0.976
 1784SOL    HW1 6251   2.452   0.484   0.966
 1784SOL    HW2 6252   2.432   0.646   0.953
 1785SOL     OW 6253   0.693   6.612   4.344
 1785SOL    HW1 6254   0.659   6.541   4.405
 1785SOL    HW2 6255   0.650   6.699   4.367
 1786SOL     OW 6256   1.986   5.589   0.808
 1786SOL    HW1 6257   2.030   5.572   0.896
 1786SOL    HW2 6258   1.961   5.502   0.766
 1787SOL     OW 6259   1.722   3.018   5.664
 1787SOL    HW1 6260   1.769   3.093   5.616
 1787SOL    HW2 6261   1.789   2.959   5.708
 1788SOL     OW 6262   4.491   4.091   0.555
 1788SOL    HW1 6263   4.443   4.039   0.626
 1788SOL    HW2 6264   4.581   4.118   0.588
 1789SOL     OW 6265   6.721   3.722   1.873
 1789SOL    HW1 6266   6.692   3.712   1.968
 1789SOL    HW2 6267   6.709   3.634   1.825
 1790SOL     OW 6268   2.946   2.281   4.435
 1790SOL    HW1 6269   2.971   2.272   4.338
 1790SOL    HW2 6270   3.027   2.272   4.492
 1791SOL     OW 6271   6.470   0.745   3.655
 1791SOL    HW1 6272   6.497   0.649   3.661
 1791SOL    HW2 6273   6.381   0.752   3.610
 1792SOL     OW 6274   6.937   2.652   5.301
 1792SOL    HW1 6275   7.000   2.618   5.371
 1792SOL    HW2 6276   6.844   2.649   5.337
 1793SOL     OW 6277   0.530   1.299   5.081
 1793SOL    HW1 6278   0.569   1.375   5.028
 1793SOL    HW2 6279   0.431   1.309   5.085
 1794SOL     OW 6280   6.756   0.260   6.186
 1794SOL    HW1 6281   6.851   0.283   6.205
 1794SOL    HW2 6282   6.744   0.246   6.088
 1795SOL     OW 6283   5.818   4.559   0.221
 1795SOL    HW1 6284   5.807   4.589   0.316
 1795SOL    HW2 6285   5.905   4.594   0.186
 1796SOL     OW 6286   1.464   0.059   5.186
 1796SOL    HW1 6287   1.495   0.135   5.244
 1796SOL    HW2 6288   1.397   0.092   5.120
 1797SOL     OW 6289   2.402   6.395   4.669
 1797SOL    HW1 6290   2.469   6.374   4.740
 1797SOL    HW2 6291   2.430   6.353   4.583
 1798SOL     OW 6292   3.540   3.560   4.704
 1798SOL    HW1 6293   3.478   3.489   4.670
 1798SOL    HW2 6294   3.499   3.650   4.687
 1799SOL     OW 6295   3.156   0.592   6.771
 1799SOL    HW1 6296   3.165   0.633   6.862
 1799SOL    HW2 6297   3.105   0.507   6.777
 1800SOL     OW 6298   5.307   4.059   3.715
 1800SOL    HW1 6299   5.213   4.086   3.694
 1800SOL    HW2 6300   5.369   4.134   3.693
 1801SOL     OW 6301   1.294   1.261   2.199
 1801SOL    HW1 6302   1.367   1.305   2.146
 1801SOL    HW2 6303   1.305   1.161   2.194
 1802SOL     OW 6304   6.213   4.666   3.430
 1802SOL    HW1 6305   6.156   4.748   3.426
 1802SOL    HW2 6306   6.299   4.682   3.381
 1803SOL     OW 6307   0.155   6.135   2.623
 1803SOL    HW1 6308   0.076   6.073   2.612
 1803SOL    HW2 6309   0.141   6.191   2.704
 1804SOL     OW 6310   3.066   3.654   6.294
 1804SOL    HW1 6311   3.007   3.584   6.254
 1804SOL    HW2 6312   3.076   3.635   6.392
 1805SOL     OW 6313   0.314   6.702   6.350
 1805SOL    HW1 6314   0.394   6.678   6.406
 1805SOL    HW2 6315   0.306   6.638   6.274
 1806SOL     OW 6316   6.899   2.699   2.272
 1806SOL    HW1 6317   6.959   2.636   2.322
 1806SOL    HW2 6318   6.913   2.792   2.306
 1807SOL     OW 6319   6.417   3.935   1.556
 1807SOL    HW1 6320   6.505   3.893   1.532
 1807SOL    HW2 6321   6.407   4.021   1.508
 1808SOL     OW 6322   4.863   2.567   5.730
 1808SOL    HW1 6323   4.766   2.549   5.744
 1808SOL    HW2 6324   4.880   2.583   5.633
 1809SOL     OW 6325   3.746   2.040   5.174
 1809SOL    HW1 6326   3.788   2.107   5.235
 1809SOL    HW2 6327   3.800   2.033   5.090
 1810SOL     OW 6328   0.483   7.008   3.873
 1810SOL    HW1 6329   0.476   7.013   3.973
 1810SOL    HW2 6330   0.521   6.919   3.846
 1811SOL     OW 6331   3.938   5.039   2.352
 1811SOL    HW1 6332   3.884   5.006   2.274
 1811SOL    HW2 6333   3.998   5.113   2.321
 1812SOL     OW 6334   4.227   0.245   6.311
 1812SOL    HW1 6335   4.321   0.251   6.276
 1812SOL    HW2 6336   4.213   0.316   6.380
 1813SOL     OW 6337   4.647   4.949   2.838
 1813SOL    HW1 6338   4.623   5.000   2.922
 1813SOL    HW2 6339   4.563   4.919   2.793
 1814SOL     OW 6340   0.647   6.669   0.343
 1814SOL    HW1 6341   0.714   6.727   0.389
 1814SOL    HW2 6342   0.696   6.598   0.291
 1815SOL     OW 6343   5.757   5.794   2.153
 1815SOL    HW1 6344   5.770   5.721   2.087
 1815SOL    HW2 6345   5.833   5.859   2.147
 1816SOL     OW 6346   4.201   5.815   5.590
 1816SOL    HW1 6347   4.110   5.789   5.624
 1816SOL    HW2 6348   4.219   5.910   5.615
 1817SOL     OW 6349   2.449   1.589   3.194
 1817SOL    HW1 6350   2.427   1.501   3.152
 1817SOL    HW2 6351   2.415   1.663   3.135
 1818SOL     OW 6352   2.121   6.635   0.151
 1818SOL    HW1 6353   2.053   6.614   0.081
 1818SOL    HW2 6354   2.158   6.550   0.189
 1819SOL     OW 6355   1.365   4.745   3.169
 1819SOL    HW1 6356   1.307   4.778   3.095
 1819SOL    HW2 6357   1.389   4.822   3.229
 1820SOL     OW 6358   4.291   6.814   3.266
 1820SOL    HW1 6359   4.277   6.860   3.354
 1820SOL    HW2 6360   4.218   6.747   3.251
 1821SOL     OW 6361   4.069   1.182   2.315
 1821SOL    HW1 6362   4.061   1.236   2.399
 1821SOL    HW2 6363   3.978   1.151   2.287
 1822SOL     OW 6364   0.926   3.061   2.245
 1822SOL    HW1 6365   0.843   3.107   2.216
 1822SOL    HW2 6366   0.914   2.962   2.239
 1823SOL     OW 6367   3.544   6.913   2.575
 1823SOL    HW1 6368   3.469   6.947   2.632
 1823SOL    HW2 6369   3.509   6.847   2.509
 1824SOL     OW 6370   4.145   4.056   0.957
 1824SOL    HW1 6371   4.045   4.065   0.965
 1824SOL    HW2 6372   4.189   4.126   1.014
 1825SOL     OW 6373   2.043   2.230   5.041
 1825SOL    HW1 6374   2.066   2.263   4.950
 1825SOL    HW2 6375   1.943   2.220   5.049
 1826SOL     OW 6376   3.362   2.093   1.951
 1826SOL    HW1 6377   3.366   2.145   2.036
 1826SOL    HW2 6378   3.454   2.061   1.927
 1827SOL     OW 6379   5.626   4.782   0.377
 1827SOL    HW1 6380   5.561   4.844   0.421
 1827SOL    HW2 6381   5.703   4.765   0.439
 1828SOL     OW 6382   1.386   3.530   5.927
 1828SOL    HW1 6383   1.403   3.568   6.018
 1828SOL    HW2 6384   1.436   3.583   5.859
 1829SOL     OW 6385   3.740   0.595   3.985
 1829SOL    HW1 6386   3.774   0.687   4.003
 1829SOL    HW2 6387   3.743   0.541   4.069
 1830SOL     OW 6388   5.822   7.006   4.973
 1830SOL    HW1 6389   5.768   6.976   4.894
 1830SOL    HW2 6390   5.778   0.061   5.015
 1831SOL     OW 6391   5.079   5.215   2.753
 1831SOL    HW1 6392   5.005   5.154   2.725
 1831SOL    HW2 6393   5.063   5.307   2.717
 1832SOL     OW 6394   2.329   3.659   0.843
 1832SOL    HW1 6395   2.379   3.655   0.757
 1832SOL    HW2 6396   2.231   3.647   0.825
 1833SOL     OW 6397   4.906   0.422   1.758
 1833SOL    HW1 6398   4.834   0.356   1.736
 1833SOL    HW2 6399   4.992   0.393   1.718
 1834SOL     OW 6400   2.205   2.383   0.135
 1834SOL    HW1 6401   2.112   2.385   0.171
 1834SOL    HW2 6402   2.248   2.296   0.159
 1835SOL     OW 6403   0.000   5.045   1.339
 1835SOL    HW1 6404   0.020   5.057   1.437
 1835SOL    HW2 6405   0.057   4.971   1.303
 1836SOL     OW 6406   5.624   1.681   1.838
 1836SOL    HW1 6407   5.698   1.659   1.774
 1836SOL    HW2 6408   5.598   1.777   1.827
 1837SOL     OW 6409   2.861   1.198   6.177
 1837SOL    HW1 6410   2.905   1.191   6.087
 1837SOL    HW2 6411   2.779   1.256   6.169
 1838SOL     OW 6412   5.810   1.092   0.657
 1838SOL    HW1 6413   5.820   1.187   0.688
 1838SOL    HW2 6414   5.901   1.052   0.643
 1839SOL     OW 6415   5.905   1.723   0.233
 1839SOL    HW1 6416   5.998   1.728   0.198
 1839SOL    HW2 6417   5.872   1.628   0.228
 1840SOL     OW 6418   4.326   0.056   2.756
 1840SOL    HW1 6419   4.336   0.153   2.777
 1840SOL    HW2 6420   4.337   0.003   2.840
 1841SOL     OW 6421   2.140   0.470   2.418
 1841SOL    HW1 6422   2.200   0.465   2.338
 1841SOL    HW2 6423   2.062   0.529   2.397
 1842SOL     OW 6424   1.955   4.945   0.633
 1842SOL    HW1 6425   1.967   4.981   0.540
 1842SOL    HW2 6426   1.957   4.845   0.630
 1843SOL     OW 6427   3.329   1.417   4.664
 1843SOL    HW1 6428   3.365   1.500   4.706
 1843SOL    HW2 6429   3.232   1.430   4.643
 1844SOL     OW 6430   4.536   1.751   6.441
 1844SOL    HW1 6431   4.449   1.706   6.460
 1844SOL    HW2 6432   4.540   1.838   6.490
 1845SOL     OW 6433   2.235   1.273   3.197
 1845SOL    HW1 6434   2.188   1.189   3.169
 1845SOL    HW2 6435   2.297   1.302   3.124
 1846SOL     OW 6436   4.421   1.023   2.875
 1846SOL    HW1 6437   4.480   1.011   2.955
 1846SOL    HW2 6438   4.372   0.938   2.856
 1847SOL     OW 6439   2.123   0.118   4.210
 1847SOL    HW1 6440   2.118   0.125   4.110
 1847SOL    HW2 6441   2.214   0.145   4.242
 1848SOL     OW 6442   2.105   5.633   4.121
 1848SOL    HW1 6443   2.201   5.654   4.137
 1848SOL    HW2 6444   2.098   5.553   4.061
 1849SOL     OW 6445   4.551   2.562   2.780
 1849SOL    HW1 6446   4.543   2.634   2.849
 1849SOL    HW2 6447   4.600   2.597   2.700
 1850SOL     OW 6448   5.432   2.317   2.148
 1850SOL    HW1 6449   5.505   2.355   2.092
 1850SOL    HW2 6450   5.348   2.370   2.134
 1851SOL     OW 6451   7.015   3.080   6.101
 1851SOL    HW1 6452   7.021   2.993   6.151
 1851SOL    HW2 6453   6.925   3.121   6.118
 1852SOL     OW 6454   1.717   4.834   2.099
 1852SOL    HW1 6455   1.658   4.804   2.174
 1852SOL    HW2 6456   1.809   4.853   2.135
 1853SOL     OW 6457   0.476   2.974   4.494
 1853SOL    HW1 6458   0.569   2.938   4.503
 1853SOL    HW2 6459   0.414   2.923   4.553
 1854SOL     OW 6460   0.627   6.053   3.208
 1854SOL    HW1 6461   0.716   6.022   3.175
 1854SOL    HW2 6462   0.638   6.091   3.300
 1855SOL     OW 6463   4.970   3.493   4.848
 1855SOL    HW1 6464   4.914   3.549   4.909
 1855SOL    HW2 6465   5.057   3.473   4.892
 1856SOL     OW 6466   3.964   3.799   0.016
 1856SOL    HW1 6467   4.009   3.766   6.957
 1856SOL    HW2 6468   4.033   3.840   0.076
 1857SOL     OW 6469   5.049   0.993   0.241
 1857SOL    HW1 6470   5.063   1.017   0.145
 1857SOL    HW2 6471   4.953   0.967   0.256
 1858SOL     OW 6472   4.556   2.523   4.376
 1858SOL    HW1 6473   4.601   2.602   4.418
 1858SOL    HW2 6474   4.610   2.441   4.392
 1859SOL     OW 6475   6.042   2.205   4.896
 1859SOL    HW1 6476   5.955   2.155   4.899
 1859SOL    HW2 6477   6.061   2.231   4.801
 1860SOL     OW 6478   1.180   1.616   4.998
 1860SOL    HW1 6479   1.114   1.686   4.970
 1860SOL    HW2 6480   1.262   1.661   5.035
 1861SOL     OW 6481   6.692   0.887   3.205
 1861SOL    HW1 6482   6.603   0.929   3.225
 1861SOL    HW2 6483   6.718   0.908   3.110
 1862SOL     OW 6484   1.811   6.362   6.780
 1862SOL    HW1 6485   1.803   6.331   6.685
 1862SOL    HW2 6486   1.791   6.285   6.841
 1863SOL     OW 6487   0.506   3.296   1.651
 1863SOL    HW1 6488   0.542   3.384   1.682
 1863SOL    HW2 6489   0.453   3.310   1.567
 1864SOL     OW 6490   3.108   6.116   3.297
 1864SOL    HW1 6491   3.016   6.079   3.308
 1864SOL    HW2 6492   3.175   6.046   3.324
 1865SOL     OW 6493   4.843   1.300   6.661
 1865SOL    HW1 6494   4.833   1.396   6.685
 1865SOL    HW2 6495   4.775   1.275   6.592
 1866SOL     OW 6496   0.485   4.294   3.887
 1866SOL    HW1 6497   0.432   4.356   3.829
 1866SOL    HW2 6498   0.562   4.257   3.835
 1867SOL     OW 6499   2.686   2.096   1.285
 1867SOL    HW1 6500   2.648   2.180   1.325
 1867SOL    HW2 6501   2.732   2.117   1.199
 1868SOL     OW 6502   5.444   4.246   5.487
 1868SOL    HW1 6503   5.355   4.277   5.521
 1868SOL    HW2 6504   5.514   4.315   5.509
 1869SOL     OW 6505   4.414   2.169   4.200
 1869SOL    HW1 6506   4.367   2.086   4.171
 1869SOL    HW2 6507   4.409   2.237   4.127
 1870SOL     OW 6508   1.420   4.310   4.207
 1870SOL    HW1 6509   1.492   4.283   4.270
 1870SOL    HW2 6510   1.427   4.256   4.123
 1871SOL     OW 6511   0.934   6.574   0.559
 1871SOL    HW1 6512   0.923   6.504   0.489
 1871SOL    HW2 6513   1.025   6.616   0.551
 1872SOL     OW 6514   3.072   1.998   0.474
 1872SOL    HW1 6515   2.984   2.044   0.484
 1872SOL    HW2 6516   3.141   2.064   0.445
 1873SOL     OW 6517   6.377   0.948   0.044
 1873SOL    HW1 6518   6.322   0.866   0.031
 1873SOL    HW2 6519   6.344   1.021   7.008
 1874SOL     OW 6520   1.221   6.306   6.448
 1874SOL    HW1 6521   1.214   6.359   6.532
 1874SOL    HW2 6522   1.174   6.355   6.374
 1875SOL     OW 6523   6.164   5.601   6.986
 1875SOL    HW1 6524   6.255   5.636   7.010
 1875SOL    HW2 6525   6.094   5.662   7.023
 1876SOL     OW 6526   5.705   6.736   6.394
 1876SOL    HW1 6527   5.746   6.776   6.313
 1876SOL    HW2 6528   5.720   6.637   6.393
 1877SOL     OW 6529   0.484   1.166   2.283
 1877SOL    HW1 6530   0.390   1.184   2.253
 1877SOL    HW2 6531   0.484   1.138   2.379
 1878SOL     OW 6532   0.456   4.742   3.227
 1878SOL    HW1 6533   0.479   4.770   3.134
 1878SOL    HW2 6534   0.370   4.691   3.226
 1879SOL     OW 6535   3.365   5.827   5.162
 1879SOL    HW1 6536   3.439   5.894   5.169
 1879SOL    HW2 6537   3.380   5.752   5.226
 1880SOL     OW 6538   0.135   1.855   3.423
 1880SOL    HW1 6539   0.088   1.942   3.433
 1880SOL    HW2 6540   0.151   1.815   3.513
 1881SOL     OW 6541   0.824   2.378   3.956
 1881SOL    HW1 6542   0.890   2.321   4.005
 1881SOL    HW2 6543   0.733   2.338   3.964
 1882SOL     OW 6544   1.299   6.137   6.961
 1882SOL    HW1 6545   1.250   6.058   6.998
 1882SOL    HW2 6546   1.280   6.218   7.018
 1883SOL     OW 6547   1.499   3.804   3.046
 1883SOL    HW1 6548   1.510   3.789   3.144
 1883SOL    HW2 6549   1.435   3.880   3.031
 1884SOL     OW 6550   2.935   0.982   0.535
 1884SOL    HW1 6551   2.983   1.050   0.481
 1884SOL    HW2 6552   2.915   0.902   0.479
 1885SOL     OW 6553   0.293   2.779   0.964
 1885SOL    HW1 6554   0.310   2.863   0.913
 1885SOL    HW2 6555   0.369   2.761   1.026
 1886SOL     OW 6556   2.133   2.000   6.704
 1886SOL    HW1 6557   2.071   2.076   6.722
 1886SOL    HW2 6558   2.143   1.945   6.787
 1887SOL     OW 6559   0.696   5.779   5.397
 1887SOL    HW1 6560   0.736   5.713   5.333
 1887SOL    HW2 6561   0.730   5.761   5.489
 1888SOL     OW 6562   2.047   1.834   6.330
 1888SOL    HW1 6563   2.048   1.734   6.319
 1888SOL    HW2 6564   2.127   1.862   6.383
 1889SOL     OW 6565   4.112   2.818   6.904
 1889SOL    HW1 6566   4.059   2.820   6.988
 1889SOL    HW2 6567   4.115   2.724   6.869
 1890SOL     OW 6568   0.447   5.829   6.344
 1890SOL    HW1 6569   0.425   5.872   6.257
 1890SOL    HW2 6570   0.439   5.730   6.337
 1891SOL     OW 6571   5.315   3.479   5.336
 1891SOL    HW1 6572   5.355   3.479   5.427
 1891SOL    HW2 6573   5.294   3.572   5.308
 1892SOL     OW 6574   3.783   5.456   1.530
 1892SOL    HW1 6575   3.775   5.554   1.546
 1892SOL    HW2 6576   3.697   5.411   1.553
 1893SOL     OW 6577   3.798   2.108   3.710
 1893SOL    HW1 6578   3.768   2.027   3.761
 1893SOL    HW2 6579   3.876   2.149   3.757
 1894SOL     OW 6580   4.559   3.850   1.583
 1894SOL    HW1 6581   4.607   3.763   1.567
 1894SOL    HW2 6582   4.488   3.861   1.513
 1895SOL     OW 6583   6.408   0.945   2.557
 1895SOL    HW1 6584   6.349   1.016   2.518
 1895SOL    HW2 6585   6.498   0.983   2.577
 1896SOL     OW 6586   6.451   1.835   4.359
 1896SOL    HW1 6587   6.393   1.755   4.345
 1896SOL    HW2 6588   6.510   1.820   4.439
 1897SOL     OW 6589   5.738   5.002   3.287
 1897SOL    HW1 6590   5.670   5.064   3.249
 1897SOL    HW2 6591   5.769   5.036   3.375
 1898SOL     OW 6592   5.475   5.606   0.917
 1898SOL    HW1 6593   5.506   5.687   0.868
 1898SOL    HW2 6594   5.434   5.633   1.004
 1899SOL     OW 6595   0.509   3.023   3.090
 1899SOL    HW1 6596   0.520   3.007   2.992
 1899SOL    HW2 6597   0.447   2.953   3.128
 1900SOL     OW 6598   1.384   6.155   5.892
 1900SOL    HW1 6599   1.386   6.233   5.955
 1900SOL    HW2 6600   1.396   6.070   5.944
 1901SOL     OW 6601   1.565   0.428   6.965
 1901SOL    HW1 6602   1.592   0.400   0.033
 1901SOL    HW2 6603   1.487   0.490   6.970
 1902SOL     OW 6604   0.815   3.168   4.184
 1902SOL    HW1 6605   0.772   3.133   4.101
 1902SOL    HW2 6606   0.757   3.238   4.225
 1903SOL     OW 6607   6.450   4.069   3.245
 1903SOL    HW1 6608   6.549   4.083   3.241
 1903SOL    HW2 6609   6.415   4.054   3.153
 1904SOL     OW 6610   0.198   0.412   4.291
 1904SOL    HW1 6611   0.222   0.497   4.244
 1904SOL    HW2 6612   0.102   0.414   4.317
 1905SOL     OW 6613   0.363   2.445   4.091
 1905SOL    HW1 6614   0.456   2.441   4.128
 1905SOL    HW2 6615   0.366   2.484   3.999
 1906SOL     OW 6616   2.186   6.627   6.147
 1906SOL    HW1 6617   2.210   6.711   6.194
 1906SOL    HW2 6618   2.203   6.549   6.207
 1907SOL     OW 6619   3.111   6.683   3.203
 1907SOL    HW1 6620   3.115   6.678   3.103
 1907SOL    HW2 6621   3.200   6.714   3.238
 1908SOL     OW 6622   4.249   1.508   6.069
 1908SOL    HW1 6623   4.320   1.566   6.110
 1908SOL    HW2 6624   4.238   1.425   6.124
 1909SOL     OW 6625   2.060   4.572   4.949
 1909SOL    HW1 6626   2.000   4.550   5.026
 1909SOL    HW2 6627   2.153   4.587   4.982
 1910SOL     OW 6628   5.038   2.267   6.275
 1910SOL    HW1 6629   5.123   2.220   6.251
 1910SOL    HW2 6630   5.014   2.331   6.202
 1911SOL     OW 6631   6.543   2.191   5.035
 1911SOL    HW1 6632   6.542   2.136   5.118
 1911SOL    HW2 6633   6.574   2.284   5.057
 1912SOL     OW 6634   3.097   6.842   2.397
 1912SOL    HW1 6635   3.066   6.924   2.445
 1912SOL    HW2 6636   3.191   6.856   2.365
 1913SOL     OW 6637   1.798   5.850   5.055
 1913SOL    HW1 6638   1.732   5.776   5.069
 1913SOL    HW2 6639   1.766   5.909   4.980
 1914SOL     OW 6640   2.773   2.516   6.265
 1914SOL    HW1 6641   2.833   2.578   6.215
 1914SOL    HW2 6642   2.708   2.570   6.319
 1915SOL     OW 6643   4.029   0.559   6.077
 1915SOL    HW1 6644   4.000   0.608   5.995
 1915SOL    HW2 6645   4.064   0.469   6.051
 1916SOL     OW 6646   3.735   5.877   1.922
 1916SOL    HW1 6647   3.738   5.779   1.903
 1916SOL    HW2 6648   3.734   5.892   2.020
 1917SOL     OW 6649   2.928   3.816   4.573
 1917SOL    HW1 6650   2.878   3.769   4.647
 1917SOL    HW2 6651   2.990   3.883   4.613
 1918SOL     OW 6652   5.700   6.004   5.884
 1918SOL    HW1 6653   5.748   6.088   5.859
 1918SOL    HW2 6654   5.755   5.952   5.949
 1919SOL     OW 6655   0.948   6.317   2.429
 1919SOL    HW1 6656   0.888   6.263   2.489
 1919SOL    HW2 6657   1.039   6.324   2.471
 1920SOL     OW 6658   0.455   5.550   3.452
 1920SOL    HW1 6659   0.538   5.507   3.417
 1920SOL    HW2 6660   0.450   5.538   3.551
 1921SOL     OW 6661   1.355   6.020   6.723
 1921SOL    HW1 6662   1.383   5.932   6.762
 1921SOL    HW2 6663   1.342   6.086   6.796
 1922SOL     OW 6664   3.966   3.178   1.553
 1922SOL    HW1 6665   3.914   3.208   1.474
 1922SOL    HW2 6666   3.905   3.130   1.617
 1923SOL     OW 6667   2.377   0.907   1.286
 1923SOL    HW1 6668   2.321   0.843   1.339
 1923SOL    HW2 6669   2.317   0.970   1.237
 1924SOL     OW 6670   6.607   4.573   2.018
 1924SOL    HW1 6671   6.570   4.662   1.992
 1924SOL    HW2 6672   6.654   4.532   1.940
 1925SOL     OW 6673   3.260   3.927   1.749
 1925SOL    HW1 6674   3.201   3.860   1.704
 1925SOL    HW2 6675   3.223   3.948   1.839
 1926SOL     OW 6676   1.489   0.050   4.698
 1926SOL    HW1 6677   1.586   0.069   4.710
 1926SOL    HW2 6678   1.478   6.989   4.648
 1927SOL     OW 6679   4.196   3.703   6.836
 1927SOL    HW1 6680   4.232   3.796   6.822
 1927SOL    HW2 6681   4.269   3.646   6.875
 1928SOL     OW 6682   6.985   3.415   5.778
 1928SOL    HW1 6683   6.896   3.443   5.815
 1928SOL    HW2 6684   6.972   3.372   5.689
 1929SOL     OW 6685   1.419   6.057   1.439
 1929SOL    HW1 6686   1.383   6.038   1.347
 1929SOL    HW2 6687   1.452   6.151   1.443
 1930SOL     OW 6688   6.327   4.258   6.552
 1930SOL    HW1 6689   6.288   4.313   6.626
 1930SOL    HW2 6690   6.327   4.162   6.579
 1931SOL     OW 6691   0.465   3.435   3.144
 1931SOL    HW1 6692   0.428   3.394   3.228
 1931SOL    HW2 6693   0.521   3.514   3.168
 1932SOL     OW 6694   4.851   3.892   1.935
 1932SOL    HW1 6695   4.758   3.907   1.900
 1932SOL    HW2 6696   4.900   3.979   1.938
 1933SOL     OW 6697   3.092   4.299   0.788
 1933SOL    HW1 6698   3.187   4.287   0.757
 1933SOL    HW2 6699   3.048   4.369   0.731
 1934SOL     OW 6700   1.000   0.012   5.494
 1934SOL    HW1 6701   0.946   0.081   5.541
 1934SOL    HW2 6702   0.949   6.950   5.491
 1935SOL     OW 6703   2.327   6.969   4.078
 1935SOL    HW1 6704   2.357   0.004   4.152
 1935SOL    HW2 6705   2.325   7.020   3.992
 1936SOL     OW 6706   5.565   5.885   4.807
 1936SOL    HW1 6707   5.658   5.905   4.778
 1936SOL    HW2 6708   5.525   5.964   4.852
 1937SOL     OW 6709   4.137   6.875   1.532
 1937SOL    HW1 6710   4.209   6.924   1.583
 1937SOL    HW2 6711   4.050   6.921   1.545
 1938SOL     OW 6712   3.622   1.266   3.612
 1938SOL    HW1 6713   3.664   1.348   3.650
 1938SOL    HW2 6714   3.632   1.190   3.677
 1939SOL     OW 6715   1.591   0.972   3.849
 1939SOL    HW1 6716   1.564   1.063   3.819
 1939SOL    HW2 6717   1.532   0.942   3.923
 1940SOL     OW 6718   5.589   5.449   6.811
 1940SOL    HW1 6719   5.607   5.365   6.864
 1940SOL    HW2 6720   5.665   5.466   6.749
 1941SOL     OW 6721   6.061   4.105   3.208
 1941SOL    HW1 6722   6.062   4.138   3.114
 1941SOL    HW2 6723   6.073   4.006   3.209
 1942SOL     OW 6724   6.036   5.520   2.133
 1942SOL    HW1 6725   6.111   5.586   2.133
 1942SOL    HW2 6726   6.073   5.427   2.136
 1943SOL     OW 6727   2.619   5.479   2.542
 1943SOL    HW1 6728   2.695   5.482   2.478
 1943SOL    HW2 6729   2.653   5.486   2.636
 1944SOL     OW 6730   5.596   1.700   6.580
 1944SOL    HW1 6731   5.587   1.752   6.495
 1944SOL    HW2 6732   5.601   1.602   6.558
 1945SOL     OW 6733   4.361   5.284   3.164
 1945SOL    HW1 6734   4.348   5.381   3.144
 1945SOL    HW2 6735   4.272   5.239   3.170
 1946SOL     OW 6736   1.606   0.317   0.953
 1946SOL    HW1 6737   1.513   0.319   0.989
 1946SOL    HW2 6738   1.613   0.379   0.875
 1947SOL     OW 6739   5.736   6.280   4.804
 1947SOL    HW1 6740   5.656   6.264   4.745
 1947SOL    HW2 6741   5.720   6.362   4.860
 1948SOL     OW 6742   0.269   5.113   4.477
 1948SOL    HW1 6743   0.226   5.145   4.562
 1948SOL    HW2 6744   0.213   5.141   4.399
 1949SOL     OW 6745   4.323   4.469   6.110
 1949SOL    HW1 6746   4.259   4.393   6.101
 1949SOL    HW2 6747   4.406   4.450   6.058
 1950SOL     OW 6748   4.041   3.584   6.351
 1950SOL    HW1 6749   3.946   3.574   6.321
 1950SOL    HW2 6750   4.044   3.589   6.451
 1951SOL     OW 6751   5.339   2.048   7.008
 1951SOL    HW1 6752   5.347   2.102   6.924
 1951SOL    HW2 6753   5.411   2.074   0.047
 1952SOL     OW 6754   3.712   1.786   0.862
 1952SOL    HW1 6755   3.639   1.832   0.912
 1952SOL    HW2 6756   3.733   1.836   0.778
 1953SOL     OW 6757   6.863   1.967   6.771
 1953SOL    HW1 6758   6.917   1.913   6.705
 1953SOL    HW2 6759   6.847   2.058   6.734
 1954SOL     OW 6760   5.442   1.977   3.552
 1954SOL    HW1 6761   5.359   1.935   3.516
 1954SOL    HW2 6762   5.495   2.016   3.476
 1955SOL     OW 6763   1.585   0.040   2.306
 1955SOL    HW1 6764   1.541   0.095   2.235
 1955SOL    HW2 6765   1.664   7.017   2.267
 1956SOL     OW 6766   5.055   6.147   2.815
 1956SOL    HW1 6767   4.989   6.218   2.839
 1956SOL    HW2 6768   5.077   6.154   2.718
 1957SOL     OW 6769   0.127   5.916   4.810
 1957SOL    HW1 6770   0.109   5.926   4.908
 1957SOL    HW2 6771   0.045   5.943   4.758
 1958SOL     OW 6772   5.585   3.412   4.882
 1958SOL    HW1 6773   5.672   3.451   4.853
 1958SOL    HW2 6774   5.511   3.477   4.861
 1959SOL     OW 6775   0.959   2.667   5.819
 1959SOL    HW1 6776   0.887   2.665   5.749
 1959SOL    HW2 6777   1.001   2.576   5.826
 1960SOL     OW 6778   6.217   4.745   0.885
 1960SOL    HW1 6779   6.193   4.777   0.794
 1960SOL    HW2 6780   6.313   4.767   0.905
 1961SOL     OW 6781   5.820   4.819   4.071
 1961SOL    HW1 6782   5.905   4.772   4.095
 1961SOL    HW2 6783   5.769   4.838   4.155
 1962SOL     OW 6784   1.388   6.204   3.748
 1962SOL    HW1 6785   1.456   6.180   3.817
 1962SOL    HW2 6786   1.412   6.163   3.660
 1963SOL     OW 6787   0.644   0.513   2.011
 1963SOL    HW1 6788   0.708   0.440   2.034
 1963SOL    HW2 6789   0.678   0.600   2.048
 1964SOL     OW 6790   4.692   2.767   1.624
 1964SOL    HW1 6791   4.600   2.785   1.660
 1964SOL    HW2 6792   4.750   2.847   1.638
 1965SOL     OW 6793   0.459   3.389   2.483
 1965SOL    HW1 6794   0.524   3.317   2.463
 1965SOL    HW2 6795   0.419   3.424   2.398
 1966SOL     OW 6796   0.337   4.839   4.477
 1966SOL    HW1 6797   0.303   4.933   4.473
 1966SOL    HW2 6798   0.415   4.828   4.416
 1967SOL     OW 6799   5.085   2.758   5.831
 1967SOL    HW1 6800   5.012   2.705   5.788
 1967SOL    HW2 6801   5.050   2.849   5.855
 1968SOL     OW 6802   2.650   5.863   6.875
 1968SOL    HW1 6803   2.559   5.903   6.872
 1968SOL    HW2 6804   2.674   5.827   6.784
 1969SOL     OW 6805   6.909   2.372   1.755
 1969SOL    HW1 6806   6.995   2.418   1.736
 1969SOL    HW2 6807   6.925   2.295   1.816
 1970SOL     OW 6808   1.537   0.410   5.909
 1970SOL    HW1 6809   1.634   0.422   5.887
 1970SOL    HW2 6810   1.487   0.384   5.826
 1971SOL     OW 6811   6.892   0.044   6.562
 1971SOL    HW1 6812   6.835   0.043   6.644
 1971SOL    HW2 6813   6.834   0.040   6.481
 1972SOL     OW 6814   0.418   3.340   3.625
 1972SOL    HW1 6815   0.494   3.355   3.688
 1972SOL    HW2 6816   0.336   3.317   3.676
 1973SOL     OW 6817   3.578   2.714   1.778
 1973SOL    HW1 6818   3.585   2.757   1.688
 1973SOL    HW2 6819   3.503   2.756   1.829
 1974SOL     OW 6820   6.073   6.280   4.103
 1974SOL    HW1 6821   6.104   6.314   4.192
 1974SOL    HW2 6822   6.022   6.195   4.117
 1975SOL     OW 6823   1.938   0.729   4.071
 1975SOL    HW1 6824   1.874   0.690   4.137
 1975SOL    HW2 6825   1.952   0.665   3.996
 1976SOL     OW 6826   0.356   6.128   0.406
 1976SOL    HW1 6827   0.432   6.073   0.439
 1976SOL    HW2 6828   0.307   6.079   0.335
 1977SOL     OW 6829   0.867   2.967   3.688
 1977SOL    HW1 6830   0.899   2.885   3.642
 1977SOL    HW2 6831   0.799   2.941   3.758
 1978SOL     OW 6832   0.864   1.636   4.258
 1978SOL    HW1 6833   0.925   1.620   4.336
 1978SOL    HW2 6834   0.773   1.660   4.292
 1979SOL     OW 6835   6.767   4.565   4.869
 1979SOL    HW1 6836   6.750   4.544   4.965
 1979SOL    HW2 6837   6.699   4.630   4.836
 1980SOL     OW 6838   3.355   0.453   0.682
 1980SOL    HW1 6839   3.308   0.464   0.769
 1980SOL    HW2 6840   3.325   0.524   0.619
 1981SOL     OW 6841   5.475   2.396   2.789
 1981SOL    HW1 6842   5.472   2.445   2.701
 1981SOL    HW2 6843   5.394   2.338   2.798
 1982SOL     OW 6844   6.148   5.236   5.262
 1982SOL    HW1 6845   6.123   5.261   5.169
 1982SOL    HW2 6846   6.244   5.260   5.279
 1983SOL     OW 6847   1.495   2.349   3.384
 1983SOL    HW1 6848   1.575   2.361   3.327
 1983SOL    HW2 6849   1.514   2.283   3.456
 1984SOL     OW 6850   4.324   2.004   6.337
 1984SOL    HW1 6851   4.236   2.005   6.385
 1984SOL    HW2 6852   4.313   2.041   6.245
 1985SOL     OW 6853   0.925   1.465   2.252
 1985SOL    HW1 6854   0.982   1.409   2.311
 1985SOL    HW2 6855   0.925   1.428   2.159
 1986SOL     OW 6856   1.117   1.802   6.810
 1986SOL    HW1 6857   1.094   1.877   6.872
 1986SOL    HW2 6858   1.160   1.838   6.728
 1987SOL     OW 6859   2.918   3.000   1.757
 1987SOL    HW1 6860   2.967   2.914   1.740
 1987SOL    HW2 6861   2.983   3.068   1.790
 1988SOL     OW 6862   4.999   4.336   6.966
 1988SOL    HW1 6863   5.091   4.346   7.005
 1988SOL    HW2 6864   4.967   4.243   6.981
 1989SOL     OW 6865   2.204   0.550   4.714
 1989SOL    HW1 6866   2.228   0.644   4.738
 1989SOL    HW2 6867   2.226   0.534   4.618
 1990SOL     OW 6868   3.184   0.431   1.719
 1990SOL    HW1 6869   3.155   0.421   1.814
 1990SOL    HW2 6870   3.143   0.358   1.664
 1991SOL     OW 6871   3.726   5.366   5.968
 1991SOL    HW1 6872   3.669   5.403   5.895
 1991SOL    HW2 6873   3.674   5.368   6.054
 1992SOL     OW 6874   3.182   0.096   5.280
 1992SOL    HW1 6875   3.111   0.143   5.333
 1992SOL    HW2 6876   3.270   0.141   5.295
 1993SOL     OW 6877   3.602   3.587   5.499
 1993SOL    HW1 6878   3.507   3.598   5.469
 1993SOL    HW2 6879   3.658   3.659   5.456
 1994SOL     OW 6880   0.312   2.050   2.266
 1994SOL    HW1 6881   0.282   2.135   2.222
 1994SOL    HW2 6882   0.355   1.991   2.198
 1995SOL     OW 6883   6.518   2.034   2.383
 1995SOL    HW1 6884   6.488   1.942   2.408
 1995SOL    HW2 6885   6.438   2.088   2.355
 1996SOL     OW 6886   3.474   2.745   1.024
 1996SOL    HW1 6887   3.568   2.711   1.018
 1996SOL    HW2 6888   3.413   2.684   0.973
 1997SOL     OW 6889   5.879   1.318   4.769
 1997SOL    HW1 6890   5.979   1.308   4.764
 1997SOL    HW2 6891   5.837   1.271   4.691
 1998SOL     OW 6892   2.829   3.689   6.625
 1998SOL    HW1 6893   2.839   3.788   6.616
 1998SOL    HW2 6894   2.765   3.656   6.555
 1999SOL     OW 6895   2.338   0.414   2.239
 1999SOL    HW1 6896   2.374   0.324   2.214
 1999SOL    HW2 6897   2.409   0.465   2.289
 2000SOL     OW 6898   4.237   1.402   4.984
 2000SOL    HW1 6899   4.206   1.372   5.074
 2000SOL    HW2 6900   4.295   1.483   4.994
 2001SOL     OW 6901   3.586   2.184   1.657
 2001SOL    HW1 6902   3.621   2.253   1.721
 2001SOL    HW2 6903   3.493   2.211   1.628
 2002SOL     OW 6904   1.590   6.245   6.239
 2002SOL    HW1 6905   1.514   6.181   6.253
 2002SOL    HW2 6906   1.565   6.312   6.169
 2003SOL     OW 6907   4.906   0.189   3.896
 2003SOL    HW1 6908   4.927   0.132   3.975
 2003SOL    HW2 6909   4.862   0.134   3.826
 2004SOL     OW 6910   4.332   1.090   4.430
 2004SOL    HW1 6911   4.263   1.117   4.497
 2004SOL    HW2 6912   4.331   0.991   4.419
 2005SOL     OW 6913   1.330   5.501   6.651
 2005SOL    HW1 6914   1.414   5.556   6.659
 2005SOL    HW2 6915   1.286   5.520   6.563
 2006SOL     OW 6916   5.050   4.466   3.692
 2006SOL    HW1 6917   4.986   4.415   3.749
 2006SOL    HW2 6918   5.025   4.563   3.691
 2007SOL     OW 6919   5.008   5.311   0.193
 2007SOL    HW1 6920   5.103   5.280   0.178
 2007SOL    HW2 6921   4.997   5.403   0.156
 2008SOL     OW 6922   0.126   5.772   3.594
 2008SOL    HW1 6923   0.038   5.745   3.552
 2008SOL    HW2 6924   0.123   5.755   3.692
 2009SOL     OW 6925   6.327   0.634   1.523
 2009SOL    HW1 6926   6.404   0.669   1.576
 2009SOL    HW2 6927   6.243   0.676   1.555
 2010SOL     OW 6928   1.826   1.015   1.342
 2010SOL    HW1 6929   1.775   1.059   1.268
 2010SOL    HW2 6930   1.848   1.082   1.412
 2011SOL     OW 6931   6.837   2.569   5.054
 2011SOL    HW1 6932   6.877   2.597   5.141
 2011SOL    HW2 6933   6.797   2.649   5.009
 2012SOL     OW 6934   0.899   3.547   1.531
 2012SOL    HW1 6935   0.886   3.629   1.588
 2012SOL    HW2 6936   0.995   3.541   1.504
 2013SOL     OW 6937   5.212   1.587   2.447
 2013SOL    HW1 6938   5.201   1.640   2.531
 2013SOL    HW2 6939   5.204   1.489   2.468
 2014SOL     OW 6940   0.928   5.819   3.296
 2014SOL    HW1 6941   0.893   5.881   3.226
 2014SOL    HW2 6942   1.022   5.793   3.274
 2015SOL     OW 6943   3.318   1.275   0.037
 2015SOL    HW1 6944   3.338   1.373   0.026
 2015SOL    HW2 6945   3.321   1.231   6.972
 2016SOL     OW 6946   1.025   5.277   4.546
 2016SOL    HW1 6947   0.984   5.367   4.563
 2016SOL    HW2 6948   1.082   5.250   4.623
 2017SOL     OW 6949   3.225   6.649   3.514
 2017SOL    HW1 6950   3.316   6.609   3.527
 2017SOL    HW2 6951   3.234   6.749   3.506
 2018SOL     OW 6952   0.200   5.517   5.688
 2018SOL    HW1 6953   0.104   5.525   5.663
 2018SOL    HW2 6954   0.231   5.423   5.676
 2019SOL     OW 6955   5.444   2.910   1.112
 2019SOL    HW1 6956   5.490   2.997   1.100
 2019SOL    HW2 6957   5.414   2.875   1.023
 2020SOL     OW 6958   1.296   5.123   5.210
 2020SOL    HW1 6959   1.383   5.128   5.260
 2020SOL    HW2 6960   1.224   5.167   5.263
 2021SOL     OW 6961   1.988   0.420   2.769
 2021SOL    HW1 6962   2.076   0.403   2.726
 2021SOL    HW2 6963   1.988   0.510   2.812
 2022SOL     OW 6964   1.820   3.576   1.961
 2022SOL    HW1 6965   1.737   3.522   1.947
 2022SOL    HW2 6966   1.818   3.618   2.052
 2023SOL     OW 6967   6.890   1.538   7.002
 2023SOL    HW1 6968   6.882   1.637   6.992
 2023SOL    HW2 6969   6.889   1.514   0.074
 2024SOL     OW 6970   7.003   0.732   2.948
 2024SOL    HW1 6971   0.033   0.784   3.014
 2024SOL    HW2 6972   6.907   0.762   2.953
 2025SOL     OW 6973   1.800   2.114   1.669
 2025SOL    HW1 6974   1.733   2.105   1.596
 2025SOL    HW2 6975   1.867   2.184   1.644
 2026SOL     OW 6976   2.012   2.063   6.193
 2026SOL    HW1 6977   2.070   2.130   6.240
 2026SOL    HW2 6978   2.020   1.974   6.239
 2027SOL     OW 6979   0.723   0.886   1.688
 2027SOL    HW1 6980   0.799   0.900   1.752
 2027SOL    HW2 6981   0.755   0.904   1.595
 2028SOL     OW 6982   3.590   1.389   0.613
 2028SOL    HW1 6983   3.516   1.441   0.570
 2028SOL    HW2 6984   3.636   1.447   0.681
 2029SOL     OW 6985   0.881   0.393   6.699
 2029SOL    HW1 6986   0.810   0.340   6.746
 2029SOL    HW2 6987   0.861   0.490   6.707
 2030SOL     OW 6988   1.610   2.238   3.608
 2030SOL    HW1 6989   1.557   2.154   3.620
 2030SOL    HW2 6990   1.643   2.269   3.698
 2031SOL     OW 6991   5.624   6.039   1.933
 2031SOL    HW1 6992   5.656   6.082   2.017
 2031SOL    HW2 6993   5.605   6.109   1.865
 2032SOL     OW 6994   5.168   6.021   1.061
 2032SOL    HW1 6995   5.151   5.962   1.141
 2032SOL    HW2 6996   5.161   6.117   1.088
 2033SOL     OW 6997   4.208   4.563   6.341
 2033SOL    HW1 6998   4.241   4.517   6.424
 2033SOL    HW2 6999   4.252   4.523   6.261
 2034SOL     OW 7000   1.756   6.341   3.640
 2034SOL    HW1 7001   1.742   6.243   3.630
 2034SOL    HW2 7002   1.845   6.366   3.601
 2035SOL     OW 7003   6.781   2.157   2.611
 2035SOL    HW1 7004   6.829   2.131   2.527
 2035SOL    HW2 7005   6.756   2.254   2.607
 2036SOL     OW 7006   0.358   5.763   1.500
 2036SOL    HW1 7007   0.415   5.767   1.418
 2036SOL    HW2 7008   0.414   5.732   1.578
 2037SOL     OW 7009   6.688   2.468   6.142
 2037SOL    HW1 7010   6.619   2.426   6.201
 2037SOL    HW2 7011   6.665   2.451   6.046
 2038SOL     OW 7012   0.922   1.866   6.551
 2038SOL    HW1 7013   0.884   1.781   6.589
 2038SOL    HW2 7014   0.881   1.944   6.598
 2039SOL     OW 7015   0.392   6.108   3.112
 2039SOL    HW1 7016   0.478   6.081   3.155
 2039SOL    HW2 7017   0.396   6.090   3.014
 2040SOL     OW 7018   3.822   3.042   4.507
 2040SOL    HW1 7019   3.779   3.012   4.422
 2040SOL    HW2 7020   3.911   3.082   4.486
 2041SOL     OW 7021   6.036   5.680   6.494
 2041SOL    HW1 7022   6.112   5.728   6.539
 2041SOL    HW2 7023   6.051   5.581   6.500
 2042SOL     OW 7024   5.972   5.219   0.458
 2042SOL    HW1 7025   5.885   5.180   0.428
 2042SOL    HW2 7026   6.047   5.169   0.415
 2043SOL     OW 7027   6.582   5.408   1.983
 2043SOL    HW1 7028   6.622   5.363   2.063
 2043SOL    HW2 7029   6.521   5.481   2.013
 2044SOL     OW 7030   5.454   0.412   1.754
 2044SOL    HW1 7031   5.554   0.411   1.760
 2044SOL    HW2 7032   5.419   0.320   1.768
 2045SOL     OW 7033   1.454   4.443   5.360
 2045SOL    HW1 7034   1.364   4.408   5.335
 2045SOL    HW2 7035   1.463   4.445   5.460
 2046SOL     OW 7036   6.490   0.725   4.276
 2046SOL    HW1 7037   6.584   0.742   4.244
 2046SOL    HW2 7038   6.449   0.653   4.222
 2047SOL     OW 7039   4.457   1.923   0.881
 2047SOL    HW1 7040   4.505   1.941   0.966
 2047SOL    HW2 7041   4.463   1.825   0.859
 2048SOL     OW 7042   3.373   6.638   0.041
 2048SOL    HW1 7043   3.424   6.644   0.126
 2048SOL    HW2 7044   3.303   6.567   0.048
 2049SOL     OW 7045   4.806   2.508   6.809
 2049SOL    HW1 7046   4.736   2.474   6.872
 2049SOL    HW2 7047   4.813   2.607   6.817
 2050SOL     OW 7048   6.210   2.877   3.658
 2050SOL    HW1 7049   6.136   2.914   3.601
 2050SOL    HW2 7050   6.179   2.792   3.701
 2051SOL     OW 7051   6.952   4.875   6.613
 2051SOL    HW1 7052   6.890   4.863   6.536
 2051SOL    HW2 7053   6.900   4.884   6.698
 2052SOL     OW 7054   0.510   3.113   6.807
 2052SOL    HW1 7055   0.416   3.125   6.775
 2052SOL    HW2 7056   0.571   3.172   6.753
 2053SOL     OW 7057   6.297   0.794   0.791
 2053SOL    HW1 7058   6.237   0.818   0.715
 2053SOL    HW2 7059   6.326   0.699   0.782
 2054SOL     OW 7060   5.525   3.176   1.104
 2054SOL    HW1 7061   5.489   3.179   1.197
 2054SOL    HW2 7062   5.511   3.265   1.060
 2055SOL     OW 7063   5.755   2.939   3.012
 2055SOL    HW1 7064   5.662   2.943   3.051
 2055SOL    HW2 7065   5.785   3.031   2.990
 2056SOL     OW 7066   1.791   1.691   2.479
 2056SOL    HW1 7067   1.841   1.734   2.403
 2056SOL    HW2 7068   1.855   1.639   2.535
 2057SOL     OW 7069   5.629   2.250   3.765
 2057SOL    HW1 7070   5.663   2.283   3.677
 2057SOL    HW2 7071   5.531   2.232   3.758
 2058SOL     OW 7072   1.149   1.558   2.934
 2058SOL    HW1 7073   1.119   1.462   2.927
 2058SOL    HW2 7074   1.125   1.606   2.850
 2059SOL     OW 7075   2.043   6.726   6.744
 2059SOL    HW1 7076   2.052   6.824   6.760
 2059SOL    HW2 7077   2.081   6.704   6.654
 2060SOL     OW 7078   6.984   4.514   0.992
 2060SOL    HW1 7079   0.022   4.555   1.059
 2060SOL    HW2 7080   6.973   4.417   1.012
 2061SOL     OW 7081   0.263   1.550   2.754
 2061SOL    HW1 7082   0.274   1.452   2.737
 2061SOL    HW2 7083   0.260   1.599   2.668
 2062SOL     OW 7084   5.304   0.219   3.249
 2062SOL    HW1 7085   5.204   0.230   3.249
 2062SOL    HW2 7086   5.336   0.214   3.154
 2063SOL     OW 7087   0.512   0.876   6.997
 2063SOL    HW1 7088   0.455   0.903   0.050
 2063SOL    HW2 7089   0.467   0.801   6.948
 2064SOL     OW 7090   1.049   1.858   5.835
 2064SOL    HW1 7091   1.112   1.910   5.778
 2064SOL    HW2 7092   1.101   1.797   5.895
 2065SOL     OW 7093   5.943   3.892   2.115
 2065SOL    HW1 7094   5.920   3.811   2.061
 2065SOL    HW2 7095   5.976   3.964   2.055
 2066SOL     OW 7096   0.670   5.588   3.966
 2066SOL    HW1 7097   0.704   5.665   4.020
 2066SOL    HW2 7098   0.721   5.581   3.881
 2067SOL     OW 7099   0.087   6.464   0.756
 2067SOL    HW1 7100   0.178   6.449   0.793
 2067SOL    HW2 7101   0.023   6.399   0.797
 2068SOL     OW 7102   1.722   1.365   5.403
 2068SOL    HW1 7103   1.806   1.313   5.387
 2068SOL    HW2 7104   1.665   1.363   5.321
 2069SOL     OW 7105   0.296   2.574   3.118
 2069SOL    HW1 7106   0.318   2.497   3.178
 2069SOL    HW2 7107   0.378   2.603   3.069
 2070SOL     OW 7108   1.872   6.981   2.428
 2070SOL    HW1 7109   1.802   6.982   2.499
 2070SOL    HW2 7110   1.902   0.050   2.410
 2071SOL     OW 7111   0.345   6.269   4.680
 2071SOL    HW1 7112   0.397   6.325   4.615
 2071SOL    HW2 7113   0.388   6.179   4.688
 2072SOL     OW 7114   4.204   6.174   1.748
 2072SOL    HW1 7115   4.277   6.242   1.759
 2072SOL    HW2 7116   4.171   6.176   1.653
 2073SOL     OW 7117   3.876   6.591   4.492
 2073SOL    HW1 7118   3.782   6.562   4.471
 2073SOL    HW2 7119   3.876   6.647   4.574
 2074SOL     OW 7120   0.695   2.018   6.666
 2074SOL    HW1 7121   0.697   1.999   6.567
 2074SOL    HW2 7122   0.624   1.963   6.709
 2075SOL     OW 7123   5.294   2.871   1.358
 2075SOL    HW1 7124   5.230   2.941   1.390
 2075SOL    HW2 7125   5.330   2.897   1.268
 2076SOL     OW 7126   5.241   6.272   0.030
 2076SOL    HW1 7127   5.302   6.311   0.099
 2076SOL    HW2 7128   5.147   6.298   0.050
 2077SOL     OW 7129   5.286   2.824   1.920
 2077SOL    HW1 7130   5.268   2.803   2.016
 2077SOL    HW2 7131   5.274   2.741   1.865
 2078SOL     OW 7132   2.560   6.110   6.242
 2078SOL    HW1 7133   2.616   6.087   6.162
 2078SOL    HW2 7134   2.485   6.044   6.251
 2079SOL     OW 7135   5.615   1.456   3.399
 2079SOL    HW1 7136   5.523   1.447   3.437
 2079SOL    HW2 7137   5.613   1.432   3.302
 2080SOL     OW 7138   2.379   1.424   4.972
 2080SOL    HW1 7139   2.290   1.386   4.950
 2080SOL    HW2 7140   2.393   1.509   4.921
 2081SOL     OW 7141   1.506   5.837   4.985
 2081SOL    HW1 7142   1.481   5.933   4.998
 2081SOL    HW2 7143   1.471   5.806   4.896
 2082SOL     OW 7144   5.909   0.491   2.204
 2082SOL    HW1 7145   5.913   0.443   2.292
 2082SOL    HW2 7146   5.998   0.532   2.184
 2083SOL     OW 7147   4.145   4.171   6.490
 2083SOL    HW1 7148   4.079   4.120   6.545
 2083SOL    HW2 7149   4.212   4.108   6.451
 2084SOL     OW 7150   6.745   3.491   4.032
 2084SOL    HW1 7151   6.733   3.589   4.018
 2084SOL    HW2 7152   6.672   3.441   3.985
 2085SOL     OW 7153   5.247   0.820   6.864
 2085SOL    HW1 7154   5.222   0.913   6.893
 2085SOL    HW2 7155   5.185   0.789   6.793
 2086SOL     OW 7156   2.764   5.796   6.027
 2086SOL    HW1 7157   2.771   5.819   6.124
 2086SOL    HW2 7158   2.715   5.869   5.979
 2087SOL     OW 7159   4.727   6.764   1.713
 2087SOL    HW1 7160   4.745   6.684   1.770
 2087SOL    HW2 7161   4.683   6.835   1.769
 2088SOL     OW 7162   2.939   5.163   0.642
 2088SOL    HW1 7163   2.947   5.217   0.726
 2088SOL    HW2 7164   2.880   5.210   0.578
 2089SOL     OW 7165   4.003   1.558   0.226
 2089SOL    HW1 7166   4.102   1.548   0.234
 2089SOL    HW2 7167   3.971   1.506   0.147
 2090SOL     OW 7168   4.130   3.233   4.709
 2090SOL    HW1 7169   4.219   3.216   4.752
 2090SOL    HW2 7170   4.102   3.328   4.727
 2091SOL     OW 7171   0.237   6.556   6.956
 2091SOL    HW1 7172   0.182   6.595   0.005
 2091SOL    HW2 7173   0.291   6.479   6.992
 2092SOL     OW 7174   4.959   5.625   0.772
 2092SOL    HW1 7175   4.947   5.582   0.682
 2092SOL    HW2 7176   5.046   5.675   0.773
 2093SOL     OW 7177   1.560   2.063   1.507
 2093SOL    HW1 7178   1.497   2.135   1.478
 2093SOL    HW2 7179   1.578   2.001   1.431
 2094SOL     OW 7180   6.174   1.783   1.618
 2094SOL    HW1 7181   6.097   1.776   1.682
 2094SOL    HW2 7182   6.258   1.805   1.668
 2095SOL     OW 7183   6.086   0.163   3.889
 2095SOL    HW1 7184   6.005   0.200   3.843
 2095SOL    HW2 7185   6.128   0.235   3.944
 2096SOL     OW 7186   4.887   3.652   2.646
 2096SOL    HW1 7187   4.849   3.724   2.589
 2096SOL    HW2 7188   4.884   3.680   2.742
 2097SOL     OW 7189   1.191   2.860   6.862
 2097SOL    HW1 7190   1.114   2.831   6.805
 2097SOL    HW2 7191   1.271   2.874   6.804
 2098SOL     OW 7192   3.607   5.520   3.400
 2098SOL    HW1 7193   3.595   5.546   3.304
 2098SOL    HW2 7194   3.533   5.458   3.427
 2099SOL     OW 7195   2.300   2.374   4.895
 2099SOL    HW1 7196   2.211   2.415   4.914
 2099SOL    HW2 7197   2.291   2.305   4.823
 2100SOL     OW 7198   3.738   3.988   6.213
 2100SOL    HW1 7199   3.656   3.963   6.263
 2100SOL    HW2 7200   3.755   3.921   6.141
 2101SOL     OW 7201   1.560   6.303   2.310
 2101SOL    HW1 7202   1.469   6.276   2.280
 2101SOL    HW2 7203   1.603   6.227   2.359
 2102SOL     OW 7204   0.621   5.119   1.887
 2102SOL    HW1 7205   0.690   5.103   1.957
 2102SOL    HW2 7206   0.580   5.209   1.900
 2103SOL     OW 7207   3.063   3.855   6.843
 2103SOL    HW1 7208   3.117   3.774   6.818
 2103SOL    HW2 7209   2.971   3.846   6.805
 2104SOL     OW 7210   1.144   3.456   6.623
 2104SOL    HW1 7211   1.159   3.386   6.693
 2104SOL    HW2 7212   1.228   3.507   6.607
 2105SOL     OW 7213   5.688   5.191   3.775
 2105SOL    HW1 7214   5.646   5.111   3.817
 2105SOL    HW2 7215   5.758   5.227   3.835
 2106SOL     OW 7216   4.092   4.871   0.179
 2106SOL    HW1 7217   4.027   4.931   0.225
 2106SOL    HW2 7218   4.153   4.926   0.122
 2107SOL     OW 7219   4.293   2.949   5.659
 2107SOL    HW1 7220   4.280   2.854   5.688
 2107SOL    HW2 7221   4.386   2.979   5.682
 2108SOL     OW 7222   6.728   6.856   5.853
 2108SOL    HW1 7223   6.725   6.867   5.754
 2108SOL    HW2 7224   6.634   6.858   5.889
 2109SOL     OW 7225   5.251   6.324   3.504
 2109SOL    HW1 7226   5.287   6.254   3.565
 2109SOL    HW2 7227   5.314   6.402   3.502
 2110SOL     OW 7228   3.199   3.784   6.012
 2110SOL    HW1 7229   3.244   3.806   5.926
 2110SOL    HW2 7230   3.112   3.738   5.995
 2111SOL     OW 7231   0.143   1.778   6.753
 2111SOL    HW1 7232   0.071   1.805   6.689
 2111SOL    HW2 7233   0.132   1.682   6.776
 2112SOL     OW 7234   4.409   1.923   1.187
 2112SOL    HW1 7235   4.366   2.003   1.228
 2112SOL    HW2 7236   4.341   1.869   1.138
 2113SOL     OW 7237   1.216   0.175   3.936
 2113SOL    HW1 7238   1.249   0.134   4.021
 2113SOL    HW2 7239   1.118   0.160   3.927
 2114SOL     OW 7240   1.667   2.783   0.679
 2114SOL    HW1 7241   1.724   2.718   0.729
 2114SOL    HW2 7242   1.725   2.845   0.626
 2115SOL     OW 7243   1.889   4.617   2.990
 2115SOL    HW1 7244   1.986   4.601   2.974
 2115SOL    HW2 7245   1.876   4.652   3.083
 2116SOL     OW 7246   6.920   4.956   3.112
 2116SOL    HW1 7247   7.013   4.954   3.078
 2116SOL    HW2 7248   6.920   4.989   3.207
 2117SOL     OW 7249   0.167   4.879   1.171
 2117SOL    HW1 7250   0.252   4.865   1.120
 2117SOL    HW2 7251   0.097   4.915   1.109
 2118SOL     OW 7252   0.274   3.664   2.492
 2118SOL    HW1 7253   0.294   3.673   2.589
 2118SOL    HW2 7254   0.307   3.576   2.459
 2119SOL     OW 7255   2.397   5.518   0.874
 2119SOL    HW1 7256   2.467   5.469   0.927
 2119SOL    HW2 7257   2.320   5.540   0.933
 2120SOL     OW 7258   6.777   5.344   3.604
 2120SOL    HW1 7259   6.774   5.404   3.524
 2120SOL    HW2 7260   6.696   5.358   3.659
 2121SOL     OW 7261   1.131   4.573   5.919
 2121SOL    HW1 7262   1.152   4.538   5.827
 2121SOL    HW2 7263   1.128   4.673   5.916
 2122SOL     OW 7264   5.935   4.329   5.547
 2122SOL    HW1 7265   5.929   4.302   5.451
 2122SOL    HW2 7266   5.843   4.351   5.582
 2123SOL     OW 7267   0.304   4.385   2.685
 2123SOL    HW1 7268   0.253   4.311   2.730
 2123SOL    HW2 7269   0.375   4.418   2.747
 2124SOL     OW 7270   2.237   1.179   1.563
 2124SOL    HW1 7271   2.282   1.209   1.479
 2124SOL    HW2 7272   2.179   1.100   1.543
 2125SOL     OW 7273   1.530   0.174   0.435
 2125SOL    HW1 7274   1.520   0.106   0.507
 2125SOL    HW2 7275   1.537   0.128   0.346
 2126SOL     OW 7276   3.300   0.580   1.206
 2126SOL    HW1 7277   3.263   0.541   1.121
 2126SOL    HW2 7278   3.241   0.655   1.236
 2127SOL     OW 7279   6.038   3.346   4.619
 2127SOL    HW1 7280   6.110   3.302   4.566
 2127SOL    HW2 7281   5.981   3.401   4.558
 2128SOL     OW 7282   0.067   3.574   4.739
 2128SOL    HW1 7283   0.080   3.654   4.799
 2128SOL    HW2 7284   0.016   3.602   4.658
 2129SOL     OW 7285   4.323   2.962   5.404
 2129SOL    HW1 7286   4.275   2.897   5.345
 2129SOL    HW2 7287   4.319   2.931   5.499
 2130SOL     OW 7288   5.008   0.051   3.065
 2130SOL    HW1 7289   4.941   7.014   3.106
 2130SOL    HW2 7290   5.048   0.008   2.984
 2131SOL     OW 7291   6.848   0.937   1.298
 2131SOL    HW1 7292   6.932   0.989   1.311
 2131SOL    HW2 7293   6.858   0.878   1.217
 2132SOL     OW 7294   4.532   2.450   1.410
 2132SOL    HW1 7295   4.541   2.377   1.343
 2132SOL    HW2 7296   4.532   2.412   1.502
 2133SOL     OW 7297   2.900   2.954   5.644
 2133SOL    HW1 7298   2.883   3.004   5.559
 2133SOL    HW2 7299   2.987   2.907   5.638
 2134SOL     OW 7300   0.490   2.347   0.895
 2134SOL    HW1 7301   0.491   2.286   0.816
 2134SOL    HW2 7302   0.584   2.369   0.921
 2135SOL     OW 7303   0.906   4.052   4.352
 2135SOL    HW1 7304   0.820   4.011   4.382
 2135SOL    HW2 7305   0.888   4.142   4.311
 2136SOL     OW 7306   2.497   4.950   2.544
 2136SOL    HW1 7307   2.580   4.906   2.509
 2136SOL    HW2 7308   2.461   5.012   2.475
 2137SOL     OW 7309   2.822   5.171   5.473
 2137SOL    HW1 7310   2.841   5.266   5.447
 2137SOL    HW2 7311   2.824   5.113   5.391
 2138SOL     OW 7312   6.007   0.323   2.755
 2138SOL    HW1 7313   5.980   0.409   2.797
 2138SOL    HW2 7314   5.937   0.254   2.774
 2139SOL     OW 7315   3.920   0.610   4.355
 2139SOL    HW1 7316   3.902   0.677   4.283
 2139SOL    HW2 7317   4.017   0.588   4.356
 2140SOL     OW 7318   3.066   6.498   4.152
 2140SOL    HW1 7319   3.047   6.489   4.055
 2140SOL    HW2 7320   3.001   6.444   4.204
 2141SOL     OW 7321   6.128   3.199   2.125
 2141SOL    HW1 7322   6.160   3.191   2.220
 2141SOL    HW2 7323   6.137   3.111   2.079
 2142SOL     OW 7324   0.559   1.602   3.696
 2142SOL    HW1 7325   0.556   1.587   3.597
 2142SOL    HW2 7326   0.606   1.688   3.715
 2143SOL     OW 7327   1.987   4.990   1.065
 2143SOL    HW1 7328   2.019   4.896   1.078
 2143SOL    HW2 7329   2.062   5.046   1.030
 2144SOL     OW 7330   0.616   4.869   4.406
 2144SOL    HW1 7331   0.647   4.946   4.463
 2144SOL    HW2 7332   0.618   4.897   4.310
 2145SOL     OW 7333   4.219   6.747   4.113
 2145SOL    HW1 7334   4.161   6.753   4.032
 2145SOL    HW2 7335   4.163   6.726   4.193
 2146SOL     OW 7336   2.143   2.323   1.011
 2146SOL    HW1 7337   2.169   2.371   1.095
 2146SOL    HW2 7338   2.052   2.284   1.022
 2147SOL     OW 7339   6.212   1.654   6.689
 2147SOL    HW1 7340   6.197   1.563   6.649
 2147SOL    HW2 7341   6.134   1.677   6.748
 2148SOL     OW 7342   6.780   3.475   6.678
 2148SOL    HW1 7343   6.733   3.485   6.766
 2148SOL    HW2 7344   6.722   3.508   6.604
 2149SOL     OW 7345   1.665   1.260   1.278
 2149SOL    HW1 7346   1.571   1.278   1.307
 2149SOL    HW2 7347   1.725   1.260   1.358
 2150SOL     OW 7348   2.773   2.015   1.605
 2150SOL    HW1 7349   2.844   1.991   1.539
 2150SOL    HW2 7350   2.816   2.046   1.690
 2151SOL     OW 7351   0.943   6.513   6.541
 2151SOL    HW1 7352   0.944   6.572   6.622
 2151SOL    HW2 7353   0.896   6.427   6.562
 2152SOL     OW 7354   4.006   4.882   2.583
 2152SOL    HW1 7355   4.056   4.941   2.646
 2152SOL    HW2 7356   3.980   4.935   2.501
 2153SOL     OW 7357   5.080   1.766   2.038
 2153SOL    HW1 7358   5.128   1.692   1.990
 2153SOL    HW2 7359   4.991   1.782   1.995
 2154SOL     OW 7360   2.382   0.183   4.280
 2154SOL    HW1 7361   2.376   0.232   4.367
 2154SOL    HW2 7362   2.466   0.209   4.233
 2155SOL     OW 7363   4.139   6.833   1.079
 2155SOL    HW1 7364   4.097   6.744   1.100
 2155SOL    HW2 7365   4.151   6.841   0.980
 2156SOL     OW 7366   6.678   0.163   4.638
 2156SOL    HW1 7367   6.729   0.091   4.685
 2156SOL    HW2 7368   6.619   0.210   4.703
 2157SOL     OW 7369   4.885   5.840   3.821
 2157SOL    HW1 7370   4.933   5.883   3.898
 2157SOL    HW2 7371   4.829   5.908   3.775
 2158SOL     OW 7372   3.823   5.642   0.668
 2158SOL    HW1 7373   3.832   5.557   0.616
 2158SOL    HW2 7374   3.821   5.620   0.766
 2159SOL     OW 7375   1.522   0.492   5.215
 2159SOL    HW1 7376   1.620   0.470   5.216
 2159SOL    HW2 7377   1.506   0.573   5.271
 2160SOL     OW 7378   5.239   4.793   6.431
 2160SOL    HW1 7379   5.195   4.723   6.375
 2160SOL    HW2 7380   5.296   4.851   6.374
 2161SOL     OW 7381   6.784   4.158   1.947
 2161SOL    HW1 7382   6.765   4.090   1.876
 2161SOL    HW2 7383   6.844   4.229   1.909
 2162SOL     OW 7384   2.686   0.032   2.997
 2162SOL    HW1 7385   2.735   0.069   2.918
 2162SOL    HW2 7386   2.751   7.018   3.061
 2163SOL     OW 7387   1.775   4.251   0.771
 2163SOL    HW1 7388   1.704   4.309   0.732
 2163SOL    HW2 7389   1.750   4.155   0.758
 2164SOL     OW 7390   2.385   2.220   6.929
 2164SOL    HW1 7391   2.330   2.289   6.881
 2164SOL    HW2 7392   2.479   2.253   6.937
 2165SOL     OW 7393   0.581   2.255   3.973
 2165SOL    HW1 7394   0.590   2.196   3.892
 2165SOL    HW2 7395   0.538   2.203   4.047
 2166SOL     OW 7396   0.745   3.595   4.665
 2166SOL    HW1 7397   0.740   3.512   4.609
 2166SOL    HW2 7398   0.833   3.599   4.711
 2167SOL     OW 7399   0.052   2.934   3.810
 2167SOL    HW1 7400   7.007   2.930   3.882
 2167SOL    HW2 7401   0.019   2.884   3.730
 2168SOL     OW 7402   1.005   1.612   2.675
 2168SOL    HW1 7403   0.977   1.699   2.714
 2168SOL    HW2 7404   0.935   1.578   2.613
 2169SOL     OW 7405   0.235   0.418   1.050
 2169SOL    HW1 7406   0.254   0.440   0.954
 2169SOL    HW2 7407   0.221   0.319   1.059
 2170SOL     OW 7408   6.936   3.924   4.630
 2170SOL    HW1 7409   6.955   3.892   4.538
 2170SOL    HW2 7410   6.928   3.846   4.692
 2171SOL     OW 7411   0.535   5.541   1.505
 2171SOL    HW1 7412   0.564   5.592   1.425
 2171SOL    HW2 7413   0.567   5.446   1.498
 2172SOL     OW 7414   2.136   2.169   5.944
 2172SOL    HW1 7415   2.073   2.243   5.923
 2172SOL    HW2 7416   2.120   2.137   6.037
 2173SOL     OW 7417   4.451   0.300   5.918
 2173SOL    HW1 7418   4.512   0.352   5.858
 2173SOL    HW2 7419   4.456   0.203   5.894
 2174SOL     OW 7420   6.610   6.555   5.129
 2174SOL    HW1 7421   6.588   6.575   5.224
 2174SOL    HW2 7422   6.709   6.548   5.118
 2175SOL     OW 7423   1.674   2.666   4.856
 2175SOL    HW1 7424   1.726   2.751   4.858
 2175SOL    HW2 7425   1.689   2.619   4.769
 2176SOL     OW 7426   5.075   1.412   1.241
 2176SOL    HW1 7427   5.109   1.326   1.203
 2176SOL    HW2 7428   5.065   1.479   1.168
 2177SOL     OW 7429   6.615   0.739   2.292
 2177SOL    HW1 7430   6.666   0.653   2.297
 2177SOL    HW2 7431   6.519   0.720   2.275
 2178SOL     OW 7432   1.103   1.314   2.422
 2178SOL    HW1 7433   1.153   1.326   2.508
 2178SOL    HW2 7434   1.166   1.323   2.345
 2179SOL     OW 7435   2.096   3.264   6.154
 2179SOL    HW1 7436   2.080   3.337   6.087
 2179SOL    HW2 7437   2.057   3.179   6.121
 2180SOL     OW 7438   1.588   2.880   2.448
 2180SOL    HW1 7439   1.615   2.798   2.398
 2180SOL    HW2 7440   1.630   2.879   2.538
 2181SOL     OW 7441   4.469   5.030   4.268
 2181SOL    HW1 7442   4.524   5.005   4.188
 2181SOL    HW2 7443   4.375   5.050   4.239
 2182SOL     OW 7444   0.931   5.105   3.733
 2182SOL    HW1 7445   1.001   5.161   3.688
 2182SOL    HW2 7446   0.952   5.097   3.830
 2183SOL     OW 7447   2.560   3.989   0.178
 2183SOL    HW1 7448   2.495   3.981   0.254
 2183SOL    HW2 7449   2.564   3.902   0.129
 2184SOL     OW 7450   4.316   6.956   6.472
 2184SOL    HW1 7451   4.371   6.993   6.397
 2184SOL    HW2 7452   4.255   0.002   6.508
 2185SOL     OW 7453   1.155   1.172   6.552
 2185SOL    HW1 7454   1.195   1.214   6.633
 2185SOL    HW2 7455   1.225   1.120   6.503
 2186SOL     OW 7456   6.029   6.096   6.526
 2186SOL    HW1 7457   6.101   6.164   6.516
 2186SOL    HW2 7458   6.008   6.084   6.623
 2187SOL     OW 7459   7.024   6.513   2.341
 2187SOL    HW1 7460   6.975   6.513   2.428
 2187SOL    HW2 7461   6.987   6.441   2.282
 2188SOL     OW 7462   1.794   5.123   5.564
 2188SOL    HW1 7463   1.848   5.164   5.490
 2188SOL    HW2 7464   1.842   5.136   5.651
 2189SOL     OW 7465   1.683   0.440   2.036
 2189SOL    HW1 7466   1.599   0.488   2.061
 2189SOL    HW2 7467   1.723   0.483   1.955
 2190SOL     OW 7468   6.772   3.168   1.727
 2190SOL    HW1 7469   6.713   3.153   1.806
 2190SOL    HW2 7470   6.853   3.109   1.733
 2191SOL     OW 7471   2.718   1.322   5.614
 2191SOL    HW1 7472   2.790   1.385   5.585
 2191SOL    HW2 7473   2.628   1.365   5.601
 2192SOL     OW 7474   5.046   0.382   2.613
 2192SOL    HW1 7475   5.126   0.356   2.559
 2192SOL    HW2 7476   5.064   0.467   2.661
 2193SOL     OW 7477   7.014   0.279   6.256
 2193SOL    HW1 7478   0.048   0.360   6.267
 2193SOL    HW2 7479   0.011   0.212   6.327
 2194SOL     OW 7480   1.286   4.059   6.375
 2194SOL    HW1 7481   1.249   4.116   6.302
 2194SOL    HW2 7482   1.378   4.090   6.399
 2195SOL     OW 7483   0.066   6.474   5.364
 2195SOL    HW1 7484   7.022   6.507   5.428
 2195SOL    HW2 7485   0.116   6.397   5.405
 2196SOL     OW 7486   3.057   6.407   4.840
 2196SOL    HW1 7487   3.102   6.496   4.855
 2196SOL    HW2 7488   3.058   6.385   4.743
 2197SOL     OW 7489   3.065   3.459   6.502
 2197SOL    HW1 7490   3.054   3.434   6.406
 2197SOL    HW2 7491   2.997   3.411   6.558
 2198SOL     OW 7492   6.239   0.149   1.202
 2198SOL    HW1 7493   6.301   0.133   1.278
 2198SOL    HW2 7494   6.284   0.122   1.116
 2199SOL     OW 7495   5.196   0.315   4.389
 2199SOL    HW1 7496   5.141   0.363   4.458
 2199SOL    HW2 7497   5.292   0.320   4.414
 2200SOL     OW 7498   2.468   1.614   3.774
 2200SOL    HW1 7499   2.529   1.616   3.695
 2200SOL    HW2 7500   2.426   1.705   3.786
 2201SOL     OW 7501   6.326   2.749   2.591
 2201SOL    HW1 7502   6.256   2.790   2.650
 2201SOL    HW2 7503   6.416   2.765   2.632
 2202SOL     OW 7504   3.363   5.753   1.929
 2202SOL    HW1 7505   3.366   5.654   1.936
 2202SOL    HW2 7506   3.377   5.794   2.019
 2203SOL     OW 7507   2.796   3.272   1.337
 2203SOL    HW1 7508   2.862   3.346   1.341
 2203SOL    HW2 7509   2.834   3.191   1.381
 2204SOL     OW 7510   4.281   2.584   1.001
 2204SOL    HW1 7511   4.241   2.558   1.088
 2204SOL    HW2 7512   4.379   2.564   1.002
 2205SOL     OW 7513   1.196   0.192   0.048
 2205SOL    HW1 7514   1.262   0.137   7.021
 2205SOL    HW2 7515   1.230   0.206   0.141
 2206SOL     OW 7516   2.649   4.639   5.803
 2206SOL    HW1 7517   2.620   4.593   5.719
 2206SOL    HW2 7518   2.745   4.667   5.794
 2207SOL     OW 7519   3.412   4.543   0.004
 2207SOL    HW1 7520   3.431   4.449   0.031
 2207SOL    HW2 7521   3.359   4.543   6.943
 2208SOL     OW 7522   0.949   4.977   2.968
 2208SOL    HW1 7523   0.912   5.025   2.888
 2208SOL    HW2 7524   0.921   5.024   3.051
 2209SOL     OW 7525   2.625   6.793   4.788
 2209SOL    HW1 7526   2.578   6.776   4.702
 2209SOL    HW2 7527   2.720   6.760   4.782
 2210SOL     OW 7528   6.548   5.482   2.802
 2210SOL    HW1 7529   6.622   5.543   2.775
 2210SOL    HW2 7530   6.515   5.431   2.722
 2211SOL     OW 7531   6.598   0.806   0.644
 2211SOL    HW1 7532   6.553   0.718   0.663
 2211SOL    HW2 7533   6.543   0.880   0.682
 2212SOL     OW 7534   1.383   5.591   0.072
 2212SOL    HW1 7535   1.358   5.604   0.168
 2212SOL    HW2 7536   1.461   5.528   0.066
 2213SOL     OW 7537   4.071   2.637   5.572
 2213SOL    HW1 7538   4.013   2.711   5.538
 2213SOL    HW2 7539   4.048   2.618   5.667
 2214SOL     OW 7540   3.187   3.497   5.194
 2214SOL    HW1 7541   3.192   3.579   5.136
 2214SOL    HW2 7542   3.116   3.436   5.159
 2215SOL     OW 7543   5.885   1.034   6.563
 2215SOL    HW1 7544   5.818   1.000   6.628
 2215SOL    HW2 7545   5.849   1.027   6.470
 2216SOL     OW 7546   0.288   7.023   5.956
 2216SOL    HW1 7547   0.379   6.991   5.928
 2216SOL    HW2 7548   0.250   6.960   6.024
 2217SOL     OW 7549   4.693   0.321   2.962
 2217SOL    HW1 7550   4.648   0.383   2.898
 2217SOL    HW2 7551   4.792   0.336   2.959
 2218SOL     OW 7552   6.824   5.081   0.160
 2218SOL    HW1 7553   6.834   5.166   0.107
 2218SOL    HW2 7554   6.788   5.009   0.100
 2219SOL     OW 7555   6.017   1.916   1.124
 2219SOL    HW1 7556   6.018   1.856   1.044
 2219SOL    HW2 7557   6.111   1.938   1.150
 2220SOL     OW 7558   1.716   5.654   5.731
 2220SOL    HW1 7559   1.685   5.747   5.710
 2220SOL    HW2 7560   1.671   5.589   5.669
 2221SOL     OW 7561   6.346   1.523   4.947
 2221SOL    HW1 7562   6.330   1.530   5.046
 2221SOL    HW2 7563   6.348   1.615   4.907
 2222SOL     OW 7564   6.193   0.366   0.972
 2222SOL    HW1 7565   6.200   0.366   0.873
 2222SOL    HW2 7566   6.263   0.427   1.011
 2223SOL     OW 7567   5.754   0.936   6.331
 2223SOL    HW1 7568   5.797   0.846   6.321
 2223SOL    HW2 7569   5.675   0.941   6.270
 2224SOL     OW 7570   6.018   3.613   1.207
 2224SOL    HW1 7571   6.076   3.596   1.287
 2224SOL    HW2 7572   6.066   3.584   1.124
 2225SOL     OW 7573   6.497   6.710   3.530
 2225SOL    HW1 7574   6.414   6.733   3.581
 2225SOL    HW2 7575   6.542   6.631   3.571
 2226SOL     OW 7576   3.498   5.607   1.204
 2226SOL    HW1 7577   3.465   5.667   1.131
 2226SOL    HW2 7578   3.537   5.524   1.164
 2227SOL     OW 7579   5.316   2.560   1.276
 2227SOL    HW1 7580   5.231   2.508   1.265
 2227SOL    HW2 7581   5.295   2.650   1.315
 2228SOL     OW 7582   3.746   5.133   0.189
 2228SOL    HW1 7583   3.824   5.152   0.129
 2228SOL    HW2 7584   3.668   5.188   0.161
 2229SOL     OW 7585   3.826   3.210   5.348
 2229SOL    HW1 7586   3.795   3.259   5.266
 2229SOL    HW2 7587   3.792   3.257   5.429
 2230SOL     OW 7588   5.279   6.895   0.961
 2230SOL    HW1 7589   5.193   6.869   1.006
 2230SOL    HW2 7590   5.338   6.814   0.954
 2231SOL     OW 7591   0.084   0.690   0.453
 2231SOL    HW1 7592   0.016   0.679   0.526
 2231SOL    HW2 7593   0.053   0.760   0.390
 2232SOL     OW 7594   1.499   1.309   4.910
 2232SOL    HW1 7595   1.566   1.383   4.909
 2232SOL    HW2 7596   1.527   1.238   4.845
 2233SOL     OW 7597   2.694   2.845   0.616
 2233SOL    HW1 7598   2.674   2.781   0.691
 2233SOL    HW2 7599   2.613   2.900   0.598
 2234SOL     OW 7600   3.397   1.488   0.940
 2234SOL    HW1 7601   3.472   1.518   0.880
 2234SOL    HW2 7602   3.395   1.388   0.942
 2235SOL     OW 7603   2.467   6.939   1.631
 2235SOL    HW1 7604   2.462   6.844   1.659
 2235SOL    HW2 7605   2.418   6.996   1.697
 2236SOL     OW 7606   1.700   3.694   6.122
 2236SOL    HW1 7607   1.789   3.695   6.076
 2236SOL    HW2 7608   1.645   3.772   6.090
 2237SOL     OW 7609   5.988   4.390   4.258
 2237SOL    HW1 7610   5.989   4.310   4.198
 2237SOL    HW2 7611   6.075   4.394   4.309
 2238SOL     OW 7612   4.560   5.281   2.722
 2238SOL    HW1 7613   4.557   5.320   2.630
 2238SOL    HW2 7614   4.644   5.310   2.768
 2239SOL     OW 7615   4.631   6.147   3.956
 2239SOL    HW1 7616   4.571   6.139   3.877
 2239SOL    HW2 7617   4.662   6.056   3.985
 2240SOL     OW 7618   3.532   5.196   2.559
 2240SOL    HW1 7619   3.625   5.224   2.538
 2240SOL    HW2 7620   3.469   5.232   2.490
 2241SOL     OW 7621   6.891   6.723   2.077
 2241SOL    HW1 7622   6.950   6.728   2.158
 2241SOL    HW2 7623   6.853   6.630   2.070
 2242SOL     OW 7624   4.996   3.290   2.290
 2242SOL    HW1 7625   4.966   3.382   2.316
 2242SOL    HW2 7626   4.927   3.223   2.316
 2243SOL     OW 7627   1.846   6.806   6.941
 2243SOL    HW1 7628   1.825   6.875   6.872
 2243SOL    HW2 7629   1.938   6.769   6.925
 2244SOL     OW 7630   2.810   6.949   1.730
 2244SOL    HW1 7631   2.790   6.976   1.636
 2244SOL    HW2 7632   2.735   6.892   1.764
 2245SOL     OW 7633   0.636   1.603   1.341
 2245SOL    HW1 7634   0.614   1.696   1.312
 2245SOL    HW2 7635   0.612   1.539   1.268
 2246SOL     OW 7636   2.278   0.808   4.327
 2246SOL    HW1 7637   2.368   0.830   4.367
 2246SOL    HW2 7638   2.262   0.710   4.335
 2247SOL     OW 7639   3.109   3.018   3.040
 2247SOL    HW1 7640   3.080   2.928   3.074
 2247SOL    HW2 7641   3.193   3.046   3.087
 2248SOL     OW 7642   6.653   3.976   4.905
 2248SOL    HW1 7643   6.614   3.915   4.836
 2248SOL    HW2 7644   6.680   4.062   4.862
 2249SOL     OW 7645   5.516   6.451   3.755
 2249SOL    HW1 7646   5.559   6.370   3.715
 2249SOL    HW2 7647   5.490   6.514   3.682
 2250SOL     OW 7648   3.106   3.838   5.171
 2250SOL    HW1 7649   3.205   3.829   5.156
 2250SOL    HW2 7650   3.077   3.930   5.148
 2251SOL     OW 7651   5.538   6.972   6.456
 2251SOL    HW1 7652   5.518   6.965   6.553
 2251SOL    HW2 7653   5.580   6.887   6.423
 2252SOL     OW 7654   4.935   1.637   3.083
 2252SOL    HW1 7655   4.894   1.623   2.993
 2252SOL    HW2 7656   4.866   1.675   3.146
 2253SOL     OW 7657   0.215   3.096   6.984
 2253SOL    HW1 7658   0.264   3.036   0.022
 2253SOL    HW2 7659   0.126   3.120   7.025
 2254SOL     OW 7660   3.521   2.983   4.139
 2254SOL    HW1 7661   3.426   3.008   4.122
 2254SOL    HW2 7662   3.574   2.994   4.056
 2255SOL     OW 7663   3.978   3.500   5.893
 2255SOL    HW1 7664   3.954   3.542   5.805
 2255SOL    HW2 7665   4.067   3.534   5.923
 2256SOL     OW 7666   5.355   6.297   2.227
 2256SOL    HW1 7667   5.407   6.347   2.158
 2256SOL    HW2 7668   5.417   6.252   2.291
 2257SOL     OW 7669   0.962   1.585   4.511
 2257SOL    HW1 7670   0.985   1.562   4.606
 2257SOL    HW2 7671   0.872   1.548   4.489
 2258SOL     OW 7672   1.208   5.794   4.925
 2258SOL    HW1 7673   1.148   5.723   4.886
 2258SOL    HW2 7674   1.194   5.880   4.876
 2259SOL     OW 7675   5.623   2.737   5.436
 2259SOL    HW1 7676   5.712   2.716   5.396
 2259SOL    HW2 7677   5.631   2.741   5.536
 2260SOL     OW 7678   0.186   3.833   1.259
 2260SOL    HW1 7679   0.227   3.864   1.345
 2260SOL    HW2 7680   0.240   3.867   1.182
 2261SOL     OW 7681   6.458   5.128   0.745
 2261SOL    HW1 7682   6.392   5.054   0.732
 2261SOL    HW2 7683   6.412   5.206   0.788
 2262SOL     OW 7684   6.149   0.228   2.988
 2262SOL    HW1 7685   6.184   0.284   2.912
 2262SOL    HW2 7686   6.134   0.286   3.068
 2263SOL     OW 7687   2.789   5.813   0.076
 2263SOL    HW1 7688   2.734   5.829   7.019
 2263SOL    HW2 7689   2.733   5.769   0.146
 2264SOL     OW 7690   3.212   6.069   6.212
 2264SOL    HW1 7691   3.137   6.005   6.195
 2264SOL    HW2 7692   3.299   6.026   6.190
 2265SOL     OW 7693   1.822   0.804   4.431
 2265SOL    HW1 7694   1.819   0.717   4.384
 2265SOL    HW2 7695   1.734   0.822   4.475
 2266SOL     OW 7696   5.257   1.488   6.454
 2266SOL    HW1 7697   5.296   1.547   6.525
 2266SOL    HW2 7698   5.215   1.408   6.496
 2267SOL     OW 7699   5.205   3.378   5.109
 2267SOL    HW1 7700   5.250   3.415   5.191
 2267SOL    HW2 7701   5.106   3.388   5.118
 2268SOL     OW 7702   6.053   4.203   6.182
 2268SOL    HW1 7703   6.013   4.159   6.102
 2268SOL    HW2 7704   6.034   4.148   6.264
 2269SOL     OW 7705   0.596   4.155   5.538
 2269SOL    HW1 7706   0.587   4.217   5.460
 2269SOL    HW2 7707   0.571   4.203   5.622
 2270SOL     OW 7708   3.874   2.549   6.398
 2270SOL    HW1 7709   3.939   2.608   6.349
 2270SOL    HW2 7710   3.844   2.476   6.337
 2271SOL     OW 7711   5.650   4.488   0.029
 2271SOL    HW1 7712   5.633   4.396   0.065
 2271SOL    HW2 7713   5.713   4.536   0.089
 2272SOL     OW 7714   5.829   1.473   0.106
 2272SOL    HW1 7715   5.818   1.550   0.042
 2272SOL    HW2 7716   5.816   1.387   0.057
 2273SOL     OW 7717   1.486   1.477   2.280
 2273SOL    HW1 7718   1.473   1.421   2.362
 2273SOL    HW2 7719   1.580   1.466   2.248
 2274SOL     OW 7720   0.770   1.203   5.884
 2274SOL    HW1 7721   0.841   1.228   5.818
 2274SOL    HW2 7722   0.783   1.256   5.968
 2275SOL     OW 7723   6.235   6.770   3.566
 2275SOL    HW1 7724   6.187   6.854   3.589
 2275SOL    HW2 7725   6.199   6.695   3.622
 2276SOL     OW 7726   2.467   5.605   1.910
 2276SOL    HW1 7727   2.494   5.511   1.888
 2276SOL    HW2 7728   2.367   5.612   1.904
 2277SOL     OW 7729   3.712   4.154   4.079
 2277SOL    HW1 7730   3.695   4.245   4.117
 2277SOL    HW2 7731   3.717   4.160   3.979
 2278SOL     OW 7732   5.872   3.431   4.405
 2278SOL    HW1 7733   5.787   3.379   4.407
 2278SOL    HW2 7734   5.852   3.529   4.405
 2279SOL     OW 7735   6.135   0.013   5.257
 2279SOL    HW1 7736   6.155   0.006   5.160
 2279SOL    HW2 7737   6.046   0.058   5.270
 2280SOL     OW 7738   6.634   0.018   4.418
 2280SOL    HW1 7739   6.722   7.005   4.390
 2280SOL    HW2 7740   6.649   0.093   4.483
 2281SOL     OW 7741   3.464   0.752   2.147
 2281SOL    HW1 7742   3.506   0.821   2.087
 2281SOL    HW2 7743   3.437   0.673   2.092
 2282SOL     OW 7744   5.532   6.671   5.633
 2282SOL    HW1 7745   5.610   6.622   5.670
 2282SOL    HW2 7746   5.524   6.760   5.678
 2283SOL     OW 7747   1.594   0.056   1.864
 2283SOL    HW1 7748   1.660   0.115   1.818
 2283SOL    HW2 7749   1.531   0.017   1.796
 2284SOL     OW 7750   1.421   3.101   6.622
 2284SOL    HW1 7751   1.355   3.027   6.606
 2284SOL    HW2 7752   1.441   3.147   6.536
 2285SOL     OW 7753   1.285   2.756   0.844
 2285SOL    HW1 7754   1.381   2.775   0.864
 2285SOL    HW2 7755   1.227   2.817   0.899
 2286SOL     OW 7756   5.809   0.098   3.168
 2286SOL    HW1 7757   5.845   0.190   3.180
 2286SOL    HW2 7758   5.791   0.057   3.257
 2287SOL     OW 7759   2.174   0.476   3.969
 2287SOL    HW1 7760   2.088   0.509   4.010
 2287SOL    HW2 7761   2.246   0.543   3.984
 2288SOL     OW 7762   5.985   5.252   3.244
 2288SOL    HW1 7763   5.965   5.312   3.321
 2288SOL    HW2 7764   5.900   5.211   3.210
 2289SOL     OW 7765   0.299   5.050   0.778
 2289SOL    HW1 7766   0.232   4.976   0.791
 2289SOL    HW2 7767   0.315   5.064   0.681
 2290SOL     OW 7768   0.902   3.422   0.836
 2290SOL    HW1 7769   0.821   3.429   0.776
 2290SOL    HW2 7770   0.892   3.342   0.896
 2291SOL     OW 7771   1.912   2.313   5.892
 2291SOL    HW1 7772   1.872   2.386   5.836
 2291SOL    HW2 7773   1.873   2.225   5.864
 2292SOL     OW 7774   1.183   1.744   4.438
 2292SOL    HW1 7775   1.127   1.666   4.468
 2292SOL    HW2 7776   1.158   1.824   4.491
 2293SOL     OW 7777   5.048   6.828   1.082
 2293SOL    HW1 7778   5.052   6.818   1.182
 2293SOL    HW2 7779   4.955   6.809   1.051
 2294SOL     OW 7780   3.156   0.755   7.014
 2294SOL    HW1 7781   3.079   0.696   0.011
 2294SOL    HW2 7782   3.204   0.780   0.074
 2295SOL     OW 7783   0.358   1.965   2.541
 2295SOL    HW1 7784   0.331   2.014   2.458
 2295SOL    HW2 7785   0.289   1.980   2.613
 2296SOL     OW 7786   3.827   5.374   0.517
 2296SOL    HW1 7787   3.895   5.342   0.451
 2296SOL    HW2 7788   3.797   5.297   0.573
 2297SOL     OW 7789   3.733   4.156   4.972
 2297SOL    HW1 7790   3.788   4.198   5.044
 2297SOL    HW2 7791   3.760   4.193   4.883
 2298SOL     OW 7792   3.956   2.927   1.879
 2298SOL    HW1 7793   3.969   2.852   1.814
 2298SOL    HW2 7794   3.879   2.905   1.939
 2299SOL     OW 7795   4.928   6.605   6.396
 2299SOL    HW1 7796   4.873   6.649   6.325
 2299SOL    HW2 7797   4.868   6.572   6.469
 2300SOL     OW 7798   2.672   4.676   1.765
 2300SOL    HW1 7799   2.730   4.661   1.845
 2300SOL    HW2 7800   2.727   4.716   1.691
 2301SOL     OW 7801   3.321   2.991   3.217
 2301SOL    HW1 7802   3.394   2.935   3.257
 2301SOL    HW2 7803   3.346   3.014   3.123
 2302SOL     OW 7804   3.420   6.949   1.408
 2302SOL    HW1 7805   3.495   7.009   1.380
 2302SOL    HW2 7806   3.334   6.998   1.399
 2303SOL     OW 7807   1.848   3.257   6.342
 2303SOL    HW1 7808   1.860   3.345   6.386
 2303SOL    HW2 7809   1.904   3.253   6.259
 2304SOL     OW 7810   3.761   0.187   3.406
 2304SOL    HW1 7811   3.821   0.210   3.330
 2304SOL    HW2 7812   3.720   0.271   3.442
 2305SOL     OW 7813   2.901   6.605   2.638
 2305SOL    HW1 7814   2.934   6.589   2.545
 2305SOL    HW2 7815   2.877   6.517   2.680
 2306SOL     OW 7816   2.303   4.972   1.717
 2306SOL    HW1 7817   2.390   4.997   1.674
 2306SOL    HW2 7818   2.300   4.873   1.731
 2307SOL     OW 7819   1.278   3.831   2.807
 2307SOL    HW1 7820   1.287   3.904   2.874
 2307SOL    HW2 7821   1.368   3.793   2.786
 2308SOL     OW 7822   1.364   6.679   0.344
 2308SOL    HW1 7823   1.411   6.607   0.291
 2308SOL    HW2 7824   1.340   6.754   0.282
 2309SOL     OW 7825   2.899   6.857   6.645
 2309SOL    HW1 7826   2.834   6.790   6.682
 2309SOL    HW2 7827   2.916   6.837   6.549
 2310SOL     OW 7828   5.348   6.458   1.196
 2310SOL    HW1 7829   5.443   6.428   1.184
 2310SOL    HW2 7830   5.346   6.553   1.228
 2311SOL     OW 7831   2.627   6.273   2.080
 2311SOL    HW1 7832   2.715   6.236   2.051
 2311SOL    HW2 7833   2.632   6.301   2.176
 2312SOL     OW 7834   3.408   6.113   4.192
 2312SOL    HW1 7835   3.505   6.105   4.169
 2312SOL    HW2 7836   3.387   6.208   4.216
 2313SOL     OW 7837   5.318   5.583   1.847
 2313SOL    HW1 7838   5.321   5.499   1.901
 2313SOL    HW2 7839   5.223   5.609   1.832
 2314SOL     OW 7840   6.054   0.712   4.920
 2314SOL    HW1 7841   5.985   0.664   4.974
 2314SOL    HW2 7842   6.036   0.698   4.822
 2315SOL     OW 7843   5.207   3.760   5.360
 2315SOL    HW1 7844   5.234   3.850   5.395
 2315SOL    HW2 7845   5.147   3.772   5.280
 2316SOL     OW 7846   3.327   0.478   4.706
 2316SOL    HW1 7847   3.296   0.420   4.631
 2316SOL    HW2 7848   3.250   0.501   4.765
 2317SOL     OW 7849   6.242   6.157   3.149
 2317SOL    HW1 7850   6.219   6.250   3.120
 2317SOL    HW2 7851   6.235   6.151   3.248
 2318SOL     OW 7852   2.224   2.778   4.727
 2318SOL    HW1 7853   2.224   2.828   4.641
 2318SOL    HW2 7854   2.243   2.681   4.710
 2319SOL     OW 7855   3.116   5.360   4.529
 2319SOL    HW1 7856   3.080   5.318   4.446
 2319SOL    HW2 7857   3.209   5.329   4.545
 2320SOL     OW 7858   1.308   2.879   4.801
 2320SOL    HW1 7859   1.223   2.932   4.795
 2320SOL    HW2 7860   1.287   2.781   4.794
 2321SOL     OW 7861   1.907   5.071   0.392
 2321SOL    HW1 7862   1.862   5.005   0.332
 2321SOL    HW2 7863   1.858   5.158   0.389
 2322SOL     OW 7864   1.787   4.318   3.291
 2322SOL    HW1 7865   1.741   4.400   3.256
 2322SOL    HW2 7866   1.737   4.237   3.261
 2323SOL     OW 7867   3.295   4.762   1.669
 2323SOL    HW1 7868   3.364   4.760   1.742
 2323SOL    HW2 7869   3.311   4.687   1.606
 2324SOL     OW 7870   6.415   5.776   0.388
 2324SOL    HW1 7871   6.337   5.714   0.384
 2324SOL    HW2 7872   6.438   5.807   0.296
 2325SOL     OW 7873   1.017   4.496   1.581
 2325SOL    HW1 7874   1.074   4.442   1.644
 2325SOL    HW2 7875   0.927   4.453   1.573
 2326SOL     OW 7876   2.164   6.146   6.599
 2326SOL    HW1 7877   2.169   6.241   6.568
 2326SOL    HW2 7878   2.257   6.109   6.608
 2327SOL     OW 7879   6.845   1.674   3.694
 2327SOL    HW1 7880   6.921   1.609   3.706
 2327SOL    HW2 7881   6.786   1.642   3.620
 2328SOL     OW 7882   1.627   1.379   2.748
 2328SOL    HW1 7883   1.576   1.304   2.789
 2328SOL    HW2 7884   1.575   1.464   2.759
 2329SOL     OW 7885   1.523   4.478   4.956
 2329SOL    HW1 7886   1.536   4.403   4.892
 2329SOL    HW2 7887   1.550   4.449   5.048
 2330SOL     OW 7888   0.548   3.092   1.846
 2330SOL    HW1 7889   0.639   3.103   1.886
 2330SOL    HW2 7890   0.532   3.165   1.779
 2331SOL     OW 7891   4.105   5.324   6.879
 2331SOL    HW1 7892   4.022   5.353   6.831
 2331SOL    HW2 7893   4.181   5.382   6.853
 2332SOL     OW 7894   6.398   0.720   5.234
 2332SOL    HW1 7895   6.301   0.719   5.255
 2332SOL    HW2 7896   6.422   0.806   5.189
 2333SOL     OW 7897   6.888   4.263   2.757
 2333SOL    HW1 7898   6.922   4.357   2.761
 2333SOL    HW2 7899   6.884   4.233   2.662
 2334SOL     OW 7900   1.631   0.812   6.848
 2334SOL    HW1 7901   1.689   0.760   6.785
 2334SOL    HW2 7902   1.678   0.822   6.936
 2335SOL     OW 7903   6.694   1.401   4.283
 2335SOL    HW1 7904   6.741   1.436   4.202
 2335SOL    HW2 7905   6.691   1.472   4.353
 2336SOL     OW 7906   3.914   1.799   4.455
 2336SOL    HW1 7907   3.916   1.778   4.358
 2336SOL    HW2 7908   3.893   1.896   4.468
 2337SOL     OW 7909   4.123   0.393   1.547
 2337SOL    HW1 7910   4.043   0.385   1.607
 2337SOL    HW2 7911   4.111   0.470   1.484
 2338SOL     OW 7912   0.595   2.924   5.100
 2338SOL    HW1 7913   0.586   2.832   5.138
 2338SOL    HW2 7914   0.682   2.932   5.051
 2339SOL     OW 7915   3.049   3.277   3.649
 2339SOL    HW1 7916   3.005   3.315   3.730
 2339SOL    HW2 7917   3.112   3.205   3.677
 2340SOL     OW 7918   6.517   4.281   6.348
 2340SOL    HW1 7919   6.473   4.282   6.437
 2340SOL    HW2 7920   6.574   4.199   6.339
 2341SOL     OW 7921   3.328   4.895   2.006
 2341SOL    HW1 7922   3.320   4.955   1.927
 2341SOL    HW2 7923   3.424   4.872   2.021
 2342SOL     OW 7924   0.867   6.537   5.584
 2342SOL    HW1 7925   0.924   6.490   5.651
 2342SOL    HW2 7926   0.918   6.551   5.500
 2343SOL     OW 7927   1.912   5.541   3.116
 2343SOL    HW1 7928   1.906   5.611   3.045
 2343SOL    HW2 7929   1.958   5.579   3.196
 2344SOL     OW 7930   1.052   5.829   6.846
 2344SOL    HW1 7931   0.996   5.757   6.805
 2344SOL    HW2 7932   1.006   5.917   6.837
 2345SOL     OW 7933   3.416   5.564   5.256
 2345SOL    HW1 7934   3.413   5.524   5.164
 2345SOL    HW2 7935   3.362   5.508   5.318
 2346SOL     OW 7936   3.941   3.693   5.389
 2346SOL    HW1 7937   3.966   3.643   5.306
 2346SOL    HW2 7938   3.866   3.756   5.369
 2347SOL     OW 7939   3.349   2.253   1.196
 2347SOL    HW1 7940   3.340   2.267   1.098
 2347SOL    HW2 7941   3.293   2.176   1.225
 2348SOL     OW 7942   2.546   6.744   4.130
 2348SOL    HW1 7943   2.482   6.819   4.116
 2348SOL    HW2 7944   2.626   6.756   4.071
 2349SOL     OW 7945   0.581   4.646   5.923
 2349SOL    HW1 7946   0.635   4.591   5.859
 2349SOL    HW2 7947   0.494   4.600   5.941
 2350SOL     OW 7948   6.014   0.336   6.704
 2350SOL    HW1 7949   6.033   0.314   6.608
 2350SOL    HW2 7950   6.090   0.304   6.760
 2351SOL     OW 7951   2.817   5.253   4.036
 2351SOL    HW1 7952   2.786   5.202   4.116
 2351SOL    HW2 7953   2.790   5.205   3.953
 2352SOL     OW 7954   0.621   4.207   2.697
 2352SOL    HW1 7955   0.657   4.119   2.665
 2352SOL    HW2 7956   0.524   4.214   2.671
 2353SOL     OW 7957   3.437   4.661   5.698
 2353SOL    HW1 7958   3.423   4.605   5.779
 2353SOL    HW2 7959   3.348   4.688   5.660
 2354SOL     OW 7960   2.861   1.474   5.985
 2354SOL    HW1 7961   2.895   1.508   6.073
 2354SOL    HW2 7962   2.865   1.547   5.917
 2355SOL     OW 7963   1.984   5.782   0.176
 2355SOL    HW1 7964   1.970   5.711   0.245
 2355SOL    HW2 7965   1.982   5.872   0.220
 2356SOL     OW 7966   1.428   3.268   6.383
 2356SOL    HW1 7967   1.333   3.297   6.371
 2356SOL    HW2 7968   1.464   3.237   6.295
 2357SOL     OW 7969   4.617   0.077   3.063
 2357SOL    HW1 7970   4.689   0.027   3.113
 2357SOL    HW2 7971   4.655   0.161   3.025
 2358SOL     OW 7972   4.027   5.005   5.127
 2358SOL    HW1 7973   4.053   4.998   5.031
 2358SOL    HW2 7974   4.036   4.916   5.171
 2359SOL     OW 7975   6.540   0.067   5.580
 2359SOL    HW1 7976   6.610   0.131   5.613
 2359SOL    HW2 7977   6.582   7.002   5.565
 2360SOL     OW 7978   5.255   4.002   0.144
 2360SOL    HW1 7979   5.349   4.022   0.172
 2360SOL    HW2 7980   5.202   3.971   0.223
 2361SOL     OW 7981   2.755   0.815   5.169
 2361SOL    HW1 7982   2.665   0.773   5.165
 2361SOL    HW2 7983   2.813   0.764   5.232
 2362SOL     OW 7984   2.428   6.503   4.182
 2362SOL    HW1 7985   2.345   6.545   4.218
 2362SOL    HW2 7986   2.493   6.574   4.154
 2363SOL     OW 7987   4.475   2.479   5.257
 2363SOL    HW1 7988   4.543   2.490   5.184
 2363SOL    HW2 7989   4.420   2.562   5.264
 2364SOL     OW 7990   1.013   2.108   3.007
 2364SOL    HW1 7991   1.030   2.011   2.991
 2364SOL    HW2 7992   0.918   2.121   3.036
 2365SOL     OW 7993   6.056   2.531   6.634
 2365SOL    HW1 7994   6.014   2.441   6.621
 2365SOL    HW2 7995   6.060   2.580   6.547
 2366SOL     OW 7996   2.491   5.402   6.595
 2366SOL    HW1 7997   2.460   5.392   6.501
 2366SOL    HW2 7998   2.587   5.430   6.596
 2367SOL     OW 7999   2.485   4.240   0.516
 2367SOL    HW1 8000   2.406   4.207   0.465
 2367SOL    HW2 8001   2.560   4.174   0.508
 2368SOL     OW 8002   4.131   0.759   3.856
 2368SOL    HW1 8003   4.117   0.661   3.863
 2368SOL    HW2 8004   4.150   0.796   3.947
 2369SOL     OW 8005   1.649   1.736   5.770
 2369SOL    HW1 8006   1.630   1.721   5.673
 2369SOL    HW2 8007   1.571   1.783   5.813
 2370SOL     OW 8008   4.785   3.598   0.076
 2370SOL    HW1 8009   4.708   3.648   0.114
 2370SOL    HW2 8010   4.841   3.560   0.150
 2371SOL     OW 8011   0.173   0.035   2.472
 2371SOL    HW1 8012   0.238   0.065   2.402
 2371SOL    HW2 8013   0.201   6.970   2.507
 2372SOL     OW 8014   0.248   2.740   2.765
 2372SOL    HW1 8015   0.241   2.833   2.802
 2372SOL    HW2 8016   0.251   2.744   2.665
 2373SOL     OW 8017   0.277   1.860   6.988
 2373SOL    HW1 8018   0.366   1.904   6.988
 2373SOL    HW2 8019   0.247   1.845   6.893
 2374SOL     OW 8020   6.149   1.136   3.106
 2374SOL    HW1 8021   6.084   1.094   3.170
 2374SOL    HW2 8022   6.125   1.108   3.012
 2375SOL     OW 8023   2.866   6.685   4.858
 2375SOL    HW1 8024   2.832   6.629   4.934
 2375SOL    HW2 8025   2.865   6.631   4.774
 2376SOL     OW 8026   6.935   2.384   4.619
 2376SOL    HW1 8027   6.938   2.474   4.577
 2376SOL    HW2 8028   6.958   2.391   4.716
 2377SOL     OW 8029   3.357   4.126   2.979
 2377SOL    HW1 8030   3.345   4.112   3.077
 2377SOL    HW2 8031   3.451   4.154   2.960
 2378SOL     OW 8032   4.895   1.754   0.519
 2378SOL    HW1 8033   4.804   1.737   0.481
 2378SOL    HW2 8034   4.910   1.694   0.598
 2379SOL     OW 8035   5.675   1.820   7.012
 2379SOL    HW1 8036   5.740   1.896   7.018
 2379SOL    HW2 8037   5.612   1.836   6.936
 2380SOL     OW 8038   0.763   1.055   7.016
 2380SOL    HW1 8039   0.795   1.034   0.084
 2380SOL    HW2 8040   0.679   1.004   6.997
 2381SOL     OW 8041   2.133   4.088   4.666
 2381SOL    HW1 8042   2.181   4.128   4.744
 2381SOL    HW2 8043   2.098   3.997   4.691
 2382SOL     OW 8044   2.548   4.548   3.777
 2382SOL    HW1 8045   2.586   4.598   3.700
 2382SOL    HW2 8046   2.619   4.535   3.847
 2383SOL     OW 8047   5.128   6.576   1.575
 2383SOL    HW1 8048   5.095   6.636   1.648
 2383SOL    HW2 8049   5.227   6.565   1.583
 2384SOL     OW 8050   5.737   0.460   2.775
 2384SOL    HW1 8051   5.729   0.363   2.795
 2384SOL    HW2 8052   5.704   0.479   2.683
 2385SOL     OW 8053   1.287   6.719   1.169
 2385SOL    HW1 8054   1.361   6.652   1.173
 2385SOL    HW2 8055   1.316   6.797   1.113
 2386SOL     OW 8056   6.299   5.804   4.505
 2386SOL    HW1 8057   6.274   5.818   4.410
 2386SOL    HW2 8058   6.256   5.721   4.539
 2387SOL     OW 8059   1.435   1.814   3.413
 2387SOL    HW1 8060   1.362   1.752   3.383
 2387SOL    HW2 8061   1.439   1.893   3.352
 2388SOL     OW 8062   0.587   2.684   4.566
 2388SOL    HW1 8063   0.641   2.727   4.493
 2388SOL    HW2 8064   0.499   2.654   4.530
 2389SOL     OW 8065   4.879   3.642   2.938
 2389SOL    HW1 8066   4.876   3.546   2.965
 2389SOL    HW2 8067   4.913   3.697   3.013
 2390SOL     OW 8068   4.154   3.562   3.069
 2390SOL    HW1 8069   4.129   3.466   3.078
 2390SOL    HW2 8070   4.252   3.570   3.057
 2391SOL     OW 8071   5.055   4.337   5.991
 2391SOL    HW1 8072   5.085   4.432   5.997
 2391SOL    HW2 8073   5.060   4.294   6.082
 2392SOL     OW 8074   4.450   6.524   4.980
 2392SOL    HW1 8075   4.548   6.542   4.988
 2392SOL    HW2 8076   4.435   6.426   4.970
 2393SOL     OW 8077   5.534   3.626   6.095
 2393SOL    HW1 8078   5.467   3.558   6.067
 2393SOL    HW2 8079   5.488   3.700   6.144
 2394SOL     OW 8080   1.244   3.444   4.529
 2394SOL    HW1 8081   1.319   3.428   4.465
 2394SOL    HW2 8082   1.158   3.411   4.489
 2395SOL     OW 8083   5.535   2.573   6.283
 2395SOL    HW1 8084   5.454   2.532   6.324
 2395SOL    HW2 8085   5.613   2.562   6.344
 2396SOL     OW 8086   3.719   4.511   1.347
 2396SOL    HW1 8087   3.660   4.553   1.416
 2396SOL    HW2 8088   3.810   4.494   1.386
 2397SOL     OW 8089   0.172   4.454   6.555
 2397SOL    HW1 8090   0.073   4.443   6.554
 2397SOL    HW2 8091   0.209   4.434   6.464
 2398SOL     OW 8092   2.674   3.232   0.065
 2398SOL    HW1 8093   2.603   3.262   0.128
 2398SOL    HW2 8094   2.636   3.168   7.023
 2399SOL     OW 8095   4.607   1.756   1.946
 2399SOL    HW1 8096   4.541   1.827   1.926
 2399SOL    HW2 8097   4.582   1.709   2.031
 2400SOL     OW 8098   3.130   4.066   0.638
 2400SOL    HW1 8099   3.068   4.087   0.562
 2400SOL    HW2 8100   3.097   4.112   0.721
 2401SOL     OW 8101   4.217   5.713   6.339
 2401SOL    HW1 8102   4.187   5.687   6.247
 2401SOL    HW2 8103   4.139   5.708   6.402
 2402SOL     OW 8104   6.786   0.630   3.507
 2402SOL    HW1 8105   6.765   0.543   3.553
 2402SOL    HW2 8106   6.729   0.639   3.425
 2403SOL     OW 8107   2.156   2.552   6.937
 2403SOL    HW1 8108   2.200   2.531   6.849
 2403SOL    HW2 8109   2.202   2.503   7.010
 2404SOL     OW 8110   3.688   1.126   0.954
 2404SOL    HW1 8111   3.760   1.192   0.934
 2404SOL    HW2 8112   3.717   1.035   0.923
 2405SOL     OW 8113   3.836   3.326   2.749
 2405SOL    HW1 8114   3.751   3.275   2.738
 2405SOL    HW2 8115   3.852   3.343   2.846
 2406SOL     OW 8116   3.014   6.545   2.402
 2406SOL    HW1 8117   3.057   6.462   2.436
 2406SOL    HW2 8118   3.083   6.618   2.395
 2407SOL     OW 8119   5.775   1.801   2.034
 2407SOL    HW1 8120   5.738   1.892   2.013
 2407SOL    HW2 8121   5.722   1.732   1.985
 2408SOL     OW 8122   3.513   5.122   3.179
 2408SOL    HW1 8123   3.554   5.039   3.215
 2408SOL    HW2 8124   3.426   5.141   3.226
 2409SOL     OW 8125   1.764   4.456   2.168
 2409SOL    HW1 8126   1.679   4.452   2.116
 2409SOL    HW2 8127   1.821   4.377   2.147
 2410SOL     OW 8128   3.800   2.816   6.020
 2410SOL    HW1 8129   3.794   2.915   6.014
 2410SOL    HW2 8130   3.826   2.790   6.113
 2411SOL     OW 8131   3.838   5.564   5.065
 2411SOL    HW1 8132   3.881   5.607   5.144
 2411SOL    HW2 8133   3.829   5.465   5.081
 2412SOL     OW 8134   4.787   5.271   1.267
 2412SOL    HW1 8135   4.781   5.223   1.354
 2412SOL    HW2 8136   4.869   5.329   1.266
 2413SOL     OW 8137   6.011   2.405   0.744
 2413SOL    HW1 8138   6.031   2.357   0.830
 2413SOL    HW2 8139   5.947   2.480   0.763
 2414SOL     OW 8140   5.008   4.541   2.672
 2414SOL    HW1 8141   5.069   4.566   2.597
 2414SOL    HW2 8142   4.977   4.624   2.718
 2415SOL     OW 8143   0.133   0.259   2.614
 2415SOL    HW1 8144   0.087   0.240   2.701
 2415SOL    HW2 8145   0.157   0.172   2.570
 2416SOL     OW 8146   4.354   1.897   5.751
 2416SOL    HW1 8147   4.395   1.808   5.768
 2416SOL    HW2 8148   4.262   1.900   5.792
 2417SOL     OW 8149   3.351   2.924   5.911
 2417SOL    HW1 8150   3.408   2.902   5.831
 2417SOL    HW2 8151   3.370   3.018   5.940
 2418SOL     OW 8152   3.063   3.379   4.312
 2418SOL    HW1 8153   2.994   3.398   4.243
 2418SOL    HW2 8154   3.020   3.338   4.392
 2419SOL     OW 8155   0.272   7.006   4.770
 2419SOL    HW1 8156   0.205   6.939   4.803
 2419SOL    HW2 8157   0.274   0.060   4.831
 2420SOL     OW 8158   2.792   1.059   2.352
 2420SOL    HW1 8159   2.791   1.132   2.285
 2420SOL    HW2 8160   2.832   1.091   2.437
 2421SOL     OW 8161   2.556   2.085   4.803
 2421SOL    HW1 8162   2.518   2.055   4.891
 2421SOL    HW2 8163   2.622   2.159   4.819
 2422SOL     OW 8164   5.684   1.408   0.919
 2422SOL    HW1 8165   5.753   1.431   0.987
 2422SOL    HW2 8166   5.629   1.331   0.950
 2423SOL     OW 8167   1.436   6.032   2.846
 2423SOL    HW1 8168   1.389   5.988   2.770
 2423SOL    HW2 8169   1.535   6.020   2.836
 2424SOL     OW 8170   6.129   6.857   5.983
 2424SOL    HW1 8171   6.094   6.895   5.897
 2424SOL    HW2 8172   6.096   6.763   5.993
 2425SOL     OW 8173   5.562   0.722   3.595
 2425SOL    HW1 8174   5.477   0.683   3.630
 2425SOL    HW2 8175   5.631   0.722   3.667
 2426SOL     OW 8176   0.836   6.268   5.049
 2426SOL    HW1 8177   0.884   6.185   5.078
 2426SOL    HW2 8178   0.745   6.244   5.015
 2427SOL     OW 8179   5.829   6.195   5.728
 2427SOL    HW1 8180   5.790   6.207   5.637
 2427SOL    HW2 8181   5.928   6.206   5.724
 2428SOL     OW 8182   6.252   0.455   2.421
 2428SOL    HW1 8183   6.252   0.520   2.497
 2428SOL    HW2 8184   6.196   0.491   2.346
 2429SOL     OW 8185   5.103   5.438   3.367
 2429SOL    HW1 8186   5.041   5.360   3.362
 2429SOL    HW2 8187   5.146   5.442   3.458
 2430SOL     OW 8188   6.166   1.601   1.346
 2430SOL    HW1 8189   6.082   1.556   1.375
 2430SOL    HW2 8190   6.212   1.642   1.425
 2431SOL     OW 8191   4.285   0.865   2.546
 2431SOL    HW1 8192   4.311   0.960   2.526
 2431SOL    HW2 8193   4.338   0.803   2.487
 2432SOL     OW 8194   3.185   6.386   2.869
 2432SOL    HW1 8195   3.260   6.335   2.911
 2432SOL    HW2 8196   3.212   6.415   2.777
 2433SOL     OW 8197   3.622   1.162   1.322
 2433SOL    HW1 8198   3.658   1.238   1.267
 2433SOL    HW2 8199   3.571   1.099   1.263
 2434SOL     OW 8200   4.018   1.013   5.464
 2434SOL    HW1 8201   4.102   1.064   5.483
 2434SOL    HW2 8202   3.949   1.074   5.426
 2435SOL     OW 8203   4.719   4.468   6.837
 2435SOL    HW1 8204   4.739   4.510   6.749
 2435SOL    HW2 8205   4.802   4.429   6.876
 2436SOL     OW 8206   1.293   5.261   0.876
 2436SOL    HW1 8207   1.237   5.332   0.831
 2436SOL    HW2 8208   1.351   5.217   0.808
 2437SOL     OW 8209   5.109   6.426   6.644
 2437SOL    HW1 8210   5.020   6.444   6.685
 2437SOL    HW2 8211   5.100   6.419   6.545
 2438SOL     OW 8212   3.149   0.978   6.870
 2438SOL    HW1 8213   3.169   0.885   6.901
 2438SOL    HW2 8214   3.061   1.007   6.906
 2439SOL     OW 8215   1.663   4.481   6.732
 2439SOL    HW1 8216   1.621   4.419   6.798
 2439SOL    HW2 8217   1.608   4.564   6.725
 2440SOL     OW 8218   4.720   6.203   5.669
 2440SOL    HW1 8219   4.678   6.193   5.759
 2440SOL    HW2 8220   4.773   6.121   5.647
 2441SOL     OW 8221   0.683   1.134   0.687
 2441SOL    HW1 8222   0.735   1.144   0.772
 2441SOL    HW2 8223   0.591   1.101   0.708
 2442SOL     OW 8224   0.957   3.348   6.188
 2442SOL    HW1 8225   0.887   3.282   6.160
 2442SOL    HW2 8226   0.984   3.403   6.109
 2443SOL     OW 8227   4.074   5.044   6.064
 2443SOL    HW1 8228   4.011   5.105   6.017
 2443SOL    HW2 8229   4.039   5.020   6.154
 2444SOL     OW 8230   2.844   4.057   6.463
 2444SOL    HW1 8231   2.916   4.011   6.411
 2444SOL    HW2 8232   2.798   4.124   6.405
 2445SOL     OW 8233   6.959   1.348   1.095
 2445SOL    HW1 8234   6.878   1.344   1.153
 2445SOL    HW2 8235   0.016   1.355   1.151
 2446SOL     OW 8236   6.068   4.659   3.762
 2446SOL    HW1 8237   6.125   4.624   3.836
 2446SOL    HW2 8238   6.109   4.634   3.674
 2447SOL     OW 8239   2.157   2.634   0.695
 2447SOL    HW1 8240   2.112   2.648   0.783
 2447SOL    HW2 8241   2.173   2.723   0.652
 2448SOL     OW 8242   0.266   0.856   4.698
 2448SOL    HW1 8243   0.319   0.840   4.615
 2448SOL    HW2 8244   0.326   0.849   4.778
 2449SOL     OW 8245   7.000   4.757   0.265
 2449SOL    HW1 8246   6.947   4.795   0.189
 2449SOL    HW2 8247   7.016   4.660   0.248
 2450SOL     OW 8248   2.351   4.588   3.346
 2450SOL    HW1 8249   2.450   4.587   3.333
 2450SOL    HW2 8250   2.309   4.646   3.276
 2451SOL     OW 8251   1.512   1.229   3.762
 2451SOL    HW1 8252   1.517   1.252   3.665
 2451SOL    HW2 8253   1.568   1.293   3.815
 2452SOL     OW 8254   2.063   4.058   2.586
 2452SOL    HW1 8255   2.120   3.977   2.573
 2452SOL    HW2 8256   1.988   4.056   2.520
 2453SOL     OW 8257   6.400   4.696   1.346
 2453SOL    HW1 8258   6.436   4.700   1.439
 2453SOL    HW2 8259   6.340   4.774   1.330
 2454SOL     OW 8260   3.379   0.938   1.649
 2454SOL    HW1 8261   3.297   0.974   1.606
 2454SOL    HW2 8262   3.363   0.925   1.747
 2455SOL     OW 8263   4.999   6.251   0.425
 2455SOL    HW1 8264   4.948   6.327   0.385
 2455SOL    HW2 8265   5.094   6.256   0.394
 2456SOL     OW 8266   5.357   6.106   1.659
 2456SOL    HW1 8267   5.351   6.074   1.565
 2456SOL    HW2 8268   5.330   6.032   1.721
 2457SOL     OW 8269   5.393   6.574   0.599
 2457SOL    HW1 8270   5.443   6.661   0.603
 2457SOL    HW2 8271   5.327   6.571   0.673
 2458SOL     OW 8272   2.365   6.150   3.202
 2458SOL    HW1 8273   2.438   6.173   3.138
 2458SOL    HW2 8274   2.397   6.167   3.296
 2459SOL     OW 8275   1.975   6.596   0.651
 2459SOL    HW1 8276   2.002   6.635   0.563
 2459SOL    HW2 8277   1.917   6.661   0.700
 2460SOL     OW 8278   2.298   0.737   1.470
 2460SOL    HW1 8279   2.319   0.657   1.414
 2460SOL    HW2 8280   2.303   0.712   1.567
 2461SOL     OW 8281   5.909   0.699   1.827
 2461SOL    HW1 8282   5.850   0.756   1.769
 2461SOL    HW2 8283   5.868   0.689   1.917
 2462SOL     OW 8284   2.599   5.675   0.201
 2462SOL    HW1 8285   2.522   5.717   0.249
 2462SOL    HW2 8286   2.565   5.624   0.122
 2463SOL     OW 8287   6.604   2.210   4.361
 2463SOL    HW1 8288   6.563   2.156   4.434
 2463SOL    HW2 8289   6.597   2.307   4.383
 2464SOL     OW 8290   0.931   4.774   0.959
 2464SOL    HW1 8291   0.943   4.869   0.989
 2464SOL    HW2 8292   0.848   4.737   1.000
 2465SOL     OW 8293   0.161   5.874   1.780
 2465SOL    HW1 8294   0.238   5.939   1.775
 2465SOL    HW2 8295   0.077   5.919   1.752
 2466SOL     OW 8296   4.050   1.523   2.413
 2466SOL    HW1 8297   3.965   1.508   2.363
 2466SOL    HW2 8298   4.029   1.529   2.511
 2467SOL     OW 8299   6.228   1.555   5.846
 2467SOL    HW1 8300   6.232   1.649   5.879
 2467SOL    HW2 8301   6.186   1.552   5.755
 2468SOL     OW 8302   6.962   6.063   2.017
 2468SOL    HW1 8303   6.975   6.070   1.918
 2468SOL    HW2 8304   6.867   6.085   2.039
 2469SOL     OW 8305   3.265   4.076   5.862
 2469SOL    HW1 8306   3.166   4.064   5.852
 2469SOL    HW2 8307   3.311   3.988   5.849
 2470SOL     OW 8308   2.972   4.139   6.052
 2470SOL    HW1 8309   3.006   4.084   6.129
 2470SOL    HW2 8310   2.958   4.233   6.083
 2471SOL     OW 8311   0.703   6.391   1.513
 2471SOL    HW1 8312   0.780   6.452   1.531
 2471SOL    HW2 8313   0.628   6.413   1.575
 2472SOL     OW 8314   5.732   1.564   4.484
 2472SOL    HW1 8315   5.648   1.539   4.531
 2472SOL    HW2 8316   5.712   1.636   4.417
 2473SOL     OW 8317   1.268   4.959   4.547
 2473SOL    HW1 8318   1.281   5.040   4.490
 2473SOL    HW2 8319   1.343   4.951   4.613
 2474SOL     OW 8320   6.566   5.347   6.052
 2474SOL    HW1 8321   6.524   5.318   5.966
 2474SOL    HW2 8322   6.549   5.277   6.122
 2475SOL     OW 8323   4.175   2.436   0.710
 2475SOL    HW1 8324   4.273   2.417   0.718
 2475SOL    HW2 8325   4.158   2.532   0.735
 2476SOL     OW 8326   0.907   1.978   3.880
 2476SOL    HW1 8327   0.829   1.967   3.942
 2476SOL    HW2 8328   0.958   2.060   3.906
 2477SOL     OW 8329   6.010   6.357   1.473
 2477SOL    HW1 8330   5.952   6.372   1.553
 2477SOL    HW2 8331   6.051   6.266   1.479
 2478SOL     OW 8332   6.001   6.224   2.730
 2478SOL    HW1 8333   5.944   6.282   2.672
 2478SOL    HW2 8334   6.027   6.141   2.681
 2479SOL     OW 8335   0.309   2.648   1.341
 2479SOL    HW1 8336   0.306   2.721   1.410
 2479SOL    HW2 8337   0.391   2.592   1.357
 2480SOL     OW 8338   7.008   2.764   0.960
 2480SOL    HW1 8339   0.081   2.778   0.942
 2480SOL    HW2 8340   6.963   2.852   0.973
 2481SOL     OW 8341   3.782   5.908   1.043
 2481SOL    HW1 8342   3.793   5.812   1.070
 2481SOL    HW2 8343   3.824   5.922   0.953
 2482SOL     OW 8344   4.822   3.393   5.563
 2482SOL    HW1 8345   4.880   3.408   5.483
 2482SOL    HW2 8346   4.848   3.457   5.635
 2483SOL     OW 8347   1.701   0.742   0.725
 2483SOL    HW1 8348   1.706   0.793   0.639
 2483SOL    HW2 8349   1.758   0.787   0.794
 2484SOL     OW 8350   2.076   0.339   0.684
 2484SOL    HW1 8351   2.008   0.410   0.701
 2484SOL    HW2 8352   2.165   0.368   0.721
 2485SOL     OW 8353   6.517   5.199   2.423
 2485SOL    HW1 8354   6.593   5.134   2.423
 2485SOL    HW2 8355   6.543   5.282   2.375
 2486SOL     OW 8356   1.869   5.950   3.806
 2486SOL    HW1 8357   1.894   5.883   3.735
 2486SOL    HW2 8358   1.926   5.935   3.887
 2487SOL     OW 8359   4.271   6.350   0.377
 2487SOL    HW1 8360   4.265   6.252   0.398
 2487SOL    HW2 8361   4.280   6.401   0.463
 2488SOL     OW 8362   2.752   4.102   1.269
 2488SOL    HW1 8363   2.740   4.169   1.341
 2488SOL    HW2 8364   2.751   4.010   1.308
 2489SOL     OW 8365   2.067   5.755   5.151
 2489SOL    HW1 8366   2.096   5.808   5.230
 2489SOL    HW2 8367   1.970   5.770   5.134
 2490SOL     OW 8368   0.182   4.920   0.321
 2490SOL    HW1 8369   0.112   4.848   0.321
 2490SOL    HW2 8370   0.199   4.949   0.227
 2491SOL     OW 8371   2.810   5.740   2.482
 2491SOL    HW1 8372   2.824   5.661   2.422
 2491SOL    HW2 8373   2.740   5.800   2.441
 2492SOL     OW 8374   4.669   3.417   6.140
 2492SOL    HW1 8375   4.649   3.485   6.210
 2492SOL    HW2 8376   4.731   3.348   6.177
 2493SOL     OW 8377   5.614   0.917   2.756
 2493SOL    HW1 8378   5.609   0.997   2.815
 2493SOL    HW2 8379   5.651   0.840   2.807
 2494SOL     OW 8380   4.591   2.598   2.438
 2494SOL    HW1 8381   4.683   2.581   2.474
 2494SOL    HW2 8382   4.587   2.689   2.398
 2495SOL     OW 8383   5.029   1.549   5.086
 2495SOL    HW1 8384   5.104   1.489   5.112
 2495SOL    HW2 8385   5.008   1.610   5.162
 2496SOL     OW 8386   0.991   5.188   0.352
 2496SOL    HW1 8387   1.007   5.259   0.421
 2496SOL    HW2 8388   0.978   5.100   0.396
 2497SOL     OW 8389   6.685   1.731   0.855
 2497SOL    HW1 8390   6.726   1.739   0.764
 2497SOL    HW2 8391   6.693   1.819   0.903
 2498SOL     OW 8392   2.009   3.218   3.132
 2498SOL    HW1 8393   1.927   3.168   3.103
 2498SOL    HW2 8394   2.086   3.154   3.137
 2499SOL     OW 8395   5.810   0.829   4.633
 2499SOL    HW1 8396   5.814   0.869   4.542
 2499SOL    HW2 8397   5.898   0.785   4.654
 2500SOL     OW 8398   4.886   2.971   6.183
 2500SOL    HW1 8399   4.954   3.023   6.131
 2500SOL    HW2 8400   4.898   2.873   6.164
 2501SOL     OW 8401   5.773   4.452   6.804
 2501SOL    HW1 8402   5.712   4.406   6.739
 2501SOL    HW2 8403   5.720   4.478   6.885
 2502SOL     OW 8404   2.322   6.564   3.220
 2502SOL    HW1 8405   2.278   6.638   3.170
 2502SOL    HW2 8406   2.256   6.489   3.232
 2503SOL     OW 8407   3.826   5.773   5.851
 2503SOL    HW1 8408   3.813   5.717   5.933
 2503SOL    HW2 8409   3.857   5.716   5.775
 2504SOL     OW 8410   1.558   4.734   4.873
 2504SOL    HW1 8411   1.642   4.757   4.920
 2504SOL    HW2 8412   1.533   4.639   4.894
 2505SOL     OW 8413   3.867   5.607   4.208
 2505SOL    HW1 8414   3.812   5.682   4.172
 2505SOL    HW2 8415   3.853   5.600   4.307
 2506SOL     OW 8416   6.564   3.307   6.012
 2506SOL    HW1 8417   6.478   3.257   6.022
 2506SOL    HW2 8418   6.582   3.360   6.095
 2507SOL     OW 8419   6.252   5.525   0.378
 2507SOL    HW1 8420   6.303   5.461   0.436
 2507SOL    HW2 8421   6.210   5.595   0.435
 2508SOL     OW 8422   2.798   1.835   2.305
 2508SOL    HW1 8423   2.792   1.838   2.205
 2508SOL    HW2 8424   2.776   1.925   2.343
 2509SOL     OW 8425   5.721   2.975   2.681
 2509SOL    HW1 8426   5.698   2.903   2.747
 2509SOL    HW2 8427   5.789   2.940   2.616
 2510SOL     OW 8428   3.073   4.963   0.313
 2510SOL    HW1 8429   3.022   4.925   0.390
 2510SOL    HW2 8430   3.171   4.948   0.328
 2511SOL     OW 8431   1.392   0.816   5.110
 2511SOL    HW1 8432   1.318   0.762   5.071
 2511SOL    HW2 8433   1.431   0.876   5.040
 2512SOL     OW 8434   4.772   4.081   4.859
 2512SOL    HW1 8435   4.852   4.138   4.876
 2512SOL    HW2 8436   4.801   3.987   4.841
 2513SOL     OW 8437   1.522   2.616   6.423
 2513SOL    HW1 8438   1.488   2.522   6.420
 2513SOL    HW2 8439   1.447   2.678   6.446
 2514SOL     OW 8440   0.685   1.468   4.508
 2514SOL    HW1 8441   0.623   1.477   4.586
 2514SOL    HW2 8442   0.728   1.378   4.509
 2515SOL     OW 8443   1.646   6.223   0.328
 2515SOL    HW1 8444   1.716   6.251   0.393
 2515SOL    HW2 8445   1.680   6.144   0.276
 2516SOL     OW 8446   6.120   6.531   3.375
 2516SOL    HW1 8447   6.144   6.582   3.293
 2516SOL    HW2 8448   6.203   6.500   3.421
 2517SOL     OW 8449   2.742   4.704   6.633
 2517SOL    HW1 8450   2.762   4.632   6.698
 2517SOL    HW2 8451   2.827   4.739   6.593
 2518SOL     OW 8452   2.332   2.764   6.510
 2518SOL    HW1 8453   2.352   2.793   6.603
 2518SOL    HW2 8454   2.248   2.809   6.478
 2519SOL     OW 8455   5.029   4.795   4.585
 2519SOL    HW1 8456   5.102   4.762   4.525
 2519SOL    HW2 8457   4.994   4.719   4.640
 2520SOL     OW 8458   2.651   3.127   1.135
 2520SOL    HW1 8459   2.585   3.076   1.191
 2520SOL    HW2 8460   2.698   3.194   1.193
 2521SOL     OW 8461   0.176   6.940   5.548
 2521SOL    HW1 8462   0.107   6.966   5.616
 2521SOL    HW2 8463   0.264   6.925   5.594
 2522SOL     OW 8464   1.360   2.955   4.341
 2522SOL    HW1 8465   1.303   2.894   4.286
 2522SOL    HW2 8466   1.404   3.023   4.281
 2523SOL     OW 8467   7.021   3.488   0.291
 2523SOL    HW1 8468   0.048   3.574   0.291
 2523SOL    HW2 8469   6.930   3.503   0.328
 2524SOL     OW 8470   1.199   6.550   4.299
 2524SOL    HW1 8471   1.102   6.527   4.301
 2524SOL    HW2 8472   1.246   6.492   4.233
 2525SOL     OW 8473   1.246   4.276   4.441
 2525SOL    HW1 8474   1.300   4.245   4.519
 2525SOL    HW2 8475   1.307   4.308   4.369
 2526SOL     OW 8476   0.288   2.059   4.272
 2526SOL    HW1 8477   0.260   2.113   4.351
 2526SOL    HW2 8478   0.251   2.099   4.189
 2527SOL     OW 8479   5.753   6.467   5.012
 2527SOL    HW1 8480   5.849   6.440   5.014
 2527SOL    HW2 8481   5.699   6.402   5.065
 2528SOL     OW 8482   6.502   5.175   0.207
 2528SOL    HW1 8483   6.420   5.231   0.197
 2528SOL    HW2 8484   6.526   5.169   0.304
 2529SOL     OW 8485   4.850   5.956   4.525
 2529SOL    HW1 8486   4.858   6.034   4.588
 2529SOL    HW2 8487   4.802   5.985   4.443
 2530SOL     OW 8488   0.839   6.451   3.360
 2530SOL    HW1 8489   0.847   6.516   3.436
 2530SOL    HW2 8490   0.929   6.437   3.319
 2531SOL     OW 8491   4.803   0.985   5.098
 2531SOL    HW1 8492   4.897   1.009   5.124
 2531SOL    HW2 8493   4.745   0.988   5.179
 2532SOL     OW 8494   1.317   5.198   0.168
 2532SOL    HW1 8495   1.341   5.133   0.239
 2532SOL    HW2 8496   1.395   5.211   0.106
 2533SOL     OW 8497   5.315   0.242   5.383
 2533SOL    HW1 8498   5.320   0.225   5.285
 2533SOL    HW2 8499   5.407   0.261   5.418
 2534SOL     OW 8500   2.200   0.442   3.597
 2534SOL    HW1 8501   2.192   0.342   3.593
 2534SOL    HW2 8502   2.282   0.466   3.649
 2535SOL     OW 8503   1.584   1.461   3.928
 2535SOL    HW1 8504   1.583   1.520   3.847
 2535SOL    HW2 8505   1.514   1.492   3.993
 2536SOL     OW 8506   6.494   1.227   4.379
 2536SOL    HW1 8507   6.412   1.280   4.402
 2536SOL    HW2 8508   6.547   1.275   4.309
 2537SOL     OW 8509   4.474   5.965   1.086
 2537SOL    HW1 8510   4.493   5.928   0.996
 2537SOL    HW2 8511   4.407   6.039   1.079
 2538SOL     OW 8512   1.775   4.791   5.063
 2538SOL    HW1 8513   1.798   4.705   5.108
 2538SOL    HW2 8514   1.706   4.840   5.118
 2539SOL     OW 8515   4.212   0.019   5.370
 2539SOL    HW1 8516   4.225   6.949   5.400
 2539SOL    HW2 8517   4.152   0.021   5.291
 2540SOL     OW 8518   5.682   1.143   2.336
 2540SOL    HW1 8519   5.696   1.242   2.328
 2540SOL    HW2 8520   5.713   1.098   2.253
 2541SOL     OW 8521   1.276   6.967   5.467
 2541SOL    HW1 8522   1.318   7.023   5.539
 2541SOL    HW2 8523   1.177   6.979   5.470
 2542SOL     OW 8524   3.910   1.960   4.025
 2542SOL    HW1 8525   3.952   2.012   3.950
 2542SOL    HW2 8526   3.845   2.017   4.074
 2543SOL     OW 8527   1.181   0.518   2.512
 2543SOL    HW1 8528   1.177   0.608   2.469
 2543SOL    HW2 8529   1.173   0.448   2.441
 2544SOL     OW 8530   0.300   5.469   1.272
 2544SOL    HW1 8531   0.249   5.540   1.321
 2544SOL    HW2 8532   0.313   5.390   1.331
 2545SOL     OW 8533   1.579   1.696   1.478
 2545SOL    HW1 8534   1.525   1.635   1.536
 2545SOL    HW2 8535   1.517   1.758   1.429
 2546SOL     OW 8536   6.260   3.817   2.109
 2546SOL    HW1 8537   6.248   3.899   2.165
 2546SOL    HW2 8538   6.325   3.835   2.036
 2547SOL     OW 8539   5.575   4.259   0.180
 2547SOL    HW1 8540   5.672   4.268   0.159
 2547SOL    HW2 8541   5.550   4.162   0.187
 2548SOL     OW 8542   0.477   0.203   5.158
 2548SOL    HW1 8543   0.445   0.204   5.253
 2548SOL    HW2 8544   0.533   0.121   5.143
 2549SOL     OW 8545   1.738   2.322   2.069
 2549SOL    HW1 8546   1.730   2.294   2.164
 2549SOL    HW2 8547   1.789   2.408   2.063
 2550SOL     OW 8548   5.437   0.287   6.708
 2550SOL    HW1 8549   5.517   0.253   6.659
 2550SOL    HW2 8550   5.389   0.210   6.750
 2551SOL     OW 8551   3.511   5.489   6.876
 2551SOL    HW1 8552   3.431   5.450   6.921
 2551SOL    HW2 8553   3.593   5.472   6.931
 2552SOL     OW 8554   1.869   4.989   6.962
 2552SOL    HW1 8555   1.825   4.909   6.921
 2552SOL    HW2 8556   1.961   4.999   6.925
 2553SOL     OW 8557   3.594   2.114   6.273
 2553SOL    HW1 8558   3.604   2.050   6.196
 2553SOL    HW2 8559   3.604   2.207   6.240
 2554SOL     OW 8560   1.730   5.747   0.946
 2554SOL    HW1 8561   1.788   5.693   1.007
 2554SOL    HW2 8562   1.675   5.686   0.890
 2555SOL     OW 8563   6.044   6.613   6.045
 2555SOL    HW1 8564   5.946   6.604   6.063
 2555SOL    HW2 8565   6.094   6.548   6.102
 2556SOL     OW 8566   3.274   6.739   1.573
 2556SOL    HW1 8567   3.368   6.717   1.598
 2556SOL    HW2 8568   3.257   6.710   1.478
 2557SOL     OW 8569   3.264   0.821   0.247
 2557SOL    HW1 8570   3.197   0.895   0.251
 2557SOL    HW2 8571   3.356   0.859   0.242
 2558SOL     OW 8572   5.611   4.661   6.451
 2558SOL    HW1 8573   5.540   4.639   6.517
 2558SOL    HW2 8574   5.700   4.665   6.498
 2559SOL     OW 8575   0.169   3.229   3.072
 2559SOL    HW1 8576   0.248   3.176   3.041
 2559SOL    HW2 8577   0.197   3.324   3.090
 2560SOL     OW 8578   5.161   3.470   3.349
 2560SOL    HW1 8579   5.200   3.451   3.440
 2560SOL    HW2 8580   5.062   3.483   3.358
 2561SOL     OW 8581   3.292   1.093   4.375
 2561SOL    HW1 8582   3.304   1.002   4.415
 2561SOL    HW2 8583   3.352   1.158   4.421
 2562SOL     OW 8584   3.456   6.153   3.209
 2562SOL    HW1 8585   3.555   6.148   3.210
 2562SOL    HW2 8586   3.424   6.212   3.284
 2563SOL     OW 8587   2.618   1.336   6.998
 2563SOL    HW1 8588   2.708   1.340   0.019
 2563SOL    HW2 8589   2.546   1.347   0.042
 2564SOL     OW 8590   2.118   0.762   0.134
 2564SOL    HW1 8591   2.200   0.725   0.178
 2564SOL    HW2 8592   2.102   0.713   0.048
 2565SOL     OW 8593   0.384   1.429   6.501
 2565SOL    HW1 8594   0.452   1.496   6.530
 2565SOL    HW2 8595   0.381   1.353   6.567
 2566SOL     OW 8596   3.156   0.669   1.581
 2566SOL    HW1 8597   3.177   0.584   1.631
 2566SOL    HW2 8598   3.114   0.646   1.493
 2567SOL     OW 8599   1.214   0.480   0.441
 2567SOL    HW1 8600   1.287   0.536   0.480
 2567SOL    HW2 8601   1.131   0.536   0.430
 2568SOL     OW 8602   2.813   6.096   1.295
 2568SOL    HW1 8603   2.828   6.164   1.367
 2568SOL    HW2 8604   2.729   6.046   1.313
 2569SOL     OW 8605   2.102   1.338   1.152
 2569SOL    HW1 8606   2.006   1.312   1.143
 2569SOL    HW2 8607   2.109   1.437   1.163
 2570SOL     OW 8608   5.296   6.101   6.829
 2570SOL    HW1 8609   5.292   6.135   6.735
 2570SOL    HW2 8610   5.248   6.164   6.890
 2571SOL     OW 8611   3.644   2.879   3.703
 2571SOL    HW1 8612   3.550   2.858   3.678
 2571SOL    HW2 8613   3.645   2.944   3.779
 2572SOL     OW 8614   2.606   5.374   1.676
 2572SOL    HW1 8615   2.621   5.283   1.715
 2572SOL    HW2 8616   2.659   5.383   1.592
 2573SOL     OW 8617   7.018   2.261   4.178
 2573SOL    HW1 8618   0.075   2.231   4.129
 2573SOL    HW2 8619   0.020   2.322   4.252
 2574SOL     OW 8620   6.781   3.302   1.263
 2574SOL    HW1 8621   6.792   3.389   1.214
 2574SOL    HW2 8622   6.727   3.239   1.208
 2575SOL     OW 8623   5.149   3.919   0.406
 2575SOL    HW1 8624   5.191   3.976   0.477
 2575SOL    HW2 8625   5.175   3.824   0.421
 2576SOL     OW 8626   2.332   0.069   3.439
 2576SOL    HW1 8627   2.351   0.162   3.408
 2576SOL    HW2 8628   2.354   0.004   3.366
 2577SOL     OW 8629   3.900   0.442   3.377
 2577SOL    HW1 8630   3.945   0.379   3.313
 2577SOL    HW2 8631   3.867   0.522   3.326
 2578SOL     OW 8632   4.607   2.472   4.862
 2578SOL    HW1 8633   4.625   2.375   4.847
 2578SOL    HW2 8634   4.526   2.500   4.811
 2579SOL     OW 8635   0.434   1.749   6.633
 2579SOL    HW1 8636   0.418   1.833   6.582
 2579SOL    HW2 8637   0.349   1.718   6.675
 2580SOL     OW 8638   1.599   2.319   5.877
 2580SOL    HW1 8639   1.561   2.233   5.912
 2580SOL    HW2 8640   1.651   2.364   5.950
 2581SOL     OW 8641   5.438   5.754   2.048
 2581SOL    HW1 8642   5.454   5.774   2.145
 2581SOL    HW2 8643   5.364   5.688   2.040
 2582SOL     OW 8644   1.284   5.435   2.721
 2582SOL    HW1 8645   1.224   5.495   2.667
 2582SOL    HW2 8646   1.230   5.359   2.758
 2583SOL     OW 8647   0.570   0.420   1.028
 2583SOL    HW1 8648   0.533   0.372   1.108
 2583SOL    HW2 8649   0.575   0.358   0.950
 2584SOL     OW 8650   3.110   6.085   0.903
 2584SOL    HW1 8651   3.136   6.177   0.933
 2584SOL    HW2 8652   3.029   6.055   0.954
 2585SOL     OW 8653   3.186   6.529   0.962
 2585SOL    HW1 8654   3.218   6.595   1.029
 2585SOL    HW2 8655   3.145   6.451   1.009
 2586SOL     OW 8656   6.160   1.354   4.771
 2586SOL    HW1 8657   6.211   1.409   4.838
 2586SOL    HW2 8658   6.189   1.378   4.679
 2587SOL     OW 8659   6.067   0.234   4.430
 2587SOL    HW1 8660   5.997   0.236   4.501
 2587SOL    HW2 8661   6.157   0.247   4.471
 2588SOL     OW 8662   5.407   1.031   1.166
 2588SOL    HW1 8663   5.504   1.052   1.179
 2588SOL    HW2 8664   5.395   0.984   1.078
 2589SOL     OW 8665   6.756   0.236   5.639
 2589SOL    HW1 8666   6.749   0.325   5.594
 2589SOL    HW2 8667   6.839   0.190   5.608
 2590SOL     OW 8668   3.787   7.011   2.497
 2590SOL    HW1 8669   3.798   0.002   2.399
 2590SOL    HW2 8670   3.698   6.969   2.515
 2591SOL     OW 8671   4.795   6.436   1.317
 2591SOL    HW1 8672   4.826   6.465   1.227
 2591SOL    HW2 8673   4.864   6.376   1.358
 2592SOL     OW 8674   3.224   5.328   1.439
 2592SOL    HW1 8675   3.140   5.311   1.491
 2592SOL    HW2 8676   3.258   5.420   1.460
 2593SOL     OW 8677   3.434   6.700   2.819
 2593SOL    HW1 8678   3.354   6.711   2.878
 2593SOL    HW2 8679   3.405   6.684   2.725
 2594SOL     OW 8680   0.207   0.786   6.411
 2594SOL    HW1 8681   0.297   0.755   6.379
 2594SOL    HW2 8682   0.215   0.878   6.450
 2595SOL     OW 8683   6.629   3.214   5.143
 2595SOL    HW1 8684   6.727   3.227   5.150
 2595SOL    HW2 8685   6.596   3.251   5.056
 2596SOL     OW 8686   3.910   2.169   1.789
 2596SOL    HW1 8687   3.885   2.146   1.695
 2596SOL    HW2 8688   3.847   2.237   1.826
 2597SOL     OW 8689   2.938   3.176   0.879
 2597SOL    HW1 8690   2.877   3.145   0.806
 2597SOL    HW2 8691   2.883   3.198   0.960
 2598SOL     OW 8692   6.684   2.738   4.514
 2598SOL    HW1 8693   6.728   2.825   4.492
 2598SOL    HW2 8694   6.678   2.728   4.613
 2599SOL     OW 8695   3.493   6.263   5.845
 2599SOL    HW1 8696   3.546   6.183   5.814
 2599SOL    HW2 8697   3.425   6.286   5.775
 2600SOL     OW 8698   5.011   3.785   3.568
 2600SOL    HW1 8699   5.065   3.812   3.648
 2600SOL    HW2 8700   4.971   3.695   3.583
 2601SOL     OW 8701   3.088   2.612   5.899
 2601SOL    HW1 8702   3.030   2.693   5.908
 2601SOL    HW2 8703   3.163   2.618   5.965
 2602SOL     OW 8704   6.907   4.863   4.799
 2602SOL    HW1 8705   6.810   4.854   4.822
 2602SOL    HW2 8706   6.923   4.954   4.759
 2603SOL     OW 8707   2.398   2.441   1.788
 2603SOL    HW1 8708   2.487   2.396   1.784
 2603SOL    HW2 8709   2.411   2.540   1.776
 2604SOL     OW 8710   5.372   0.376   0.927
 2604SOL    HW1 8711   5.332   0.449   0.983
 2604SOL    HW2 8712   5.299   0.314   0.898
 2605SOL     OW 8713   4.388   4.581   3.575
 2605SOL    HW1 8714   4.448   4.549   3.648
 2605SOL    HW2 8715   4.310   4.629   3.615
 2606SOL     OW 8716   6.770   4.052   0.842
 2606SOL    HW1 8717   6.810   4.014   0.925
 2606SOL    HW2 8718   6.839   4.106   0.794
 2607SOL     OW 8719   1.590   1.588   4.313
 2607SOL    HW1 8720   1.661   1.519   4.326
 2607SOL    HW2 8721   1.628   1.667   4.264
 2608SOL     OW 8722   5.225   0.409   1.954
 2608SOL    HW1 8723   5.222   0.324   1.902
 2608SOL    HW2 8724   5.204   0.486   1.894
 2609SOL     OW 8725   0.754   2.689   2.476
 2609SOL    HW1 8726   0.810   2.752   2.530
 2609SOL    HW2 8727   0.765   2.596   2.512
 2610SOL     OW 8728   0.240   5.667   4.824
 2610SOL    HW1 8729   0.207   5.760   4.810
 2610SOL    HW2 8730   0.182   5.602   4.773
 2611SOL     OW 8731   5.289   6.386   0.823
 2611SOL    HW1 8732   5.267   6.350   0.732
 2611SOL    HW2 8733   5.217   6.359   0.888
 2612SOL     OW 8734   5.952   6.360   4.623
 2612SOL    HW1 8735   5.896   6.330   4.700
 2612SOL    HW2 8736   5.904   6.432   4.573
 2613SOL     OW 8737   3.799   6.722   2.386
 2613SOL    HW1 8738   3.849   6.638   2.409
 2613SOL    HW2 8739   3.862   6.787   2.343
 2614SOL     OW 8740   6.702   6.838   5.579
 2614SOL    HW1 8741   6.748   6.882   5.501
 2614SOL    HW2 8742   6.657   6.754   5.548
 2615SOL     OW 8743   5.429   5.526   4.274
 2615SOL    HW1 8744   5.407   5.508   4.370
 2615SOL    HW2 8745   5.432   5.439   4.225
 2616SOL     OW 8746   3.879   3.576   3.870
 2616SOL    HW1 8747   3.923   3.641   3.808
 2616SOL    HW2 8748   3.949   3.516   3.909
 2617SOL     OW 8749   3.482   4.736   1.101
 2617SOL    HW1 8750   3.560   4.796   1.082
 2617SOL    HW2 8751   3.431   4.772   1.179
 2618SOL     OW 8752   0.219   6.593   2.695
 2618SOL    HW1 8753   0.220   6.550   2.604
 2618SOL    HW2 8754   0.298   6.561   2.748
 2619SOL     OW 8755   4.433   1.877   2.253
 2619SOL    HW1 8756   4.471   1.792   2.216
 2619SOL    HW2 8757   4.339   1.861   2.283
 2620SOL     OW 8758   1.725   5.218   3.627
 2620SOL    HW1 8759   1.738   5.285   3.555
 2620SOL    HW2 8760   1.787   5.141   3.613
 2621SOL     OW 8761   0.571   5.781   3.182
 2621SOL    HW1 8762   0.564   5.881   3.180
 2621SOL    HW2 8763   0.580   5.750   3.277
 2622SOL     OW 8764   1.934   3.046   6.057
 2622SOL    HW1 8765   1.841   3.056   6.020
 2622SOL    HW2 8766   1.985   2.981   6.001
 2623SOL     OW 8767   3.730   1.156   4.364
 2623SOL    HW1 8768   3.806   1.210   4.327
 2623SOL    HW2 8769   3.644   1.191   4.328
 2624SOL     OW 8770   6.338   3.287   2.808
 2624SOL    HW1 8771   6.406   3.222   2.841
 2624SOL    HW2 8772   6.267   3.238   2.757
 2625SOL     OW 8773   1.706   3.323   5.829
 2625SOL    HW1 8774   1.636   3.287   5.768
 2625SOL    HW2 8775   1.734   3.252   5.893
 2626SOL     OW 8776   1.088   6.484   3.943
 2626SOL    HW1 8777   1.067   6.425   4.021
 2626SOL    HW2 8778   1.186   6.483   3.925
 2627SOL     OW 8779   0.391   1.065   4.905
 2627SOL    HW1 8780   0.342   1.138   4.953
 2627SOL    HW2 8781   0.419   0.995   4.971
 2628SOL     OW 8782   3.800   6.278   6.506
 2628SOL    HW1 8783   3.874   6.332   6.466
 2628SOL    HW2 8784   3.758   6.221   6.435
 2629SOL     OW 8785   3.874   3.860   1.739
 2629SOL    HW1 8786   3.974   3.863   1.736
 2629SOL    HW2 8787   3.839   3.951   1.761
 2630SOL     OW 8788   3.625   2.087   2.265
 2630SOL    HW1 8789   3.683   2.005   2.265
 2630SOL    HW2 8790   3.631   2.133   2.177
 2631SOL     OW 8791   5.081   6.846   4.287
 2631SOL    HW1 8792   5.134   6.783   4.344
 2631SOL    HW2 8793   5.131   6.862   4.201
 2632SOL     OW 8794   3.183   2.556   0.192
 2632SOL    HW1 8795   3.105   2.531   0.134
 2632SOL    HW2 8796   3.216   2.647   0.167
 2633SOL     OW 8797   5.641   2.191   6.448
 2633SOL    HW1 8798   5.644   2.287   6.419
 2633SOL    HW2 8799   5.642   2.186   6.548
 2634SOL     OW 8800   1.666   4.275   2.369
 2634SOL    HW1 8801   1.743   4.216   2.395
 2634SOL    HW2 8802   1.697   4.342   2.301
 2635SOL     OW 8803   5.484   6.333   4.687
 2635SOL    HW1 8804   5.446   6.411   4.738
 2635SOL    HW2 8805   5.515   6.365   4.597
 2636SOL     OW 8806   5.771   0.710   6.780
 2636SOL    HW1 8807   5.709   0.653   6.833
 2636SOL    HW2 8808   5.758   0.806   6.805
 2637SOL     OW 8809   6.534   0.644   3.315
 2637SOL    HW1 8810   6.544   0.741   3.295
 2637SOL    HW2 8811   6.452   0.629   3.370
 2638SOL     OW 8812   5.788   6.964   1.725
 2638SOL    HW1 8813   5.872   6.910   1.722
 2638SOL    HW2 8814   5.810   0.032   1.754
 2639SOL     OW 8815   6.069   6.702   2.214
 2639SOL    HW1 8816   6.015   6.621   2.237
 2639SOL    HW2 8817   6.008   6.775   2.184
 2640SOL     OW 8818   6.905   6.480   5.142
 2640SOL    HW1 8819   6.966   6.523   5.209
 2640SOL    HW2 8820   6.949   6.481   5.052
 2641SOL     OW 8821   5.613   3.330   0.188
 2641SOL    HW1 8822   5.519   3.315   0.219
 2641SOL    HW2 8823   5.670   3.355   0.266
 2642SOL     OW 8824   5.800   0.684   4.157
 2642SOL    HW1 8825   5.844   0.649   4.073
 2642SOL    HW2 8826   5.705   0.653   4.159
 2643SOL     OW 8827   6.738   5.653   2.710
 2643SOL    HW1 8828   6.829   5.629   2.744
 2643SOL    HW2 8829   6.734   5.637   2.611
 2644SOL     OW 8830   0.844   4.455   5.353
 2644SOL    HW1 8831   0.757   4.422   5.389
 2644SOL    HW2 8832   0.919   4.409   5.401
 2645SOL     OW 8833   4.842   0.171   5.252
 2645SOL    HW1 8834   4.794   0.179   5.164
 2645SOL    HW2 8835   4.910   0.099   5.247
 2646SOL     OW 8836   6.016   0.022   6.150
 2646SOL    HW1 8837   6.072   0.071   6.218
 2646SOL    HW2 8838   6.073   6.984   6.098
 2647SOL     OW 8839   4.914   0.882   0.847
 2647SOL    HW1 8840   4.907   0.791   0.806
 2647SOL    HW2 8841   4.999   0.925   0.818
 2648SOL     OW 8842   6.580   6.789   2.849
 2648SOL    HW1 8843   6.657   6.763   2.908
 2648SOL    HW2 8844   6.511   6.834   2.904
 2649SOL     OW 8845   3.616   1.410   5.953
 2649SOL    HW1 8846   3.542   1.380   6.013
 2649SOL    HW2 8847   3.679   1.333   5.936
 2650SOL     OW 8848   0.376   5.193   3.903
 2650SOL    HW1 8849   0.451   5.219   3.843
 2650SOL    HW2 8850   0.338   5.274   3.947
 2651SOL     OW 8851   0.919   1.400   1.133
 2651SOL    HW1 8852   0.983   1.453   1.189
 2651SOL    HW2 8853   0.890   1.455   1.055
 2652SOL     OW 8854   3.530   2.841   3.331
 2652SOL    HW1 8855   3.517   2.742   3.337
 2652SOL    HW2 8856   3.582   2.863   3.248
 2653SOL     OW 8857   5.281   6.921   5.953
 2653SOL    HW1 8858   5.226   6.901   5.872
 2653SOL    HW2 8859   5.221   6.931   6.032
 2654SOL     OW 8860   5.206   3.171   6.234
 2654SOL    HW1 8861   5.196   3.194   6.137
 2654SOL    HW2 8862   5.136   3.218   6.287
 2655SOL     OW 8863   3.922   5.258   4.481
 2655SOL    HW1 8864   4.022   5.257   4.487
 2655SOL    HW2 8865   3.888   5.350   4.501
 2656SOL     OW 8866   5.539   5.130   4.153
 2656SOL    HW1 8867   5.475   5.064   4.113
 2656SOL    HW2 8868   5.618   5.081   4.191
 2657SOL     OW 8869   2.242   3.835   6.342
 2657SOL    HW1 8870   2.301   3.810   6.419
 2657SOL    HW2 8871   2.267   3.926   6.309
 2658SOL     OW 8872   6.246   4.810   6.495
 2658SOL    HW1 8873   6.263   4.714   6.518
 2658SOL    HW2 8874   6.147   4.825   6.488
 2659SOL     OW 8875   6.666   2.300   4.704
 2659SOL    HW1 8876   6.749   2.329   4.655
 2659SOL    HW2 8877   6.692   2.242   4.782
 2660SOL     OW 8878   6.929   2.016   1.738
 2660SOL    HW1 8879   6.949   2.074   1.816
 2660SOL    HW2 8880   7.011   1.965   1.712
 2661SOL     OW 8881   2.858   6.332   1.101
 2661SOL    HW1 8882   2.795   6.336   1.024
 2661SOL    HW2 8883   2.848   6.244   1.147
 2662SOL     OW 8884   4.288   6.752   4.625
 2662SOL    HW1 8885   4.359   6.709   4.569
 2662SOL    HW2 8886   4.255   6.687   4.693
 2663SOL     OW 8887   2.504   4.684   1.550
 2663SOL    HW1 8888   2.490   4.611   1.484
 2663SOL    HW2 8889   2.571   4.655   1.619
 2664SOL     OW 8890   3.475   3.646   3.534
 2664SOL    HW1 8891   3.431   3.620   3.448
 2664SOL    HW2 8892   3.486   3.565   3.592
 2665SOL     OW 8893   3.480   1.506   4.429
 2665SOL    HW1 8894   3.428   1.511   4.343
 2665SOL    HW2 8895   3.428   1.455   4.497
 2666SOL     OW 8896   4.643   4.804   1.236
 2666SOL    HW1 8897   4.578   4.839   1.303
 2666SOL    HW2 8898   4.642   4.704   1.237
 2667SOL     OW 8899   1.358   6.232   4.917
 2667SOL    HW1 8900   1.420   6.311   4.917
 2667SOL    HW2 8901   1.368   6.182   5.003
 2668SOL     OW 8902   6.722   3.387   4.570
 2668SOL    HW1 8903   6.703   3.301   4.617
 2668SOL    HW2 8904   6.691   3.381   4.475
 2669SOL     OW 8905   3.630   4.876   5.637
 2669SOL    HW1 8906   3.569   4.804   5.669
 2669SOL    HW2 8907   3.689   4.841   5.565
 2670SOL     OW 8908   6.698   1.170   6.828
 2670SOL    HW1 8909   6.693   1.267   6.851
 2670SOL    HW2 8910   6.678   1.115   6.909
 2671SOL     OW 8911   2.160   3.554   6.978
 2671SOL    HW1 8912   2.145   3.456   6.967
 2671SOL    HW2 8913   2.242   3.582   6.930
 2672SOL     OW 8914   1.338   5.737   6.863
 2672SOL    HW1 8915   1.239   5.743   6.860
 2672SOL    HW2 8916   1.367   5.703   6.953
 2673SOL     OW 8917   5.066   2.949   3.799
 2673SOL    HW1 8918   5.071   2.897   3.713
 2673SOL    HW2 8919   5.148   2.931   3.853
 2674SOL     OW 8920   1.766   4.525   4.532
 2674SOL    HW1 8921   1.781   4.621   4.554
 2674SOL    HW2 8922   1.845   4.488   4.484
 2675SOL     OW 8923   1.105   4.340   5.755
 2675SOL    HW1 8924   1.024   4.282   5.759
 2675SOL    HW2 8925   1.179   4.297   5.807
 2676SOL     OW 8926   4.724   1.640   2.661
 2676SOL    HW1 8927   4.753   1.698   2.585
 2676SOL    HW2 8928   4.799   1.629   2.725
 2677SOL     OW 8929   2.531   4.969   1.565
 2677SOL    HW1 8930   2.545   5.021   1.481
 2677SOL    HW2 8931   2.515   4.873   1.544
 2678SOL     OW 8932   0.910   4.730   0.306
 2678SOL    HW1 8933   0.839   4.780   0.357
 2678SOL    HW2 8934   0.891   4.736   0.208
 2679SOL     OW 8935   3.833   5.042   0.829
 2679SOL    HW1 8936   3.918   4.989   0.827
 2679SOL    HW2 8937   3.854   5.139   0.826
 2680SOL     OW 8938   1.923   1.577   0.462
 2680SOL    HW1 8939   1.896   1.553   0.555
 2680SOL    HW2 8940   1.863   1.649   0.428
 2681SOL     OW 8941   1.545   3.762   4.157
 2681SOL    HW1 8942   1.551   3.838   4.222
 2681SOL    HW2 8943   1.529   3.799   4.065
 2682SOL     OW 8944   5.753   3.007   1.806
 2682SOL    HW1 8945   5.804   2.959   1.877
 2682SOL    HW2 8946   5.657   2.980   1.810
 2683SOL     OW 8947   0.912   5.056   1.306
 2683SOL    HW1 8948   0.852   5.106   1.243
 2683SOL    HW2 8949   0.857   4.994   1.362
 2684SOL     OW 8950   4.197   5.884   2.672
 2684SOL    HW1 8951   4.180   5.982   2.677
 2684SOL    HW2 8952   4.258   5.857   2.746
 2685SOL     OW 8953   6.556   0.197   4.244
 2685SOL    HW1 8954   6.597   0.127   4.302
 2685SOL    HW2 8955   6.465   0.166   4.215
 2686SOL     OW 8956   1.573   2.178   4.164
 2686SOL    HW1 8957   1.660   2.163   4.210
 2686SOL    HW2 8958   1.591   2.209   4.070
 2687SOL     OW 8959   3.888   5.061   2.857
 2687SOL    HW1 8960   3.848   5.142   2.816
 2687SOL    HW2 8961   3.967   5.032   2.803
 2688SOL     OW 8962   3.979   5.645   5.670
 2688SOL    HW1 8963   3.970   5.591   5.586
 2688SOL    HW2 8964   4.036   5.596   5.735
 2689SOL     OW 8965   1.274   1.727   3.933
 2689SOL    HW1 8966   1.178   1.753   3.938
 2689SOL    HW2 8967   1.300   1.714   3.837
 2690SOL     OW 8968   4.038   3.270   3.685
 2690SOL    HW1 8969   4.007   3.180   3.653
 2690SOL    HW2 8970   4.011   3.340   3.618
 2691SOL     OW 8971   1.933   5.658   1.996
 2691SOL    HW1 8972   1.959   5.562   1.987
 2691SOL    HW2 8973   1.851   5.675   1.940
 2692SOL     OW 8974   5.993   5.812   4.051
 2692SOL    HW1 8975   5.913   5.799   3.993
 2692SOL    HW2 8976   6.065   5.858   3.998
 2693SOL     OW 8977   2.191   4.849   2.897
 2693SOL    HW1 8978   2.124   4.909   2.854
 2693SOL    HW2 8979   2.282   4.868   2.859
 2694SOL     OW 8980   3.313   0.252   3.244
 2694SOL    HW1 8981   3.311   0.324   3.174
 2694SOL    HW2 8982   3.230   0.257   3.299
 2695SOL     OW 8983   4.867   1.799   2.474
 2695SOL    HW1 8984   4.916   1.884   2.494
 2695SOL    HW2 8985   4.918   1.747   2.407
 2696SOL     OW 8986   3.828   2.799   5.523
 2696SOL    HW1 8987   3.825   2.732   5.597
 2696SOL    HW2 8988   3.754   2.780   5.458
 2697SOL     OW 8989   4.243   2.133   3.774
 2697SOL    HW1 8990   4.284   2.062   3.832
 2697SOL    HW2 8991   4.235   2.099   3.681
 2698SOL     OW 8992   0.972   4.758   0.696
 2698SOL    HW1 8993   1.027   4.682   0.662
 2698SOL    HW2 8994   0.963   4.751   0.795
 2699SOL     OW 8995   3.490   5.314   0.117
 2699SOL    HW1 8996   3.408   5.371   0.126
 2699SOL    HW2 8997   3.464   5.218   0.118
 2700SOL     OW 8998   2.132   3.807   2.524
 2700SOL    HW1 8999   2.170   3.744   2.593
 2700SOL    HW2 9000   2.073   3.756   2.462
 2701SOL     OW 9001   3.986   0.484   6.423
 2701SOL    HW1 9002   4.070   0.432   6.438
 2701SOL    HW2 9003   3.959   0.477   6.327
 2702SOL     OW 9004   6.505   2.039   3.359
 2702SOL    HW1 9005   6.486   1.956   3.305
 2702SOL    HW2 9006   6.582   2.087   3.319
 2703SOL     OW 9007   2.964   1.211   2.827
 2703SOL    HW1 9008   3.060   1.183   2.831
 2703SOL    HW2 9009   2.944   1.275   2.901
 2704SOL     OW 9010   2.017   5.747   1.584
 2704SOL    HW1 9011   2.046   5.794   1.667
 2704SOL    HW2 9012   2.056   5.794   1.504
 2705SOL     OW 9013   6.900   5.201   4.155
 2705SOL    HW1 9014   6.899   5.157   4.066
 2705SOL    HW2 9015   6.830   5.161   4.214
 2706SOL     OW 9016   6.680   1.197   1.960
 2706SOL    HW1 9017   6.719   1.162   1.875
 2706SOL    HW2 9018   6.731   1.160   2.038
 2707SOL     OW 9019   2.094   0.443   6.719
 2707SOL    HW1 9020   2.060   0.363   6.769
 2707SOL    HW2 9021   2.134   0.413   6.633
 2708SOL     OW 9022   2.686   2.353   1.806
 2708SOL    HW1 9023   2.771   2.386   1.847
 2708SOL    HW2 9024   2.663   2.263   1.845
 2709SOL     OW 9025   4.850   6.435   1.053
 2709SOL    HW1 9026   4.913   6.425   0.976
 2709SOL    HW2 9027   4.770   6.378   1.037
 2710SOL     OW 9028   6.745   3.680   2.717
 2710SOL    HW1 9029   6.769   3.776   2.720
 2710SOL    HW2 9030   6.826   3.624   2.733
 2711SOL     OW 9031   1.800   0.268   2.629
 2711SOL    HW1 9032   1.769   0.308   2.543
 2711SOL    HW2 9033   1.848   0.338   2.682
 2712SOL     OW 9034   2.857   4.793   0.168
 2712SOL    HW1 9035   2.816   4.760   0.253
 2712SOL    HW2 9036   2.934   4.854   0.189
 2713SOL     OW 9037   1.691   2.555   4.587
 2713SOL    HW1 9038   1.764   2.491   4.563
 2713SOL    HW2 9039   1.604   2.506   4.589
 2714SOL     OW 9040   5.410   1.552   6.809
 2714SOL    HW1 9041   5.464   1.629   6.843
 2714SOL    HW2 9042   5.315   1.560   6.841
 2715SOL     OW 9043   5.876   0.954   0.163
 2715SOL    HW1 9044   5.882   0.886   0.090
 2715SOL    HW2 9045   5.920   1.039   0.134
 2716SOL     OW 9046   6.971   5.887   1.481
 2716SOL    HW1 9047   6.918   5.864   1.399
 2716SOL    HW2 9048   0.039   5.915   1.453
 2717SOL     OW 9049   0.986   5.713   1.949
 2717SOL    HW1 9050   0.938   5.723   2.037
 2717SOL    HW2 9051   0.934   5.651   1.890
 2718SOL     OW 9052   2.269   4.239   4.275
 2718SOL    HW1 9053   2.287   4.305   4.202
 2718SOL    HW2 9054   2.232   4.155   4.236
 2719SOL     OW 9055   4.426   4.970   2.187
 2719SOL    HW1 9056   4.351   4.918   2.146
 2719SOL    HW2 9057   4.471   4.915   2.257
 2720SOL     OW 9058   1.844   5.842   3.164
 2720SOL    HW1 9059   1.809   5.932   3.190
 2720SOL    HW2 9060   1.787   5.805   3.091
 2721SOL     OW 9061   2.591   0.505   4.827
 2721SOL    HW1 9062   2.554   0.538   4.914
 2721SOL    HW2 9063   2.516   0.486   4.764
 2722SOL     OW 9064   6.817   5.645   3.136
 2722SOL    HW1 9065   6.859   5.646   3.045
 2722SOL    HW2 9066   6.718   5.654   3.126
 2723SOL     OW 9067   2.130   0.985   5.741
 2723SOL    HW1 9068   2.220   1.015   5.709
 2723SOL    HW2 9069   2.116   0.889   5.714
 2724SOL     OW 9070   3.074   5.776   5.710
 2724SOL    HW1 9071   2.981   5.775   5.673
 2724SOL    HW2 9072   3.133   5.717   5.654
 2725SOL     OW 9073   5.332   4.624   3.226
 2725SOL    HW1 9074   5.407   4.559   3.212
 2725SOL    HW2 9075   5.363   4.716   3.201
 2726SOL     OW 9076   4.885   4.986   1.745
 2726SOL    HW1 9077   4.870   4.892   1.717
 2726SOL    HW2 9078   4.974   4.993   1.792
 2727SOL     OW 9079   0.759   4.777   3.089
 2727SOL    HW1 9080   0.817   4.809   3.014
 2727SOL    HW2 9081   0.715   4.856   3.134
 2728SOL     OW 9082   3.106   0.552   4.837
 2728SOL    HW1 9083   3.103   0.504   4.924
 2728SOL    HW2 9084   3.019   0.599   4.821
 2729SOL     OW 9085   6.735   6.206   2.187
 2729SOL    HW1 9086   6.683   6.121   2.199
 2729SOL    HW2 9087   6.822   6.199   2.235
 2730SOL     OW 9088   2.299   6.900   0.890
 2730SOL    HW1 9089   2.367   6.861   0.953
 2730SOL    HW2 9090   2.258   6.827   0.835
 2731SOL     OW 9091   2.716   3.687   1.504
 2731SOL    HW1 9092   2.678   3.733   1.584
 2731SOL    HW2 9093   2.670   3.598   1.492
 2732SOL     OW 9094   5.883   3.158   2.366
 2732SOL    HW1 9095   5.866   3.122   2.274
 2732SOL    HW2 9096   5.972   3.125   2.398
 2733SOL     OW 9097   1.002   6.663   5.337
 2733SOL    HW1 9098   1.098   6.681   5.357
 2733SOL    HW2 9099   0.986   6.565   5.329
 2734SOL     OW 9100   1.719   5.645   3.366
 2734SOL    HW1 9101   1.770   5.713   3.314
 2734SOL    HW2 9102   1.623   5.672   3.372
 2735SOL     OW 9103   0.459   3.873   2.801
 2735SOL    HW1 9104   0.427   3.963   2.828
 2735SOL    HW2 9105   0.520   3.881   2.722
 2736SOL     OW 9106   4.703   0.739   4.984
 2736SOL    HW1 9107   4.632   0.712   5.050
 2736SOL    HW2 9108   4.738   0.829   5.009
 2737SOL     OW 9109   3.299   3.504   6.151
 2737SOL    HW1 9110   3.283   3.432   6.083
 2737SOL    HW2 9111   3.227   3.574   6.143
 2738SOL     OW 9112   5.027   5.759   4.257
 2738SOL    HW1 9113   4.997   5.845   4.298
 2738SOL    HW2 9114   5.053   5.775   4.162
 2739SOL     OW 9115   5.619   4.083   0.654
 2739SOL    HW1 9116   5.604   3.986   0.671
 2739SOL    HW2 9117   5.625   4.131   0.741
 2740SOL     OW 9118   5.939   2.045   2.476
 2740SOL    HW1 9119   6.031   2.057   2.515
 2740SOL    HW2 9120   5.944   1.982   2.398
 2741SOL     OW 9121   0.155   1.766   5.736
 2741SOL    HW1 9122   0.128   1.670   5.741
 2741SOL    HW2 9123   0.094   1.814   5.674
 2742SOL     OW 9124   1.010   5.419   6.183
 2742SOL    HW1 9125   1.075   5.413   6.108
 2742SOL    HW2 9126   0.943   5.345   6.175
 2743SOL     OW 9127   5.983   5.669   1.276
 2743SOL    HW1 9128   6.066   5.626   1.310
 2743SOL    HW2 9129   6.007   5.754   1.228
 2744SOL     OW 9130   3.962   1.743   6.640
 2744SOL    HW1 9131   3.903   1.824   6.635
 2744SOL    HW2 9132   3.959   1.707   6.733
 2745SOL     OW 9133   1.906   6.132   0.527
 2745SOL    HW1 9134   1.930   6.210   0.585
 2745SOL    HW2 9135   1.878   6.056   0.585
 2746SOL     OW 9136   1.933   3.067   4.717
 2746SOL    HW1 9137   1.993   3.132   4.670
 2746SOL    HW2 9138   1.921   2.986   4.660
 2747SOL     OW 9139   5.607   5.172   5.215
 2747SOL    HW1 9140   5.639   5.086   5.176
 2747SOL    HW2 9141   5.680   5.240   5.212
 2748SOL     OW 9142   3.105   1.186   3.207
 2748SOL    HW1 9143   3.191   1.145   3.174
 2748SOL    HW2 9144   3.121   1.283   3.227
 2749SOL     OW 9145   5.718   4.534   4.269
 2749SOL    HW1 9146   5.811   4.516   4.301
 2749SOL    HW2 9147   5.677   4.448   4.237
 2750SOL     OW 9148   0.441   5.196   1.675
 2750SOL    HW1 9149   0.541   5.191   1.678
 2750SOL    HW2 9150   0.403   5.118   1.724
 2751SOL     OW 9151   1.688   6.905   0.713
 2751SOL    HW1 9152   1.619   6.911   0.642
 2751SOL    HW2 9153   1.646   6.915   0.803
 2752SOL     OW 9154   4.713   6.166   5.205
 2752SOL    HW1 9155   4.688   6.095   5.271
 2752SOL    HW2 9156   4.669   6.147   5.117
 2753SOL     OW 9157   3.206   5.582   6.113
 2753SOL    HW1 9158   3.181   5.672   6.077
 2753SOL    HW2 9159   3.169   5.511   6.052
 2754SOL     OW 9160   7.014   0.113   3.966
 2754SOL    HW1 9161   0.065   0.178   3.964
 2754SOL    HW2 9162   6.989   0.093   4.061
 2755SOL     OW 9163   2.695   6.623   3.354
 2755SOL    HW1 9164   2.783   6.656   3.388
 2755SOL    HW2 9165   2.680   6.656   3.261
 2756SOL     OW 9166   6.135   4.068   4.660
 2756SOL    HW1 9167   6.051   4.083   4.608
 2756SOL    HW2 9168   6.185   4.154   4.666
 2757SOL     OW 9169   3.404   1.844   6.526
 2757SOL    HW1 9170   3.472   1.790   6.477
 2757SOL    HW2 9171   3.421   1.942   6.511
 2758SOL     OW 9172   5.060   5.718   3.466
 2758SOL    HW1 9173   5.095   5.660   3.393
 2758SOL    HW2 9174   5.057   5.813   3.435
 2759SOL     OW 9175   3.740   4.615   5.729
 2759SOL    HW1 9176   3.774   4.680   5.797
 2759SOL    HW2 9177   3.642   4.629   5.715
 2760SOL     OW 9178   6.037   5.998   2.585
 2760SOL    HW1 9179   5.967   5.986   2.515
 2760SOL    HW2 9180   6.085   5.911   2.600
 2761SOL     OW 9181   0.939   4.390   3.666
 2761SOL    HW1 9182   0.856   4.440   3.692
 2761SOL    HW2 9183   0.932   4.359   3.572
 2762SOL     OW 9184   1.310   2.232   0.011
 2762SOL    HW1 9185   1.306   2.186   6.947
 2762SOL    HW2 9186   1.238   2.302   0.014
 2763SOL     OW 9187   4.907   1.757   5.942
 2763SOL    HW1 9188   4.990   1.748   5.997
 2763SOL    HW2 9189   4.899   1.851   5.909
 2764SOL     OW 9190   0.739   4.455   3.079
 2764SOL    HW1 9191   0.711   4.515   3.154
 2764SOL    HW2 9192   0.794   4.506   3.013
 2765SOL     OW 9193   6.496   0.184   0.151
 2765SOL    HW1 9194   6.448   0.147   0.071
 2765SOL    HW2 9195   6.451   0.268   0.182
 2766SOL     OW 9196   4.143   1.225   6.986
 2766SOL    HW1 9197   4.067   1.178   6.942
 2766SOL    HW2 9198   4.219   1.160   6.998
 2767SOL     OW 9199   5.915   5.879   6.351
 2767SOL    HW1 9200   5.955   5.962   6.390
 2767SOL    HW2 9201   5.956   5.799   6.393
 2768SOL     OW 9202   3.610   0.109   0.805
 2768SOL    HW1 9203   3.577   0.055   0.727
 2768SOL    HW2 9204   3.573   0.071   0.890
 2769SOL     OW 9205   2.182   3.932   5.956
 2769SOL    HW1 9206   2.146   4.022   5.982
 2769SOL    HW2 9207   2.241   3.942   5.876
 2770SOL     OW 9208   3.700   6.636   6.105
 2770SOL    HW1 9209   3.706   6.619   6.204
 2770SOL    HW2 9210   3.644   6.565   6.063
 2771SOL     OW 9211   5.434   6.655   4.205
 2771SOL    HW1 9212   5.532   6.658   4.184
 2771SOL    HW2 9213   5.385   6.609   4.131
 2772SOL     OW 9214   3.769   0.770   2.566
 2772SOL    HW1 9215   3.857   0.722   2.562
 2772SOL    HW2 9216   3.779   0.853   2.621
 2773SOL     OW 9217   0.313   3.252   4.428
 2773SOL    HW1 9218   0.253   3.327   4.454
 2773SOL    HW2 9219   0.259   3.180   4.384
 2774SOL     OW 9220   5.257   2.256   2.865
 2774SOL    HW1 9221   5.259   2.294   2.957
 2774SOL    HW2 9222   5.247   2.157   2.870
 2775SOL     OW 9223   6.999   3.606   4.249
 2775SOL    HW1 9224   0.014   3.671   4.184
 2775SOL    HW2 9225   6.989   3.517   4.204
 2776SOL     OW 9226   5.085   5.550   0.067
 2776SOL    HW1 9227   5.144   5.619   0.025
 2776SOL    HW2 9228   4.998   5.592   0.092
 2777SOL     OW 9229   2.383   2.078   5.596
 2777SOL    HW1 9230   2.411   2.165   5.636
 2777SOL    HW2 9231   2.428   2.003   5.644
 2778SOL     OW 9232   2.850   5.704   6.460
 2778SOL    HW1 9233   2.885   5.664   6.375
 2778SOL    HW2 9234   2.812   5.795   6.440
 2779SOL     OW 9235   5.646   6.198   1.712
 2779SOL    HW1 9236   5.712   6.273   1.714
 2779SOL    HW2 9237   5.567   6.226   1.657
 2780SOL     OW 9238   0.358   0.747   6.042
 2780SOL    HW1 9239   0.267   0.783   6.018
 2780SOL    HW2 9240   0.352   0.697   6.128
 2781SOL     OW 9241   6.747   0.938   2.422
 2781SOL    HW1 9242   6.815   0.887   2.474
 2781SOL    HW2 9243   6.699   0.877   2.360
 2782SOL     OW 9244   4.462   0.912   5.887
 2782SOL    HW1 9245   4.414   0.829   5.858
 2782SOL    HW2 9246   4.472   0.912   5.987
 2783SOL     OW 9247   6.348   3.412   1.326
 2783SOL    HW1 9248   6.268   3.463   1.358
 2783SOL    HW2 9249   6.327   3.314   1.325
 2784SOL     OW 9250   2.923   1.262   2.174
 2784SOL    HW1 9251   2.970   1.311   2.247
 2784SOL    HW2 9252   2.980   1.186   2.143
 2785SOL     OW 9253   4.872   2.505   1.392
 2785SOL    HW1 9254   4.928   2.588   1.398
 2785SOL    HW2 9255   4.792   2.515   1.450
 2786SOL     OW 9256   6.722   5.265   0.794
 2786SOL    HW1 9257   6.707   5.342   0.731
 2786SOL    HW2 9258   6.638   5.210   0.799
 2787SOL     OW 9259   6.251   5.872   6.205
 2787SOL    HW1 9260   6.214   5.782   6.229
 2787SOL    HW2 9261   6.307   5.864   6.123
 2788SOL     OW 9262   3.260   6.729   5.752
 2788SOL    HW1 9263   3.191   6.722   5.824
 2788SOL    HW2 9264   3.332   6.662   5.768
 2789SOL     OW 9265   1.550   2.817   3.517
 2789SOL    HW1 9266   1.608   2.876   3.573
 2789SOL    HW2 9267   1.456   2.818   3.552
 2790SOL     OW 9268   2.441   5.068   0.371
 2790SOL    HW1 9269   2.439   5.168   0.370
 2790SOL    HW2 9270   2.463   5.034   0.280
 2791SOL     OW 9271   0.072   4.075   2.292
 2791SOL    HW1 9272   0.027   3.988   2.269
 2791SOL    HW2 9273   0.168   4.058   2.312
 2792SOL     OW 9274   3.233   0.869   4.897
 2792SOL    HW1 9275   3.262   0.806   4.969
 2792SOL    HW2 9276   3.314   0.907   4.852
 2793SOL     OW 9277   3.871   4.234   1.316
 2793SOL    HW1 9278   3.881   4.311   1.379
 2793SOL    HW2 9279   3.941   4.165   1.336
 2794SOL     OW 9280   6.713   1.154   6.542
 2794SOL    HW1 9281   6.677   1.221   6.477
 2794SOL    HW2 9282   6.679   1.175   6.634
 2795SOL     OW 9283   0.377   4.828   1.019
 2795SOL    HW1 9284   0.443   4.901   1.001
 2795SOL    HW2 9285   0.377   4.764   0.942
 2796SOL     OW 9286   0.631   6.044   5.438
 2796SOL    HW1 9287   0.668   5.961   5.396
 2796SOL    HW2 9288   0.698   6.081   5.503
 2797SOL     OW 9289   5.820   6.005   4.827
 2797SOL    HW1 9290   5.810   6.101   4.803
 2797SOL    HW2 9291   5.902   5.993   4.882
 2798SOL     OW 9292   6.520   6.949   2.339
 2798SOL    HW1 9293   6.611   6.972   2.305
 2798SOL    HW2 9294   6.525   6.925   2.436
 2799SOL     OW 9295   4.712   5.542   5.509
 2799SOL    HW1 9296   4.645   5.605   5.548
 2799SOL    HW2 9297   4.741   5.576   5.420
 2800SOL     OW 9298   5.750   0.519   0.332
 2800SOL    HW1 9299   5.667   0.463   0.341
 2800SOL    HW2 9300   5.725   0.607   0.293
 2801SOL     OW 9301   0.381   4.996   6.176
 2801SOL    HW1 9302   0.361   4.905   6.213
 2801SOL    HW2 9303   0.340   5.005   6.085
 2802SOL     OW 9304   6.138   6.676   5.559
 2802SOL    HW1 9305   6.106   6.606   5.623
 2802SOL    HW2 9306   6.197   6.634   5.490
 2803SOL     OW 9307   3.404   3.057   6.325
 2803SOL    HW1 9308   3.439   3.069   6.418
 2803SOL    HW2 9309   3.481   3.061   6.260
 2804SOL     OW 9310   0.320   2.818   3.842
 2804SOL    HW1 9311   0.233   2.863   3.825
 2804SOL    HW2 9312   0.308   2.719   3.835
 2805SOL     OW 9313   4.793   3.521   1.684
 2805SOL    HW1 9314   4.834   3.435   1.714
 2805SOL    HW2 9315   4.696   3.522   1.710
 2806SOL     OW 9316   1.944   3.935   6.252
 2806SOL    HW1 9317   1.861   3.980   6.218
 2806SOL    HW2 9318   2.020   3.999   6.249
 2807SOL     OW 9319   3.045   0.428   2.878
 2807SOL    HW1 9320   3.059   0.524   2.855
 2807SOL    HW2 9321   2.947   0.408   2.879
 2808SOL     OW 9322   6.671   5.473   0.648
 2808SOL    HW1 9323   6.665   5.557   0.702
 2808SOL    HW2 9324   6.692   5.496   0.553
 2809SOL     OW 9325   5.549   4.736   1.919
 2809SOL    HW1 9326   5.555   4.828   1.959
 2809SOL    HW2 9327   5.493   4.739   1.837
 2810SOL     OW 9328   2.464   6.163   3.460
 2810SOL    HW1 9329   2.555   6.122   3.469
 2810SOL    HW2 9330   2.472   6.263   3.460
 2811SOL     OW 9331   0.719   0.155   2.307
 2811SOL    HW1 9332   0.666   0.238   2.322
 2811SOL    HW2 9333   0.784   0.143   2.382
 2812SOL     OW 9334   0.491   2.921   1.124
 2812SOL    HW1 9335   0.465   3.000   1.068
 2812SOL    HW2 9336   0.456   2.932   1.216
 2813SOL     OW 9337   0.579   1.785   1.090
 2813SOL    HW1 9338   0.633   1.706   1.064
 2813SOL    HW2 9339   0.634   1.846   1.147
 2814SOL     OW 9340   2.383   4.142   6.834
 2814SOL    HW1 9341   2.353   4.225   6.788
 2814SOL    HW2 9342   2.440   4.167   6.912
 2815SOL     OW 9343   0.230   6.107   5.151
 2815SOL    HW1 9344   0.207   6.110   5.248
 2815SOL    HW2 9345   0.148   6.086   5.098
 2816SOL     OW 9346   6.883   6.234   5.646
 2816SOL    HW1 9347   6.942   6.165   5.688
 2816SOL    HW2 9348   6.883   6.316   5.702
 2817SOL     OW 9349   3.874   0.341   1.889
 2817SOL    HW1 9350   3.837   0.429   1.919
 2817SOL    HW2 9351   3.835   0.268   1.945
 2818SOL     OW 9352   1.710   0.806   1.433
 2818SOL    HW1 9353   1.763   0.884   1.398
 2818SOL    HW2 9354   1.635   0.840   1.490
 2819SOL     OW 9355   0.825   6.993   0.894
 2819SOL    HW1 9356   0.749   6.999   0.959
 2819SOL    HW2 9357   0.814   6.911   0.838
 2820SOL     OW 9358   0.867   2.326   2.197
 2820SOL    HW1 9359   0.821   2.360   2.115
 2820SOL    HW2 9360   0.919   2.400   2.239
 2821SOL     OW 9361   3.595   4.524   6.330
 2821SOL    HW1 9362   3.641   4.603   6.370
 2821SOL    HW2 9363   3.659   4.473   6.272
 2822SOL     OW 9364   3.847   2.910   0.949
 2822SOL    HW1 9365   3.937   2.923   0.991
 2822SOL    HW2 9366   3.785   2.981   0.979
 2823SOL     OW 9367   4.806   0.900   0.272
 2823SOL    HW1 9368   4.779   0.890   0.367
 2823SOL    HW2 9369   4.749   0.971   0.228
 2824SOL     OW 9370   1.000   3.971   5.920
 2824SOL    HW1 9371   1.087   4.010   5.948
 2824SOL    HW2 9372   0.984   3.885   5.969
 2825SOL     OW 9373   5.280   1.029   6.116
 2825SOL    HW1 9374   5.236   0.973   6.046
 2825SOL    HW2 9375   5.214   1.048   6.189
 2826SOL     OW 9376   1.176   3.348   6.352
 2826SOL    HW1 9377   1.147   3.356   6.448
 2826SOL    HW2 9378   1.096   3.352   6.292
 2827SOL     OW 9379   6.927   1.012   6.488
 2827SOL    HW1 9380   6.853   1.074   6.513
 2827SOL    HW2 9381   7.013   1.064   6.483
 2828SOL     OW 9382   1.165   3.487   1.455
 2828SOL    HW1 9383   1.227   3.527   1.522
 2828SOL    HW2 9384   1.212   3.477   1.367
 2829SOL     OW 9385   3.276   4.043   3.248
 2829SOL    HW1 9386   3.316   4.050   3.339
 2829SOL    HW2 9387   3.178   4.061   3.252
 2830SOL     OW 9388   4.329   5.338   5.934
 2830SOL    HW1 9389   4.385   5.321   5.853
 2830SOL    HW2 9390   4.382   5.317   6.016
 2831SOL     OW 9391   6.998   2.204   2.302
 2831SOL    HW1 9392   0.017   2.239   2.218
 2831SOL    HW2 9393   0.011   2.114   2.324
 2832SOL     OW 9394   0.822   3.084   1.197
 2832SOL    HW1 9395   0.726   3.108   1.208
 2832SOL    HW2 9396   0.879   3.146   1.251
 2833SOL     OW 9397   2.249   1.144   2.198
 2833SOL    HW1 9398   2.177   1.195   2.151
 2833SOL    HW2 9399   2.319   1.209   2.230
 2834SOL     OW 9400   4.388   6.232   5.008
 2834SOL    HW1 9401   4.292   6.221   4.982
 2834SOL    HW2 9402   4.442   6.157   4.970
 2835SOL     OW 9403   0.968   5.975   0.869
 2835SOL    HW1 9404   1.035   5.901   0.881
 2835SOL    HW2 9405   1.004   6.059   0.910
 2836SOL     OW 9406   3.306   6.919   3.475
 2836SOL    HW1 9407   3.394   6.917   3.521
 2836SOL    HW2 9408   3.268   7.011   3.478
 2837SOL     OW 9409   5.618   4.192   2.135
 2837SOL    HW1 9410   5.714   4.211   2.114
 2837SOL    HW2 9411   5.580   4.270   2.185
 2838SOL     OW 9412   5.134   3.717   6.162
 2838SOL    HW1 9413   5.073   3.722   6.083
 2838SOL    HW2 9414   5.219   3.767   6.141
 2839SOL     OW 9415   5.967   3.137   4.378
 2839SOL    HW1 9416   6.018   3.125   4.463
 2839SOL    HW2 9417   5.986   3.228   4.340
 2840SOL     OW 9418   0.832   6.029   2.397
 2840SOL    HW1 9419   0.819   6.018   2.299
 2840SOL    HW2 9420   0.743   6.036   2.442
 2841SOL     OW 9421   6.132   2.557   1.207
 2841SOL    HW1 9422   6.193   2.549   1.285
 2841SOL    HW2 9423   6.055   2.616   1.231
 2842SOL     OW 9424   1.334   6.167   4.513
 2842SOL    HW1 9425   1.431   6.174   4.539
 2842SOL    HW2 9426   1.289   6.254   4.532
 2843SOL     OW 9427   2.090   3.238   2.826
 2843SOL    HW1 9428   2.119   3.146   2.802
 2843SOL    HW2 9429   2.029   3.235   2.905
 2844SOL     OW 9430   5.081   4.973   0.942
 2844SOL    HW1 9431   5.170   5.018   0.947
 2844SOL    HW2 9432   5.012   5.032   0.984
 2845SOL     OW 9433   4.773   2.913   3.284
 2845SOL    HW1 9434   4.802   2.941   3.192
 2845SOL    HW2 9435   4.832   2.957   3.352
 2846SOL     OW 9436   4.873   0.714   6.962
 2846SOL    HW1 9437   4.944   0.759   7.016
 2846SOL    HW2 9438   4.826   0.782   6.906
 2847SOL     OW 9439   4.613   4.409   2.294
 2847SOL    HW1 9440   4.636   4.348   2.370
 2847SOL    HW2 9441   4.604   4.355   2.210
 2848SOL     OW 9442   0.886   2.967   4.969
 2848SOL    HW1 9443   0.861   2.871   4.954
 2848SOL    HW2 9444   0.851   3.023   4.894
 2849SOL     OW 9445   3.571   0.584   2.656
 2849SOL    HW1 9446   3.634   0.655   2.625
 2849SOL    HW2 9447   3.523   0.546   2.577
 2850SOL     OW 9448   2.759   6.757   2.825
 2850SOL    HW1 9449   2.818   6.727   2.750
 2850SOL    HW2 9450   2.725   6.849   2.805
 2851SOL     OW 9451   4.599   3.395   0.715
 2851SOL    HW1 9452   4.637   3.445   0.638
 2851SOL    HW2 9453   4.524   3.337   0.683
 2852SOL     OW 9454   6.246   4.362   6.059
 2852SOL    HW1 9455   6.187   4.442   6.078
 2852SOL    HW2 9456   6.193   4.278   6.074
 2853SOL     OW 9457   0.006   3.963   6.951
 2853SOL    HW1 9458   0.062   3.882   6.932
 2853SOL    HW2 9459   7.006   3.964   0.023
 2854SOL     OW 9460   2.900   1.181   6.715
 2854SOL    HW1 9461   2.860   1.184   6.806
 2854SOL    HW2 9462   2.831   1.207   6.647
 2855SOL     OW 9463   1.784   1.841   4.810
 2855SOL    HW1 9464   1.691   1.839   4.846
 2855SOL    HW2 9465   1.780   1.838   4.710
 2856SOL     OW 9466   1.503   4.208   3.206
 2856SOL    HW1 9467   1.431   4.257   3.255
 2856SOL    HW2 9468   1.537   4.265   3.131
 2857SOL     OW 9469   0.359   3.073   0.707
 2857SOL    HW1 9470   0.264   3.102   0.697
 2857SOL    HW2 9471   0.371   2.983   0.664
 2858SOL     OW 9472   4.750   5.463   2.967
 2858SOL    HW1 9473   4.787   5.501   3.052
 2858SOL    HW2 9474   4.650   5.472   2.968
 2859SOL     OW 9475   4.876   5.936   1.113
 2859SOL    HW1 9476   4.896   5.988   1.029
 2859SOL    HW2 9477   4.961   5.918   1.162
 2860SOL     OW 9478   1.295   5.916   1.704
 2860SOL    HW1 9479   1.311   5.820   1.730
 2860SOL    HW2 9480   1.282   5.922   1.606
 2861SOL     OW 9481   3.742   4.775   6.306
 2861SOL    HW1 9482   3.813   4.743   6.244
 2861SOL    HW2 9483   3.785   4.814   6.388
 2862SOL     OW 9484   4.318   3.479   1.331
 2862SOL    HW1 9485   4.218   3.487   1.337
 2862SOL    HW2 9486   4.343   3.383   1.328
 2863SOL     OW 9487   5.772   0.244   5.661
 2863SOL    HW1 9488   5.861   0.206   5.636
 2863SOL    HW2 9489   5.738   0.199   5.743
 2864SOL     OW 9490   3.956   3.404   1.888
 2864SOL    HW1 9491   3.868   3.357   1.882
 2864SOL    HW2 9492   4.028   3.337   1.903
 2865SOL     OW 9493   4.994   6.145   4.728
 2865SOL    HW1 9494   5.016   6.050   4.748
 2865SOL    HW2 9495   5.074   6.191   4.691
 2866SOL     OW 9496   5.313   4.351   6.525
 2866SOL    HW1 9497   5.397   4.300   6.504
 2866SOL    HW2 9498   5.247   4.338   6.452
 2867SOL     OW 9499   6.253   6.621   1.739
 2867SOL    HW1 9500   6.157   6.598   1.755
 2867SOL    HW2 9501   6.296   6.547   1.687
 2868SOL     OW 9502   1.747   1.389   5.907
 2868SOL    HW1 9503   1.837   1.348   5.920
 2868SOL    HW2 9504   1.718   1.377   5.812
 2869SOL     OW 9505   5.289   6.170   4.156
 2869SOL    HW1 9506   5.332   6.260   4.163
 2869SOL    HW2 9507   5.358   6.101   4.139
 2870SOL     OW 9508   1.103   1.745   1.226
 2870SOL    HW1 9509   1.116   1.678   1.299
 2870SOL    HW2 9510   1.047   1.705   1.153
 2871SOL     OW 9511   6.643   2.012   1.672
 2871SOL    HW1 9512   6.742   2.023   1.664
 2871SOL    HW2 9513   6.599   2.040   1.586
 2872SOL     OW 9514   2.348   1.993   2.487
 2872SOL    HW1 9515   2.425   2.026   2.431
 2872SOL    HW2 9516   2.335   1.895   2.471
 2873SOL     OW 9517   0.941   5.941   1.314
 2873SOL    HW1 9518   0.901   5.932   1.405
 2873SOL    HW2 9519   0.888   6.006   1.260
 2874SOL     OW 9520   2.788   0.332   2.837
 2874SOL    HW1 9521   2.774   0.397   2.762
 2874SOL    HW2 9522   2.792   0.240   2.800
 2875SOL     OW 9523   2.797   0.054   2.740
 2875SOL    HW1 9524   2.756   0.020   2.655
 2875SOL    HW2 9525   2.895   0.036   2.739
 2876SOL     OW 9526   2.136   6.358   1.882
 2876SOL    HW1 9527   2.177   6.378   1.971
 2876SOL    HW2 9528   2.200   6.307   1.826
 2877SOL     OW 9529   1.627   1.300   5.657
 2877SOL    HW1 9530   1.698   1.314   5.588
 2877SOL    HW2 9531   1.539   1.334   5.621
 2878SOL     OW 9532   3.620   2.867   5.348
 2878SOL    HW1 9533   3.552   2.796   5.367
 2878SOL    HW2 9534   3.631   2.877   5.249
 2879SOL     OW 9535   4.526   4.395   5.946
 2879SOL    HW1 9536   4.470   4.353   5.874
 2879SOL    HW2 9537   4.608   4.434   5.906
 2880SOL     OW 9538   0.923   1.900   4.221
 2880SOL    HW1 9539   0.866   1.966   4.270
 2880SOL    HW2 9540   0.894   1.807   4.243
 2881SOL     OW 9541   3.407   6.294   6.731
 2881SOL    HW1 9542   3.444   6.217   6.680
 2881SOL    HW2 9543   3.458   6.377   6.708
 2882SOL     OW 9544   4.587   6.185   0.457
 2882SOL    HW1 9545   4.662   6.132   0.418
 2882SOL    HW2 9546   4.567   6.263   0.398
 2883SOL     OW 9547   5.917   6.144   3.519
 2883SOL    HW1 9548   5.907   6.172   3.614
 2883SOL    HW2 9549   5.950   6.222   3.465
 2884SOL     OW 9550   6.730   5.538   2.449
 2884SOL    HW1 9551   6.779   5.455   2.472
 2884SOL    HW2 9552   6.778   5.587   2.376
 2885SOL     OW 9553   1.631   3.310   2.991
 2885SOL    HW1 9554   1.662   3.393   3.037
 2885SOL    HW2 9555   1.624   3.328   2.893
 2886SOL     OW 9556   2.503   4.765   6.412
 2886SOL    HW1 9557   2.528   4.845   6.359
 2886SOL    HW2 9558   2.562   4.758   6.493
 2887SOL     OW 9559   0.629   6.379   4.470
 2887SOL    HW1 9560   0.587   6.310   4.411
 2887SOL    HW2 9561   0.663   6.336   4.553
 2888SOL     OW 9562   6.788   6.544   0.611
 2888SOL    HW1 9563   6.712   6.512   0.554
 2888SOL    HW2 9564   6.863   6.574   0.553
 2889SOL     OW 9565   3.139   7.001   2.931
 2889SOL    HW1 9566   3.089   6.935   2.987
 2889SOL    HW2 9567   3.233   7.009   2.964
 2890SOL     OW 9568   1.879   6.024   1.468
 2890SOL    HW1 9569   1.895   5.935   1.426
 2890SOL    HW2 9570   1.931   6.094   1.419
 2891SOL     OW 9571   6.992   3.363   2.502
 2891SOL    HW1 9572   6.964   3.437   2.564
 2891SOL    HW2 9573   0.037   3.307   2.547
 2892SOL     OW 9574   6.258   4.064   0.544
 2892SOL    HW1 9575   6.237   3.990   0.480
 2892SOL    HW2 9576   6.325   4.032   0.611
 2893SOL     OW 9577   0.434   5.724   4.634
 2893SOL    HW1 9578   0.418   5.689   4.726
 2893SOL    HW2 9579   0.364   5.689   4.572
 2894SOL     OW 9580   1.273   4.688   1.826
 2894SOL    HW1 9581   1.266   4.704   1.728
 2894SOL    HW2 9582   1.225   4.603   1.849
 2895SOL     OW 9583   3.563   0.238   6.194
 2895SOL    HW1 9584   3.493   0.223   6.264
 2895SOL    HW2 9585   3.521   0.275   6.112
 2896SOL     OW 9586   5.769   6.538   5.349
 2896SOL    HW1 9587   5.757   6.597   5.268
 2896SOL    HW2 9588   5.715   6.575   5.425
 2897SOL     OW 9589   2.982   5.186   2.955
 2897SOL    HW1 9590   2.932   5.119   2.900
 2897SOL    HW2 9591   2.953   5.278   2.929
 2898SOL     OW 9592   5.886   4.256   2.067
 2898SOL    HW1 9593   5.898   4.353   2.084
 2898SOL    HW2 9594   5.938   4.204   2.135
 2899SOL     OW 9595   6.768   2.190   1.207
 2899SOL    HW1 9596   6.807   2.271   1.164
 2899SOL    HW2 9597   6.840   2.141   1.256
 2900SOL     OW 9598   3.320   3.620   6.908
 2900SOL    HW1 9599   3.347   3.716   6.914
 2900SOL    HW2 9600   3.302   3.585   7.000
 2901SOL     OW 9601   1.571   4.559   3.506
 2901SOL    HW1 9602   1.652   4.505   3.530
 2901SOL    HW2 9603   1.506   4.501   3.456
 2902SOL     OW 9604   0.544   5.849   3.839
 2902SOL    HW1 9605   0.614   5.873   3.906
 2902SOL    HW2 9606   0.481   5.782   3.879
 2903SOL     OW 9607   4.267   5.628   0.722
 2903SOL    HW1 9608   4.212   5.661   0.798
 2903SOL    HW2 9609   4.312   5.706   0.678
 2904SOL     OW 9610   2.566   4.551   5.124
 2904SOL    HW1 9611   2.657   4.592   5.112
 2904SOL    HW2 9612   2.571   4.479   5.193
 2905SOL     OW 9613   1.337   4.613   2.398
 2905SOL    HW1 9614   1.284   4.678   2.345
 2905SOL    HW2 9615   1.295   4.522   2.390
 2906SOL     OW 9616   5.465   6.501   2.748
 2906SOL    HW1 9617   5.496   6.425   2.805
 2906SOL    HW2 9618   5.378   6.535   2.783
 2907SOL     OW 9619   1.016   0.277   3.679
 2907SOL    HW1 9620   0.985   0.250   3.770
 2907SOL    HW2 9621   0.945   0.255   3.612
 2908SOL     OW 9622   5.016   6.936   3.445
 2908SOL    HW1 9623   5.004   7.024   3.491
 2908SOL    HW2 9624   5.103   6.935   3.396
 2909SOL     OW 9625   1.267   5.621   2.246
 2909SOL    HW1 9626   1.246   5.566   2.165
 2909SOL    HW2 9627   1.255   5.718   2.223
 2910SOL     OW 9628   6.849   1.236   3.994
 2910SOL    HW1 9629   6.913   1.164   4.021
 2910SOL    HW2 9630   6.761   1.195   3.968
 2911SOL     OW 9631   6.574   4.714   3.595
 2911SOL    HW1 9632   6.660   4.709   3.545
 2911SOL    HW2 9633   6.539   4.621   3.611
 2912SOL     OW 9634   6.888   6.746   0.767
 2912SOL    HW1 9635   6.859   6.651   0.757
 2912SOL    HW2 9636   6.834   6.804   0.706
 2913SOL     OW 9637   1.766   4.612   1.679
 2913SOL    HW1 9638   1.851   4.567   1.707
 2913SOL    HW2 9639   1.689   4.570   1.727
 2914SOL     OW 9640   5.486   4.524   0.308
 2914SOL    HW1 9641   5.512   4.457   0.239
 2914SOL    HW2 9642   5.552   4.599   0.309
 2915SOL     OW 9643   3.538   2.069   2.711
 2915SOL    HW1 9644   3.629   2.096   2.743
 2915SOL    HW2 9645   3.518   2.115   2.624
 2916SOL     OW 9646   2.403   5.258   0.729
 2916SOL    HW1 9647   2.376   5.349   0.759
 2916SOL    HW2 9648   2.326   5.214   0.684
 2917SOL     OW 9649   2.466   0.272   3.319
 2917SOL    HW1 9650   2.442   0.300   3.226
 2917SOL    HW2 9651   2.494   0.351   3.372
 2918SOL     OW 9652   5.951   4.255   1.154
 2918SOL    HW1 9653   5.878   4.313   1.189
 2918SOL    HW2 9654   6.011   4.227   1.229
 2919SOL     OW 9655   0.600   5.951   4.373
 2919SOL    HW1 9656   0.638   5.879   4.431
 2919SOL    HW2 9657   0.527   5.912   4.316
 2920SOL     OW 9658   1.980   0.623   2.054
 2920SOL    HW1 9659   1.943   0.715   2.069
 2920SOL    HW2 9660   1.938   0.559   2.120
 2921SOL     OW 9661   6.979   0.162   5.459
 2921SOL    HW1 9662   7.020   0.191   5.545
 2921SOL    HW2 9663   7.015   0.218   5.384
 2922SOL     OW 9664   4.656   0.612   3.399
 2922SOL    HW1 9665   4.696   0.692   3.355
 2922SOL    HW2 9666   4.670   0.618   3.498
 2923SOL     OW 9667   6.441   4.641   4.847
 2923SOL    HW1 9668   6.404   4.666   4.936
 2923SOL    HW2 9669   6.422   4.714   4.781
 2924SOL     OW 9670   6.840   2.127   5.186
 2924SOL    HW1 9671   6.742   2.108   5.185
 2924SOL    HW2 9672   6.858   2.204   5.248
 2925SOL     OW 9673   5.608   0.900   5.828
 2925SOL    HW1 9674   5.532   0.964   5.842
 2925SOL    HW2 9675   5.571   0.811   5.800
 2926SOL     OW 9676   0.414   2.046   5.017
 2926SOL    HW1 9677   0.461   2.070   4.932
 2926SOL    HW2 9678   0.317   2.029   4.997
 2927SOL     OW 9679   1.858   2.876   1.462
 2927SOL    HW1 9680   1.903   2.813   1.525
 2927SOL    HW2 9681   1.829   2.827   1.380
 2928SOL     OW 9682   6.292   2.059   6.893
 2928SOL    HW1 9683   6.292   1.966   6.857
 2928SOL    HW2 9684   6.284   2.124   6.817
 2929SOL     OW 9685   1.401   2.376   4.892
 2929SOL    HW1 9686   1.420   2.288   4.935
 2929SOL    HW2 9687   1.394   2.365   4.793
 2930SOL     OW 9688   6.632   5.492   4.560
 2930SOL    HW1 9689   6.652   5.524   4.652
 2930SOL    HW2 9690   6.562   5.420   4.564
 2931SOL     OW 9691   4.330   4.375   6.508
 2931SOL    HW1 9692   4.384   4.342   6.586
 2931SOL    HW2 9693   4.249   4.318   6.497
 2932SOL     OW 9694   7.022   6.298   1.206
 2932SOL    HW1 9695   0.039   6.229   1.147
 2932SOL    HW2 9696   0.064   6.370   1.226
 2933SOL     OW 9697   1.062   0.253   1.250
 2933SOL    HW1 9698   1.076   0.292   1.159
 2933SOL    HW2 9699   1.151   0.234   1.292
 2934SOL     OW 9700   4.243   3.391   0.954
 2934SOL    HW1 9701   4.336   3.419   0.980
 2934SOL    HW2 9702   4.209   3.323   1.020
 2935SOL     OW 9703   0.591   2.077   6.366
 2935SOL    HW1 9704   0.534   2.155   6.341
 2935SOL    HW2 9705   0.642   2.045   6.285
 2936SOL     OW 9706   4.670   0.483   0.517
 2936SOL    HW1 9707   4.690   0.520   0.426
 2936SOL    HW2 9708   4.609   0.404   0.508
 2937SOL     OW 9709   4.458   5.730   1.836
 2937SOL    HW1 9710   4.534   5.703   1.776
 2937SOL    HW2 9711   4.472   5.824   1.868
 2938SOL     OW 9712   6.471   6.305   6.552
 2938SOL    HW1 9713   6.475   6.207   6.532
 2938SOL    HW2 9714   6.564   6.340   6.565
 2939SOL     OW 9715   0.325   5.501   1.737
 2939SOL    HW1 9716   0.334   5.514   1.638
 2939SOL    HW2 9717   0.259   5.567   1.773
 2940SOL     OW 9718   5.830   6.124   4.356
 2940SOL    HW1 9719   5.769   6.046   4.374
 2940SOL    HW2 9720   5.922   6.103   4.390
 2941SOL     OW 9721   1.788   3.190   3.370
 2941SOL    HW1 9722   1.854   3.215   3.299
 2941SOL    HW2 9723   1.704   3.242   3.357
 2942SOL     OW 9724   2.268   1.230   6.824
 2942SOL    HW1 9725   2.244   1.322   6.794
 2942SOL    HW2 9726   2.346   1.196   6.771
 2943SOL     OW 9727   6.050   4.500   3.281
 2943SOL    HW1 9728   6.101   4.547   3.354
 2943SOL    HW2 9729   6.083   4.406   3.272
 2944SOL     OW 9730   2.597   6.294   4.213
 2944SOL    HW1 9731   2.690   6.328   4.196
 2944SOL    HW2 9732   2.536   6.372   4.229
 2945SOL     OW 9733   5.029   4.564   1.338
 2945SOL    HW1 9734   5.088   4.485   1.358
 2945SOL    HW2 9735   4.965   4.540   1.265
 2946SOL     OW 9736   3.039   3.935   6.227
 2946SOL    HW1 9737   3.013   3.839   6.243
 2946SOL    HW2 9738   3.123   3.956   6.277
 2947SOL     OW 9739   5.888   5.950   0.809
 2947SOL    HW1 9740   5.970   6.007   0.811
 2947SOL    HW2 9741   5.856   5.941   0.714
 2948SOL     OW 9742   5.733   4.834   3.068
 2948SOL    HW1 9743   5.722   4.890   3.150
 2948SOL    HW2 9744   5.800   4.761   3.086
 2949SOL     OW 9745   0.952   6.509   0.912
 2949SOL    HW1 9746   1.020   6.573   0.876
 2949SOL    HW2 9747   0.869   6.515   0.858
 2950SOL     OW 9748   4.493   4.741   2.655
 2950SOL    HW1 9749   4.576   4.697   2.688
 2950SOL    HW2 9750   4.417   4.676   2.660
 2951SOL     OW 9751   5.633   0.555   1.346
 2951SOL    HW1 9752   5.546   0.523   1.382
 2951SOL    HW2 9753   5.627   0.652   1.324
 2952SOL     OW 9754   6.251   0.755   3.919
 2952SOL    HW1 9755   6.335   0.727   3.964
 2952SOL    HW2 9756   6.181   0.774   3.989
 2953SOL     OW 9757   0.431   6.119   2.850
 2953SOL    HW1 9758   0.443   6.072   2.762
 2953SOL    HW2 9759   0.443   6.217   2.838
 2954SOL     OW 9760   1.258   4.520   6.479
 2954SOL    HW1 9761   1.292   4.468   6.557
 2954SOL    HW2 9762   1.176   4.477   6.443
 2955SOL     OW 9763   1.326   4.104   0.254
 2955SOL    HW1 9764   1.251   4.169   0.242
 2955SOL    HW2 9765   1.292   4.011   0.249
 2956SOL     OW 9766   6.495   4.467   3.750
 2956SOL    HW1 9767   6.518   4.371   3.732
 2956SOL    HW2 9768   6.507   4.486   3.848
 2957SOL     OW 9769   3.079   4.878   1.511
 2957SOL    HW1 9770   3.170   4.848   1.539
 2957SOL    HW2 9771   3.010   4.825   1.560
 2958SOL     OW 9772   1.783   4.937   3.044
 2958SOL    HW1 9773   1.702   4.902   2.997
 2958SOL    HW2 9774   1.808   4.875   3.119
 2959SOL     OW 9775   5.909   2.461   2.630
 2959SOL    HW1 9776   5.926   2.538   2.691
 2959SOL    HW2 9777   5.899   2.494   2.536
 2960SOL     OW 9778   3.943   0.562   0.328
 2960SOL    HW1 9779   3.959   0.545   0.231
 2960SOL    HW2 9780   4.017   0.521   0.382
 2961SOL     OW 9781   5.932   4.585   2.464
 2961SOL    HW1 9782   6.011   4.539   2.506
 2961SOL    HW2 9783   5.940   4.684   2.478
 2962SOL     OW 9784   6.289   6.803   2.460
 2962SOL    HW1 9785   6.294   6.728   2.394
 2962SOL    HW2 9786   6.274   6.889   2.412
 2963SOL     OW 9787   0.713   0.585   5.950
 2963SOL    HW1 9788   0.751   0.571   6.041
 2963SOL    HW2 9789   0.705   0.684   5.932
 2964SOL     OW 9790   0.593   2.553   6.900
 2964SOL    HW1 9791   0.620   2.522   6.992
 2964SOL    HW2 9792   0.633   2.642   6.882
 2965SOL     OW 9793   0.874   0.271   4.623
 2965SOL    HW1 9794   0.868   0.211   4.543
 2965SOL    HW2 9795   0.798   0.337   4.621
 2966SOL     OW 9796   4.389   5.490   3.628
 2966SOL    HW1 9797   4.310   5.481   3.568
 2966SOL    HW2 9798   4.465   5.436   3.591
 2967SOL     OW 9799   6.471   0.479   5.441
 2967SOL    HW1 9800   6.416   0.468   5.358
 2967SOL    HW2 9801   6.437   0.556   5.494
 2968SOL     OW 9802   2.228   2.388   1.260
 2968SOL    HW1 9803   2.258   2.354   1.349
 2968SOL    HW2 9804   2.274   2.474   1.240
 2969SOL     OW 9805   5.280   3.913   4.220
 2969SOL    HW1 9806   5.272   3.851   4.297
 2969SOL    HW2 9807   5.377   3.924   4.196
 2970SOL     OW 9808   2.460   2.874   5.401
 2970SOL    HW1 9809   2.480   2.930   5.481
 2970SOL    HW2 9810   2.453   2.933   5.320
 2971SOL     OW 9811   5.525   4.007   0.255
 2971SOL    HW1 9812   5.518   3.965   0.346
 2971SOL    HW2 9813   5.590   3.955   0.200
 2972SOL     OW 9814   6.121   5.433   6.459
 2972SOL    HW1 9815   6.109   5.341   6.422
 2972SOL    HW2 9816   6.208   5.438   6.509
 2973SOL     OW 9817   5.263   6.617   1.845
 2973SOL    HW1 9818   5.230   6.577   1.930
 2973SOL    HW2 9819   5.337   6.561   1.808
 2974SOL     OW 9820   5.974   4.855   3.418
 2974SOL    HW1 9821   5.898   4.795   3.392
 2974SOL    HW2 9822   5.937   4.937   3.462
 2975SOL     OW 9823   4.695   4.647   4.269
 2975SOL    HW1 9824   4.687   4.554   4.306
 2975SOL    HW2 9825   4.669   4.713   4.339
 2976SOL     OW 9826   4.731   2.173   2.851
 2976SOL    HW1 9827   4.680   2.211   2.773
 2976SOL    HW2 9828   4.827   2.162   2.826
 2977SOL     OW 9829   0.543   0.075   1.846
 2977SOL    HW1 9830   0.579   0.054   1.937
 2977SOL    HW2 9831   0.557   0.172   1.826
 2978SOL     OW 9832   4.739   4.330   6.133
 2978SOL    HW1 9833   4.762   4.426   6.148
 2978SOL    HW2 9834   4.640   4.318   6.140
 2979SOL     OW 9835   3.054   1.588   4.931
 2979SOL    HW1 9836   3.045   1.642   4.848
 2979SOL    HW2 9837   3.148   1.555   4.939
 2980SOL     OW 9838   4.255   4.106   6.217
 2980SOL    HW1 9839   4.214   4.019   6.244
 2980SOL    HW2 9840   4.183   4.167   6.183
 2981SOL     OW 9841   1.960   1.145   0.842
 2981SOL    HW1 9842   2.058   1.160   0.854
 2981SOL    HW2 9843   1.909   1.205   0.905
 2982SOL     OW 9844   1.588   6.599   2.412
 2982SOL    HW1 9845   1.585   6.499   2.412
 2982SOL    HW2 9846   1.541   6.633   2.331
 2983SOL     OW 9847   6.389   3.109   6.818
 2983SOL    HW1 9848   6.419   3.156   6.734
 2983SOL    HW2 9849   6.451   3.132   6.893
 2984SOL     OW 9850   6.485   5.146   6.935
 2984SOL    HW1 9851   6.538   5.146   7.020
 2984SOL    HW2 9852   6.442   5.057   6.922
 2985SOL     OW 9853   0.532   0.064   4.463
 2985SOL    HW1 9854   0.518   6.991   4.449
 2985SOL    HW2 9855   0.449   0.104   4.500
 2986SOL     OW 9856   3.241   4.112   2.439
 2986SOL    HW1 9857   3.199   4.195   2.474
 2986SOL    HW2 9858   3.315   4.084   2.501
 2987SOL     OW 9859   0.824   2.117   4.379
 2987SOL    HW1 9860   0.801   2.206   4.421
 2987SOL    HW2 9861   0.826   2.047   4.450
 2988SOL     OW 9862   0.910   1.136   1.235
 2988SOL    HW1 9863   0.955   1.075   1.170
 2988SOL    HW2 9864   0.930   1.231   1.212
 2989SOL     OW 9865   5.162   3.242   4.866
 2989SOL    HW1 9866   5.073   3.199   4.849
 2989SOL    HW2 9867   5.169   3.267   4.963
 2990SOL     OW 9868   4.945   1.921   4.560
 2990SOL    HW1 9869   4.970   1.993   4.625
 2990SOL    HW2 9870   4.986   1.835   4.589
 2991SOL     OW 9871   5.808   3.289   0.674
 2991SOL    HW1 9872   5.860   3.234   0.739
 2991SOL    HW2 9873   5.772   3.370   0.721
 2992SOL     OW 9874   0.729   3.659   5.101
 2992SOL    HW1 9875   0.760   3.602   5.177
 2992SOL    HW2 9876   0.768   3.751   5.110
 2993SOL     OW 9877   1.059   4.807   6.930
 2993SOL    HW1 9878   1.100   4.872   6.866
 2993SOL    HW2 9879   1.080   4.714   6.901
 2994SOL     OW 9880   4.596   5.921   6.948
 2994SOL    HW1 9881   4.607   5.863   6.867
 2994SOL    HW2 9882   4.575   5.863   0.003
 2995SOL     OW 9883   4.376   0.346   0.509
 2995SOL    HW1 9884   4.387   0.432   0.560
 2995SOL    HW2 9885   4.369   0.365   0.411
 2996SOL     OW 9886   1.414   2.001   4.816
 2996SOL    HW1 9887   1.478   2.036   4.885
 2996SOL    HW2 9888   1.452   2.018   4.725
 2997SOL     OW 9889   5.150   0.622   3.521
 2997SOL    HW1 9890   5.078   0.685   3.495
 2997SOL    HW2 9891   5.110   0.536   3.553
 2998SOL     OW 9892   2.586   0.739   3.452
 2998SOL    HW1 9893   2.507   0.766   3.507
 2998SOL    HW2 9894   2.561   0.739   3.355
 2999SOL     OW 9895   2.981   4.533   0.115
 2999SOL    HW1 9896   2.972   4.629   0.087
 2999SOL    HW2 9897   2.891   4.498   0.143
 3000SOL     OW 9898   3.066   3.568   5.440
 3000SOL    HW1 9899   2.994   3.509   5.475
 3000SOL    HW2 9900   3.111   3.522   5.362
 3001SOL     OW 9901   5.845   1.200   6.242
 3001SOL    HW1 9902   5.800   1.208   6.153
 3001SOL    HW2 9903   5.830   1.108   6.278
 3002SOL     OW 9904   3.004   1.012   1.307
 3002SOL    HW1 9905   3.023   0.924   1.264
 3002SOL    HW2 9906   3.015   1.085   1.240
 3003SOL     OW 9907   0.886   5.978   0.616
 3003SOL    HW1 9908   0.894   5.985   0.715
 3003SOL    HW2 9909   0.976   5.959   0.576
 3004SOL     OW 9910   2.745   4.716   3.993
 3004SOL    HW1 9911   2.655   4.759   3.998
 3004SOL    HW2 9912   2.785   4.730   3.903
 3005SOL     OW 9913   1.070   3.102   5.652
 3005SOL    HW1 9914   1.083   3.015   5.701
 3005SOL    HW2 9915   1.158   3.147   5.640
 3006SOL     OW 9916   5.629   1.949   5.415
 3006SOL    HW1 9917   5.684   1.965   5.497
 3006SOL    HW2 9918   5.548   1.895   5.439
 3007SOL     OW 9919   5.290   5.499   6.816
 3007SOL    HW1 9920   5.390   5.507   6.818
 3007SOL    HW2 9921   5.263   5.416   6.865
 3008SOL     OW 9922   4.294   2.042   6.074
 3008SOL    HW1 9923   4.227   1.992   6.018
 3008SOL    HW2 9924   4.317   2.129   6.028
 3009SOL     OW 9925   0.254   2.848   3.188
 3009SOL    HW1 9926   0.172   2.873   3.136
 3009SOL    HW2 9927   0.284   2.757   3.162
 3010SOL     OW 9928   4.246   5.348   6.259
 3010SOL    HW1 9929   4.254   5.249   6.266
 3010SOL    HW2 9930   4.173   5.370   6.193
 3011SOL     OW 9931   6.018   6.957   1.427
 3011SOL    HW1 9932   5.969   6.878   1.389
 3011SOL    HW2 9933   6.042   6.938   1.522
 3012SOL     OW 9934   2.854   3.299   6.604
 3012SOL    HW1 9935   2.882   3.321   6.698
 3012SOL    HW2 9936   2.754   3.305   6.596
 3013SOL     OW 9937   0.177   6.294   3.918
 3013SOL    HW1 9938   0.102   6.241   3.880
 3013SOL    HW2 9939   0.141   6.365   3.979
 3014SOL     OW 9940   5.191   0.970   5.430
 3014SOL    HW1 9941   5.289   0.980   5.449
 3014SOL    HW2 9942   5.153   0.899   5.490
 3015SOL     OW 9943   1.592   0.866   0.264
 3015SOL    HW1 9944   1.572   0.959   0.294
 3015SOL    HW2 9945   1.509   0.825   0.225
 3016SOL     OW 9946   2.927   6.871   4.315
 3016SOL    HW1 9947   2.999   6.826   4.367
 3016SOL    HW2 9948   2.968   6.939   4.253
 3017SOL     OW 9949   6.657   5.857   1.578
 3017SOL    HW1 9950   6.734   5.859   1.642
 3017SOL    HW2 9951   6.597   5.780   1.600
 3018SOL     OW 9952   3.552   6.986   0.565
 3018SOL    HW1 9953   3.523   0.029   0.497
 3018SOL    HW2 9954   3.472   6.941   0.605
 3019SOL     OW 9955   1.470   6.206   6.556
 3019SOL    HW1 9956   1.435   6.158   6.637
 3019SOL    HW2 9957   1.394   6.224   6.493
 3020SOL     OW 9958   5.623   3.281   6.710
 3020SOL    HW1 9959   5.675   3.334   6.777
 3020SOL    HW2 9960   5.601   3.192   6.747
 3021SOL     OW 9961   3.522   6.371   4.711
 3021SOL    HW1 9962   3.498   6.325   4.797
 3021SOL    HW2 9963   3.506   6.309   4.634
 3022SOL     OW 9964   3.556   5.914   3.455
 3022SOL    HW1 9965   3.617   5.835   3.468
 3022SOL    HW2 9966   3.585   5.965   3.375
 3023SOL     OW 9967   4.331   6.758   2.845
 3023SOL    HW1 9968   4.334   6.826   2.918
 3023SOL    HW2 9969   4.356   6.668   2.882
 3024SOL     OW 9970   0.117   6.254   5.873
 3024SOL    HW1 9971   0.066   6.172   5.848
 3024SOL    HW2 9972   0.195   6.229   5.930
 3025SOL     OW 9973   3.936   5.870   0.785
 3025SOL    HW1 9974   3.905   5.795   0.727
 3025SOL    HW2 9975   4.008   5.836   0.847
 3026SOL     OW 9976   5.841   1.385   0.690
 3026SOL    HW1 9977   5.931   1.408   0.725
 3026SOL    HW2 9978   5.772   1.408   0.758
 3027SOL     OW 9979   4.865   1.687   1.870
 3027SOL    HW1 9980   4.874   1.587   1.872
 3027SOL    HW2 9981   4.771   1.712   1.893
 3028SOL     OW 9982   2.169   4.106   6.521
 3028SOL    HW1 9983   2.225   4.177   6.563
 3028SOL    HW2 9984   2.102   4.073   6.587
 3029SOL     OW 9985   1.002   2.587   4.459
 3029SOL    HW1 9986   0.919   2.534   4.445
 3029SOL    HW2 9987   1.080   2.539   4.418
 3030SOL     OW 9988   1.418   4.196   1.496
 3030SOL    HW1 9989   1.429   4.099   1.514
 3030SOL    HW2 9990   1.488   4.227   1.432
 3031SOL     OW 9991   1.415   5.489   1.249
 3031SOL    HW1 9992   1.388   5.513   1.342
 3031SOL    HW2 9993   1.479   5.558   1.214
 3032SOL     OW 9994   1.727   6.980   2.990
 3032SOL    HW1 9995   1.657   7.011   3.054
 3032SOL    HW2 9996   1.723   0.011   2.907
 3033SOL     OW 9997   6.438   2.759   4.088
 3033SOL    HW1 9998   6.444   2.714   3.999
 3033SOL    HW2 9999   6.516   2.731   4.145
 3034SOL     OW10000   0.592   5.817   3.576
 3034SOL    HW110001   0.504   5.771   3.560
 3034SOL    HW210002   0.588   5.868   3.662
 3035SOL     OW10003   1.689   2.587   6.198
 3035SOL    HW110004   1.640   2.603   6.283
 3035SOL    HW210005   1.698   2.489   6.182
 3036SOL     OW10006   1.609   2.147   6.352
 3036SOL    HW110007   1.611   2.056   6.393
 3036SOL    HW210008   1.662   2.211   6.407
 3037SOL     OW10009   0.490   4.915   5.846
 3037SOL    HW110010   0.543   4.837   5.877
 3037SOL    HW210011   0.394   4.888   5.836
 3038SOL     OW10012   5.198   5.239   6.226
 3038SOL    HW110013   5.261   5.310   6.259
 3038SOL    HW210014   5.250   5.158   6.200
 3039SOL     OW10015   6.321   3.438   0.211
 3039SOL    HW110016   6.386   3.461   0.139
 3039SOL    HW210017   6.234   3.485   0.194
 3040SOL     OW10018   3.648   4.028   5.850
 3040SOL    HW110019   3.614   4.034   5.756
 3040SOL    HW210020   3.572   4.017   5.913
 3041SOL     OW10021   1.837   4.078   5.001
 3041SOL    HW110022   1.808   3.982   4.997
 3041SOL    HW210023   1.831   4.111   5.095
 3042SOL     OW10024   0.570   5.108   3.446
 3042SOL    HW110025   0.642   5.097   3.377
 3042SOL    HW210026   0.580   5.198   3.490
 3043SOL     OW10027   2.719   3.442   0.684
 3043SOL    HW110028   2.685   3.370   0.743
 3043SOL    HW210029   2.779   3.502   0.736
 3044SOL     OW10030   3.503   3.503   4.986
 3044SOL    HW110031   3.527   3.449   4.905
 3044SOL    HW210032   3.581   3.559   5.013
 3045SOL     OW10033   5.036   1.375   3.204
 3045SOL    HW110034   4.961   1.417   3.154
 3045SOL    HW210035   5.095   1.446   3.242
 3046SOL     OW10036   5.612   5.590   0.572
 3046SOL    HW110037   5.575   5.501   0.599
 3046SOL    HW210038   5.709   5.595   0.597
 3047SOL     OW10039   6.197   0.363   0.179
 3047SOL    HW110040   6.146   0.446   0.200
 3047SOL    HW210041   6.270   0.350   0.245
 3048SOL     OW10042   4.538   3.100   1.077
 3048SOL    HW110043   4.624   3.138   1.112
 3048SOL    HW210044   4.498   3.040   1.146
 3049SOL     OW10045   1.227   0.498   4.289
 3049SOL    HW110046   1.183   0.533   4.206
 3049SOL    HW210047   1.326   0.491   4.273
 3050SOL     OW10048   2.786   2.395   1.262
 3050SOL    HW110049   2.856   2.329   1.291
 3050SOL    HW210050   2.739   2.360   1.181
 3051SOL     OW10051   3.054   6.865   5.273
 3051SOL    HW110052   3.094   6.956   5.285
 3051SOL    HW210053   3.046   6.821   5.363
 3052SOL     OW10054   5.961   6.186   2.342
 3052SOL    HW110055   6.003   6.273   2.368
 3052SOL    HW210056   5.874   6.176   2.390
 3053SOL     OW10057   1.992   3.926   0.153
 3053SOL    HW110058   1.994   3.979   0.238
 3053SOL    HW210059   2.006   3.987   0.075
 3054SOL     OW10060   5.415   1.338   2.995
 3054SOL    HW110061   5.507   1.357   3.029
 3054SOL    HW210062   5.411   1.356   2.897
 3055SOL     OW10063   6.211   6.314   6.531
 3055SOL    HW110064   6.310   6.322   6.544
 3055SOL    HW210065   6.189   6.323   6.434
 3056SOL     OW10066   4.812   1.807   6.266
 3056SOL    HW110067   4.831   1.902   6.290
 3056SOL    HW210068   4.738   1.804   6.198
 3057SOL     OW10069   5.312   5.704   3.282
 3057SOL    HW110070   5.327   5.762   3.202
 3057SOL    HW210071   5.349   5.612   3.264
 3058SOL     OW10072   5.706   4.262   0.477
 3058SOL    HW110073   5.667   4.191   0.535
 3058SOL    HW210074   5.643   4.282   0.401
 3059SOL     OW10075   2.299   2.816   4.439
 3059SOL    HW110076   2.297   2.887   4.369
 3059SOL    HW210077   2.370   2.750   4.417
 3060SOL     OW10078   3.114   4.947   5.732
 3060SOL    HW110079   3.110   4.882   5.657
 3060SOL    HW210080   3.139   4.900   5.816
 3061SOL     OW10081   5.227   4.857   5.551
 3061SOL    HW110082   5.208   4.953   5.570
 3061SOL    HW210083   5.209   4.838   5.454
 3062SOL     OW10084   4.216   4.433   1.689
 3062SOL    HW110085   4.163   4.510   1.726
 3062SOL    HW210086   4.159   4.351   1.690
 3063SOL     OW10087   0.616   4.012   1.431
 3063SOL    HW110088   0.586   3.917   1.439
 3063SOL    HW210089   0.591   4.063   1.514
 3064SOL     OW10090   3.806   2.438   6.846
 3064SOL    HW110091   3.861   2.354   6.845
 3064SOL    HW210092   3.842   2.502   6.778
 3065SOL     OW10093   1.125   0.809   6.796
 3065SOL    HW110094   1.064   0.861   6.737
 3065SOL    HW210095   1.214   0.799   6.752
 3066SOL     OW10096   4.955   5.428   5.502
 3066SOL    HW110097   4.999   5.442   5.591
 3066SOL    HW210098   4.861   5.459   5.506
 3067SOL     OW10099   2.657   1.578   6.447
 3067SOL    HW110100   2.647   1.645   6.520
 3067SOL    HW210101   2.619   1.616   6.362
 3068SOL     OW10102   0.570   1.385   1.156
 3068SOL    HW110103   0.544   1.301   1.108
 3068SOL    HW210104   0.593   1.363   1.251
 3069SOL     OW10105   5.214   6.867   3.127
 3069SOL    HW110106   5.114   6.868   3.117
 3069SOL    HW210107   5.247   6.773   3.127
 3070SOL     OW10108   2.882   1.449   0.040
 3070SOL    HW110109   2.871   1.540   0.080
 3070SOL    HW210110   2.931   1.457   6.978
 3071SOL     OW10111   0.254   3.521   3.359
 3071SOL    HW110112   0.306   3.437   3.373
 3071SOL    HW210113   0.235   3.533   3.261
 3072SOL     OW10114   1.765   5.933   6.810
 3072SOL    HW110115   1.803   5.997   6.743
 3072SOL    HW210116   1.669   5.955   6.827
 3073SOL     OW10117   6.592   4.835   0.322
 3073SOL    HW110118   6.641   4.876   0.399
 3073SOL    HW210119   6.519   4.897   0.292
 3074SOL     OW10120   1.257   3.717   0.786
 3074SOL    HW110121   1.231   3.642   0.847
 3074SOL    HW210122   1.177   3.748   0.736
 3075SOL     OW10123   2.524   5.253   3.738
 3075SOL    HW110124   2.595   5.323   3.740
 3075SOL    HW210125   2.498   5.229   3.832
 3076SOL     OW10126   0.474   1.574   5.015
 3076SOL    HW110127   0.528   1.609   4.938
 3076SOL    HW210128   0.378   1.568   4.988
 3077SOL     OW10129   6.307   3.737   1.144
 3077SOL    HW110130   6.301   3.637   1.147
 3077SOL    HW210131   6.402   3.765   1.160
 3078SOL     OW10132   6.499   2.861   1.615
 3078SOL    HW110133   6.511   2.957   1.589
 3078SOL    HW210134   6.417   2.852   1.672
 3079SOL     OW10135   2.064   2.601   4.995
 3079SOL    HW110136   2.093   2.538   5.066
 3079SOL    HW210137   2.117   2.685   5.001
 3080SOL     OW10138   4.299   4.950   1.099
 3080SOL    HW110139   4.298   5.047   1.126
 3080SOL    HW210140   4.306   4.893   1.180
 3081SOL     OW10141   1.331   4.225   0.714
 3081SOL    HW110142   1.247   4.245   0.664
 3081SOL    HW210143   1.367   4.137   0.685
 3082SOL     OW10144   3.577   5.370   4.353
 3082SOL    HW110145   3.599   5.306   4.279
 3082SOL    HW210146   3.512   5.438   4.320
 3083SOL     OW10147   2.327   5.827   2.740
 3083SOL    HW110148   2.386   5.908   2.733
 3083SOL    HW210149   2.345   5.766   2.663
 3084SOL     OW10150   0.831   3.519   3.111
 3084SOL    HW110151   0.772   3.571   3.049
 3084SOL    HW210152   0.815   3.421   3.098
 3085SOL     OW10153   4.419   5.013   0.718
 3085SOL    HW110154   4.434   5.084   0.786
 3085SOL    HW210155   4.495   5.012   0.653
 3086SOL     OW10156   6.093   1.328   6.955
 3086SOL    HW110157   6.095   1.401   6.887
 3086SOL    HW210158   6.004   1.283   6.953
 3087SOL     OW10159   2.674   6.719   1.852
 3087SOL    HW110160   2.621   6.635   1.857
 3087SOL    HW210161   2.626   6.792   1.901
 3088SOL     OW10162   0.460   2.850   5.638
 3088SOL    HW110163   0.388   2.892   5.583
 3088SOL    HW210164   0.439   2.860   5.735
 3089SOL     OW10165   4.899   0.542   4.789
 3089SOL    HW110166   4.875   0.506   4.879
 3089SOL    HW210167   4.949   0.628   4.799
 3090SOL     OW10168   1.110   1.487   1.328
 3090SOL    HW110169   1.187   1.423   1.321
 3090SOL    HW210170   1.082   1.495   1.424
 3091SOL     OW10171   1.123   1.592   0.983
 3091SOL    HW110172   1.160   1.548   0.901
 3091SOL    HW210173   1.180   1.570   1.062
 3092SOL     OW10174   5.485   6.725   2.275
 3092SOL    HW110175   5.571   6.723   2.326
 3092SOL    HW210176   5.408   6.710   2.337
 3093SOL     OW10177   5.797   5.431   6.331
 3093SOL    HW110178   5.720   5.491   6.315
 3093SOL    HW210179   5.881   5.485   6.338
 3094SOL     OW10180   2.914   0.931   5.608
 3094SOL    HW110181   2.931   0.965   5.516
 3094SOL    HW210182   2.877   0.839   5.604
 3095SOL     OW10183   2.722   3.176   5.324
 3095SOL    HW110184   2.663   3.247   5.362
 3095SOL    HW210185   2.668   3.114   5.267
 3096SOL     OW10186   0.865   3.332   4.850
 3096SOL    HW110187   0.799   3.362   4.918
 3096SOL    HW210188   0.919   3.410   4.819
 3097SOL     OW10189   6.202   2.026   6.329
 3097SOL    HW110190   6.210   1.929   6.307
 3097SOL    HW210191   6.106   2.049   6.341
 3098SOL     OW10192   1.989   1.700   2.239
 3098SOL    HW110193   2.011   1.617   2.291
 3098SOL    HW210194   2.073   1.738   2.201
 3099SOL     OW10195   0.664   6.513   4.019
 3099SOL    HW110196   0.589   6.448   4.014
 3099SOL    HW210197   0.649   6.576   4.095
 3100SOL     OW10198   6.241   6.408   3.063
 3100SOL    HW110199   6.243   6.499   3.103
 3100SOL    HW210200   6.187   6.409   2.979
 3101SOL     OW10201   4.317   6.549   5.589
 3101SOL    HW110202   4.292   6.452   5.585
 3101SOL    HW210203   4.406   6.558   5.634
 3102SOL     OW10204   0.127   5.680   0.250
 3102SOL    HW110205   0.067   5.686   0.170
 3102SOL    HW210206   0.071   5.673   0.333
 3103SOL     OW10207   3.509   0.059   1.067
 3103SOL    HW110208   3.509   0.159   1.076
 3103SOL    HW210209   3.572   0.020   1.134
 3104SOL     OW10210   4.505   0.398   6.192
 3104SOL    HW110211   4.523   0.356   6.103
 3104SOL    HW210212   4.509   0.327   6.263
 3105SOL     OW10213   5.076   3.210   0.116
 3105SOL    HW110214   4.980   3.188   0.135
 3105SOL    HW210215   5.121   3.132   0.075
 3106SOL     OW10216   5.593   1.013   4.687
 3106SOL    HW110217   5.574   1.015   4.785
 3106SOL    HW210218   5.666   0.947   4.669
 3107SOL     OW10219   4.541   1.569   5.140
 3107SOL    HW110220   4.606   1.504   5.100
 3107SOL    HW210221   4.484   1.608   5.068
 3108SOL     OW10222   2.334   4.546   4.714
 3108SOL    HW110223   2.307   4.574   4.806
 3108SOL    HW210224   2.344   4.446   4.711
 3109SOL     OW10225   6.472   6.798   4.148
 3109SOL    HW110226   6.420   6.742   4.084
 3109SOL    HW210227   6.476   6.893   4.115
 3110SOL     OW10228   2.303   4.776   3.544
 3110SOL    HW110229   2.320   4.695   3.489
 3110SOL    HW210230   2.245   4.751   3.622
 3111SOL     OW10231   6.292   4.689   5.091
 3111SOL    HW110232   6.230   4.611   5.088
 3111SOL    HW210233   6.296   4.725   5.184
 3112SOL     OW10234   4.027   2.802   0.143
 3112SOL    HW110235   4.050   2.706   0.156
 3112SOL    HW210236   3.987   2.838   0.227
 3113SOL     OW10237   2.581   6.061   2.755
 3113SOL    HW110238   2.514   6.058   2.681
 3113SOL    HW210239   2.660   6.005   2.730
 3114SOL     OW10240   3.579   1.645   0.341
 3114SOL    HW110241   3.588   1.605   0.249
 3114SOL    HW210242   3.499   1.606   0.387
 3115SOL     OW10243   4.138   4.290   5.304
 3115SOL    HW110244   4.200   4.332   5.238
 3115SOL    HW210245   4.087   4.216   5.259
 3116SOL     OW10246   0.133   2.508   0.899
 3116SOL    HW110247   0.052   2.475   0.946
 3116SOL    HW210248   0.184   2.570   0.959
 3117SOL     OW10249   5.035   1.986   5.632
 3117SOL    HW110250   4.952   1.931   5.638
 3117SOL    HW210251   5.055   2.026   5.722
 3118SOL     OW10252   1.689   0.516   2.842
 3118SOL    HW110253   1.655   0.493   2.933
 3118SOL    HW210254   1.750   0.595   2.848
 3119SOL     OW10255   3.847   3.041   5.679
 3119SOL    HW110256   3.801   2.978   5.616
 3119SOL    HW210257   3.934   3.069   5.639
 3120SOL     OW10258   3.093   0.410   5.073
 3120SOL    HW110259   3.088   0.314   5.046
 3120SOL    HW210260   3.092   0.417   5.172
 3121SOL     OW10261   4.865   1.967   4.311
 3121SOL    HW110262   4.915   1.969   4.397
 3121SOL    HW210263   4.857   1.873   4.279
 3122SOL     OW10264   4.306   4.724   4.198
 3122SOL    HW110265   4.296   4.745   4.100
 3122SOL    HW210266   4.307   4.625   4.211
 3123SOL     OW10267   2.026   1.976   3.194
 3123SOL    HW110268   1.985   1.928   3.271
 3123SOL    HW210269   2.112   2.017   3.223
 3124SOL     OW10270   5.357   6.542   4.820
 3124SOL    HW110271   5.365   6.634   4.782
 3124SOL    HW210272   5.371   6.546   4.919
 3125SOL     OW10273   1.291   2.791   5.542
 3125SOL    HW110274   1.302   2.692   5.550
 3125SOL    HW210275   1.245   2.813   5.456
 3126SOL     OW10276   5.962   5.754   4.697
 3126SOL    HW110277   5.884   5.710   4.741
 3126SOL    HW210278   5.967   5.850   4.724
 3127SOL     OW10279   0.775   2.385   4.451
 3127SOL    HW110280   0.812   2.393   4.544
 3127SOL    HW210281   0.685   2.428   4.447
 3128SOL     OW10282   3.454   0.112   0.369
 3128SOL    HW110283   3.529   0.177   0.355
 3128SOL    HW210284   3.375   0.160   0.407
 3129SOL     OW10285   4.995   3.144   0.995
 3129SOL    HW110286   4.979   3.187   0.907
 3129SOL    HW210287   4.914   3.154   1.053
 3130SOL     OW10288   1.785   3.799   1.181
 3130SOL    HW110289   1.869   3.821   1.132
 3130SOL    HW210290   1.782   3.701   1.201
 3131SOL     OW10291   0.192   3.949   1.599
 3131SOL    HW110292   0.176   3.946   1.698
 3131SOL    HW210293   0.190   4.044   1.568
 3132SOL     OW10294   3.647   4.349   0.196
 3132SOL    HW110295   3.627   4.446   0.182
 3132SOL    HW210296   3.654   4.330   0.294
 3133SOL     OW10297   3.976   0.235   3.194
 3133SOL    HW110298   3.954   0.213   3.099
 3133SOL    HW210299   4.074   0.219   3.210
 3134SOL     OW10300   3.088   4.780   2.116
 3134SOL    HW110301   3.048   4.764   2.025
 3134SOL    HW210302   3.186   4.797   2.106
 3135SOL     OW10303   5.611   0.129   6.073
 3135SOL    HW110304   5.650   0.207   6.122
 3135SOL    HW210305   5.674   0.099   6.002
 3136SOL     OW10306   6.192   1.171   2.485
 3136SOL    HW110307   6.197   1.223   2.571
 3136SOL    HW210308   6.125   1.097   2.494
 3137SOL     OW10309   6.342   0.278   0.388
 3137SOL    HW110310   6.439   0.270   0.413
 3137SOL    HW210311   6.299   0.188   0.394
 3138SOL     OW10312   5.627   5.752   4.014
 3138SOL    HW110313   5.710   5.755   3.958
 3138SOL    HW210314   5.553   5.709   3.962
 3139SOL     OW10315   2.334   4.921   1.198
 3139SOL    HW110316   2.253   4.896   1.252
 3139SOL    HW210317   2.348   4.852   1.126
 3140SOL     OW10318   6.019   6.498   5.783
 3140SOL    HW110319   6.055   6.513   5.875
 3140SOL    HW210320   5.920   6.485   5.788
 3141SOL     OW10321   0.429   2.302   6.995
 3141SOL    HW110322   0.335   2.276   7.015
 3141SOL    HW210323   0.430   2.375   6.927
 3142SOL     OW10324   4.718   0.639   2.495
 3142SOL    HW110325   4.744   0.542   2.503
 3142SOL    HW210326   4.734   0.685   2.582
 3143SOL     OW10327   6.226   2.119   0.340
 3143SOL    HW110328   6.136   2.085   0.365
 3143SOL    HW210329   6.226   2.149   0.245
 3144SOL     OW10330   4.361   3.884   6.501
 3144SOL    HW110331   4.324   3.791   6.502
 3144SOL    HW210332   4.377   3.914   6.595
 3145SOL     OW10333   2.881   6.562   1.754
 3145SOL    HW110334   2.930   6.553   1.841
 3145SOL    HW210335   2.804   6.625   1.766
 3146SOL     OW10336   0.826   0.794   4.947
 3146SOL    HW110337   0.782   0.705   4.936
 3146SOL    HW210338   0.900   0.803   4.880
 3147SOL     OW10339   3.553   4.980   6.398
 3147SOL    HW110340   3.537   4.959   6.495
 3147SOL    HW210341   3.606   4.906   6.356
 3148SOL     OW10342   0.374   6.745   2.986
 3148SOL    HW110343   0.409   6.801   2.911
 3148SOL    HW210344   0.445   6.735   3.057
 3149SOL     OW10345   3.188   1.283   0.432
 3149SOL    HW110346   3.126   1.360   0.413
 3149SOL    HW210347   3.179   1.256   0.527
 3150SOL     OW10348   6.317   6.229   5.173
 3150SOL    HW110349   6.411   6.195   5.162
 3150SOL    HW210350   6.267   6.168   5.234
 3151SOL     OW10351   6.277   1.832   5.871
 3151SOL    HW110352   6.347   1.891   5.912
 3151SOL    HW210353   6.308   1.803   5.780
 3152SOL     OW10354   1.619   3.921   6.585
 3152SOL    HW110355   1.649   3.853   6.519
 3152SOL    HW210356   1.582   3.876   6.666
 3153SOL     OW10357   6.601   5.139   0.473
 3153SOL    HW110358   6.586   5.111   0.568
 3153SOL    HW210359   6.699   5.137   0.453
 3154SOL     OW10360   5.835   1.692   1.639
 3154SOL    HW110361   5.855   1.780   1.595
 3154SOL    HW210362   5.821   1.622   1.569
 3155SOL     OW10363   6.209   4.785   0.154
 3155SOL    HW110364   6.137   4.846   0.123
 3155SOL    HW210365   6.180   4.690   0.142
 3156SOL     OW10366   3.583   4.142   2.278
 3156SOL    HW110367   3.589   4.241   2.270
 3156SOL    HW210368   3.671   4.106   2.309
 3157SOL     OW10369   1.112   1.975   5.275
 3157SOL    HW110370   1.156   1.948   5.189
 3157SOL    HW210371   1.146   1.916   5.349
 3158SOL     OW10372   2.861   2.394   5.686
 3158SOL    HW110373   2.829   2.485   5.658
 3158SOL    HW210374   2.961   2.396   5.695
 3159SOL     OW10375   4.524   6.815   0.558
 3159SOL    HW110376   4.439   6.853   0.595
 3159SOL    HW210377   4.591   6.888   0.545
 3160SOL     OW10378   2.179   0.041   5.608
 3160SOL    HW110379   2.210   0.001   5.694
 3160SOL    HW210380   2.186   0.141   5.613
 3161SOL     OW10381   1.872   2.580   2.452
 3161SOL    HW110382   1.883   2.573   2.551
 3161SOL    HW210383   1.937   2.648   2.416
 3162SOL     OW10384   1.879   5.478   6.819
 3162SOL    HW110385   1.891   5.560   6.874
 3162SOL    HW210386   1.817   5.499   6.742
 3163SOL     OW10387   4.325   3.622   0.521
 3163SOL    HW110388   4.315   3.599   0.424
 3163SOL    HW210389   4.253   3.576   0.573
 3164SOL     OW10390   2.823   5.531   2.301
 3164SOL    HW110391   2.827   5.617   2.251
 3164SOL    HW210392   2.897   5.471   2.270
 3165SOL     OW10393   0.544   4.878   0.150
 3165SOL    HW110394   0.612   4.851   0.219
 3165SOL    HW210395   0.578   4.956   0.098
 3166SOL     OW10396   4.072   1.188   4.528
 3166SOL    HW110397   4.032   1.237   4.451
 3166SOL    HW210398   4.091   1.252   4.603
 3167SOL     OW10399   4.768   4.053   0.099
 3167SOL    HW110400   4.674   4.081   0.078
 3167SOL    HW210401   4.770   4.014   0.191
 3168SOL     OW10402   4.615   2.757   1.004
 3168SOL    HW110403   4.589   2.666   0.973
 3168SOL    HW210404   4.540   2.821   0.988
 3169SOL     OW10405   1.579   4.761   2.333
 3169SOL    HW110406   1.490   4.716   2.332
 3169SOL    HW210407   1.643   4.707   2.388
 3170SOL     OW10408   3.608   6.007   2.650
 3170SOL    HW110409   3.676   5.937   2.630
 3170SOL    HW210410   3.592   6.062   2.567
 3171SOL     OW10411   5.230   3.348   2.191
 3171SOL    HW110412   5.141   3.320   2.228
 3171SOL    HW210413   5.217   3.421   2.125
 3172SOL     OW10414   0.075   4.662   6.979
 3172SOL    HW110415   0.063   4.699   6.887
 3172SOL    HW210416   0.168   4.679   7.010
 3173SOL     OW10417   2.792   1.723   6.688
 3173SOL    HW110418   2.770   1.820   6.681
 3173SOL    HW210419   2.891   1.712   6.700
 3174SOL     OW10420   2.756   2.708   5.747
 3174SOL    HW110421   2.709   2.779   5.694
 3174SOL    HW210422   2.689   2.642   5.782
 3175SOL     OW10423   6.706   1.630   3.461
 3175SOL    HW110424   6.744   1.707   3.410
 3175SOL    HW210425   6.609   1.619   3.438
 3176SOL     OW10426   0.027   3.804   4.894
 3176SOL    HW110427   0.066   3.891   4.923
 3176SOL    HW210428   6.983   3.774   4.960
 3177SOL     OW10429   5.452   4.262   3.297
 3177SOL    HW110430   5.462   4.350   3.251
 3177SOL    HW210431   5.510   4.194   3.250
 3178SOL     OW10432   5.477   1.659   0.071
 3178SOL    HW110433   5.550   1.719   0.039
 3178SOL    HW210434   5.444   1.690   0.160
 3179SOL     OW10435   1.236   1.754   2.471
 3179SOL    HW110436   1.140   1.781   2.483
 3179SOL    HW210437   1.244   1.655   2.472
 3180SOL     OW10438   5.560   6.678   6.721
 3180SOL    HW110439   5.557   6.608   6.793
 3180SOL    HW210440   5.492   6.655   6.651
 3181SOL     OW10441   0.324   1.336   4.525
 3181SOL    HW110442   0.310   1.426   4.484
 3181SOL    HW210443   0.339   1.268   4.453
 3182SOL     OW10444   3.279   0.065   0.613
 3182SOL    HW110445   3.211   0.033   0.547
 3182SOL    HW210446   3.282   0.165   0.613
 3183SOL     OW10447   4.553   4.819   2.412
 3183SOL    HW110448   4.533   4.804   2.509
 3183SOL    HW210449   4.652   4.830   2.400
 3184SOL     OW10450   0.556   2.262   3.622
 3184SOL    HW110451   0.637   2.216   3.585
 3184SOL    HW210452   0.577   2.359   3.639
 3185SOL     OW10453   6.665   6.531   5.431
 3185SOL    HW110454   6.758   6.567   5.434
 3185SOL    HW210455   6.636   6.508   5.524
 3186SOL     OW10456   1.787   0.762   0.050
 3186SOL    HW110457   1.806   0.664   0.061
 3186SOL    HW210458   1.705   0.785   0.102
 3187SOL     OW10459   3.725   5.596   2.487
 3187SOL    HW110460   3.761   5.686   2.513
 3187SOL    HW210461   3.662   5.607   2.409
 3188SOL     OW10462   2.165   5.052   4.870
 3188SOL    HW110463   2.124   4.976   4.820
 3188SOL    HW210464   2.136   5.139   4.830
 3189SOL     OW10465   2.050   0.947   0.600
 3189SOL    HW110466   1.977   1.011   0.577
 3189SOL    HW210467   2.120   0.948   0.528
 3190SOL     OW10468   6.452   5.650   5.709
 3190SOL    HW110469   6.463   5.665   5.611
 3190SOL    HW210470   6.355   5.635   5.730
 3191SOL     OW10471   4.424   5.539   2.307
 3191SOL    HW110472   4.495   5.604   2.332
 3191SOL    HW210473   4.354   5.536   2.378
 3192SOL     OW10474   0.545   2.516   1.369
 3192SOL    HW110475   0.586   2.577   1.301
 3192SOL    HW210476   0.617   2.477   1.426
 3193SOL     OW10477   3.963   1.225   4.916
 3193SOL    HW110478   4.036   1.218   4.848
 3193SOL    HW210479   3.901   1.299   4.891
 3194SOL     OW10480   1.269   1.116   5.454
 3194SOL    HW110481   1.182   1.070   5.470
 3194SOL    HW210482   1.344   1.051   5.472
 3195SOL     OW10483   0.465   1.296   1.949
 3195SOL    HW110484   0.461   1.380   2.002
 3195SOL    HW210485   0.558   1.260   1.951
 3196SOL     OW10486   6.658   0.882   5.702
 3196SOL    HW110487   6.648   0.800   5.645
 3196SOL    HW210488   6.755   0.909   5.704
 3197SOL     OW10489   2.447   6.670   5.986
 3197SOL    HW110490   2.438   6.742   5.916
 3197SOL    HW210491   2.361   6.662   6.037
 3198SOL     OW10492   6.621   2.383   4.011
 3198SOL    HW110493   6.559   2.428   3.946
 3198SOL    HW210494   6.567   2.344   4.086
 3199SOL     OW10495   5.440   4.949   2.918
 3199SOL    HW110496   5.446   4.934   3.017
 3199SOL    HW210497   5.404   4.867   2.874
 3200SOL     OW10498   6.642   3.371   4.323
 3200SOL    HW110499   6.698   3.373   4.240
 3200SOL    HW210500   6.546   3.390   4.299
 3201SOL     OW10501   6.312   4.767   3.083
 3201SOL    HW110502   6.237   4.782   3.148
 3201SOL    HW210503   6.278   4.712   3.007
 3202SOL     OW10504   1.009   5.175   0.780
 3202SOL    HW110505   1.011   5.254   0.842
 3202SOL    HW210506   0.916   5.161   0.748
 3203SOL     OW10507   4.497   0.717   1.416
 3203SOL    HW110508   4.593   0.693   1.399
 3203SOL    HW210509   4.444   0.634   1.434
 3204SOL     OW10510   2.906   1.952   3.488
 3204SOL    HW110511   2.986   1.940   3.430
 3204SOL    HW210512   2.918   1.901   3.573
 3205SOL     OW10513   5.325   3.644   5.738
 3205SOL    HW110514   5.318   3.550   5.706
 3205SOL    HW210515   5.240   3.671   5.783
 3206SOL     OW10516   2.914   3.030   1.408
 3206SOL    HW110517   2.911   3.020   1.507
 3206SOL    HW210518   2.859   2.959   1.365
 3207SOL     OW10519   0.961   0.767   5.669
 3207SOL    HW110520   0.876   0.818   5.656
 3207SOL    HW210521   0.954   0.678   5.624
 3208SOL     OW10522   5.985   5.729   5.905
 3208SOL    HW110523   5.945   5.762   5.990
 3208SOL    HW210524   5.952   5.785   5.829
 3209SOL     OW10525   3.887   5.534   5.442
 3209SOL    HW110526   3.817   5.482   5.394
 3209SOL    HW210527   3.971   5.534   5.389
 3210SOL     OW10528   0.048   5.114   1.600
 3210SOL    HW110529   0.067   5.181   1.671
 3210SOL    HW210530   0.057   5.022   1.638
 3211SOL     OW10531   1.478   4.844   0.872
 3211SOL    HW110532   1.486   4.836   0.773
 3211SOL    HW210533   1.562   4.810   0.915
 3212SOL     OW10534   3.435   0.130   2.426
 3212SOL    HW110535   3.492   0.156   2.505
 3212SOL    HW210536   3.364   0.199   2.413
 3213SOL     OW10537   1.765   0.479   6.165
 3213SOL    HW110538   1.667   0.471   6.183
 3213SOL    HW210539   1.799   0.565   6.203
 3214SOL     OW10540   4.754   6.772   4.069
 3214SOL    HW110541   4.695   6.693   4.052
 3214SOL    HW210542   4.717   6.851   4.020
 3215SOL     OW10543   1.090   3.297   0.303
 3215SOL    HW110544   1.100   3.381   0.356
 3215SOL    HW210545   1.169   3.237   0.320
 3216SOL     OW10546   5.666   5.185   1.301
 3216SOL    HW110547   5.661   5.146   1.209
 3216SOL    HW210548   5.718   5.271   1.299
 3217SOL     OW10549   7.010   5.633   2.791
 3217SOL    HW110550   0.067   5.624   2.735
 3217SOL    HW210551   6.995   5.548   2.842
 3218SOL     OW10552   5.880   2.132   3.569
 3218SOL    HW110553   5.955   2.198   3.568
 3218SOL    HW210554   5.877   2.087   3.658
 3219SOL     OW10555   6.960   1.200   5.019
 3219SOL    HW110556   6.902   1.279   5.040
 3219SOL    HW210557   6.908   1.135   4.963
 3220SOL     OW10558   0.278   5.868   6.534
 3220SOL    HW110559   0.324   5.853   6.447
 3220SOL    HW210560   0.343   5.907   6.600
 3221SOL     OW10561   3.875   0.201   2.648
 3221SOL    HW110562   3.871   0.101   2.640
 3221SOL    HW210563   3.852   0.242   2.560
 3222SOL     OW10564   2.796   1.137   3.260
 3222SOL    HW110565   2.881   1.143   3.207
 3222SOL    HW210566   2.818   1.122   3.356
 3223SOL     OW10567   2.002   6.327   0.675
 3223SOL    HW110568   1.978   6.423   0.669
 3223SOL    HW210569   2.102   6.317   0.668
 3224SOL     OW10570   5.281   2.551   5.157
 3224SOL    HW110571   5.324   2.612   5.089
 3224SOL    HW210572   5.341   2.543   5.237
 3225SOL     OW10573   4.325   1.475   4.370
 3225SOL    HW110574   4.255   1.527   4.418
 3225SOL    HW210575   4.366   1.408   4.432
 3226SOL     OW10576   1.830   6.953   2.003
 3226SOL    HW110577   1.781   6.866   2.005
 3226SOL    HW210578   1.776   7.021   1.955
 3227SOL     OW10579   3.594   2.442   6.530
 3227SOL    HW110580   3.597   2.542   6.521
 3227SOL    HW210581   3.500   2.410   6.517
 3228SOL     OW10582   0.278   4.060   0.703
 3228SOL    HW110583   0.350   4.071   0.772
 3228SOL    HW210584   0.319   4.027   0.617
 3229SOL     OW10585   3.313   0.861   5.623
 3229SOL    HW110586   3.344   0.954   5.641
 3229SOL    HW210587   3.272   0.857   5.532
 3230SOL     OW10588   2.157   5.673   6.283
 3230SOL    HW110589   2.197   5.657   6.374
 3230SOL    HW210590   2.207   5.620   6.215
 3231SOL     OW10591   3.202   1.199   2.423
 3231SOL    HW110592   3.256   1.195   2.507
 3231SOL    HW210593   3.138   1.276   2.429
 3232SOL     OW10594   3.512   6.056   3.690
 3232SOL    HW110595   3.508   6.008   3.603
 3232SOL    HW210596   3.442   6.021   3.752
 3233SOL     OW10597   6.750   2.755   0.765
 3233SOL    HW110598   6.810   2.744   0.845
 3233SOL    HW210599   6.666   2.704   0.779
 3234SOL     OW10600   2.138   2.814   0.227
 3234SOL    HW110601   2.046   2.782   0.207
 3234SOL    HW210602   2.134   2.901   0.277
 3235SOL     OW10603   6.103   5.751   1.821
 3235SOL    HW110604   6.178   5.812   1.845
 3235SOL    HW210605   6.122   5.659   1.857
 3236SOL     OW10606   2.291   3.850   0.446
 3236SOL    HW110607   2.391   3.851   0.456
 3236SOL    HW210608   2.262   3.759   0.414
 3237SOL     OW10609   6.589   1.884   4.146
 3237SOL    HW110610   6.621   1.978   4.162
 3237SOL    HW210611   6.548   1.849   4.230
 3238SOL     OW10612   6.243   5.092   0.440
 3238SOL    HW110613   6.282   5.017   0.493
 3238SOL    HW210614   6.288   5.178   0.466
 3239SOL     OW10615   0.145   0.029   3.708
 3239SOL    HW110616   0.120   0.084   3.787
 3239SOL    HW210617   0.187   0.088   3.639
 3240SOL     OW10618   6.942   0.779   6.261
 3240SOL    HW110619   6.879   0.841   6.308
 3240SOL    HW210620   7.024   0.768   6.317
 3241SOL     OW10621   4.710   2.070   6.731
 3241SOL    HW110622   4.778   2.007   6.770
 3241SOL    HW210623   4.668   2.028   6.651
 3242SOL     OW10624   4.903   4.017   5.627
 3242SOL    HW110625   4.935   3.923   5.618
 3242SOL    HW210626   4.803   4.018   5.633
 3243SOL     OW10627   4.625   5.403   6.933
 3243SOL    HW110628   4.590   5.326   6.878
 3243SOL    HW210629   4.724   5.411   6.919
 3244SOL     OW10630   5.496   6.113   0.239
 3244SOL    HW110631   5.467   6.047   0.308
 3244SOL    HW210632   5.566   6.173   0.277
 3245SOL     OW10633   4.876   2.545   4.227
 3245SOL    HW110634   4.814   2.612   4.187
 3245SOL    HW210635   4.852   2.453   4.195
 3246SOL     OW10636   6.746   0.361   2.918
 3246SOL    HW110637   6.678   0.292   2.896
 3246SOL    HW210638   6.722   0.406   3.004
 3247SOL     OW10639   6.964   4.919   2.711
 3247SOL    HW110640   6.904   4.979   2.766
 3247SOL    HW210641   6.922   4.902   2.622
 3248SOL     OW10642   5.692   2.712   2.197
 3248SOL    HW110643   5.754   2.651   2.148
 3248SOL    HW210644   5.702   2.805   2.163
 3249SOL     OW10645   3.831   3.707   4.181
 3249SOL    HW110646   3.838   3.759   4.096
 3249SOL    HW210647   3.736   3.707   4.213
 3250SOL     OW10648   4.948   6.262   3.483
 3250SOL    HW110649   4.893   6.273   3.565
 3250SOL    HW210650   5.045   6.264   3.506
 3251SOL     OW10651   2.821   1.241   4.407
 3251SOL    HW110652   2.884   1.168   4.434
 3251SOL    HW210653   2.739   1.237   4.465
 3252SOL     OW10654   3.150   1.471   2.826
 3252SOL    HW110655   3.092   1.389   2.825
 3252SOL    HW210656   3.096   1.550   2.856
 3253SOL     OW10657   4.656   3.896   1.283
 3253SOL    HW110658   4.707   3.860   1.361
 3253SOL    HW210659   4.576   3.838   1.266
 3254SOL     OW10660   5.212   6.736   6.384
 3254SOL    HW110661   5.128   6.683   6.400
 3254SOL    HW210662   5.230   6.795   6.463
 3255SOL     OW10663   5.854   5.740   0.979
 3255SOL    HW110664   5.903   5.736   1.066
 3255SOL    HW210665   5.876   5.825   0.932
 3256SOL     OW10666   4.581   2.218   1.251
 3256SOL    HW110667   4.672   2.189   1.220
 3256SOL    HW210668   4.575   2.204   1.350
 3257SOL     OW10669   3.011   2.039   2.057
 3257SOL    HW110670   3.096   2.024   2.106
 3257SOL    HW210671   2.997   2.137   2.042
 3258SOL     OW10672   3.236   5.230   3.279
 3258SOL    HW110673   3.237   5.251   3.181
 3258SOL    HW210674   3.147   5.255   3.318
 3259SOL     OW10675   5.262   4.941   4.292
 3259SOL    HW110676   5.191   4.969   4.227
 3259SOL    HW210677   5.267   4.841   4.294
 3260SOL     OW10678   1.695   3.926   2.126
 3260SOL    HW110679   1.770   3.958   2.068
 3260SOL    HW210680   1.626   3.881   2.069
 3261SOL     OW10681   5.046   0.442   2.325
 3261SOL    HW110682   5.019   0.537   2.310
 3261SOL    HW210683   4.966   0.382   2.314
 3262SOL     OW10684   4.002   2.198   2.578
 3262SOL    HW110685   3.945   2.261   2.526
 3262SOL    HW210686   4.091   2.240   2.595
 3263SOL     OW10687   3.383   0.946   3.813
 3263SOL    HW110688   3.323   1.024   3.834
 3263SOL    HW210689   3.330   0.876   3.764
 3264SOL     OW10690   1.792   4.982   0.878
 3264SOL    HW110691   1.842   5.005   0.794
 3264SOL    HW210692   1.857   4.951   0.947
 3265SOL     OW10693   5.873   5.877   5.701
 3265SOL    HW110694   5.808   5.952   5.715
 3265SOL    HW210695   5.966   5.914   5.703
 3266SOL     OW10696   2.586   4.430   6.736
 3266SOL    HW110697   2.570   4.350   6.678
 3266SOL    HW210698   2.507   4.492   6.730
 3267SOL     OW10699   3.472   0.525   1.982
 3267SOL    HW110700   3.503   0.537   1.888
 3267SOL    HW210701   3.437   0.432   1.994
 3268SOL     OW10702   0.868   4.876   1.516
 3268SOL    HW110703   0.778   4.880   1.559
 3268SOL    HW210704   0.934   4.839   1.581
 3269SOL     OW10705   0.530   5.309   2.251
 3269SOL    HW110706   0.519   5.356   2.164
 3269SOL    HW210707   0.627   5.311   2.278
 3270SOL     OW10708   1.657   3.034   6.251
 3270SOL    HW110709   1.713   3.054   6.332
 3270SOL    HW210710   1.698   3.079   6.171
 3271SOL     OW10711   6.692   3.460   1.715
 3271SOL    HW110712   6.623   3.466   1.643
 3271SOL    HW210713   6.719   3.364   1.726
 3272SOL     OW10714   3.208   4.681   6.512
 3272SOL    HW110715   3.270   4.631   6.451
 3272SOL    HW210716   3.171   4.618   6.580
 3273SOL     OW10717   5.101   4.663   5.980
 3273SOL    HW110718   5.052   4.739   6.024
 3273SOL    HW210719   5.068   4.652   5.886
 3274SOL     OW10720   6.143   0.512   0.692
 3274SOL    HW110721   6.098   0.595   0.662
 3274SOL    HW210722   6.077   0.436   0.693
 3275SOL     OW10723   4.531   1.240   0.726
 3275SOL    HW110724   4.546   1.141   0.731
 3275SOL    HW210725   4.473   1.268   0.802
 3276SOL     OW10726   4.529   6.658   0.062
 3276SOL    HW110727   4.548   6.697   0.153
 3276SOL    HW210728   4.584   6.576   0.050
 3277SOL     OW10729   3.004   1.188   1.054
 3277SOL    HW110730   3.052   1.274   1.070
 3277SOL    HW210731   2.917   1.207   1.009
 3278SOL     OW10732   0.243   0.244   5.811
 3278SOL    HW110733   0.245   0.172   5.880
 3278SOL    HW210734   0.298   0.217   5.732
 3279SOL     OW10735   4.485   6.677   0.999
 3279SOL    HW110736   4.489   6.677   1.099
 3279SOL    HW210737   4.434   6.597   0.968
 3280SOL     OW10738   4.930   4.384   4.208
 3280SOL    HW110739   4.953   4.455   4.142
 3280SOL    HW210740   5.014   4.336   4.235
 3281SOL     OW10741   0.164   4.620   1.210
 3281SOL    HW110742   0.157   4.720   1.208
 3281SOL    HW210743   0.251   4.593   1.168
 3282SOL     OW10744   0.416   3.664   5.364
 3282SOL    HW110745   0.329   3.632   5.402
 3282SOL    HW210746   0.416   3.649   5.265
 3283SOL     OW10747   4.065   1.235   1.065
 3283SOL    HW110748   4.147   1.260   1.117
 3283SOL    HW210749   4.070   1.138   1.042
 3284SOL     OW10750   1.085   5.296   4.886
 3284SOL    HW110751   1.177   5.272   4.855
 3284SOL    HW210752   1.042   5.215   4.926
 3285SOL     OW10753   5.907   1.928   4.719
 3285SOL    HW110754   5.975   1.868   4.763
 3285SOL    HW210755   5.867   1.988   4.788
 3286SOL     OW10756   3.385   2.570   1.637
 3286SOL    HW110757   3.380   2.631   1.558
 3286SOL    HW210758   3.475   2.579   1.680
 3287SOL     OW10759   0.729   0.251   0.193
 3287SOL    HW110760   0.712   0.214   0.101
 3287SOL    HW210761   0.660   0.319   0.215
 3288SOL     OW10762   1.715   6.557   1.056
 3288SOL    HW110763   1.750   6.468   1.088
 3288SOL    HW210764   1.789   6.608   1.013
 3289SOL     OW10765   2.763   1.995   6.664
 3289SOL    HW110766   2.687   2.018   6.724
 3289SOL    HW210767   2.783   2.072   6.604
 3290SOL     OW10768   6.996   5.491   0.639
 3290SOL    HW110769   6.990   5.454   0.547
 3290SOL    HW210770   6.914   5.467   0.691
 3291SOL     OW10771   3.722   0.676   5.860
 3291SOL    HW110772   3.640   0.624   5.834
 3291SOL    HW210773   3.802   0.616   5.853
 3292SOL     OW10774   6.920   1.153   0.911
 3292SOL    HW110775   6.971   1.075   0.947
 3292SOL    HW210776   6.927   1.229   0.976
 3293SOL     OW10777   6.740   4.842   1.796
 3293SOL    HW110778   6.684   4.873   1.719
 3293SOL    HW210779   6.730   4.906   1.872
 3294SOL     OW10780   5.436   1.778   5.481
 3294SOL    HW110781   5.371   1.709   5.451
 3294SOL    HW210782   5.387   1.856   5.521
 3295SOL     OW10783   1.911   3.271   0.767
 3295SOL    HW110784   1.999   3.290   0.810
 3295SOL    HW210785   1.865   3.358   0.746
 3296SOL     OW10786   6.850   0.483   4.764
 3296SOL    HW110787   6.849   0.427   4.681
 3296SOL    HW210788   6.912   0.443   4.831
 3297SOL     OW10789   3.406   1.834   4.970
 3297SOL    HW110790   3.334   1.885   4.925
 3297SOL    HW210791   3.477   1.897   5.001
 3298SOL     OW10792   6.629   2.705   5.710
 3298SOL    HW110793   6.560   2.749   5.653
 3298SOL    HW210794   6.594   2.695   5.803
 3299SOL     OW10795   4.327   6.232   2.932
 3299SOL    HW110796   4.374   6.293   2.996
 3299SOL    HW210797   4.393   6.194   2.867
 3300SOL     OW10798   1.705   0.417   5.586
 3300SOL    HW110799   1.747   0.425   5.676
 3300SOL    HW210800   1.606   0.414   5.595
 3301SOL     OW10801   1.723   3.926   2.960
 3301SOL    HW110802   1.760   3.938   3.053
 3301SOL    HW210803   1.640   3.871   2.964
 3302SOL     OW10804   1.546   4.700   6.668
 3302SOL    HW110805   1.453   4.695   6.707
 3302SOL    HW210806   1.565   4.795   6.641
 3303SOL     OW10807   3.732   3.179   0.602
 3303SOL    HW110808   3.765   3.086   0.586
 3303SOL    HW210809   3.660   3.177   0.672
 3304SOL     OW10810   2.225   4.962   5.976
 3304SOL    HW110811   2.271   4.874   5.966
 3304SOL    HW210812   2.132   4.955   5.941
 3305SOL     OW10813   3.443   0.481   1.681
 3305SOL    HW110814   3.461   0.388   1.649
 3305SOL    HW210815   3.350   0.487   1.716
 3306SOL     OW10816   1.264   6.155   5.625
 3306SOL    HW110817   1.216   6.071   5.649
 3306SOL    HW210818   1.319   6.185   5.703
 3307SOL     OW10819   1.045   6.898   5.860
 3307SOL    HW110820   1.098   6.863   5.782
 3307SOL    HW210821   1.069   6.993   5.876
 3308SOL     OW10822   3.700   4.918   1.037
 3308SOL    HW110823   3.729   4.950   0.947
 3308SOL    HW210824   3.777   4.921   1.101
 3309SOL     OW10825   5.477   4.363   3.917
 3309SOL    HW110826   5.487   4.438   3.852
 3309SOL    HW210827   5.474   4.276   3.868
 3310SOL     OW10828   0.374   4.212   4.826
 3310SOL    HW110829   0.418   4.123   4.840
 3310SOL    HW210830   0.354   4.223   4.729
 3311SOL     OW10831   3.386   3.264   1.091
 3311SOL    HW110832   3.335   3.202   1.030
 3311SOL    HW210833   3.395   3.222   1.181
 3312SOL     OW10834   4.058   2.793   6.247
 3312SOL    HW110835   4.132   2.859   6.233
 3312SOL    HW210836   4.070   2.716   6.184
 3313SOL     OW10837   0.783   0.593   3.135
 3313SOL    HW110838   0.705   0.584   3.074
 3313SOL    HW210839   0.868   0.585   3.082
 3314SOL     OW10840   3.009   0.455   2.484
 3314SOL    HW110841   3.026   0.545   2.444
 3314SOL    HW210842   2.927   0.459   2.541
 3315SOL     OW10843   0.584   4.830   5.228
 3315SOL    HW110844   0.679   4.821   5.256
 3315SOL    HW210845   0.559   4.754   5.169
 3316SOL     OW10846   3.585   1.274   4.913
 3316SOL    HW110847   3.608   1.225   4.828
 3316SOL    HW210848   3.635   1.361   4.916
 3317SOL     OW10849   5.676   1.652   2.340
 3317SOL    HW110850   5.763   1.688   2.307
 3317SOL    HW210851   5.687   1.619   2.434
 3318SOL     OW10852   1.846   0.719   6.674
 3318SOL    HW110853   1.933   0.687   6.713
 3318SOL    HW210854   1.852   0.817   6.656
 3319SOL     OW10855   6.385   6.940   2.964
 3319SOL    HW110856   6.351   6.971   3.053
 3319SOL    HW210857   6.349   7.000   2.892
 3320SOL     OW10858   6.467   0.548   0.132
 3320SOL    HW110859   6.547   0.510   0.085
 3320SOL    HW210860   6.497   0.610   0.204
 3321SOL     OW10861   6.078   1.464   0.826
 3321SOL    HW110862   6.121   1.463   0.916
 3321SOL    HW210863   6.111   1.543   0.774
 3322SOL     OW10864   6.884   2.986   1.059
 3322SOL    HW110865   6.893   2.980   1.158
 3322SOL    HW210866   6.795   3.025   1.036
 3323SOL     OW10867   2.536   1.627   0.955
 3323SOL    HW110868   2.437   1.615   0.951
 3323SOL    HW210869   2.569   1.601   1.046
 3324SOL     OW10870   4.373   5.451   5.121
 3324SOL    HW110871   4.290   5.429   5.070
 3324SOL    HW210872   4.349   5.465   5.217
 3325SOL     OW10873   0.404   3.327   6.128
 3325SOL    HW110874   0.311   3.319   6.164
 3325SOL    HW210875   0.461   3.375   6.194
 3326SOL     OW10876   4.881   1.504   2.126
 3326SOL    HW110877   4.933   1.566   2.185
 3326SOL    HW210878   4.942   1.465   2.057
 3327SOL     OW10879   2.291   5.946   1.673
 3327SOL    HW110880   2.306   6.039   1.707
 3327SOL    HW210881   2.223   5.900   1.731
 3328SOL     OW10882   3.163   1.796   1.351
 3328SOL    HW110883   3.123   1.708   1.377
 3328SOL    HW210884   3.218   1.832   1.426
 3329SOL     OW10885   6.387   0.041   5.016
 3329SOL    HW110886   6.422   0.129   5.047
 3329SOL    HW210887   6.458   6.997   5.023
 3330SOL     OW10888   6.520   3.661   2.061
 3330SOL    HW110889   6.444   3.649   2.126
 3330SOL    HW210890   6.582   3.583   2.068
 3331SOL     OW10891   2.422   2.639   1.189
 3331SOL    HW110892   2.371   2.720   1.216
 3331SOL    HW210893   2.495   2.621   1.256
 3332SOL     OW10894   5.468   5.707   0.125
 3332SOL    HW110895   5.402   5.650   0.173
 3332SOL    HW210896   5.427   5.796   0.104
 3333SOL     OW10897   4.489   5.278   6.722
 3333SOL    HW110898   4.506   5.179   6.727
 3333SOL    HW210899   4.508   5.311   6.630
 3334SOL     OW10900   3.217   3.404   1.497
 3334SOL    HW110901   3.231   3.307   1.514
 3334SOL    HW210902   3.303   3.446   1.467
 3335SOL     OW10903   4.764   5.923   5.379
 3335SOL    HW110904   4.786   5.924   5.476
 3335SOL    HW210905   4.787   5.834   5.340
 3336SOL     OW10906   3.143   5.135   5.394
 3336SOL    HW110907   3.061   5.088   5.360
 3336SOL    HW210908   3.217   5.069   5.403
 3337SOL     OW10909   3.254   2.521   1.226
 3337SOL    HW110910   3.277   2.426   1.206
 3337SOL    HW210911   3.213   2.528   1.317
 3338SOL     OW10912   6.411   3.423   1.041
 3338SOL    HW110913   6.422   3.403   1.138
 3338SOL    HW210914   6.400   3.337   0.991
 3339SOL     OW10915   6.894   6.488   7.015
 3339SOL    HW110916   6.810   6.443   0.022
 3339SOL    HW210917   6.919   6.560   0.054
 3340SOL     OW10918   3.786   6.990   1.798
 3340SOL    HW110919   3.704   6.958   1.751
 3340SOL    HW210920   3.764   0.045   1.854
 3341SOL     OW10921   1.026   6.940   3.661
 3341SOL    HW110922   1.047   6.879   3.737
 3341SOL    HW210923   1.062   0.007   3.680
 3342SOL     OW10924   2.070   0.171   3.589
 3342SOL    HW110925   2.120   0.085   3.584
 3342SOL    HW210926   2.008   0.179   3.510
 3343SOL     OW10927   4.832   3.123   0.248
 3343SOL    HW110928   4.795   3.167   0.330
 3343SOL    HW210929   4.759   3.107   0.182
 3344SOL     OW10930   5.447   4.204   4.921
 3344SOL    HW110931   5.510   4.147   4.868
 3344SOL    HW210932   5.384   4.145   4.972
 3345SOL     OW10933   2.602   3.311   6.094
 3345SOL    HW110934   2.504   3.319   6.108
 3345SOL    HW210935   2.650   3.325   6.181
 3346SOL     OW10936   1.000   1.112   2.135
 3346SOL    HW110937   0.979   1.190   2.075
 3346SOL    HW210938   0.941   1.116   2.215
 3347SOL     OW10939   6.609   4.478   3.385
 3347SOL    HW110940   6.698   4.521   3.374
 3347SOL    HW210941   6.539   4.534   3.341
 3348SOL     OW10942   3.390   2.893   3.594
 3348SOL    HW110943   3.295   2.921   3.608
 3348SOL    HW210944   3.403   2.865   3.499
 3349SOL     OW10945   0.514   4.475   4.226
 3349SOL    HW110946   0.597   4.494   4.173
 3349SOL    HW210947   0.517   4.382   4.262
 3350SOL     OW10948   1.194   1.578   6.285
 3350SOL    HW110949   1.185   1.511   6.359
 3350SOL    HW210950   1.291   1.591   6.263
 3351SOL     OW10951   5.367   0.751   1.972
 3351SOL    HW110952   5.301   0.696   1.920
 3351SOL    HW210953   5.353   0.735   2.070
 3352SOL     OW10954   0.195   3.439   0.107
 3352SOL    HW110955   0.112   3.476   0.149
 3352SOL    HW210956   0.189   3.339   0.101
 3353SOL     OW10957   1.700   6.690   1.978
 3353SOL    HW110958   1.800   6.701   1.977
 3353SOL    HW210959   1.677   6.593   1.973
 3354SOL     OW10960   0.050   2.598   3.909
 3354SOL    HW110961   7.013   2.522   3.930
 3354SOL    HW210962   0.133   2.563   3.866
 3355SOL     OW10963   1.105   1.565   0.376
 3355SOL    HW110964   1.052   1.581   0.459
 3355SOL    HW210965   1.082   1.475   0.338
 3356SOL     OW10966   2.897   3.102   0.246
 3356SOL    HW110967   2.832   3.031   0.272
 3356SOL    HW210968   2.847   3.188   0.230
 3357SOL     OW10969   2.275   4.702   1.710
 3357SOL    HW110970   2.208   4.707   1.635
 3357SOL    HW210971   2.366   4.683   1.672
 3358SOL     OW10972   4.657   6.284   1.868
 3358SOL    HW110973   4.614   6.340   1.938
 3358SOL    HW210974   4.756   6.287   1.878
 3359SOL     OW10975   0.356   0.522   3.586
 3359SOL    HW110976   0.380   0.619   3.582
 3359SOL    HW210977   0.372   0.480   3.497
 3360SOL     OW10978   7.023   0.925   0.996
 3360SOL    HW110979   0.081   0.896   1.043
 3360SOL    HW210980   6.943   0.883   1.039
 3361SOL     OW10981   6.601   5.233   2.891
 3361SOL    HW110982   6.560   5.324   2.885
 3361SOL    HW210983   6.563   5.184   2.970
 3362SOL     OW10984   2.817   1.447   4.817
 3362SOL    HW110985   2.822   1.348   4.804
 3362SOL    HW210986   2.899   1.479   4.864
 3363SOL     OW10987   0.211   0.446   6.290
 3363SOL    HW110988   0.242   0.535   6.322
 3363SOL    HW210989   0.290   0.390   6.264
 3364SOL     OW10990   0.817   4.851   5.567
 3364SOL    HW110991   0.860   4.915   5.630
 3364SOL    HW210992   0.722   4.836   5.595
 3365SOL     OW10993   0.585   2.623   4.222
 3365SOL    HW110994   0.549   2.708   4.260
 3365SOL    HW210995   0.571   2.549   4.287
 3366SOL     OW10996   6.130   0.939   4.287
 3366SOL    HW110997   6.229   0.943   4.304
 3366SOL    HW210998   6.085   1.015   4.333
 3367SOL     OW10999   2.291   2.722   1.540
 3367SOL    HW111000   2.253   2.664   1.612
 3367SOL    HW211001   2.307   2.814   1.577
 3368SOL     OW11002   7.019   5.564   6.530
 3368SOL    HW111003   0.025   5.620   6.453
 3368SOL    HW211004   0.067   5.502   6.558
 3369SOL     OW11005   3.374   1.745   6.774
 3369SOL    HW111006   3.378   1.766   6.677
 3369SOL    HW211007   3.465   1.758   6.815
 3370SOL     OW11008   6.346   6.496   5.109
 3370SOL    HW111009   6.444   6.512   5.100
 3370SOL    HW211010   6.328   6.399   5.120
 3371SOL     OW11011   1.201   4.434   2.884
 3371SOL    HW111012   1.259   4.473   2.813
 3371SOL    HW211013   1.191   4.335   2.869
 3372SOL     OW11014   0.493   1.524   2.128
 3372SOL    HW111015   0.589   1.549   2.123
 3372SOL    HW211016   0.465   1.517   2.224
 3373SOL     OW11017   6.794   1.641   4.422
 3373SOL    HW111018   6.887   1.605   4.431
 3373SOL    HW211019   6.793   1.718   4.358
 3374SOL     OW11020   3.560   5.522   4.733
 3374SOL    HW111021   3.639   5.581   4.747
 3374SOL    HW211022   3.586   5.427   4.750
 3375SOL     OW11023   4.321   4.815   4.870
 3375SOL    HW111024   4.242   4.874   4.856
 3375SOL    HW211025   4.298   4.744   4.937
 3376SOL     OW11026   4.031   3.766   2.921
 3376SOL    HW111027   3.969   3.723   2.856
 3376SOL    HW211028   4.097   3.698   2.954
 3377SOL     OW11029   0.723   6.170   4.635
 3377SOL    HW111030   0.660   6.092   4.635
 3377SOL    HW211031   0.734   6.204   4.728
 3378SOL     OW11032   6.593   1.121   1.396
 3378SOL    HW111033   6.672   1.060   1.397
 3378SOL    HW211034   6.527   1.089   1.328
 3379SOL     OW11035   0.344   4.522   5.959
 3379SOL    HW111036   0.297   4.551   5.875
 3379SOL    HW211037   0.292   4.552   6.039
 3380SOL     OW11038   6.490   5.728   6.441
 3380SOL    HW111039   6.575   5.723   6.494
 3380SOL    HW211040   6.511   5.751   6.346
 3381SOL     OW11041   1.792   2.067   0.386
 3381SOL    HW111042   1.693   2.076   0.392
 3381SOL    HW211043   1.824   2.103   0.298
 3382SOL     OW11044   0.881   1.573   0.560
 3382SOL    HW111045   0.803   1.514   0.580
 3382SOL    HW211046   0.888   1.645   0.630
 3383SOL     OW11047   5.762   4.953   2.367
 3383SOL    HW111048   5.851   4.912   2.387
 3383SOL    HW211049   5.725   4.914   2.283
 3384SOL     OW11050   3.101   3.172   5.063
 3384SOL    HW111051   3.102   3.072   5.063
 3384SOL    HW211052   3.195   3.206   5.060
 3385SOL     OW11053   0.255   4.150   3.771
 3385SOL    HW111054   0.347   4.125   3.804
 3385SOL    HW211055   0.221   4.227   3.825
 3386SOL     OW11056   5.906   3.659   5.604
 3386SOL    HW111057   5.876   3.750   5.577
 3386SOL    HW211058   5.826   3.602   5.624
 3387SOL     OW11059   2.405   1.541   2.863
 3387SOL    HW111060   2.330   1.486   2.827
 3387SOL    HW211061   2.368   1.616   2.918
 3388SOL     OW11062   5.414   3.542   1.314
 3388SOL    HW111063   5.417   3.442   1.324
 3388SOL    HW211064   5.456   3.567   1.227
 3389SOL     OW11065   4.635   4.397   4.433
 3389SOL    HW111066   4.539   4.396   4.461
 3389SOL    HW211067   4.689   4.344   4.498
 3390SOL     OW11068   4.803   3.801   5.768
 3390SOL    HW111069   4.726   3.742   5.745
 3390SOL    HW211070   4.811   3.809   5.867
 3391SOL     OW11071   4.727   1.957   4.950
 3391SOL    HW111072   4.799   1.951   5.019
 3391SOL    HW211073   4.716   1.868   4.905
 3392SOL     OW11074   2.899   1.006   3.873
 3392SOL    HW111075   2.921   0.910   3.856
 3392SOL    HW211076   2.801   1.021   3.859
 3393SOL     OW11077   6.452   6.386   0.777
 3393SOL    HW111078   6.496   6.329   0.708
 3393SOL    HW211079   6.416   6.468   0.734
 3394SOL     OW11080   5.779   3.513   1.096
 3394SOL    HW111081   5.828   3.589   1.138
 3394SOL    HW211082   5.809   3.427   1.138
 3395SOL     OW11083   7.016   2.828   4.332
 3395SOL    HW111084   0.002   2.819   4.233
 3395SOL    HW211085   6.934   2.882   4.352
 3396SOL     OW11086   0.083   2.925   3.398
 3396SOL    HW111087   0.051   2.849   3.454
 3396SOL    HW211088   0.148   2.893   3.330
 3397SOL     OW11089   3.158   1.259   5.303
 3397SOL    HW111090   3.177   1.352   5.335
 3397SOL    HW211091   3.175   1.253   5.205
 3398SOL     OW11092   1.156   6.737   4.613
 3398SOL    HW111093   1.169   6.683   4.530
 3398SOL    HW211094   1.059   6.752   4.628
 3399SOL     OW11095   4.857   4.388   3.852
 3399SOL    HW111096   4.764   4.423   3.851
 3399SOL    HW211097   4.858   4.294   3.886
 3400SOL     OW11098   4.128   1.480   5.815
 3400SOL    HW111099   4.157   1.521   5.728
 3400SOL    HW211100   4.182   1.518   5.890
 3401SOL     OW11101   0.069   3.698   0.733
 3401SOL    HW111102   0.078   3.787   0.688
 3401SOL    HW211103   0.152   3.645   0.720
 3402SOL     OW11104   4.682   5.920   0.840
 3402SOL    HW111105   4.760   5.981   0.847
 3402SOL    HW211106   4.709   5.828   0.869
 3403SOL     OW11107   3.810   0.423   4.922
 3403SOL    HW111108   3.869   0.447   4.845
 3403SOL    HW211109   3.721   0.394   4.888
 3404SOL     OW11110   4.016   1.524   0.602
 3404SOL    HW111111   4.015   1.566   0.692
 3404SOL    HW211112   3.950   1.569   0.543
 3405SOL     OW11113   6.535   3.351   4.911
 3405SOL    HW111114   6.438   3.375   4.903
 3405SOL    HW211115   6.590   3.434   4.907
 3406SOL     OW11116   1.762   4.051   1.737
 3406SOL    HW111117   1.764   4.137   1.686
 3406SOL    HW211118   1.788   3.976   1.676
 3407SOL     OW11119   1.847   5.050   1.303
 3407SOL    HW111120   1.825   4.963   1.347
 3407SOL    HW211121   1.939   5.046   1.265
 3408SOL     OW11122   4.635   4.501   4.034
 3408SOL    HW111123   4.649   4.406   4.058
 3408SOL    HW211124   4.655   4.559   4.112
 3409SOL     OW11125   3.594   6.705   5.467
 3409SOL    HW111126   3.543   6.750   5.393
 3409SOL    HW211127   3.686   6.744   5.473
 3410SOL     OW11128   5.973   6.412   6.650
 3410SOL    HW111129   6.039   6.458   6.710
 3410SOL    HW211130   6.020   6.342   6.596
 3411SOL     OW11131   6.810   2.905   1.961
 3411SOL    HW111132   6.820   2.810   1.932
 3411SOL    HW211133   6.713   2.932   1.957
 3412SOL     OW11134   4.363   3.023   6.542
 3412SOL    HW111135   4.371   2.925   6.523
 3412SOL    HW211136   4.267   3.049   6.547
 3413SOL     OW11137   4.454   1.619   2.764
 3413SOL    HW111138   4.542   1.641   2.722
 3413SOL    HW211139   4.393   1.581   2.695
 3414SOL     OW11140   2.763   1.111   5.199
 3414SOL    HW111141   2.780   1.193   5.144
 3414SOL    HW211142   2.764   1.030   5.141
 3415SOL     OW11143   1.238   4.216   4.915
 3415SOL    HW111144   1.182   4.264   4.982
 3415SOL    HW211145   1.318   4.177   4.960
 3416SOL     OW11146   6.419   4.814   6.277
 3416SOL    HW111147   6.379   4.831   6.368
 3416SOL    HW211148   6.410   4.717   6.255
 3417SOL     OW11149   6.264   6.154   2.594
 3417SOL    HW111150   6.289   6.137   2.689
 3417SOL    HW211151   6.184   6.098   2.570
 3418SOL     OW11152   4.623   0.485   4.733
 3418SOL    HW111153   4.574   0.572   4.745
 3418SOL    HW211154   4.721   0.504   4.721
 3419SOL     OW11155   3.467   5.534   5.854
 3419SOL    HW111156   3.428   5.622   5.881
 3419SOL    HW211157   3.516   5.545   5.768
 3420SOL     OW11158   5.226   2.157   3.680
 3420SOL    HW111159   5.300   2.194   3.624
 3420SOL    HW211160   5.264   2.103   3.755
 3421SOL     OW11161   6.240   0.128   5.895
 3421SOL    HW111162   6.310   0.184   5.939
 3421SOL    HW211163   6.161   0.120   5.956
 3422SOL     OW11164   2.647   6.688   1.096
 3422SOL    HW111165   2.740   6.709   1.065
 3422SOL    HW211166   2.597   6.641   1.023
 3423SOL     OW11167   2.095   0.270   0.441
 3423SOL    HW111168   1.999   0.248   0.423
 3423SOL    HW211169   2.110   0.278   0.540
 3424SOL     OW11170   3.480   0.547   2.376
 3424SOL    HW111171   3.444   0.622   2.322
 3424SOL    HW211172   3.538   0.489   2.319
 3425SOL     OW11173   4.858   4.556   2.302
 3425SOL    HW111174   4.775   4.502   2.315
 3425SOL    HW211175   4.918   4.510   2.237
 3426SOL     OW11176   3.371   3.038   0.310
 3426SOL    HW111177   3.296   3.093   0.347
 3426SOL    HW211178   3.408   3.082   0.229
 3427SOL     OW11179   6.572   6.485   0.431
 3427SOL    HW111180   6.604   6.527   0.346
 3427SOL    HW211181   6.483   6.522   0.455
 3428SOL     OW11182   3.895   4.873   1.588
 3428SOL    HW111183   3.974   4.920   1.626
 3428SOL    HW211184   3.835   4.939   1.543
 3429SOL     OW11185   0.489   1.505   0.006
 3429SOL    HW111186   0.406   1.552   0.037
 3429SOL    HW211187   0.466   1.440   6.959
 3430SOL     OW11188   0.427   6.925   6.210
 3430SOL    HW111189   0.453   6.928   6.114
 3430SOL    HW211190   0.348   6.864   6.221
 3431SOL     OW11191   2.423   6.488   0.599
 3431SOL    HW111192   2.407   6.545   0.519
 3431SOL    HW211193   2.513   6.443   0.590
 3432SOL     OW11194   2.890   2.285   6.155
 3432SOL    HW111195   2.835   2.365   6.180
 3432SOL    HW211196   2.987   2.310   6.154
 3433SOL     OW11197   1.842   0.090   6.350
 3433SOL    HW111198   1.878   0.085   6.256
 3433SOL    HW211199   1.825   0.186   6.373
 3434SOL     OW11200   3.561   2.547   0.749
 3434SOL    HW111201   3.470   2.510   0.763
 3434SOL    HW211202   3.565   2.595   0.662
 3435SOL     OW11203   0.096   2.361   2.039
 3435SOL    HW111204   0.051   2.450   2.039
 3435SOL    HW211205   0.166   2.359   2.110
 3436SOL     OW11206   4.302   6.567   5.214
 3436SOL    HW111207   4.355   6.586   5.131
 3436SOL    HW211208   4.331   6.480   5.252
 3437SOL     OW11209   4.420   0.575   6.368
 3437SOL    HW111210   4.499   0.624   6.404
 3437SOL    HW211211   4.452   0.498   6.312
 3438SOL     OW11212   1.279   2.726   6.335
 3438SOL    HW111213   1.197   2.698   6.286
 3438SOL    HW211214   1.344   2.767   6.272
 3439SOL     OW11215   2.543   0.595   5.116
 3439SOL    HW111216   2.449   0.584   5.148
 3439SOL    HW211217   2.607   0.571   5.189
 3440SOL     OW11218   4.945   3.417   1.312
 3440SOL    HW111219   4.930   3.514   1.334
 3440SOL    HW211220   4.974   3.368   1.394
 3441SOL     OW11221   5.353   0.543   3.298
 3441SOL    HW111222   5.284   0.549   3.370
 3441SOL    HW211223   5.359   0.449   3.265
 3442SOL     OW11224   2.652   5.214   2.930
 3442SOL    HW111225   2.688   5.187   3.020
 3442SOL    HW211226   2.676   5.145   2.862
 3443SOL     OW11227   5.339   0.760   2.563
 3443SOL    HW111228   5.434   0.786   2.578
 3443SOL    HW211229   5.291   0.833   2.514
 3444SOL     OW11230   5.214   4.832   6.884
 3444SOL    HW111231   5.237   4.893   6.960
 3444SOL    HW211232   5.223   4.737   6.914
 3445SOL     OW11233   6.190   4.244   3.933
 3445SOL    HW111234   6.221   4.240   4.028
 3445SOL    HW211235   6.247   4.309   3.882
 3446SOL     OW11236   6.169   0.802   3.159
 3446SOL    HW111237   6.091   0.813   3.221
 3446SOL    HW211238   6.143   0.831   3.067
 3447SOL     OW11239   4.696   4.817   0.744
 3447SOL    HW111240   4.684   4.916   0.740
 3447SOL    HW211241   4.677   4.777   0.654
 3448SOL     OW11242   3.270   7.003   0.953
 3448SOL    HW111243   3.358   0.013   0.986
 3448SOL    HW211244   3.257   0.008   0.858
 3449SOL     OW11245   5.197   6.537   2.819
 3449SOL    HW111246   5.104   6.531   2.785
 3449SOL    HW211247   5.204   6.493   2.908
 3450SOL     OW11248   1.035   2.797   0.393
 3450SOL    HW111249   1.123   2.797   0.439
 3450SOL    HW211250   1.001   2.891   0.385
 3451SOL     OW11251   0.254   5.485   2.842
 3451SOL    HW111252   0.259   5.581   2.815
 3451SOL    HW211253   0.297   5.428   2.772
 3452SOL     OW11254   5.702   1.685   0.408
 3452SOL    HW111255   5.693   1.586   0.418
 3452SOL    HW211256   5.779   1.707   0.348
 3453SOL     OW11257   6.600   5.914   5.612
 3453SOL    HW111258   6.627   6.004   5.646
 3453SOL    HW211259   6.662   5.845   5.649
 3454SOL     OW11260   1.914   0.253   6.068
 3454SOL    HW111261   1.821   0.289   6.081
 3454SOL    HW211262   1.960   0.303   5.996
 3455SOL     OW11263   1.689   3.294   4.098
 3455SOL    HW111264   1.724   3.346   4.020
 3455SOL    HW211265   1.755   3.299   4.174
 3456SOL     OW11266   5.514   6.403   2.013
 3456SOL    HW111267   5.562   6.490   2.017
 3456SOL    HW211268   5.490   6.383   1.917
 3457SOL     OW11269   2.368   5.352   4.085
 3457SOL    HW111270   2.410   5.267   4.054
 3457SOL    HW211271   2.439   5.418   4.109
 3458SOL     OW11272   5.372   6.721   6.997
 3458SOL    HW111273   5.450   6.663   6.975
 3458SOL    HW211274   5.401   6.796   0.032
 3459SOL     OW11275   0.206   4.597   3.270
 3459SOL    HW111276   0.195   4.498   3.268
 3459SOL    HW211277   0.119   4.641   3.245
 3460SOL     OW11278   3.113   3.598   0.602
 3460SOL    HW111279   3.107   3.544   0.519
 3460SOL    HW211280   3.120   3.537   0.681
 3461SOL     OW11281   4.736   5.613   3.844
 3461SOL    HW111282   4.647   5.644   3.878
 3461SOL    HW211283   4.801   5.688   3.848
 3462SOL     OW11284   6.486   3.961   1.987
 3462SOL    HW111285   6.555   3.946   1.916
 3462SOL    HW211286   6.527   3.945   2.077
 3463SOL     OW11287   1.168   3.138   2.743
 3463SOL    HW111288   1.236   3.069   2.718
 3463SOL    HW211289   1.166   3.209   2.673
 3464SOL     OW11290   5.962   2.268   6.608
 3464SOL    HW111291   5.941   2.221   6.693
 3464SOL    HW211292   5.974   2.200   6.535
 3465SOL     OW11293   1.503   3.065   2.276
 3465SOL    HW111294   1.541   3.002   2.344
 3465SOL    HW211295   1.406   3.079   2.293
 3466SOL     OW11296   6.470   5.106   5.630
 3466SOL    HW111297   6.408   5.033   5.604
 3466SOL    HW211298   6.552   5.068   5.673
 3467SOL     OW11299   1.733   1.580   1.045
 3467SOL    HW111300   1.656   1.604   0.985
 3467SOL    HW211301   1.726   1.631   1.130
 3468SOL     OW11302   5.498   1.681   3.016
 3468SOL    HW111303   5.504   1.780   3.003
 3468SOL    HW211304   5.402   1.655   3.028
 3469SOL     OW11305   5.074   0.727   5.495
 3469SOL    HW111306   5.120   0.642   5.469
 3469SOL    HW211307   4.976   0.718   5.479
 3470SOL     OW11308   0.018   2.644   2.034
 3470SOL    HW111309   6.982   2.654   1.955
 3470SOL    HW211310   6.989   2.655   2.118
 3471SOL     OW11311   4.609   4.365   3.599
 3471SOL    HW111312   4.561   4.348   3.512
 3471SOL    HW211313   4.642   4.278   3.635
 3472SOL     OW11314   4.050   1.375   1.667
 3472SOL    HW111315   4.120   1.304   1.654
 3472SOL    HW211316   3.963   1.343   1.627
 3473SOL     OW11317   6.121   3.006   2.948
 3473SOL    HW111318   6.177   3.078   2.989
 3473SOL    HW211319   6.057   2.971   3.017
 3474SOL     OW11320   0.166   4.231   2.863
 3474SOL    HW111321   0.090   4.237   2.799
 3474SOL    HW211322   0.134   4.250   2.956
 3475SOL     OW11323   0.809   4.058   4.912
 3475SOL    HW111324   0.876   4.121   4.872
 3475SOL    HW211325   0.853   3.971   4.933
 3476SOL     OW11326   1.965   1.999   2.747
 3476SOL    HW111327   1.985   1.905   2.775
 3476SOL    HW211328   1.866   2.013   2.746
 3477SOL     OW11329   1.048   3.820   1.259
 3477SOL    HW111330   1.059   3.742   1.198
 3477SOL    HW211331   1.086   3.902   1.216
 3478SOL     OW11332   2.684   6.415   6.653
 3478SOL    HW111333   2.659   6.482   6.583
 3478SOL    HW211334   2.704   6.327   6.610
 3479SOL     OW11335   0.661   0.968   2.904
 3479SOL    HW111336   0.684   0.938   2.997
 3479SOL    HW211337   0.637   1.065   2.906
 3480SOL     OW11338   0.702   6.515   5.273
 3480SOL    HW111339   0.620   6.465   5.301
 3480SOL    HW211340   0.781   6.453   5.275
 3481SOL     OW11341   5.358   0.654   0.296
 3481SOL    HW111342   5.408   0.662   0.210
 3481SOL    HW211343   5.412   0.695   0.370
 3482SOL     OW11344   5.957   1.394   2.176
 3482SOL    HW111345   5.906   1.390   2.090
 3482SOL    HW211346   5.984   1.488   2.195
 3483SOL     OW11347   5.464   1.920   2.668
 3483SOL    HW111348   5.446   1.946   2.573
 3483SOL    HW211349   5.530   1.983   2.709
 3484SOL     OW11350   1.279   3.064   7.024
 3484SOL    HW111351   1.369   3.100   7.000
 3484SOL    HW211352   1.258   2.986   6.966
 3485SOL     OW11353   1.078   2.185   4.423
 3485SOL    HW111354   0.984   2.178   4.389
 3485SOL    HW211355   1.115   2.274   4.399
 3486SOL     OW11356   1.480   0.470   3.795
 3486SOL    HW111357   1.466   0.397   3.728
 3486SOL    HW211358   1.393   0.491   3.840
 3487SOL     OW11359   6.587   2.260   0.198
 3487SOL    HW111360   6.544   2.287   0.284
 3487SOL    HW211361   6.533   2.189   0.155
 3488SOL     OW11362   5.931   0.586   5.156
 3488SOL    HW111363   5.988   0.660   5.194
 3488SOL    HW211364   5.987   0.505   5.142
 3489SOL     OW11365   3.730   0.144   2.039
 3489SOL    HW111366   3.631   0.136   2.053
 3489SOL    HW211367   3.778   0.081   2.100
 3490SOL     OW11368   3.359   4.579   1.458
 3490SOL    HW111369   3.374   4.522   1.538
 3490SOL    HW211370   3.314   4.526   1.387
 3491SOL     OW11371   4.163   3.079   6.227
 3491SOL    HW111372   4.130   3.147   6.293
 3491SOL    HW211373   4.129   3.103   6.136
 3492SOL     OW11374   5.974   4.293   0.529
 3492SOL    HW111375   5.980   4.298   0.628
 3492SOL    HW211376   5.879   4.281   0.501
 3493SOL     OW11377   6.277   3.899   4.041
 3493SOL    HW111378   6.262   3.873   4.137
 3493SOL    HW211379   6.189   3.902   3.994
 3494SOL     OW11380   2.578   0.907   2.212
 3494SOL    HW111381   2.553   0.947   2.124
 3494SOL    HW211382   2.619   0.978   2.271
 3495SOL     OW11383   6.880   4.197   2.469
 3495SOL    HW111384   6.930   4.175   2.385
 3495SOL    HW211385   6.818   4.274   2.452
 3496SOL     OW11386   6.135   5.486   0.823
 3496SOL    HW111387   6.177   5.577   0.824
 3496SOL    HW211388   6.038   5.496   0.800
 3497SOL     OW11389   2.309   1.363   3.720
 3497SOL    HW111390   2.393   1.417   3.712
 3497SOL    HW211391   2.278   1.362   3.815
 3498SOL     OW11392   3.318   1.090   2.152
 3498SOL    HW111393   3.226   1.063   2.123
 3498SOL    HW211394   3.312   1.157   2.226
 3499SOL     OW11395   6.422   4.689   4.285
 3499SOL    HW111396   6.498   4.742   4.322
 3499SOL    HW211397   6.357   4.750   4.240
 3500SOL     OW11398   1.805   3.101   3.018
 3500SOL    HW111399   1.724   3.161   3.013
 3500SOL    HW211400   1.781   3.010   2.984
 3501SOL     OW11401   3.399   0.048   5.986
 3501SOL    HW111402   3.350   7.000   5.938
 3501SOL    HW211403   3.457   0.007   6.057
 3502SOL     OW11404   6.755   2.804   1.649
 3502SOL    HW111405   6.770   2.769   1.742
 3502SOL    HW211406   6.659   2.826   1.637
 3503SOL     OW11407   6.654   6.217   5.492
 3503SOL    HW111408   6.741   6.222   5.541
 3503SOL    HW211409   6.658   6.275   5.410
 3504SOL     OW11410   2.277   0.627   2.095
 3504SOL    HW111411   2.307   0.544   2.143
 3504SOL    HW211412   2.183   0.616   2.065
 3505SOL     OW11413   5.193   4.495   5.302
 3505SOL    HW111414   5.225   4.450   5.386
 3505SOL    HW211415   5.099   4.527   5.315
 3506SOL     OW11416   5.597   4.749   5.150
 3506SOL    HW111417   5.600   4.844   5.121
 3506SOL    HW211418   5.646   4.692   5.084
 3507SOL     OW11419   3.206   0.589   0.928
 3507SOL    HW111420   3.141   0.584   0.852
 3507SOL    HW211421   3.268   0.666   0.915
 3508SOL     OW11422   1.923   1.605   6.137
 3508SOL    HW111423   1.824   1.594   6.147
 3508SOL    HW211424   1.942   1.686   6.081
 3509SOL     OW11425   5.752   0.017   6.890
 3509SOL    HW111426   5.804   6.963   6.923
 3509SOL    HW211427   5.767   0.027   6.792
 3510SOL     OW11428   1.592   0.795   1.883
 3510SOL    HW111429   1.534   0.782   1.803
 3510SOL    HW211430   1.561   0.737   1.958
 3511SOL     OW11431   2.009   4.302   1.487
 3511SOL    HW111432   2.005   4.204   1.467
 3511SOL    HW211433   1.965   4.353   1.413
 3512SOL     OW11434   0.255   4.285   0.878
 3512SOL    HW111435   0.202   4.217   0.828
 3512SOL    HW211436   0.318   4.331   0.815
 3513SOL     OW11437   5.899   1.985   0.623
 3513SOL    HW111438   5.862   1.897   0.654
 3513SOL    HW211439   5.949   1.971   0.538
 3514SOL     OW11440   6.963   0.465   1.453
 3514SOL    HW111441   0.005   0.528   1.415
 3514SOL    HW211442   7.006   0.376   1.469
 3515SOL     OW11443   4.661   6.151   3.022
 3515SOL    HW111444   4.648   6.073   2.960
 3515SOL    HW211445   4.663   6.117   3.116
 3516SOL     OW11446   4.426   6.558   0.591
 3516SOL    HW111447   4.333   6.578   0.624
 3516SOL    HW211448   4.479   6.643   0.590
 3517SOL     OW11449   0.059   1.058   1.309
 3517SOL    HW111450   0.074   1.156   1.294
 3517SOL    HW211451   0.119   1.006   1.248
 3518SOL     OW11452   5.051   2.697   5.106
 3518SOL    HW111453   5.048   2.690   5.006
 3518SOL    HW211454   5.112   2.627   5.142
 3519SOL     OW11455   1.609   0.139   5.739
 3519SOL    HW111456   1.683   0.114   5.802
 3519SOL    HW211457   1.640   0.126   5.644
 3520SOL     OW11458   3.254   6.194   0.225
 3520SOL    HW111459   3.304   6.202   0.139
 3520SOL    HW211460   3.170   6.247   0.219
 3521SOL     OW11461   4.640   2.597   0.178
 3521SOL    HW111462   4.692   2.682   0.170
 3521SOL    HW211463   4.636   2.552   0.089
 3522SOL     OW11464   6.998   5.663   0.005
 3522SOL    HW111465   6.914   5.675   6.977
 3522SOL    HW211466   0.042   5.616   6.974
 3523SOL     OW11467   1.101   4.356   5.104
 3523SOL    HW111468   1.006   4.366   5.076
 3523SOL    HW211469   1.108   4.357   5.203
 3524SOL     OW11470   5.232   2.234   1.871
 3524SOL    HW111471   5.264   2.186   1.953
 3524SOL    HW211472   5.169   2.307   1.897
 3525SOL     OW11473   6.523   3.352   3.924
 3525SOL    HW111474   6.537   3.411   3.845
 3525SOL    HW211475   6.426   3.345   3.944
 3526SOL     OW11476   2.304   6.799   3.810
 3526SOL    HW111477   2.342   6.803   3.902
 3526SOL    HW211478   2.341   6.874   3.755
 3527SOL     OW11479   5.982   3.580   6.229
 3527SOL    HW111480   5.905   3.543   6.281
 3527SOL    HW211481   6.017   3.663   6.274
 3528SOL     OW11482   1.737   6.510   5.396
 3528SOL    HW111483   1.755   6.412   5.407
 3528SOL    HW211484   1.799   6.562   5.455
 3529SOL     OW11485   3.900   6.988   1.115
 3529SOL    HW111486   3.884   7.022   1.022
 3529SOL    HW211487   3.992   6.951   1.121
 3530SOL     OW11488   6.512   5.579   0.972
 3530SOL    HW111489   6.572   5.624   0.906
 3530SOL    HW211490   6.513   5.629   1.058
 3531SOL     OW11491   5.412   2.183   0.336
 3531SOL    HW111492   5.477   2.171   0.412
 3531SOL    HW211493   5.443   2.259   0.278
 3532SOL     OW11494   2.754   0.203   1.834
 3532SOL    HW111495   2.790   0.253   1.913
 3532SOL    HW211496   2.784   0.108   1.838
 3533SOL     OW11497   0.252   0.971   2.262
 3533SOL    HW111498   0.158   0.992   2.236
 3533SOL    HW211499   0.285   0.893   2.209
 3534SOL     OW11500   0.646   1.954   0.577
 3534SOL    HW111501   0.664   1.884   0.507
 3534SOL    HW211502   0.614   1.910   0.661
 3535SOL     OW11503   1.989   5.194   6.223
 3535SOL    HW111504   1.923   5.265   6.198
 3535SOL    HW211505   2.049   5.176   6.146
 3536SOL     OW11506   3.388   1.526   2.915
 3536SOL    HW111507   3.294   1.504   2.888
 3536SOL    HW211508   3.386   1.606   2.976
 3537SOL     OW11509   2.283   5.745   3.018
 3537SOL    HW111510   2.250   5.651   3.022
 3537SOL    HW211511   2.315   5.765   2.925
 3538SOL     OW11512   2.094   6.439   5.394
 3538SOL    HW111513   2.113   6.342   5.408
 3538SOL    HW211514   2.020   6.449   5.328
 3539SOL     OW11515   3.640   3.285   5.565
 3539SOL    HW111516   3.679   3.309   5.654
 3539SOL    HW211517   3.626   3.369   5.511
 3540SOL     OW11518   1.786   2.830   4.588
 3540SOL    HW111519   1.690   2.854   4.572
 3540SOL    HW211520   1.793   2.732   4.607
 3541SOL     OW11521   2.393   2.424   6.203
 3541SOL    HW111522   2.435   2.381   6.124
 3541SOL    HW211523   2.416   2.521   6.204
 3542SOL     OW11524   1.176   5.553   3.435
 3542SOL    HW111525   1.198   5.533   3.531
 3542SOL    HW211526   1.256   5.537   3.378
 3543SOL     OW11527   0.219   2.708   5.141
 3543SOL    HW111528   0.243   2.786   5.199
 3543SOL    HW211529   0.270   2.627   5.171
 3544SOL     OW11530   1.552   4.111   6.398
 3544SOL    HW111531   1.565   4.201   6.439
 3544SOL    HW211532   1.589   4.041   6.458
 3545SOL     OW11533   4.343   5.489   6.839
 3545SOL    HW111534   4.346   5.571   6.782
 3545SOL    HW211535   4.420   5.430   6.816
 3546SOL     OW11536   1.769   4.478   3.979
 3546SOL    HW111537   1.722   4.455   4.064
 3546SOL    HW211538   1.762   4.577   3.963
 3547SOL     OW11539   5.636   4.810   3.603
 3547SOL    HW111540   5.620   4.838   3.508
 3547SOL    HW211541   5.658   4.712   3.605
 3548SOL     OW11542   5.835   1.432   5.830
 3548SOL    HW111543   5.743   1.469   5.843
 3548SOL    HW211544   5.898   1.477   5.895
 3549SOL     OW11545   6.408   4.636   5.611
 3549SOL    HW111546   6.420   4.584   5.526
 3549SOL    HW211547   6.382   4.575   5.685
 3550SOL     OW11548   4.965   2.045   2.541
 3550SOL    HW111549   4.944   2.139   2.568
 3550SOL    HW211550   4.991   1.992   2.621
 3551SOL     OW11551   3.951   6.686   2.993
 3551SOL    HW111552   3.959   6.759   2.924
 3551SOL    HW211553   3.863   6.641   2.983
 3552SOL     OW11554   5.022   6.361   1.470
 3552SOL    HW111555   5.048   6.453   1.499
 3552SOL    HW211556   5.104   6.310   1.443
 3553SOL     OW11557   5.839   3.670   2.010
 3553SOL    HW111558   5.748   3.642   1.981
 3553SOL    HW211559   5.894   3.589   2.032
 3554SOL     OW11560   3.809   2.591   1.202
 3554SOL    HW111561   3.732   2.570   1.263
 3554SOL    HW211562   3.774   2.608   1.110
 3555SOL     OW11563   1.136   3.819   3.426
 3555SOL    HW111564   1.214   3.882   3.428
 3555SOL    HW211565   1.124   3.785   3.333
 3556SOL     OW11566   4.358   0.787   4.341
 3556SOL    HW111567   4.425   0.743   4.282
 3556SOL    HW211568   4.348   0.735   4.426
 3557SOL     OW11569   0.647   0.562   3.685
 3557SOL    HW111570   0.569   0.619   3.713
 3557SOL    HW211571   0.664   0.576   3.587
 3558SOL     OW11572   1.411   5.512   0.574
 3558SOL    HW111573   1.435   5.415   0.565
 3558SOL    HW211574   1.323   5.521   0.619
 3559SOL     OW11575   0.532   6.902   4.830
 3559SOL    HW111576   0.440   6.935   4.808
 3559SOL    HW211577   0.554   6.824   4.771
 3560SOL     OW11578   1.182   5.558   1.100
 3560SOL    HW111579   1.249   5.491   1.132
 3560SOL    HW211580   1.104   5.559   1.162
 3561SOL     OW11581   3.724   4.932   5.354
 3561SOL    HW111582   3.772   4.845   5.344
 3561SOL    HW211583   3.774   4.991   5.417
 3562SOL     OW11584   5.176   0.979   4.106
 3562SOL    HW111585   5.236   0.981   4.026
 3562SOL    HW211586   5.130   1.067   4.115
 3563SOL     OW11587   5.000   0.413   1.177
 3563SOL    HW111588   4.921   0.418   1.238
 3563SOL    HW211589   5.004   0.322   1.135
 3564SOL     OW11590   1.183   4.700   4.462
 3564SOL    HW111591   1.243   4.638   4.513
 3564SOL    HW211592   1.201   4.794   4.490
 3565SOL     OW11593   3.987   6.364   4.573
 3565SOL    HW111594   3.995   6.369   4.672
 3565SOL    HW211595   3.956   6.452   4.537
 3566SOL     OW11596   6.484   3.517   6.617
 3566SOL    HW111597   6.439   3.563   6.541
 3566SOL    HW211598   6.449   3.553   6.703
 3567SOL     OW11599   0.973   2.718   6.766
 3567SOL    HW111600   0.907   2.701   6.693
 3567SOL    HW211601   0.939   2.678   6.852
 3568SOL     OW11602   4.858   5.374   3.833
 3568SOL    HW111603   4.817   5.462   3.811
 3568SOL    HW211604   4.820   5.339   3.919
 3569SOL     OW11605   2.910   2.766   6.199
 3569SOL    HW111606   2.893   2.777   6.101
 3569SOL    HW211607   2.997   2.808   6.224
 3570SOL     OW11608   5.588   0.652   4.790
 3570SOL    HW111609   5.536   0.677   4.707
 3570SOL    HW211610   5.644   0.730   4.818
 3571SOL     OW11611   2.353   1.051   5.108
 3571SOL    HW111612   2.350   1.117   5.183
 3571SOL    HW211613   2.267   1.002   5.103
 3572SOL     OW11614   5.656   3.839   2.561
 3572SOL    HW111615   5.689   3.857   2.468
 3572SOL    HW211616   5.684   3.748   2.589
 3573SOL     OW11617   6.027   3.704   2.384
 3573SOL    HW111618   6.061   3.795   2.405
 3573SOL    HW211619   5.974   3.706   2.299
 3574SOL     OW11620   1.307   3.811   0.217
 3574SOL    HW111621   1.227   3.756   0.240
 3574SOL    HW211622   1.387   3.776   0.266
 3575SOL     OW11623   5.192   6.185   2.041
 3575SOL    HW111624   5.237   6.178   1.952
 3575SOL    HW211625   5.254   6.230   2.106
 3576SOL     OW11626   0.768   2.365   0.547
 3576SOL    HW111627   0.771   2.314   0.633
 3576SOL    HW211628   0.861   2.387   0.518
 3577SOL     OW11629   2.125   2.631   6.055
 3577SOL    HW111630   2.069   2.644   6.136
 3577SOL    HW211631   2.222   2.633   6.081
 3578SOL     OW11632   4.843   2.107   1.210
 3578SOL    HW111633   4.885   2.016   1.211
 3578SOL    HW211634   4.888   2.165   1.277
 3579SOL     OW11635   6.916   2.879   2.578
 3579SOL    HW111636   6.889   2.786   2.604
 3579SOL    HW211637   6.873   2.904   2.492
 3580SOL     OW11638   6.648   3.218   0.325
 3580SOL    HW111639   6.555   3.221   0.288
 3580SOL    HW211640   6.714   3.224   0.250
 3581SOL     OW11641   0.491   6.389   2.835
 3581SOL    HW111642   0.578   6.401   2.883
 3581SOL    HW211643   0.504   6.409   2.738
 3582SOL     OW11644   2.328   5.039   5.736
 3582SOL    HW111645   2.282   4.988   5.664
 3582SOL    HW211646   2.296   5.006   5.825
 3583SOL     OW11647   1.202   4.528   0.549
 3583SOL    HW111648   1.157   4.438   0.553
 3583SOL    HW211649   1.218   4.561   0.642
 3584SOL     OW11650   5.676   4.751   5.461
 3584SOL    HW111651   5.598   4.694   5.435
 3584SOL    HW211652   5.725   4.780   5.379
 3585SOL     OW11653   3.513   2.101   4.610
 3585SOL    HW111654   3.564   2.087   4.695
 3585SOL    HW211655   3.513   2.016   4.557
 3586SOL     OW11656   6.982   2.417   4.881
 3586SOL    HW111657   6.936   2.468   4.954
 3586SOL    HW211658   0.056   2.419   4.897
 3587SOL     OW11659   2.940   5.546   6.244
 3587SOL    HW111660   2.953   5.480   6.318
 3587SOL    HW211661   3.030   5.576   6.210
 3588SOL     OW11662   6.675   3.587   4.910
 3588SOL    HW111663   6.641   3.611   5.001
 3588SOL    HW211664   6.658   3.664   4.848
 3589SOL     OW11665   6.208   6.811   6.690
 3589SOL    HW111666   6.271   6.889   6.692
 3589SOL    HW211667   6.119   6.842   6.658
 3590SOL     OW11668   0.363   3.672   0.582
 3590SOL    HW111669   0.432   3.734   0.619
 3590SOL    HW211670   0.406   3.585   0.558
 3591SOL     OW11671   5.395   3.437   1.009
 3591SOL    HW111672   5.404   3.533   1.035
 3591SOL    HW211673   5.298   3.411   1.010
 3592SOL     OW11674   0.417   6.933   2.761
 3592SOL    HW111675   0.326   6.956   2.795
 3592SOL    HW211676   0.451   7.008   2.705
 3593SOL     OW11677   0.962   4.532   6.117
 3593SOL    HW111678   0.901   4.611   6.110
 3593SOL    HW211679   1.035   4.541   6.050
 3594SOL     OW11680   4.996   0.737   4.078
 3594SOL    HW111681   4.921   0.775   4.133
 3594SOL    HW211682   5.074   0.798   4.080
 3595SOL     OW11683   6.071   5.738   0.502
 3595SOL    HW111684   5.978   5.710   0.481
 3595SOL    HW211685   6.079   5.837   0.494
 3596SOL     OW11686   4.457   2.501   3.826
 3596SOL    HW111687   4.547   2.473   3.859
 3596SOL    HW211688   4.437   2.594   3.857
 3597SOL     OW11689   2.131   2.590   5.667
 3597SOL    HW111690   2.108   2.651   5.743
 3597SOL    HW211691   2.100   2.630   5.581
 3598SOL     OW11692   1.790   6.199   5.161
 3598SOL    HW111693   1.800   6.145   5.078
 3598SOL    HW211694   1.723   6.272   5.146
 3599SOL     OW11695   4.191   2.244   6.813
 3599SOL    HW111696   4.266   2.210   6.756
 3599SOL    HW211697   4.211   2.225   6.909
 3600SOL     OW11698   1.036   3.348   1.725
 3600SOL    HW111699   0.988   3.431   1.697
 3600SOL    HW211700   0.990   3.268   1.688
 3601SOL     OW11701   5.392   2.009   5.900
 3601SOL    HW111702   5.302   2.022   5.861
 3601SOL    HW211703   5.458   2.069   5.855
 3602SOL     OW11704   1.875   3.154   0.356
 3602SOL    HW111705   1.831   3.111   0.435
 3602SOL    HW211706   1.832   3.242   0.338
 3603SOL     OW11707   3.854   0.822   5.630
 3603SOL    HW111708   3.902   0.909   5.619
 3603SOL    HW211709   3.777   0.834   5.693
 3604SOL     OW11710   5.800   1.233   3.420
 3604SOL    HW111711   5.718   1.178   3.427
 3604SOL    HW211712   5.775   1.327   3.397
 3605SOL     OW11713   0.991   5.386   4.148
 3605SOL    HW111714   1.044   5.462   4.187
 3605SOL    HW211715   0.893   5.405   4.158
 3606SOL     OW11716   1.498   6.444   2.700
 3606SOL    HW111717   1.416   6.482   2.742
 3606SOL    HW211718   1.560   6.518   2.674
 3607SOL     OW11719   5.534   2.948   2.056
 3607SOL    HW111720   5.531   2.851   2.029
 3607SOL    HW211721   5.443   2.988   2.047
 3608SOL     OW11722   5.134   1.504   3.780
 3608SOL    HW111723   5.057   1.551   3.738
 3608SOL    HW211724   5.126   1.405   3.763
 3609SOL     OW11725   2.006   0.064   4.447
 3609SOL    HW111726   2.028   0.104   4.358
 3609SOL    HW211727   1.906   0.062   4.459
 3610SOL     OW11728   1.842   6.937   5.409
 3610SOL    HW111729   1.934   6.974   5.396
 3610SOL    HW211730   1.777   7.013   5.418
 3611SOL     OW11731   4.253   4.740   3.936
 3611SOL    HW111732   4.171   4.788   3.965
 3611SOL    HW211733   4.250   4.726   3.837
 3612SOL     OW11734   6.492   1.047   6.458
 3612SOL    HW111735   6.586   1.035   6.488
 3612SOL    HW211736   6.432   1.058   6.538
 3613SOL     OW11737   4.129   5.188   1.962
 3613SOL    HW111738   4.073   5.205   1.881
 3613SOL    HW211739   4.136   5.089   1.977
 3614SOL     OW11740   2.976   3.265   6.877
 3614SOL    HW111741   2.971   3.203   6.956
 3614SOL    HW211742   2.999   3.357   6.908
 3615SOL     OW11743   5.689   2.869   5.996
 3615SOL    HW111744   5.651   2.886   6.087
 3615SOL    HW211745   5.694   2.770   5.980
 3616SOL     OW11746   1.839   1.066   6.330
 3616SOL    HW111747   1.930   1.073   6.370
 3616SOL    HW211748   1.840   1.100   6.236
 3617SOL     OW11749   4.183   0.350   6.017
 3617SOL    HW111750   4.174   0.315   6.110
 3617SOL    HW211751   4.279   0.352   5.990
 3618SOL     OW11752   2.764   3.585   5.250
 3618SOL    HW111753   2.743   3.677   5.282
 3618SOL    HW211754   2.824   3.540   5.316
 3619SOL     OW11755   5.358   3.305   0.341
 3619SOL    HW111756   5.282   3.254   0.380
 3619SOL    HW211757   5.362   3.396   0.382
 3620SOL     OW11758   6.280   5.584   4.905
 3620SOL    HW111759   6.203   5.604   4.966
 3620SOL    HW211760   6.257   5.613   4.812
 3621SOL     OW11761   3.337   3.358   4.231
 3621SOL    HW111762   3.242   3.374   4.259
 3621SOL    HW211763   3.378   3.290   4.292
 3622SOL     OW11764   0.976   0.390   0.917
 3622SOL    HW111765   0.888   0.396   0.870
 3622SOL    HW211766   1.044   0.351   0.855
 3623SOL     OW11767   0.191   5.477   5.216
 3623SOL    HW111768   0.116   5.543   5.219
 3623SOL    HW211769   0.276   5.524   5.193
 3624SOL     OW11770   1.401   6.781   2.071
 3624SOL    HW111771   1.500   6.774   2.063
 3624SOL    HW211772   1.366   6.706   2.127
 3625SOL     OW11773   0.261   3.181   6.722
 3625SOL    HW111774   0.256   3.258   6.659
 3625SOL    HW211775   0.235   3.212   6.814
 3626SOL     OW11776   0.651   3.583   4.234
 3626SOL    HW111777   0.576   3.524   4.206
 3626SOL    HW211778   0.692   3.547   4.318
 3627SOL     OW11779   5.055   3.283   1.544
 3627SOL    HW111780   4.997   3.278   1.625
 3627SOL    HW211781   5.079   3.191   1.514
 3628SOL     OW11782   1.659   0.993   2.470
 3628SOL    HW111783   1.664   1.093   2.462
 3628SOL    HW211784   1.714   0.963   2.548
 3629SOL     OW11785   1.479   0.654   4.168
 3629SOL    HW111786   1.462   0.685   4.262
 3629SOL    HW211787   1.435   0.716   4.103
 3630SOL     OW11788   6.694   2.943   3.693
 3630SOL    HW111789   6.713   2.963   3.597
 3630SOL    HW211790   6.710   3.025   3.748
 3631SOL     OW11791   1.630   6.580   3.520
 3631SOL    HW111792   1.675   6.514   3.579
 3631SOL    HW211793   1.543   6.542   3.488
 3632SOL     OW11794   4.845   3.812   0.939
 3632SOL    HW111795   4.849   3.898   0.989
 3632SOL    HW211796   4.929   3.760   0.953
 3633SOL     OW11797   3.957   2.267   5.775
 3633SOL    HW111798   3.930   2.172   5.787
 3633SOL    HW211799   3.896   2.326   5.827
 3634SOL     OW11800   1.831   6.161   6.038
 3634SOL    HW111801   1.918   6.162   5.988
 3634SOL    HW211802   1.827   6.239   6.101
 3635SOL     OW11803   2.174   1.684   0.953
 3635SOL    HW111804   2.118   1.638   1.023
 3635SOL    HW211805   2.209   1.616   0.889
 3636SOL     OW11806   0.151   5.612   0.889
 3636SOL    HW111807   0.091   5.628   0.968
 3636SOL    HW211808   0.098   5.571   0.815
 3637SOL     OW11809   1.107   2.579   0.753
 3637SOL    HW111810   1.186   2.638   0.767
 3637SOL    HW211811   1.023   2.630   0.774
 3638SOL     OW11812   6.836   3.677   2.371
 3638SOL    HW111813   6.741   3.706   2.367
 3638SOL    HW211814   6.850   3.622   2.453
 3639SOL     OW11815   4.021   4.362   5.812
 3639SOL    HW111816   4.058   4.345   5.721
 3639SOL    HW211817   3.962   4.286   5.839
 3640SOL     OW11818   5.234   2.331   0.622
 3640SOL    HW111819   5.203   2.238   0.642
 3640SOL    HW211820   5.332   2.330   0.602
 3641SOL     OW11821   5.250   4.789   1.097
 3641SOL    HW111822   5.193   4.845   1.038
 3641SOL    HW211823   5.214   4.791   1.191
 3642SOL     OW11824   5.452   2.008   6.438
 3642SOL    HW111825   5.528   2.072   6.446
 3642SOL    HW211826   5.366   2.056   6.455
 3643SOL     OW11827   4.078   6.666   5.712
 3643SOL    HW111828   4.150   6.616   5.665
 3643SOL    HW211829   4.061   6.625   5.801
 3644SOL     OW11830   3.148   1.073   1.539
 3644SOL    HW111831   3.092   1.032   1.467
 3644SOL    HW211832   3.119   1.167   1.555
 3645SOL     OW11833   1.598   3.628   4.553
 3645SOL    HW111834   1.557   3.539   4.531
 3645SOL    HW211835   1.525   3.694   4.571
 3646SOL     OW11836   1.962   4.791   4.849
 3646SOL    HW111837   1.898   4.819   4.920
 3646SOL    HW211838   2.004   4.704   4.874
 3647SOL     OW11839   2.500   6.704   6.940
 3647SOL    HW111840   2.537   6.778   6.996
 3647SOL    HW211841   2.402   6.720   6.925
 3648SOL     OW11842   4.793   5.537   3.205
 3648SOL    HW111843   4.705   5.574   3.234
 3648SOL    HW211844   4.865   5.604   3.223
 3649SOL     OW11845   5.700   4.092   6.982
 3649SOL    HW111846   5.713   3.996   7.005
 3649SOL    HW211847   5.764   4.148   0.010
 3650SOL     OW11848   5.418   4.320   0.777
 3650SOL    HW111849   5.517   4.313   0.795
 3650SOL    HW211850   5.402   4.330   0.679
 3651SOL     OW11851   1.986   1.772   5.573
 3651SOL    HW111852   2.081   1.775   5.541
 3651SOL    HW211853   1.985   1.761   5.672
 3652SOL     OW11854   5.899   0.375   2.480
 3652SOL    HW111855   5.827   0.443   2.491
 3652SOL    HW211856   5.956   0.372   2.562
 3653SOL     OW11857   0.895   0.840   2.824
 3653SOL    HW111858   0.984   0.879   2.850
 3653SOL    HW211859   0.822   0.893   2.866
 3654SOL     OW11860   4.443   5.853   0.620
 3654SOL    HW111861   4.514   5.834   0.553
 3654SOL    HW211862   4.485   5.885   0.705
 3655SOL     OW11863   3.038   1.125   4.525
 3655SOL    HW111864   3.095   1.150   4.446
 3655SOL    HW211865   3.081   1.051   4.576
 3656SOL     OW11866   0.739   5.232   1.166
 3656SOL    HW111867   0.765   5.309   1.108
 3656SOL    HW211868   0.654   5.191   1.133
 3657SOL     OW11869   5.007   6.107   5.365
 3657SOL    HW111870   5.021   6.199   5.327
 3657SOL    HW211871   4.909   6.092   5.379
 3658SOL     OW11872   1.589   4.943   6.350
 3658SOL    HW111873   1.684   4.970   6.337
 3658SOL    HW211874   1.585   4.852   6.392
 3659SOL     OW11875   0.406   1.430   6.207
 3659SOL    HW111876   0.364   1.353   6.158
 3659SOL    HW211877   0.389   1.421   6.305
 3660SOL     OW11878   6.090   6.263   5.617
 3660SOL    HW111879   6.089   6.347   5.671
 3660SOL    HW211880   6.113   6.284   5.522
 3661SOL     OW11881   6.903   0.702   4.605
 3661SOL    HW111882   6.928   0.633   4.673
 3661SOL    HW211883   6.872   0.657   4.521
 3662SOL     OW11884   3.821   0.995   4.960
 3662SOL    HW111885   3.856   1.088   4.968
 3662SOL    HW211886   3.878   0.943   4.896
 3663SOL     OW11887   2.551   2.190   6.509
 3663SOL    HW111888   2.549   2.290   6.518
 3663SOL    HW211889   2.622   2.164   6.443
 3664SOL     OW11890   4.335   2.083   1.839
 3664SOL    HW111891   4.292   1.993   1.852
 3664SOL    HW211892   4.283   2.152   1.890
 3665SOL     OW11893   0.426   6.359   5.862
 3665SOL    HW111894   0.500   6.402   5.811
 3665SOL    HW211895   0.365   6.430   5.898
 3666SOL     OW11896   1.193   2.722   3.195
 3666SOL    HW111897   1.215   2.774   3.112
 3666SOL    HW211898   1.278   2.702   3.245
 3667SOL     OW11899   0.930   1.590   3.613
 3667SOL    HW111900   0.872   1.622   3.538
 3667SOL    HW211901   0.920   1.491   3.622
 3668SOL     OW11902   1.228   0.297   1.766
 3668SOL    HW111903   1.252   0.200   1.766
 3668SOL    HW211904   1.142   0.309   1.815
 3669SOL     OW11905   6.337   1.584   4.319
 3669SOL    HW111906   6.409   1.586   4.250
 3669SOL    HW211907   6.315   1.490   4.342
 3670SOL     OW11908   3.368   4.832   1.340
 3670SOL    HW111909   3.344   4.749   1.388
 3670SOL    HW211910   3.422   4.892   1.400
 3671SOL     OW11911   6.657   1.070   2.658
 3671SOL    HW111912   6.713   1.034   2.584
 3671SOL    HW211913   6.646   1.169   2.646
 3672SOL     OW11914   5.751   1.394   2.351
 3672SOL    HW111915   5.698   1.469   2.311
 3672SOL    HW211916   5.840   1.389   2.307
 3673SOL     OW11917   4.256   5.879   0.062
 3673SOL    HW111918   4.350   5.860   0.090
 3673SOL    HW211919   4.193   5.827   0.120
 3674SOL     OW11920   1.002   5.907   5.983
 3674SOL    HW111921   0.980   5.841   5.910
 3674SOL    HW211922   1.064   5.864   6.049
 3675SOL     OW11923   0.091   2.131   3.467
 3675SOL    HW111924   0.044   2.125   3.555
 3675SOL    HW211925   0.188   2.149   3.482
 3676SOL     OW11926   5.206   3.130   2.865
 3676SOL    HW111927   5.233   3.153   2.958
 3676SOL    HW211928   5.259   3.184   2.800
 3677SOL     OW11929   1.986   0.738   5.179
 3677SOL    HW111930   1.928   0.659   5.198
 3677SOL    HW211931   2.028   0.770   5.263
 3678SOL     OW11932   1.290   1.053   4.204
 3678SOL    HW111933   1.289   1.151   4.183
 3678SOL    HW211934   1.201   1.025   4.239
 3679SOL     OW11935   5.772   0.186   2.871
 3679SOL    HW111936   5.768   0.157   2.967
 3679SOL    HW211937   5.681   0.183   2.831
 3680SOL     OW11938   5.054   2.289   3.378
 3680SOL    HW111939   4.974   2.349   3.380
 3680SOL    HW211940   5.086   2.274   3.472
 3681SOL     OW11941   0.931   0.394   5.872
 3681SOL    HW111942   0.878   0.479   5.864
 3681SOL    HW211943   0.952   0.376   5.968
 3682SOL     OW11944   5.110   2.395   1.209
 3682SOL    HW111945   5.069   2.341   1.282
 3682SOL    HW211946   5.078   2.361   1.121
 3683SOL     OW11947   0.020   0.948   4.612
 3683SOL    HW111948   0.106   0.937   4.662
 3683SOL    HW211949   6.994   0.862   4.613
 3684SOL     OW11950   1.863   6.360   6.247
 3684SOL    HW111951   1.950   6.311   6.253
 3684SOL    HW211952   1.792   6.306   6.293
 3685SOL     OW11953   2.675   5.908   5.379
 3685SOL    HW111954   2.595   5.890   5.322
 3685SOL    HW211955   2.758   5.885   5.327
 3686SOL     OW11956   6.839   4.148   3.912
 3686SOL    HW111957   6.862   4.233   3.865
 3686SOL    HW211958   6.832   4.073   3.845
 3687SOL     OW11959   5.351   6.609   3.137
 3687SOL    HW111960   5.334   6.599   3.235
 3687SOL    HW211961   5.421   6.543   3.108
 3688SOL     OW11962   5.721   3.722   0.370
 3688SOL    HW111963   5.772   3.801   0.404
 3688SOL    HW211964   5.630   3.720   0.413
 3689SOL     OW11965   2.307   1.528   5.237
 3689SOL    HW111966   2.324   1.488   5.147
 3689SOL    HW211967   2.354   1.616   5.243
 3690SOL     OW11968   5.027   5.426   0.929
 3690SOL    HW111969   4.990   5.486   0.857
 3690SOL    HW211970   5.038   5.477   1.013
 3691SOL     OW11971   2.408   1.969   6.091
 3691SOL    HW111972   2.483   1.914   6.128
 3691SOL    HW211973   2.442   2.061   6.069
 3692SOL     OW11974   6.895   4.142   6.141
 3692SOL    HW111975   6.942   4.109   6.222
 3692SOL    HW211976   6.957   4.199   6.087
 3693SOL     OW11977   0.955   1.869   2.776
 3693SOL    HW111978   0.984   1.947   2.721
 3693SOL    HW211979   0.859   1.879   2.800
 3694SOL     OW11980   0.964   0.401   1.841
 3694SOL    HW111981   0.896   0.463   1.800
 3694SOL    HW211982   0.929   0.366   1.928
 3695SOL     OW11983   6.748   2.226   2.153
 3695SOL    HW111984   6.730   2.321   2.178
 3695SOL    HW211985   6.793   2.179   2.230
 3696SOL     OW11986   5.526   0.963   4.964
 3696SOL    HW111987   5.546   0.889   5.028
 3696SOL    HW211988   5.544   1.051   5.008
 3697SOL     OW11989   5.851   5.760   3.838
 3697SOL    HW111990   5.891   5.798   3.754
 3697SOL    HW211991   5.807   5.673   3.817
 3698SOL     OW11992   2.134   0.754   3.767
 3698SOL    HW111993   2.096   0.845   3.779
 3698SOL    HW211994   2.069   0.686   3.800
 3699SOL     OW11995   2.458   2.290   3.689
 3699SOL    HW111996   2.363   2.292   3.720
 3699SOL    HW211997   2.463   2.239   3.602
 3700SOL     OW11998   1.475   5.420   5.376
 3700SOL    HW111999   1.450   5.487   5.307
 3700SOL    HW212000   1.399   5.356   5.390
 3701SOL     OW12001   0.563   6.515   2.049
 3701SOL    HW112002   0.662   6.519   2.038
 3701SOL    HW212003   0.519   6.519   1.959
 3702SOL     OW12004   5.375   6.503   3.988
 3702SOL    HW112005   5.439   6.466   3.922
 3702SOL    HW212006   5.304   6.555   3.940
 3703SOL     OW12007   1.084   0.608   6.104
 3703SOL    HW112008   1.050   0.675   6.038
 3703SOL    HW212009   1.180   0.627   6.125
 3704SOL     OW12010   5.098   3.381   1.089
 3704SOL    HW112011   5.071   3.294   1.048
 3704SOL    HW212012   5.072   3.383   1.185
 3705SOL     OW12013   4.946   4.714   3.577
 3705SOL    HW112014   4.979   4.709   3.482
 3705SOL    HW212015   4.851   4.684   3.580
 3706SOL     OW12016   0.770   4.113   0.085
 3706SOL    HW112017   0.715   4.171   0.025
 3706SOL    HW212018   0.839   4.065   0.031
 3707SOL     OW12019   3.466   5.023   3.916
 3707SOL    HW112020   3.491   5.076   3.835
 3707SOL    HW212021   3.369   5.001   3.913
 3708SOL     OW12022   4.482   6.956   1.469
 3708SOL    HW112023   4.419   6.950   1.392
 3708SOL    HW212024   4.436   6.998   1.547
 3709SOL     OW12025   1.801   0.200   1.742
 3709SOL    HW112026   1.767   0.208   1.649
 3709SOL    HW212027   1.869   0.126   1.746
 3710SOL     OW12028   0.168   5.018   5.644
 3710SOL    HW112029   0.176   5.114   5.616
 3710SOL    HW212030   0.199   4.959   5.570
 3711SOL     OW12031   1.918   6.532   4.905
 3711SOL    HW112032   1.929   6.512   5.002
 3711SOL    HW212033   1.938   6.449   4.852
 3712SOL     OW12034   2.376   5.434   6.335
 3712SOL    HW112035   2.415   5.525   6.352
 3712SOL    HW212036   2.432   5.387   6.267
 3713SOL     OW12037   0.251   6.708   4.876
 3713SOL    HW112038   0.240   6.760   4.961
 3713SOL    HW212039   0.277   6.614   4.898
 3714SOL     OW12040   0.975   4.538   6.862
 3714SOL    HW112041   1.022   4.527   6.774
 3714SOL    HW212042   0.894   4.594   6.851
 3715SOL     OW12043   0.481   5.704   2.910
 3715SOL    HW112044   0.421   5.637   2.953
 3715SOL    HW212045   0.548   5.737   2.976
 3716SOL     OW12046   6.051   5.180   4.192
 3716SOL    HW112047   5.976   5.229   4.236
 3716SOL    HW212048   6.015   5.120   4.121
 3717SOL     OW12049   4.818   1.475   0.013
 3717SOL    HW112050   4.867   1.559   0.035
 3717SOL    HW212051   4.877   1.414   6.986
 3718SOL     OW12052   0.668   0.202   6.733
 3718SOL    HW112053   0.646   0.151   6.815
 3718SOL    HW212054   0.594   0.266   6.711
 3719SOL     OW12055   4.441   3.181   6.136
 3719SOL    HW112056   4.425   3.229   6.050
 3719SOL    HW212057   4.353   3.157   6.177
 3720SOL     OW12058   5.298   3.790   1.044
 3720SOL    HW112059   5.275   3.842   0.961
 3720SOL    HW212060   5.397   3.789   1.055
 3721SOL     OW12061   6.584   5.326   6.514
 3721SOL    HW112062   6.540   5.413   6.537
 3721SOL    HW212063   6.620   5.284   6.598
 3722SOL     OW12064   4.418   0.206   1.176
 3722SOL    HW112065   4.391   0.113   1.203
 3722SOL    HW212066   4.336   0.263   1.169
 3723SOL     OW12067   4.270   5.113   0.135
 3723SOL    HW112068   4.335   5.145   0.204
 3723SOL    HW212069   4.181   5.157   0.150
 3724SOL     OW12070   1.597   5.161   5.304
 3724SOL    HW112071   1.640   5.230   5.245
 3724SOL    HW212072   1.642   5.159   5.393
 3725SOL     OW12073   0.129   6.146   0.090
 3725SOL    HW112074   0.146   6.235   0.131
 3725SOL    HW212075   0.093   6.084   0.160
 3726SOL     OW12076   5.062   4.579   4.837
 3726SOL    HW112077   4.962   4.578   4.838
 3726SOL    HW212078   5.095   4.518   4.764
 3727SOL     OW12079   6.886   3.419   4.845
 3727SOL    HW112080   6.807   3.480   4.850
 3727SOL    HW212081   6.962   3.466   4.801
 3728SOL     OW12082   2.859   3.399   0.157
 3728SOL    HW112083   2.787   3.364   0.098
 3728SOL    HW212084   2.885   3.490   0.127
 3729SOL     OW12085   0.493   0.192   4.208
 3729SOL    HW112086   0.514   0.112   4.152
 3729SOL    HW212087   0.492   0.167   4.304
 3730SOL     OW12088   4.099   6.170   5.904
 3730SOL    HW112089   4.184   6.129   5.871
 3730SOL    HW212090   4.116   6.264   5.933
 3731SOL     OW12091   0.545   1.326   0.256
 3731SOL    HW112092   0.640   1.316   0.285
 3731SOL    HW212093   0.541   1.376   0.170
 3732SOL     OW12094   1.568   1.861   0.972
 3732SOL    HW112095   1.495   1.905   0.919
 3732SOL    HW212096   1.651   1.917   0.967
 3733SOL     OW12097   1.600   2.975   3.271
 3733SOL    HW112098   1.589   2.918   3.352
 3733SOL    HW212099   1.693   3.010   3.267
 3734SOL     OW12100   4.227   0.437   1.234
 3734SOL    HW112101   4.177   0.350   1.240
 3734SOL    HW212102   4.176   0.507   1.284
 3735SOL     OW12103   4.342   0.314   2.390
 3735SOL    HW112104   4.297   0.225   2.399
 3735SOL    HW212105   4.430   0.302   2.342
 3736SOL     OW12106   6.550   0.754   0.980
 3736SOL    HW112107   6.485   0.713   1.044
 3736SOL    HW212108   6.572   0.689   0.908
 3737SOL     OW12109   5.906   2.424   3.929
 3737SOL    HW112110   5.894   2.502   3.868
 3737SOL    HW212111   5.925   2.456   4.021
 3738SOL     OW12112   6.271   5.883   1.015
 3738SOL    HW112113   6.242   5.834   0.933
 3738SOL    HW212114   6.329   5.961   0.988
 3739SOL     OW12115   2.996   4.502   1.583
 3739SOL    HW112116   3.079   4.449   1.566
 3739SOL    HW212117   2.963   4.483   1.676
 3740SOL     OW12118   5.802   5.936   0.299
 3740SOL    HW112119   5.798   5.861   0.233
 3740SOL    HW212120   5.782   6.022   0.253
 3741SOL     OW12121   5.071   3.236   6.683
 3741SOL    HW112122   5.003   3.179   6.731
 3741SOL    HW212123   5.162   3.217   6.721
 3742SOL     OW12124   4.668   5.531   0.505
 3742SOL    HW112125   4.758   5.488   0.507
 3742SOL    HW212126   4.609   5.485   0.439
 3743SOL     OW12127   4.798   4.519   1.691
 3743SOL    HW112128   4.835   4.474   1.772
 3743SOL    HW212129   4.701   4.497   1.682
 3744SOL     OW12130   0.838   6.503   2.120
 3744SOL    HW112131   0.873   6.546   2.203
 3744SOL    HW212132   0.878   6.548   2.039
 3745SOL     OW12133   4.913   3.532   2.356
 3745SOL    HW112134   4.907   3.622   2.313
 3745SOL    HW212135   4.866   3.533   2.444
 3746SOL     OW12136   0.216   0.252   3.573
 3746SOL    HW112137   0.237   0.346   3.600
 3746SOL    HW212138   0.138   0.252   3.510
 3747SOL     OW12139   4.731   6.302   6.090
 3747SOL    HW112140   4.808   6.315   6.028
 3747SOL    HW212141   4.764   6.302   6.184
 3748SOL     OW12142   5.836   0.977   2.138
 3748SOL    HW112143   5.831   1.011   2.044
 3748SOL    HW212144   5.826   0.877   2.137
 3749SOL     OW12145   1.598   5.433   2.797
 3749SOL    HW112146   1.578   5.524   2.834
 3749SOL    HW212147   1.661   5.386   2.859
 3750SOL     OW12148   5.636   4.499   0.633
 3750SOL    HW112149   5.545   4.536   0.612
 3750SOL    HW212150   5.660   4.429   0.565
 3751SOL     OW12151   0.653   2.793   0.934
 3751SOL    HW112152   0.616   2.726   0.870
 3751SOL    HW212153   0.580   2.829   0.992
 3752SOL     OW12154   0.664   0.107   6.987
 3752SOL    HW112155   0.758   0.072   6.983
 3752SOL    HW212156   0.600   0.030   6.994
 3753SOL     OW12157   0.403   6.314   5.103
 3753SOL    HW112158   0.460   6.339   5.181
 3753SOL    HW212159   0.343   6.238   5.128
 3754SOL     OW12160   5.429   6.388   1.747
 3754SOL    HW112161   5.372   6.308   1.728
 3754SOL    HW212162   5.436   6.443   1.664
 3755SOL     OW12163   5.795   5.502   4.545
 3755SOL    HW112164   5.757   5.414   4.519
 3755SOL    HW212165   5.846   5.540   4.468
 3756SOL     OW12166   2.198   0.541   6.403
 3756SOL    HW112167   2.247   0.620   6.437
 3756SOL    HW212168   2.223   0.460   6.456
 3757SOL     OW12169   3.544   5.809   5.835
 3757SOL    HW112170   3.637   5.775   5.849
 3757SOL    HW212171   3.526   5.817   5.737
 3758SOL     OW12172   2.014   1.706   4.813
 3758SOL    HW112173   2.023   1.630   4.878
 3758SOL    HW212174   1.923   1.745   4.820
 3759SOL     OW12175   4.485   5.416   5.667
 3759SOL    HW112176   4.407   5.371   5.623
 3759SOL    HW212177   4.566   5.404   5.610
 3760SOL     OW12178   0.917   3.840   3.579
 3760SOL    HW112179   0.999   3.824   3.524
 3760SOL    HW212180   0.924   3.930   3.623
 3761SOL     OW12181   0.991   6.921   4.936
 3761SOL    HW112182   0.968   6.880   4.847
 3761SOL    HW212183   0.931   6.885   5.006
 3762SOL     OW12184   0.838   4.296   6.760
 3762SOL    HW112185   0.915   4.234   6.745
 3762SOL    HW212186   0.861   4.359   6.834
 3763SOL     OW12187   6.711   4.722   6.629
 3763SOL    HW112188   6.700   4.637   6.680
 3763SOL    HW212189   6.643   4.727   6.556
 3764SOL     OW12190   1.952   0.889   4.917
 3764SOL    HW112191   1.923   0.846   5.002
 3764SOL    HW212192   1.977   0.819   4.850
 3765SOL     OW12193   5.000   1.041   3.063
 3765SOL    HW112194   4.934   1.074   3.131
 3765SOL    HW212195   4.955   0.978   3.000
 3766SOL     OW12196   1.003   0.549   4.094
 3766SOL    HW112197   0.918   0.506   4.061
 3766SOL    HW212198   0.980   0.634   4.142
 3767SOL     OW12199   2.407   4.451   0.047
 3767SOL    HW112200   2.334   4.506   0.006
 3767SOL    HW212201   2.447   4.502   0.124
 3768SOL     OW12202   3.831   6.321   6.096
 3768SOL    HW112203   3.816   6.226   6.124
 3768SOL    HW212204   3.742   6.367   6.090
 3769SOL     OW12205   5.620   5.719   5.331
 3769SOL    HW112206   5.575   5.789   5.387
 3769SOL    HW212207   5.718   5.717   5.352
 3770SOL     OW12208   2.024   0.640   6.865
 3770SOL    HW112209   2.066   0.576   6.802
 3770SOL    HW212210   1.978   0.590   6.938
 3771SOL     OW12211   5.375   1.829   0.767
 3771SOL    HW112212   5.316   1.750   0.786
 3771SOL    HW212213   5.337   1.882   0.691
 3772SOL     OW12214   6.504   1.471   0.722
 3772SOL    HW112215   6.548   1.556   0.751
 3772SOL    HW212216   6.573   1.408   0.688
 3773SOL     OW12217   5.772   3.547   5.954
 3773SOL    HW112218   5.797   3.459   5.995
 3773SOL    HW212219   5.683   3.577   5.991
 3774SOL     OW12220   1.005   6.695   6.345
 3774SOL    HW112221   1.007   6.612   6.400
 3774SOL    HW212222   0.911   6.728   6.337
 3775SOL     OW12223   5.246   4.006   2.221
 3775SOL    HW112224   5.332   3.966   2.189
 3775SOL    HW212225   5.223   3.968   2.311
 3776SOL     OW12226   2.682   1.303   1.646
 3776SOL    HW112227   2.621   1.243   1.594
 3776SOL    HW212228   2.768   1.314   1.596
 3777SOL     OW12229   2.678   4.667   4.452
 3777SOL    HW112230   2.720   4.658   4.542
 3777SOL    HW212231   2.605   4.600   4.442
 3778SOL     OW12232   2.140   6.046   2.787
 3778SOL    HW112233   2.080   6.029   2.866
 3778SOL    HW212234   2.195   5.964   2.770
 3779SOL     OW12235   2.730   5.279   6.473
 3779SOL    HW112236   2.709   5.192   6.518
 3779SOL    HW212237   2.740   5.264   6.375
 3780SOL     OW12238   3.450   4.968   4.605
 3780SOL    HW112239   3.506   4.976   4.687
 3780SOL    HW212240   3.353   4.969   4.630
 3781SOL     OW12241   1.922   6.244   3.847
 3781SOL    HW112242   1.926   6.148   3.819
 3781SOL    HW212243   1.833   6.282   3.821
 3782SOL     OW12244   2.554   2.314   4.296
 3782SOL    HW112245   2.579   2.358   4.382
 3782SOL    HW212246   2.504   2.230   4.314
 3783SOL     OW12247   6.980   6.678   4.682
 3783SOL    HW112248   0.020   6.713   4.614
 3783SOL    HW212249   6.896   6.649   4.636
 3784SOL     OW12250   5.232   1.598   3.021
 3784SOL    HW112251   5.243   1.499   3.017
 3784SOL    HW212252   5.141   1.620   3.056
 3785SOL     OW12253   1.997   1.175   0.133
 3785SOL    HW112254   1.936   1.188   0.212
 3785SOL    HW212255   1.951   1.118   0.064
 3786SOL     OW12256   2.717   5.707   3.228
 3786SOL    HW112257   2.714   5.724   3.129
 3786SOL    HW212258   2.665   5.624   3.249
 3787SOL     OW12259   5.654   6.498   3.468
 3787SOL    HW112260   5.724   6.544   3.413
 3787SOL    HW212261   5.688   6.410   3.501
 3788SOL     OW12262   6.408   3.237   3.657
 3788SOL    HW112263   6.324   3.268   3.614
 3788SOL    HW212264   6.467   3.315   3.678
 3789SOL     OW12265   1.702   4.446   4.252
 3789SOL    HW112266   1.701   4.485   4.345
 3789SOL    HW212267   1.666   4.353   4.255
 3790SOL     OW12268   2.042   3.578   5.198
 3790SOL    HW112269   1.964   3.559   5.139
 3790SOL    HW212270   2.056   3.676   5.205
 3791SOL     OW12271   5.951   0.308   0.723
 3791SOL    HW112272   5.942   0.216   0.759
 3791SOL    HW212273   5.901   0.315   0.636
 3792SOL     OW12274   6.604   0.619   4.789
 3792SOL    HW112275   6.697   0.585   4.779
 3792SOL    HW212276   6.595   0.707   4.741
 3793SOL     OW12277   2.302   0.598   2.820
 3793SOL    HW112278   2.325   0.549   2.904
 3793SOL    HW212279   2.266   0.533   2.752
 3794SOL     OW12280   3.760   5.369   1.815
 3794SOL    HW112281   3.812   5.344   1.734
 3794SOL    HW212282   3.717   5.458   1.801
 3795SOL     OW12283   4.213   6.556   6.496
 3795SOL    HW112284   4.143   6.622   6.523
 3795SOL    HW212285   4.244   6.576   6.404
 3796SOL     OW12286   2.091   2.204   1.659
 3796SOL    HW112287   2.030   2.271   1.617
 3796SOL    HW212288   2.186   2.228   1.640
 3797SOL     OW12289   6.472   5.585   2.459
 3797SOL    HW112290   6.458   5.657   2.526
 3797SOL    HW212291   6.570   5.564   2.452
 3798SOL     OW12292   2.475   5.034   3.087
 3798SOL    HW112293   2.481   5.044   2.988
 3798SOL    HW212294   2.436   5.117   3.127
 3799SOL     OW12295   1.079   2.493   4.066
 3799SOL    HW112296   0.987   2.482   4.027
 3799SOL    HW212297   1.148   2.477   3.995
 3800SOL     OW12298   5.107   2.359   5.144
 3800SOL    HW112299   5.170   2.436   5.137
 3800SOL    HW212300   5.140   2.296   5.214
 3801SOL     OW12301   6.312   5.884   5.614
 3801SOL    HW112302   6.411   5.878   5.604
 3801SOL    HW212303   6.274   5.793   5.633
 3802SOL     OW12304   0.985   1.824   4.918
 3802SOL    HW112305   1.066   1.882   4.912
 3802SOL    HW212306   0.919   1.865   4.981
 3803SOL     OW12307   3.773   1.139   2.331
 3803SOL    HW112308   3.717   1.196   2.271
 3803SOL    HW212309   3.751   1.042   2.316
 3804SOL     OW12310   4.710   2.227   4.819
 3804SOL    HW112311   4.753   2.250   4.731
 3804SOL    HW212312   4.734   2.133   4.843
 3805SOL     OW12313   2.932   4.030   1.615
 3805SOL    HW112314   2.984   4.076   1.687
 3805SOL    HW212315   2.899   3.942   1.649
 3806SOL     OW12316   2.464   2.704   0.031
 3806SOL    HW112317   2.562   2.686   0.040
 3806SOL    HW212318   2.414   2.651   0.100
 3807SOL     OW12319   2.170   1.631   4.434
 3807SOL    HW112320   2.262   1.635   4.473
 3807SOL    HW212321   2.174   1.654   4.337
 3808SOL     OW12322   3.155   0.475   2.159
 3808SOL    HW112323   3.178   0.407   2.229
 3808SOL    HW212324   3.126   0.560   2.204
 3809SOL     OW12325   5.672   2.168   6.720
 3809SOL    HW112326   5.674   2.249   6.779
 3809SOL    HW212327   5.760   2.122   6.724
 3810SOL     OW12328   4.041   2.917   5.363
 3810SOL    HW112329   4.090   2.991   5.409
 3810SOL    HW212330   3.943   2.925   5.382
 3811SOL     OW12331   0.776   4.611   4.098
 3811SOL    HW112332   0.852   4.621   4.161
 3811SOL    HW212333   0.747   4.702   4.067
 3812SOL     OW12334   5.688   1.337   5.290
 3812SOL    HW112335   5.726   1.427   5.312
 3812SOL    HW212336   5.749   1.265   5.325
 3813SOL     OW12337   4.379   4.279   0.990
 3813SOL    HW112338   4.450   4.328   0.940
 3813SOL    HW212339   4.421   4.220   1.059
 3814SOL     OW12340   0.103   6.585   1.132
 3814SOL    HW112341   0.157   6.614   1.211
 3814SOL    HW212342   0.159   6.529   1.071
 3815SOL     OW12343   4.846   2.049   0.582
 3815SOL    HW112344   4.888   1.960   0.564
 3815SOL    HW212345   4.832   2.060   0.680
 3816SOL     OW12346   0.042   6.773   1.563
 3816SOL    HW112347   0.015   6.722   1.645
 3816SOL    HW212348   6.985   6.796   1.509
 3817SOL     OW12349   4.969   2.821   4.361
 3817SOL    HW112350   5.018   2.748   4.408
 3817SOL    HW212351   5.001   2.827   4.266
 3818SOL     OW12352   4.388   6.575   1.601
 3818SOL    HW112353   4.311   6.573   1.537
 3818SOL    HW212354   4.463   6.628   1.562
 3819SOL     OW12355   5.726   5.131   0.381
 3819SOL    HW112356   5.678   5.125   0.294
 3819SOL    HW212357   5.665   5.105   0.455
 3820SOL     OW12358   6.380   6.390   3.401
 3820SOL    HW112359   6.463   6.409   3.348
 3820SOL    HW212360   6.364   6.291   3.404
 3821SOL     OW12361   1.669   3.282   2.259
 3821SOL    HW112362   1.609   3.203   2.249
 3821SOL    HW212363   1.698   3.313   2.168
 3822SOL     OW12364   1.129   5.220   2.240
 3822SOL    HW112365   1.092   5.277   2.167
 3822SOL    HW212366   1.141   5.126   2.207
 3823SOL     OW12367   4.116   2.134   5.249
 3823SOL    HW112368   4.034   2.170   5.293
 3823SOL    HW212369   4.104   2.135   5.150
 3824SOL     OW12370   5.988   1.801   5.369
 3824SOL    HW112371   6.023   1.754   5.450
 3824SOL    HW212372   6.065   1.840   5.318
 3825SOL     OW12373   0.001   0.385   0.069
 3825SOL    HW112374   0.037   0.478   0.071
 3825SOL    HW212375   0.062   0.325   0.121
 3826SOL     OW12376   0.319   4.039   0.107
 3826SOL    HW112377   0.313   4.041   0.008
 3826SOL    HW212378   0.412   4.016   0.135
 3827SOL     OW12379   3.865   4.008   0.988
 3827SOL    HW112380   3.867   3.908   0.993
 3827SOL    HW212381   3.794   4.044   1.048
 3828SOL     OW12382   4.432   2.376   0.706
 3828SOL    HW112383   4.487   2.457   0.685
 3828SOL    HW212384   4.492   2.295   0.707
 3829SOL     OW12385   2.293   4.999   3.953
 3829SOL    HW112386   2.263   5.026   3.862
 3829SOL    HW212387   2.219   5.015   4.018
 3830SOL     OW12388   1.350   0.092   5.683
 3830SOL    HW112389   1.439   0.134   5.701
 3830SOL    HW212390   1.326   0.030   5.758
 3831SOL     OW12391   4.613   1.931   2.477
 3831SOL    HW112392   4.559   1.936   2.393
 3831SOL    HW212393   4.698   1.882   2.459
 3832SOL     OW12394   6.513   0.714   1.714
 3832SOL    HW112395   6.544   0.662   1.793
 3832SOL    HW212396   6.559   0.803   1.712
 3833SOL     OW12397   0.696   4.969   6.740
 3833SOL    HW112398   0.649   5.020   6.668
 3833SOL    HW212399   0.787   4.942   6.707
 3834SOL     OW12400   2.828   2.046   0.039
 3834SOL    HW112401   2.925   2.022   0.038
 3834SOL    HW212402   2.773   1.962   0.032
 3835SOL     OW12403   3.674   5.529   5.663
 3835SOL    HW112404   3.765   5.569   5.671
 3835SOL    HW212405   3.661   5.495   5.570
 3836SOL     OW12406   1.883   3.538   5.717
 3836SOL    HW112407   1.843   3.456   5.759
 3836SOL    HW212408   1.942   3.511   5.641
 3837SOL     OW12409   4.639   3.555   0.499
 3837SOL    HW112410   4.561   3.614   0.521
 3837SOL    HW212411   4.711   3.609   0.456
 3838SOL     OW12412   5.391   3.461   4.537
 3838SOL    HW112413   5.387   3.523   4.615
 3838SOL    HW212414   5.359   3.370   4.565
 3839SOL     OW12415   5.045   0.364   5.154
 3839SOL    HW112416   5.122   0.307   5.122
 3839SOL    HW212417   4.981   0.306   5.205
 3840SOL     OW12418   1.073   0.505   5.165
 3840SOL    HW112419   1.170   0.494   5.140
 3840SOL    HW212420   1.017   0.444   5.109
 3841SOL     OW12421   0.266   3.896   5.119
 3841SOL    HW112422   0.333   3.842   5.068
 3841SOL    HW212423   0.245   3.979   5.069
 3842SOL     OW12424   0.861   5.284   0.066
 3842SOL    HW112425   0.868   5.329   7.002
 3842SOL    HW212426   0.765   5.265   0.087
 3843SOL     OW12427   7.019   3.318   0.551
 3843SOL    HW112428   0.001   3.219   0.535
 3843SOL    HW212429   0.003   3.367   0.465
 3844SOL     OW12430   1.182   5.297   5.632
 3844SOL    HW112431   1.202   5.228   5.703
 3844SOL    HW212432   1.097   5.273   5.586
 3845SOL     OW12433   3.263   2.894   2.725
 3845SOL    HW112434   3.186   2.951   2.696
 3845SOL    HW212435   3.254   2.873   2.822
 3846SOL     OW12436   0.048   4.976   3.991
 3846SOL    HW112437   0.113   5.015   4.056
 3846SOL    HW212438   0.083   4.888   3.958
 3847SOL     OW12439   6.149   1.165   6.575
 3847SOL    HW112440   6.211   1.115   6.635
 3847SOL    HW212441   6.059   1.123   6.577
 3848SOL     OW12442   2.170   5.338   2.419
 3848SOL    HW112443   2.100   5.270   2.397
 3848SOL    HW212444   2.136   5.398   2.491
 3849SOL     OW12445   0.818   1.532   5.813
 3849SOL    HW112446   0.847   1.583   5.732
 3849SOL    HW212447   0.897   1.483   5.851
 3850SOL     OW12448   2.647   3.382   1.756
 3850SOL    HW112449   2.723   3.446   1.762
 3850SOL    HW212450   2.567   3.421   1.802
 3851SOL     OW12451   2.383   4.401   2.809
 3851SOL    HW112452   2.310   4.346   2.767
 3851SOL    HW212453   2.378   4.394   2.908
 3852SOL     OW12454   4.568   0.315   4.952
 3852SOL    HW112455   4.639   0.342   5.017
 3852SOL    HW212456   4.578   0.369   4.868
 3853SOL     OW12457   0.760   3.096   2.676
 3853SOL    HW112458   0.802   3.159   2.741
 3853SOL    HW212459   0.739   3.144   2.591
 3854SOL     OW12460   0.864   3.553   3.498
 3854SOL    HW112461   0.934   3.524   3.563
 3854SOL    HW212462   0.823   3.638   3.529
 3855SOL     OW12463   5.870   5.025   6.287
 3855SOL    HW112464   5.913   5.086   6.220
 3855SOL    HW212465   5.836   5.079   6.364
 3856SOL     OW12466   0.354   0.155   6.279
 3856SOL    HW112467   0.429   0.089   6.275
 3856SOL    HW212468   0.272   0.109   6.314
 3857SOL     OW12469   1.738   6.904   4.944
 3857SOL    HW112470   1.729   6.991   4.897
 3857SOL    HW212471   1.834   6.889   4.968
 3858SOL     OW12472   1.049   6.413   6.195
 3858SOL    HW112473   1.051   6.374   6.103
 3858SOL    HW212474   1.098   6.501   6.194
 3859SOL     OW12475   6.702   2.645   4.158
 3859SOL    HW112476   6.691   2.598   4.071
 3859SOL    HW212477   6.730   2.580   4.228
 3860SOL     OW12478   2.339   5.623   4.746
 3860SOL    HW112479   2.301   5.546   4.695
 3860SOL    HW212480   2.412   5.666   4.693
 3861SOL     OW12481   5.492   4.869   0.997
 3861SOL    HW112482   5.446   4.842   1.082
 3861SOL    HW212483   5.511   4.788   0.942
 3862SOL     OW12484   0.223   0.392   6.577
 3862SOL    HW112485   0.162   0.342   6.516
 3862SOL    HW212486   0.184   0.482   6.597
 3863SOL     OW12487   3.261   3.820   0.587
 3863SOL    HW112488   3.200   3.745   0.611
 3863SOL    HW212489   3.207   3.903   0.572
 3864SOL     OW12490   3.893   1.617   6.899
 3864SOL    HW112491   3.814   1.616   6.837
 3864SOL    HW212492   3.890   1.536   6.958
 3865SOL     OW12493   3.926   0.091   2.239
 3865SOL    HW112494   3.949   7.018   2.232
 3865SOL    HW212495   4.007   0.145   2.218
 3866SOL     OW12496   4.007   0.223   0.637
 3866SOL    HW112497   4.075   0.279   0.685
 3866SOL    HW212498   4.030   0.219   0.540
 3867SOL     OW12499   1.820   3.987   3.256
 3867SOL    HW112500   1.873   3.920   3.308
 3867SOL    HW212501   1.881   4.057   3.220
 3868SOL     OW12502   2.014   6.395   1.625
 3868SOL    HW112503   1.932   6.448   1.647
 3868SOL    HW212504   2.072   6.388   1.706
 3869SOL     OW12505   6.982   2.434   3.393
 3869SOL    HW112506   0.038   2.376   3.405
 3869SOL    HW212507   6.992   2.490   3.311
 3870SOL     OW12508   3.002   5.045   6.747
 3870SOL    HW112509   3.089   4.998   6.764
 3870SOL    HW212510   2.937   5.020   6.819
 3871SOL     OW12511   3.332   6.973   2.704
 3871SOL    HW112512   3.340   0.047   2.696
 3871SOL    HW212513   3.240   6.948   2.733
 3872SOL     OW12514   3.878   3.540   1.168
 3872SOL    HW112515   3.943   3.567   1.096
 3872SOL    HW212516   3.823   3.463   1.135
 3873SOL     OW12517   5.265   5.396   1.188
 3873SOL    HW112518   5.205   5.447   1.248
 3873SOL    HW212519   5.335   5.349   1.242
 3874SOL     OW12520   4.169   6.429   0.147
 3874SOL    HW112521   4.220   6.512   0.125
 3874SOL    HW212522   4.193   6.398   0.239
 3875SOL     OW12523   1.540   4.492   1.752
 3875SOL    HW112524   1.448   4.483   1.714
 3875SOL    HW212525   1.547   4.434   1.834
 3876SOL     OW12526   6.263   4.975   4.881
 3876SOL    HW112527   6.250   5.005   4.976
 3876SOL    HW212528   6.217   4.888   4.867
 3877SOL     OW12529   5.932   1.038   2.395
 3877SOL    HW112530   5.947   1.018   2.298
 3877SOL    HW212531   5.858   1.104   2.404
 3878SOL     OW12532   3.679   0.023   6.306
 3878SOL    HW112533   3.778   0.011   6.300
 3878SOL    HW212534   3.656   0.119   6.288
 3879SOL     OW12535   4.524   5.452   1.976
 3879SOL    HW112536   4.458   5.377   1.982
 3879SOL    HW212537   4.476   5.537   1.958
 3880SOL     OW12538   5.707   3.766   2.276
 3880SOL    HW112539   5.715   3.668   2.259
 3880SOL    HW212540   5.771   3.816   2.217
 3881SOL     OW12541   1.519   5.036   1.079
 3881SOL    HW112542   1.616   5.057   1.089
 3881SOL    HW212543   1.507   4.966   1.008
 3882SOL     OW12544   6.108   1.277   5.965
 3882SOL    HW112545   6.061   1.339   5.902
 3882SOL    HW212546   6.079   1.183   5.947
 3883SOL     OW12547   4.506   1.641   3.612
 3883SOL    HW112548   4.450   1.641   3.529
 3883SOL    HW212549   4.502   1.551   3.655
 3884SOL     OW12550   1.767   6.060   4.868
 3884SOL    HW112551   1.684   6.096   4.825
 3884SOL    HW212552   1.808   5.991   4.809
 3885SOL     OW12553   0.051   0.982   3.902
 3885SOL    HW112554   0.078   1.035   3.822
 3885SOL    HW212555   6.993   0.929   3.881
 3886SOL     OW12556   6.782   0.259   5.260
 3886SOL    HW112557   6.780   0.254   5.360
 3886SOL    HW212558   6.868   0.302   5.230
 3887SOL     OW12559   4.056   1.724   5.393
 3887SOL    HW112560   3.966   1.722   5.436
 3887SOL    HW212561   4.122   1.677   5.451
 3888SOL     OW12562   6.197   1.771   0.919
 3888SOL    HW112563   6.161   1.728   0.837
 3888SOL    HW212564   6.210   1.703   0.991
 3889SOL     OW12565   0.810   5.516   5.954
 3889SOL    HW112566   0.725   5.497   6.004
 3889SOL    HW212567   0.884   5.530   6.019
 3890SOL     OW12568   5.453   5.255   2.907
 3890SOL    HW112569   5.544   5.252   2.947
 3890SOL    HW212570   5.416   5.162   2.900
 3891SOL     OW12571   5.510   5.225   4.883
 3891SOL    HW112572   5.467   5.308   4.847
 3891SOL    HW212573   5.457   5.193   4.962
 3892SOL     OW12574   6.147   6.754   2.892
 3892SOL    HW112575   6.204   6.752   2.811
 3892SOL    HW212576   6.150   6.845   2.933
 3893SOL     OW12577   3.119   5.638   4.478
 3893SOL    HW112578   3.195   5.623   4.414
 3893SOL    HW212579   3.095   5.551   4.520
 3894SOL     OW12580   4.587   3.347   0.228
 3894SOL    HW112581   4.527   3.417   0.268
 3894SOL    HW212582   4.681   3.381   0.230
 3895SOL     OW12583   2.069   1.278   5.607
 3895SOL    HW112584   2.048   1.367   5.566
 3895SOL    HW212585   2.089   1.212   5.535
 3896SOL     OW12586   7.004   2.893   5.081
 3896SOL    HW112587   0.044   2.885   5.006
 3896SOL    HW212588   0.015   2.846   5.162
 3897SOL     OW12589   3.519   6.782   2.128
 3897SOL    HW112590   3.474   6.703   2.085
 3897SOL    HW212591   3.588   6.819   2.065
 3898SOL     OW12592   4.091   3.718   4.413
 3898SOL    HW112593   4.090   3.815   4.389
 3898SOL    HW212594   4.116   3.664   4.332
 3899SOL     OW12595   4.741   1.553   6.013
 3899SOL    HW112596   4.782   1.473   5.970
 3899SOL    HW212597   4.797   1.633   5.994
 3900SOL     OW12598   6.678   2.662   3.479
 3900SOL    HW112599   6.664   2.563   3.490
 3900SOL    HW212600   6.603   2.711   3.522
 3901SOL     OW12601   1.234   6.627   4.884
 3901SOL    HW112602   1.220   6.664   4.792
 3901SOL    HW212603   1.145   6.622   4.931
 3902SOL     OW12604   5.257   5.030   1.871
 3902SOL    HW112605   5.210   4.963   1.929
 3902SOL    HW212606   5.332   4.985   1.823
 3903SOL     OW12607   4.466   3.147   6.766
 3903SOL    HW112608   4.434   3.096   6.686
 3903SOL    HW212609   4.416   3.116   6.847
 3904SOL     OW12610   1.025   6.257   0.976
 3904SOL    HW112611   1.095   6.242   1.046
 3904SOL    HW212612   0.997   6.353   0.976
 3905SOL     OW12613   6.677   0.303   5.891
 3905SOL    HW112614   6.709   0.391   5.927
 3905SOL    HW212615   6.697   0.298   5.793
 3906SOL     OW12616   1.565   4.780   4.439
 3906SOL    HW112617   1.628   4.811   4.510
 3906SOL    HW212618   1.499   4.716   4.478
 3907SOL     OW12619   6.864   1.506   4.090
 3907SOL    HW112620   6.837   1.431   4.030
 3907SOL    HW212621   6.815   1.589   4.064
 3908SOL     OW12622   1.310   0.394   5.057
 3908SOL    HW112623   1.274   0.375   4.966
 3908SOL    HW212624   1.409   0.404   5.054
 3909SOL     OW12625   5.428   3.212   5.862
 3909SOL    HW112626   5.430   3.259   5.774
 3909SOL    HW212627   5.375   3.127   5.852
 3910SOL     OW12628   3.824   2.498   0.505
 3910SOL    HW112629   3.733   2.535   0.483
 3910SOL    HW212630   3.833   2.407   0.466
 3911SOL     OW12631   6.049   1.011   1.528
 3911SOL    HW112632   6.027   1.046   1.619
 3911SOL    HW212633   6.132   1.056   1.494
 3912SOL     OW12634   4.094   2.089   0.015
 3912SOL    HW112635   4.054   1.997   0.016
 3912SOL    HW212636   4.101   2.124   0.108
 3913SOL     OW12637   4.632   5.296   0.662
 3913SOL    HW112638   4.618   5.392   0.686
 3913SOL    HW212639   4.683   5.290   0.576
 3914SOL     OW12640   5.515   1.079   0.662
 3914SOL    HW112641   5.613   1.065   0.658
 3914SOL    HW212642   5.488   1.147   0.593
 3915SOL     OW12643   4.679   5.188   0.161
 3915SOL    HW112644   4.677   5.088   0.160
 3915SOL    HW212645   4.765   5.221   0.122
 3916SOL     OW12646   1.743   0.719   2.547
 3916SOL    HW112647   1.647   0.742   2.567
 3916SOL    HW212648   1.803   0.779   2.600
 3917SOL     OW12649   2.792   4.910   0.710
 3917SOL    HW112650   2.712   4.953   0.668
 3917SOL    HW212651   2.862   4.979   0.728
 3918SOL     OW12652   5.438   0.565   0.713
 3918SOL    HW112653   5.359   0.601   0.665
 3918SOL    HW212654   5.411   0.487   0.769
 3919SOL     OW12655   3.839   0.361   1.610
 3919SOL    HW112656   3.859   0.334   1.704
 3919SOL    HW212657   3.819   0.458   1.606
 3920SOL     OW12658   3.107   0.848   5.805
 3920SOL    HW112659   3.174   0.843   5.730
 3920SOL    HW212660   3.015   0.852   5.767
 3921SOL     OW12661   0.656   2.492   6.459
 3921SOL    HW112662   0.621   2.577   6.499
 3921SOL    HW212663   0.579   2.440   6.421
 3922SOL     OW12664   4.870   5.061   2.739
 3922SOL    HW112665   4.803   5.006   2.789
 3922SOL    HW212666   4.835   5.080   2.647
 3923SOL     OW12667   5.135   0.615   1.514
 3923SOL    HW112668   5.100   0.523   1.533
 3923SOL    HW212669   5.084   0.655   1.438
 3924SOL     OW12670   6.490   4.478   4.044
 3924SOL    HW112671   6.507   4.548   4.114
 3924SOL    HW212672   6.558   4.406   4.053
 3925SOL     OW12673   4.585   3.765   0.982
 3925SOL    HW112674   4.592   3.684   1.040
 3925SOL    HW212675   4.676   3.800   0.962
 3926SOL     OW12676   0.369   0.188   5.395
 3926SOL    HW112677   0.292   0.124   5.391
 3926SOL    HW212678   0.412   0.181   5.485
 3927SOL     OW12679   6.519   2.883   5.127
 3927SOL    HW112680   6.597   2.914   5.181
 3927SOL    HW212681   6.434   2.897   5.178
 3928SOL     OW12682   2.175   6.245   2.609
 3928SOL    HW112683   2.160   6.180   2.683
 3928SOL    HW212684   2.107   6.318   2.613
 3929SOL     OW12685   0.543   2.210   5.427
 3929SOL    HW112686   0.533   2.157   5.342
 3929SOL    HW212687   0.579   2.300   5.405
 3930SOL     OW12688   0.773   3.697   3.773
 3930SOL    HW112689   0.853   3.642   3.797
 3930SOL    HW212690   0.801   3.775   3.717
 3931SOL     OW12691   1.447   2.318   1.787
 3931SOL    HW112692   1.502   2.239   1.815
 3931SOL    HW212693   1.505   2.384   1.739
 3932SOL     OW12694   1.420   5.868   4.001
 3932SOL    HW112695   1.363   5.935   3.952
 3932SOL    HW212696   1.404   5.877   4.099
 3933SOL     OW12697   2.239   4.880   0.455
 3933SOL    HW112698   2.297   4.914   0.382
 3933SOL    HW212699   2.287   4.807   0.505
 3934SOL     OW12700   0.435   1.689   1.920
 3934SOL    HW112701   0.525   1.712   1.883
 3934SOL    HW212702   0.444   1.617   1.988
 3935SOL     OW12703   6.393   3.462   6.967
 3935SOL    HW112704   6.345   3.416   6.893
 3935SOL    HW212705   6.430   3.549   6.934
 3936SOL     OW12706   0.266   5.253   5.580
 3936SOL    HW112707   0.232   5.265   5.487
 3936SOL    HW212708   0.366   5.251   5.580
 3937SOL     OW12709   6.989   0.012   2.149
 3937SOL    HW112710   6.897   6.999   2.157
 3937SOL    HW212711   0.008   0.015   2.239
 3938SOL     OW12712   0.343   4.047   2.990
 3938SOL    HW112713   0.413   4.090   3.048
 3938SOL    HW212714   0.307   4.114   2.926
 3939SOL     OW12715   0.777   0.770   2.118
 3939SOL    HW112716   0.704   0.838   2.125
 3939SOL    HW212717   0.834   0.789   2.038
 3940SOL     OW12718   3.148   4.645   1.236
 3940SOL    HW112719   3.052   4.665   1.252
 3940SOL    HW212720   3.204   4.724   1.263
 3941SOL     OW12721   6.319   0.106   4.189
 3941SOL    HW112722   6.276   0.031   4.239
 3941SOL    HW212723   6.250   0.174   4.165
 3942SOL     OW12724   0.189   5.876   6.140
 3942SOL    HW112725   0.105   5.845   6.094
 3942SOL    HW212726   0.217   5.964   6.101
 3943SOL     OW12727   1.498   2.954   0.362
 3943SOL    HW112728   1.539   2.983   0.448
 3943SOL    HW212729   1.560   2.974   0.286
 3944SOL     OW12730   5.920   2.052   6.754
 3944SOL    HW112731   5.973   2.030   6.836
 3944SOL    HW212732   5.875   1.969   6.720
 3945SOL     OW12733   0.149   1.225   2.758
 3945SOL    HW112734   0.200   1.159   2.703
 3945SOL    HW212735   0.067   1.254   2.708
 3946SOL     OW12736   1.158   2.991   0.874
 3946SOL    HW112737   1.203   3.078   0.896
 3946SOL    HW212738   1.155   2.979   0.775
 3947SOL     OW12739   6.162   4.858   1.410
 3947SOL    HW112740   6.118   4.770   1.422
 3947SOL    HW212741   6.135   4.897   1.322
 3948SOL     OW12742   1.339   2.391   6.347
 3948SOL    HW112743   1.377   2.306   6.309
 3948SOL    HW212744   1.335   2.461   6.275
 3949SOL     OW12745   6.089   6.446   2.384
 3949SOL    HW112746   6.061   6.516   2.449
 3949SOL    HW212747   6.183   6.463   2.355
 3950SOL     OW12748   3.305   4.424   1.216
 3950SOL    HW112749   3.245   4.502   1.203
 3950SOL    HW212750   3.262   4.359   1.279
 3951SOL     OW12751   0.757   1.984   5.582
 3951SOL    HW112752   0.705   2.042   5.645
 3951SOL    HW212753   0.704   1.969   5.499
 3952SOL     OW12754   6.356   3.703   5.530
 3952SOL    HW112755   6.284   3.634   5.517
 3952SOL    HW212756   6.446   3.660   5.525
 3953SOL     OW12757   3.515   4.245   6.259
 3953SOL    HW112758   3.510   4.183   6.181
 3953SOL    HW212759   3.610   4.250   6.291
 3954SOL     OW12760   0.842   3.532   5.322
 3954SOL    HW112761   0.924   3.568   5.367
 3954SOL    HW212762   0.776   3.503   5.391
 3955SOL     OW12763   5.544   4.923   7.010
 3955SOL    HW112764   5.627   4.951   6.962
 3955SOL    HW212765   5.528   4.826   6.996
 3956SOL     OW12766   0.685   2.830   5.441
 3956SOL    HW112767   0.627   2.883   5.503
 3956SOL    HW212768   0.779   2.863   5.447
 3957SOL     OW12769   1.622   0.286   3.227
 3957SOL    HW112770   1.602   0.188   3.219
 3957SOL    HW212771   1.598   0.331   3.141
 3958SOL     OW12772   5.979   6.362   5.366
 3958SOL    HW112773   5.966   6.313   5.280
 3958SOL    HW212774   5.924   6.445   5.366
 3959SOL     OW12775   2.648   5.201   0.125
 3959SOL    HW112776   2.601   5.113   0.120
 3959SOL    HW212777   2.730   5.199   0.068
 3960SOL     OW12778   4.091   3.283   0.296
 3960SOL    HW112779   4.080   3.200   0.352
 3960SOL    HW212780   4.034   3.275   0.214
 3961SOL     OW12781   4.964   0.716   1.309
 3961SOL    HW112782   4.885   0.748   1.362
 3961SOL    HW212783   4.937   0.700   1.215
 3962SOL     OW12784   0.548   0.055   5.942
 3962SOL    HW112785   0.612   0.027   5.870
 3962SOL    HW212786   0.548   0.154   5.950
 3963SOL     OW12787   4.340   5.587   3.211
 3963SOL    HW112788   4.420   5.579   3.271
 3963SOL    HW212789   4.286   5.666   3.238
 3964SOL     OW12790   5.368   5.756   4.966
 3964SOL    HW112791   5.442   5.810   4.924
 3964SOL    HW212792   5.282   5.775   4.919
 3965SOL     OW12793   3.393   3.498   0.202
 3965SOL    HW112794   3.468   3.433   0.189
 3965SOL    HW212795   3.380   3.514   0.300
 3966SOL     OW12796   5.903   4.035   5.292
 3966SOL    HW112797   5.983   4.093   5.309
 3966SOL    HW212798   5.930   3.954   5.240
 3967SOL     OW12799   0.589   5.458   6.109
 3967SOL    HW112800   0.519   5.513   6.065
 3967SOL    HW212801   0.546   5.389   6.168
 3968SOL     OW12802   6.106   0.942   1.986
 3968SOL    HW112803   6.033   0.938   2.053
 3968SOL    HW212804   6.117   0.852   1.943
 3969SOL     OW12805   0.537   5.051   2.501
 3969SOL    HW112806   0.612   5.045   2.435
 3969SOL    HW212807   0.494   5.141   2.494
 3970SOL     OW12808   5.133   4.336   2.803
 3970SOL    HW112809   5.230   4.356   2.815
 3970SOL    HW212810   5.094   4.401   2.738
 3971SOL     OW12811   1.439   5.836   3.090
 3971SOL    HW112812   1.465   5.824   2.994
 3971SOL    HW212813   1.465   5.927   3.121
 3972SOL     OW12814   0.962   0.084   0.062
 3972SOL    HW112815   1.014   0.166   0.038
 3972SOL    HW212816   0.957   0.076   0.162
 3973SOL     OW12817   3.072   3.677   4.397
 3973SOL    HW112818   3.048   3.583   4.419
 3973SOL    HW212819   3.023   3.739   4.459
 3974SOL     OW12820   6.008   1.713   6.872
 3974SOL    HW112821   5.936   1.746   6.812
 3974SOL    HW212822   5.972   1.704   6.965
 3975SOL     OW12823   7.011   0.644   5.832
 3975SOL    HW112824   7.009   0.585   5.913
 3975SOL    HW212825   0.048   0.606   5.764
 3976SOL     OW12826   0.730   3.052   0.768
 3976SOL    HW112827   0.714   3.027   0.673
 3976SOL    HW212828   0.685   2.985   0.828
 3977SOL     OW12829   3.458   6.054   6.578
 3977SOL    HW112830   3.506   6.082   6.494
 3977SOL    HW212831   3.360   6.052   6.561
 3978SOL     OW12832   6.160   3.109   6.317
 3978SOL    HW112833   6.195   3.200   6.338
 3978SOL    HW212834   6.168   3.051   6.398
 3979SOL     OW12835   0.760   6.837   2.281
 3979SOL    HW112836   0.776   6.914   2.343
 3979SOL    HW212837   0.844   6.784   2.271
 3980SOL     OW12838   4.944   3.549   4.419
 3980SOL    HW112839   4.922   3.563   4.322
 3980SOL    HW212840   4.971   3.454   4.433
 3981SOL     OW12841   6.840   1.822   0.046
 3981SOL    HW112842   6.854   1.819   0.145
 3981SOL    HW212843   6.744   1.804   0.026
 3982SOL     OW12844   2.173   2.257   3.769
 3982SOL    HW112845   2.114   2.221   3.697
 3982SOL    HW212846   2.128   2.244   3.858
 3983SOL     OW12847   3.115   6.150   4.549
 3983SOL    HW112848   3.068   6.063   4.538
 3983SOL    HW212849   3.048   6.223   4.559
 3984SOL     OW12850   2.292   6.423   1.241
 3984SOL    HW112851   2.231   6.450   1.167
 3984SOL    HW212852   2.273   6.478   1.322
 3985SOL     OW12853   2.445   2.966   1.619
 3985SOL    HW112854   2.456   2.976   1.521
 3985SOL    HW212855   2.525   3.003   1.666
 3986SOL     OW12856   0.552   2.088   1.780
 3986SOL    HW112857   0.485   2.161   1.763
 3986SOL    HW212858   0.554   2.066   1.877
 3987SOL     OW12859   2.705   4.996   6.452
 3987SOL    HW112860   2.687   5.049   6.370
 3987SOL    HW212861   2.775   4.927   6.433
 3988SOL     OW12862   4.050   3.073   0.426
 3988SOL    HW112863   3.954   3.070   0.396
 3988SOL    HW212864   4.082   2.980   0.444
 3989SOL     OW12865   4.991   6.791   6.657
 3989SOL    HW112866   4.914   6.825   6.710
 3989SOL    HW212867   4.965   6.783   6.561
 3990SOL     OW12868   0.735   3.331   3.389
 3990SOL    HW112869   0.772   3.406   3.445
 3990SOL    HW212870   0.727   3.361   3.294
 3991SOL     OW12871   0.213   2.205   4.037
 3991SOL    HW112872   0.273   2.285   4.047
 3991SOL    HW212873   0.226   2.165   3.947
 3992SOL     OW12874   4.622   3.582   6.398
 3992SOL    HW112875   4.599   3.673   6.432
 3992SOL    HW212876   4.593   3.513   6.464
 3993SOL     OW12877   2.674   2.388   2.934
 3993SOL    HW112878   2.609   2.426   2.868
 3993SOL    HW212879   2.645   2.413   3.027
 3994SOL     OW12880   2.152   3.085   3.417
 3994SOL    HW112881   2.154   3.185   3.426
 3994SOL    HW212882   2.177   3.059   3.324
 3995SOL     OW12883   2.078   4.095   3.252
 3995SOL    HW112884   2.087   4.075   3.350
 3995SOL    HW212885   2.148   4.161   3.225
 3996SOL     OW12886   0.232   1.157   3.027
 3996SOL    HW112887   0.241   1.058   3.035
 3996SOL    HW212888   0.222   1.182   2.931
 3997SOL     OW12889   5.785   3.850   2.939
 3997SOL    HW112890   5.739   3.762   2.928
 3997SOL    HW212891   5.873   3.848   2.891
 3998SOL     OW12892   6.384   1.847   3.213
 3998SOL    HW112893   6.316   1.884   3.149
 3998SOL    HW212894   6.367   1.749   3.227
 3999SOL     OW12895   5.632   3.230   2.396
 3999SOL    HW112896   5.727   3.202   2.411
 3999SOL    HW212897   5.630   3.309   2.334
 4000SOL     OW12898   2.130   5.809   1.875
 4000SOL    HW112899   2.072   5.890   1.882
 4000SOL    HW212900   2.075   5.727   1.892
 4001SOL     OW12901   2.662   3.882   5.293
 4001SOL    HW112902   2.733   3.939   5.252
 4001SOL    HW212903   2.573   3.908   5.257
 4002SOL     OW12904   3.539   2.920   4.404
 4002SOL    HW112905   3.549   2.820   4.408
 4002SOL    HW212906   3.550   2.951   4.310
 4003SOL     OW12907   2.363   1.108   5.675
 4003SOL    HW112908   2.328   1.202   5.679
 4003SOL    HW212909   2.457   1.105   5.707
 4004SOL     OW12910   0.426   3.721   3.041
 4004SOL    HW112911   0.330   3.718   3.070
 4004SOL    HW212912   0.437   3.785   2.965
 4005SOL     OW12913   4.562   3.586   1.444
 4005SOL    HW112914   4.465   3.588   1.424
 4005SOL    HW212915   4.577   3.543   1.533
 4006SOL     OW12916   4.967   5.472   2.771
 4006SOL    HW112917   5.018   5.551   2.803
 4006SOL    HW212918   4.882   5.464   2.823
 4007SOL     OW12919   0.504   1.486   2.989
 4007SOL    HW112920   0.461   1.434   3.063
 4007SOL    HW212921   0.438   1.553   2.954
 4008SOL     OW12922   2.422   7.000   0.640
 4008SOL    HW112923   2.445   0.071   0.658
 4008SOL    HW212924   2.375   6.962   0.720
 4009SOL     OW12925   4.676   1.794   1.188
 4009SOL    HW112926   4.591   1.841   1.211
 4009SOL    HW212927   4.753   1.856   1.205
 4010SOL     OW12928   3.111   4.271   1.350
 4010SOL    HW112929   3.141   4.256   1.444
 4010SOL    HW212930   3.087   4.183   1.308
 4011SOL     OW12931   6.235   6.036   0.618
 4011SOL    HW112932   6.199   6.104   0.682
 4011SOL    HW212933   6.191   6.047   0.529
 4012SOL     OW12934   4.429   6.570   1.897
 4012SOL    HW112935   4.431   6.567   1.797
 4012SOL    HW212936   4.452   6.663   1.928
 4013SOL     OW12937   1.425   0.940   1.289
 4013SOL    HW112938   1.464   0.940   1.381
 4013SOL    HW212939   1.362   0.863   1.280
 4014SOL     OW12940   2.572   5.754   3.768
 4014SOL    HW112941   2.555   5.769   3.670
 4014SOL    HW212942   2.600   5.659   3.782
 4015SOL     OW12943   4.276   5.445   6.508
 4015SOL    HW112944   4.355   5.386   6.525
 4015SOL    HW212945   4.249   5.438   6.411
 4016SOL     OW12946   3.456   5.944   6.154
 4016SOL    HW112947   3.505   5.882   6.215
 4016SOL    HW212948   3.419   5.893   6.077
 4017SOL     OW12949   0.465   5.395   5.827
 4017SOL    HW112950   0.444   5.490   5.848
 4017SOL    HW212951   0.512   5.353   5.904
 4018SOL     OW12952   3.741   6.108   1.810
 4018SOL    HW112953   3.739   6.014   1.844
 4018SOL    HW212954   3.828   6.125   1.763
 4019SOL     OW12955   5.352   3.302   2.712
 4019SOL    HW112956   5.302   3.288   2.626
 4019SOL    HW212957   5.443   3.262   2.704
 4020SOL     OW12958   6.762   4.126   4.169
 4020SOL    HW112959   6.856   4.102   4.195
 4020SOL    HW212960   6.761   4.157   4.074
 4021SOL     OW12961   3.649   3.694   5.982
 4021SOL    HW112962   3.571   3.741   6.022
 4021SOL    HW212963   3.622   3.650   5.897
 4022SOL     OW12964   3.227   6.798   0.620
 4022SOL    HW112965   3.246   6.796   0.522
 4022SOL    HW212966   3.268   6.880   0.660
 4023SOL     OW12967   0.515   1.828   5.752
 4023SOL    HW112968   0.602   1.829   5.801
 4023SOL    HW212969   0.531   1.801   5.657
 4024SOL     OW12970   1.271   5.122   4.207
 4024SOL    HW112971   1.293   5.026   4.192
 4024SOL    HW212972   1.175   5.130   4.235
 4025SOL     OW12973   1.110   6.225   4.037
 4025SOL    HW112974   1.204   6.236   4.004
 4025SOL    HW212975   1.098   6.134   4.076
 4026SOL     OW12976   6.820   6.330   4.012
 4026SOL    HW112977   6.855   6.303   4.102
 4026SOL    HW212978   6.748   6.267   3.984
 4027SOL     OW12979   2.549   2.002   6.818
 4027SOL    HW112980   2.571   1.958   6.905
 4027SOL    HW212981   2.478   2.071   6.833
 4028SOL     OW12982   4.740   1.757   3.304
 4028SOL    HW112983   4.650   1.784   3.270
 4028SOL    HW212984   4.758   1.802   3.391
 4029SOL     OW12985   2.838   3.957   6.716
 4029SOL    HW112986   2.843   3.999   6.626
 4029SOL    HW212987   2.807   4.025   6.783
 4030SOL     OW12988   6.799   1.006   2.148
 4030SOL    HW112989   6.757   0.997   2.238
 4030SOL    HW212990   6.897   1.025   2.159
 4031SOL     OW12991   5.434   0.415   2.120
 4031SOL    HW112992   5.506   0.462   2.069
 4031SOL    HW212993   5.352   0.409   2.063
 4032SOL     OW12994   6.217   6.528   1.384
 4032SOL    HW112995   6.279   6.519   1.462
 4032SOL    HW212996   6.169   6.441   1.370
 4033SOL     OW12997   3.125   2.184   2.860
 4033SOL    HW112998   3.046   2.203   2.917
 4033SOL    HW212999   3.208   2.213   2.907
 4034SOL     OW13000   6.630   2.693   5.393
 4034SOL    HW113001   6.661   2.783   5.364
 4034SOL    HW213002   6.532   2.694   5.410
 4035SOL     OW13003   6.753   2.314   1.526
 4035SOL    HW113004   6.798   2.354   1.606
 4035SOL    HW213005   6.660   2.351   1.519
 4036SOL     OW13006   3.755   4.882   2.707
 4036SOL    HW113007   3.838   4.854   2.659
 4036SOL    HW213008   3.778   4.949   2.777
 4037SOL     OW13009   3.376   0.901   6.027
 4037SOL    HW113010   3.403   0.911   6.123
 4037SOL    HW213011   3.335   0.811   6.014
 4038SOL     OW13012   4.606   3.388   6.953
 4038SOL    HW113013   4.652   3.304   6.923
 4038SOL    HW213014   4.675   3.455   6.981
 4039SOL     OW13015   5.246   5.817   1.566
 4039SOL    HW113016   5.310   5.789   1.637
 4039SOL    HW213017   5.152   5.812   1.601
 4040SOL     OW13018   3.381   5.519   4.984
 4040SOL    HW113019   3.316   5.443   4.973
 4040SOL    HW213020   3.411   5.550   4.894
 4041SOL     OW13021   1.947   6.340   1.132
 4041SOL    HW113022   2.002   6.293   1.200
 4041SOL    HW213023   1.933   6.280   1.053
 4042SOL     OW13024   5.841   6.356   3.028
 4042SOL    HW113025   5.914   6.423   3.011
 4042SOL    HW213026   5.881   6.265   3.040
 4043SOL     OW13027   6.300   2.283   6.709
 4043SOL    HW113028   6.232   2.340   6.664
 4043SOL    HW213029   6.356   2.339   6.770
 4044SOL     OW13030   4.858   4.769   2.837
 4044SOL    HW113031   4.785   4.829   2.803
 4044SOL    HW213032   4.936   4.825   2.865
 4045SOL     OW13033   4.233   6.740   6.253
 4045SOL    HW113034   4.323   6.711   6.220
 4045SOL    HW213035   4.241   6.833   6.291
 4046SOL     OW13036   0.562   1.568   2.625
 4046SOL    HW113037   0.562   1.664   2.598
 4046SOL    HW213038   0.479   1.547   2.676
 4047SOL     OW13039   1.859   2.718   0.196
 4047SOL    HW113040   1.849   2.700   0.098
 4047SOL    HW213041   1.774   2.694   0.242
 4048SOL     OW13042   5.269   1.212   2.246
 4048SOL    HW113043   5.335   1.281   2.219
 4048SOL    HW213044   5.258   1.145   2.172
 4049SOL     OW13045   4.577   6.116   6.734
 4049SOL    HW113046   4.557   6.061   6.816
 4049SOL    HW213047   4.674   6.111   6.713
 4050SOL     OW13048   0.862   5.757   2.228
 4050SOL    HW113049   0.899   5.734   2.318
 4050SOL    HW213050   0.768   5.791   2.239
 4051SOL     OW13051   4.837   1.382   6.271
 4051SOL    HW113052   4.755   1.373   6.214
 4051SOL    HW213053   4.813   1.430   6.356
 4052SOL     OW13054   5.973   1.990   3.318
 4052SOL    HW113055   5.930   2.046   3.388
 4052SOL    HW213056   6.007   1.905   3.359
 4053SOL     OW13057   1.537   6.092   4.735
 4053SOL    HW113058   1.505   6.008   4.690
 4053SOL    HW213059   1.458   6.152   4.752
 4054SOL     OW13060   4.697   4.530   1.338
 4054SOL    HW113061   4.733   4.505   1.249
 4054SOL    HW213062   4.743   4.476   1.409
 4055SOL     OW13063   1.236   3.886   1.704
 4055SOL    HW113064   1.156   3.836   1.738
 4055SOL    HW213065   1.214   3.982   1.694
 4056SOL     OW13066   4.991   3.915   1.376
 4056SOL    HW113067   4.924   3.857   1.329
 4056SOL    HW213068   5.077   3.915   1.325
 4057SOL     OW13069   6.476   3.222   6.588
 4057SOL    HW113070   6.560   3.180   6.553
 4057SOL    HW213071   6.480   3.321   6.574
 4058SOL     OW13072   2.536   6.389   4.909
 4058SOL    HW113073   2.469   6.327   4.949
 4058SOL    HW213074   2.627   6.368   4.945
 4059SOL     OW13075   7.000   3.234   3.330
 4059SOL    HW113076   0.017   3.253   3.241
 4059SOL    HW213077   0.041   3.184   3.388
 4060SOL     OW13078   6.071   5.332   5.588
 4060SOL    HW113079   5.974   5.331   5.609
 4060SOL    HW213080   6.084   5.339   5.489
 4061SOL     OW13081   2.477   4.519   1.920
 4061SOL    HW113082   2.536   4.562   1.851
 4061SOL    HW213083   2.473   4.577   2.001
 4062SOL     OW13084   2.987   0.227   1.604
 4062SOL    HW113085   3.043   0.152   1.570
 4062SOL    HW213086   2.945   0.202   1.691
 4063SOL     OW13087   5.839   6.881   0.619
 4063SOL    HW113088   5.857   6.958   0.680
 4063SOL    HW213089   5.903   6.807   0.638
 4064SOL     OW13090   2.966   2.230   4.771
 4064SOL    HW113091   3.031   2.208   4.698
 4064SOL    HW213092   3.015   2.242   4.857
 4065SOL     OW13093   0.888   0.346   1.432
 4065SOL    HW113094   0.937   0.300   1.358
 4065SOL    HW213095   0.865   0.279   1.503
 4066SOL     OW13096   6.666   3.915   3.025
 4066SOL    HW113097   6.673   3.924   3.124
 4066SOL    HW213098   6.635   3.823   3.001
 4067SOL     OW13099   5.698   4.028   3.372
 4067SOL    HW113100   5.631   3.954   3.371
 4067SOL    HW213101   5.730   4.047   3.279
 4068SOL     OW13102   2.082   2.281   4.507
 4068SOL    HW113103   2.112   2.376   4.511
 4068SOL    HW213104   2.135   2.232   4.438
 4069SOL     OW13105   3.275   5.951   6.977
 4069SOL    HW113106   3.354   5.892   6.961
 4069SOL    HW213107   3.193   5.895   6.988
 4070SOL     OW13108   1.176   3.327   3.008
 4070SOL    HW113109   1.121   3.303   3.088
 4070SOL    HW213110   1.121   3.384   2.946
 4071SOL     OW13111   1.759   0.605   4.918
 4071SOL    HW113112   1.825   0.638   4.851
 4071SOL    HW213113   1.678   0.570   4.871
 4072SOL     OW13114   0.705   4.665   4.985
 4072SOL    HW113115   0.713   4.740   4.919
 4072SOL    HW213116   0.785   4.605   4.977
 4073SOL     OW13117   2.494   5.318   6.072
 4073SOL    HW113118   2.564   5.390   6.076
 4073SOL    HW213119   2.511   5.260   5.992
 4074SOL     OW13120   0.829   4.604   1.314
 4074SOL    HW113121   0.887   4.679   1.281
 4074SOL    HW213122   0.755   4.588   1.249
 4075SOL     OW13123   4.923   1.872   1.246
 4075SOL    HW113124   4.932   1.826   1.335
 4075SOL    HW213125   4.997   1.841   1.186
 4076SOL     OW13126   3.493   3.581   5.780
 4076SOL    HW113127   3.451   3.492   5.800
 4076SOL    HW213128   3.546   3.574   5.695
 4077SOL     OW13129   4.190   1.743   1.155
 4077SOL    HW113130   4.199   1.643   1.153
 4077SOL    HW213131   4.128   1.769   1.229
 4078SOL     OW13132   2.339   5.120   2.386
 4078SOL    HW113133   2.276   5.190   2.421
 4078SOL    HW213134   2.297   5.074   2.308
 4079SOL     OW13135   2.232   1.724   3.338
 4079SOL    HW113136   2.308   1.668   3.305
 4079SOL    HW213137   2.266   1.790   3.406
 4080SOL     OW13138   5.083   2.448   5.529
 4080SOL    HW113139   5.054   2.358   5.495
 4080SOL    HW213140   5.034   2.520   5.480
 4081SOL     OW13141   1.579   2.796   4.088
 4081SOL    HW113142   1.572   2.720   4.152
 4081SOL    HW213143   1.606   2.879   4.138
 4082SOL     OW13144   0.925   3.668   0.716
 4082SOL    HW113145   0.836   3.654   0.672
 4082SOL    HW213146   0.944   3.592   0.777
 4083SOL     OW13147   6.297   3.184   3.103
 4083SOL    HW113148   6.292   3.266   3.160
 4083SOL    HW213149   6.391   3.169   3.073
 4084SOL     OW13150   5.861   1.579   4.009
 4084SOL    HW113151   5.949   1.561   4.053
 4084SOL    HW213152   5.868   1.660   3.951
 4085SOL     OW13153   3.816   5.561   0.915
 4085SOL    HW113154   3.853   5.584   1.005
 4085SOL    HW213155   3.739   5.499   0.925
 4086SOL     OW13156   2.423   6.019   1.183
 4086SOL    HW113157   2.441   6.117   1.185
 4086SOL    HW213158   2.448   5.979   1.271
 4087SOL     OW13159   2.583   2.452   3.250
 4087SOL    HW113160   2.553   2.544   3.224
 4087SOL    HW213161   2.506   2.402   3.288
 4088SOL     OW13162   0.055   1.528   0.870
 4088SOL    HW113163   0.117   1.585   0.924
 4088SOL    HW213164   0.002   1.470   0.931
 4089SOL     OW13165   6.567   6.088   3.472
 4089SOL    HW113166   6.644   6.131   3.425
 4089SOL    HW213167   6.561   6.123   3.565
 4090SOL     OW13168   2.723   3.725   5.793
 4090SOL    HW113169   2.801   3.734   5.731
 4090SOL    HW213170   2.651   3.788   5.764
 4091SOL     OW13171   6.399   6.992   0.616
 4091SOL    HW113172   6.416   6.958   0.523
 4091SOL    HW213173   6.484   0.000   0.656
 4092SOL     OW13174   6.705   2.970   5.310
 4092SOL    HW113175   6.775   2.987   5.380
 4092SOL    HW213176   6.686   3.054   5.260
 4093SOL     OW13177   4.649   0.593   3.685
 4093SOL    HW113178   4.706   0.514   3.708
 4093SOL    HW213179   4.617   0.635   3.770
 4094SOL     OW13180   2.273   5.384   4.648
 4094SOL    HW113181   2.318   5.295   4.641
 4094SOL    HW213182   2.181   5.372   4.686
 4095SOL     OW13183   1.307   4.086   6.725
 4095SOL    HW113184   1.328   4.069   6.821
 4095SOL    HW213185   1.313   4.000   6.673
 4096SOL     OW13186   4.090   5.362   1.217
 4096SOL    HW113187   4.002   5.321   1.195
 4096SOL    HW213188   4.081   5.418   1.299
 4097SOL     OW13189   4.103   3.831   6.197
 4097SOL    HW113190   4.028   3.840   6.132
 4097SOL    HW213191   4.090   3.749   6.252
 4098SOL     OW13192   0.111   3.087   2.234
 4098SOL    HW113193   0.091   3.083   2.332
 4098SOL    HW213194   0.208   3.068   2.219
 4099SOL     OW13195   2.856   4.667   1.272
 4099SOL    HW113196   2.775   4.723   1.256
 4099SOL    HW213197   2.839   4.574   1.242
 4100SOL     OW13198   6.093   5.933   4.922
 4100SOL    HW113199   6.130   5.866   4.986
 4100SOL    HW213200   6.155   5.943   4.845
 4101SOL     OW13201   5.446   0.984   0.128
 4101SOL    HW113202   5.437   0.889   0.101
 4101SOL    HW213203   5.378   1.006   0.198
 4102SOL     OW13204   0.073   0.570   1.728
 4102SOL    HW113205   0.170   0.561   1.705
 4102SOL    HW213206   0.038   0.481   1.759
 4103SOL     OW13207   0.455   0.352   1.849
 4103SOL    HW113208   0.508   0.404   1.916
 4103SOL    HW213209   0.359   0.350   1.878
 4104SOL     OW13210   1.372   4.567   2.663
 4104SOL    HW113211   1.457   4.539   2.707
 4104SOL    HW213212   1.390   4.593   2.568
 4105SOL     OW13213   3.841   5.225   1.103
 4105SOL    HW113214   3.859   5.227   1.004
 4105SOL    HW213215   3.759   5.278   1.122
 4106SOL     OW13216   0.333   2.453   5.446
 4106SOL    HW113217   0.354   2.484   5.353
 4106SOL    HW213218   0.409   2.477   5.507
 4107SOL     OW13219   1.058   5.720   0.669
 4107SOL    HW113220   1.092   5.795   0.612
 4107SOL    HW213221   0.964   5.741   0.698
 4108SOL     OW13222   0.068   4.872   6.099
 4108SOL    HW113223   0.017   4.955   6.120
 4108SOL    HW213224   0.120   4.885   6.014
 4109SOL     OW13225   5.012   6.595   5.269
 4109SOL    HW113226   4.920   6.559   5.286
 4109SOL    HW213227   5.052   6.626   5.355
 4110SOL     OW13228   4.681   3.293   6.598
 4110SOL    HW113229   4.649   3.271   6.506
 4110SOL    HW213230   4.622   3.248   6.665
 4111SOL     OW13231   3.838   3.160   6.532
 4111SOL    HW113232   3.864   3.227   6.462
 4111SOL    HW213233   3.841   3.068   6.493
 4112SOL     OW13234   5.153   1.421   5.762
 4112SOL    HW113235   5.249   1.442   5.777
 4112SOL    HW213236   5.137   1.400   5.666
 4113SOL     OW13237   4.562   6.044   4.886
 4113SOL    HW113238   4.497   5.980   4.845
 4113SOL    HW213239   4.646   5.996   4.909
 4114SOL     OW13240   3.782   2.128   3.421
 4114SOL    HW113241   3.861   2.176   3.383
 4114SOL    HW213242   3.783   2.137   3.521
 4115SOL     OW13243   4.536   5.967   2.177
 4115SOL    HW113244   4.518   5.892   2.242
 4115SOL    HW213245   4.461   6.033   2.183
 4116SOL     OW13246   4.615   2.418   1.719
 4116SOL    HW113247   4.534   2.422   1.778
 4116SOL    HW213248   4.615   2.331   1.670
 4117SOL     OW13249   0.336   4.952   1.725
 4117SOL    HW113250   0.369   4.937   1.819
 4117SOL    HW213251   0.267   4.883   1.703
 4118SOL     OW13252   1.772   5.850   0.680
 4118SOL    HW113253   1.782   5.799   0.766
 4118SOL    HW213254   1.740   5.789   0.608
 4119SOL     OW13255   4.181   1.482   3.178
 4119SOL    HW113256   4.229   1.503   3.262
 4119SOL    HW213257   4.245   1.479   3.102
 4120SOL     OW13258   4.165   0.464   0.752
 4120SOL    HW113259   4.139   0.439   0.846
 4120SOL    HW213260   4.258   0.501   0.752
 4121SOL     OW13261   6.368   0.902   4.603
 4121SOL    HW113262   6.366   0.930   4.507
 4121SOL    HW213263   6.296   0.950   4.653
 4122SOL     OW13264   0.683   6.799   5.318
 4122SOL    HW113265   0.702   6.701   5.318
 4122SOL    HW213266   0.587   6.814   5.295
 4123SOL     OW13267   4.891   5.019   5.514
 4123SOL    HW113268   4.832   5.031   5.594
 4123SOL    HW213269   4.986   5.035   5.540
 4124SOL     OW13270   6.023   5.472   6.036
 4124SOL    HW113271   6.075   5.405   5.983
 4124SOL    HW213272   6.019   5.558   5.987
 4125SOL     OW13273   4.420   1.143   2.295
 4125SOL    HW113274   4.365   1.179   2.219
 4125SOL    HW213275   4.456   1.220   2.349
 4126SOL     OW13276   1.412   4.577   4.127
 4126SOL    HW113277   1.317   4.554   4.105
 4126SOL    HW213278   1.462   4.494   4.150
 4127SOL     OW13279   4.942   4.523   4.509
 4127SOL    HW113280   4.983   4.452   4.452
 4127SOL    HW213281   4.859   4.558   4.465
 4128SOL     OW13282   1.865   3.612   2.350
 4128SOL    HW113283   1.868   3.589   2.447
 4128SOL    HW213284   1.957   3.607   2.312
 4129SOL     OW13285   5.494   1.257   6.358
 4129SOL    HW113286   5.495   1.164   6.396
 4129SOL    HW213287   5.484   1.253   6.259
 4130SOL     OW13288   0.135   3.617   5.845
 4130SOL    HW113289   0.072   3.546   5.815
 4130SOL    HW213290   0.085   3.704   5.854
 4131SOL     OW13291   0.961   6.006   3.795
 4131SOL    HW113292   0.997   6.097   3.817
 4131SOL    HW213293   1.023   5.936   3.831
 4132SOL     OW13294   5.336   4.505   3.707
 4132SOL    HW113295   5.238   4.496   3.724
 4132SOL    HW213296   5.362   4.601   3.716
 4133SOL     OW13297   2.908   6.958   1.360
 4133SOL    HW113298   2.821   6.984   1.402
 4133SOL    HW213299   2.930   6.864   1.387
 4134SOL     OW13300   1.804   2.430   0.975
 4134SOL    HW113301   1.734   2.392   0.913
 4134SOL    HW213302   1.761   2.452   1.062
 4135SOL     OW13303   2.140   0.777   2.607
 4135SOL    HW113304   2.236   0.791   2.632
 4135SOL    HW213305   2.130   0.687   2.565
 4136SOL     OW13306   0.758   2.021   3.175
 4136SOL    HW113307   0.680   1.967   3.144
 4136SOL    HW213308   0.737   2.118   3.169
 4137SOL     OW13309   2.242   3.494   1.203
 4137SOL    HW113310   2.276   3.559   1.271
 4137SOL    HW213311   2.246   3.401   1.240
 4138SOL     OW13312   3.687   5.689   3.603
 4138SOL    HW113313   3.650   5.678   3.696
 4138SOL    HW213314   3.661   5.610   3.548
 4139SOL     OW13315   2.142   2.000   5.741
 4139SOL    HW113316   2.130   2.043   5.831
 4139SOL    HW213317   2.230   2.027   5.703
 4140SOL     OW13318   2.847   0.198   5.280
 4140SOL    HW113319   2.802   0.109   5.274
 4140SOL    HW213320   2.836   0.247   5.193
 4141SOL     OW13321   4.851   5.554   1.238
 4141SOL    HW113322   4.783   5.517   1.174
 4141SOL    HW213323   4.805   5.612   1.306
 4142SOL     OW13324   6.799   5.866   0.592
 4142SOL    HW113325   6.821   5.959   0.620
 4142SOL    HW213326   6.725   5.868   0.525
 4143SOL     OW13327   6.853   3.248   0.136
 4143SOL    HW113328   6.876   3.337   0.097
 4143SOL    HW213329   6.934   3.210   0.181
 4144SOL     OW13330   5.937   2.824   0.611
 4144SOL    HW113331   6.011   2.885   0.585
 4144SOL    HW213332   5.862   2.831   0.545
 4145SOL     OW13333   0.123   5.626   1.888
 4145SOL    HW113334   0.147   5.718   1.858
 4145SOL    HW213335   0.023   5.616   1.887
 4146SOL     OW13336   6.101   0.373   5.090
 4146SOL    HW113337   6.186   0.369   5.039
 4146SOL    HW213338   6.119   0.356   5.187
 4147SOL     OW13339   3.803   1.790   5.517
 4147SOL    HW113340   3.753   1.725   5.573
 4147SOL    HW213341   3.747   1.818   5.439
 4148SOL     OW13342   0.705   0.273   3.795
 4148SOL    HW113343   0.650   0.193   3.772
 4148SOL    HW213344   0.678   0.350   3.738
 4149SOL     OW13345   0.798   3.444   0.223
 4149SOL    HW113346   0.766   3.367   0.279
 4149SOL    HW213347   0.719   3.498   0.193
 4150SOL     OW13348   6.295   0.721   6.106
 4150SOL    HW113349   6.368   0.735   6.039
 4150SOL    HW213350   6.324   0.758   6.195
 4151SOL     OW13351   5.009   6.154   6.794
 4151SOL    HW113352   5.038   6.084   6.859
 4151SOL    HW213353   5.007   6.243   6.839
 4152SOL     OW13354   2.717   5.482   1.440
 4152SOL    HW113355   2.678   5.568   1.406
 4152SOL    HW213356   2.803   5.463   1.392
 4153SOL     OW13357   5.027   5.398   5.994
 4153SOL    HW113358   5.081   5.326   6.039
 4153SOL    HW213359   4.990   5.363   5.909
 4154SOL     OW13360   6.680   3.936   5.414
 4154SOL    HW113361   6.590   3.903   5.441
 4154SOL    HW213362   6.751   3.877   5.452
 4155SOL     OW13363   6.427   3.023   3.375
 4155SOL    HW113364   6.459   2.966   3.451
 4155SOL    HW213365   6.457   3.117   3.389
 4156SOL     OW13366   5.341   0.064   5.583
 4156SOL    HW113367   5.317   0.121   5.504
 4156SOL    HW213368   5.395   7.010   5.552
 4157SOL     OW13369   3.861   6.986   3.580
 4157SOL    HW113370   3.780   0.000   3.537
 4157SOL    HW213371   3.926   0.035   3.601
 4158SOL     OW13372   1.275   5.366   4.328
 4158SOL    HW113373   1.278   5.287   4.267
 4158SOL    HW213374   1.307   5.447   4.280
 4159SOL     OW13375   1.790   3.456   3.885
 4159SOL    HW113376   1.888   3.437   3.890
 4159SOL    HW213377   1.764   3.471   3.790
 4160SOL     OW13378   6.446   0.561   0.772
 4160SOL    HW113379   6.487   0.525   0.856
 4160SOL    HW213380   6.438   0.487   0.705
 4161SOL     OW13381   2.247   6.406   6.285
 4161SOL    HW113382   2.188   6.337   6.244
 4161SOL    HW213383   2.312   6.362   6.348
 4162SOL     OW13384   6.475   0.311   4.741
 4162SOL    HW113385   6.486   0.387   4.677
 4162SOL    HW213386   6.440   0.345   4.828
 4163SOL     OW13387   6.039   1.521   3.236
 4163SOL    HW113388   5.956   1.464   3.226
 4163SOL    HW213389   6.028   1.604   3.182
 4164SOL     OW13390   1.656   6.677   6.144
 4164SOL    HW113391   1.596   6.705   6.069
 4164SOL    HW213392   1.664   6.752   6.210
 4165SOL     OW13393   5.040   0.251   0.470
 4165SOL    HW113394   5.006   0.158   0.483
 4165SOL    HW213395   4.963   0.315   0.470
 4166SOL     OW13396   5.563   2.512   0.967
 4166SOL    HW113397   5.593   2.436   0.910
 4166SOL    HW213398   5.464   2.512   0.974
 4167SOL     OW13399   2.507   3.632   0.626
 4167SOL    HW113400   2.513   3.640   0.527
 4167SOL    HW213401   2.560   3.552   0.657
 4168SOL     OW13402   0.487   4.733   1.295
 4168SOL    HW113403   0.405   4.683   1.269
 4168SOL    HW213404   0.463   4.807   1.357
 4169SOL     OW13405   5.759   3.708   4.346
 4169SOL    HW113406   5.802   3.706   4.256
 4169SOL    HW213407   5.664   3.680   4.338
 4170SOL     OW13408   3.736   2.864   5.074
 4170SOL    HW113409   3.827   2.883   5.113
 4170SOL    HW213410   3.742   2.865   4.974
 4171SOL     OW13411   5.408   4.649   0.730
 4171SOL    HW113412   5.320   4.692   0.708
 4171SOL    HW213413   5.395   4.579   0.799
 4172SOL     OW13414   6.770   2.312   6.541
 4172SOL    HW113415   6.713   2.240   6.501
 4172SOL    HW213416   6.744   2.327   6.636
 4173SOL     OW13417   5.892   3.150   4.804
 4173SOL    HW113418   5.894   3.179   4.899
 4173SOL    HW213419   5.948   3.212   4.749
 4174SOL     OW13420   5.736   0.829   3.783
 4174SOL    HW113421   5.800   0.815   3.707
 4174SOL    HW213422   5.721   0.927   3.796
 4175SOL     OW13423   2.685   6.496   4.684
 4175SOL    HW113424   2.636   6.480   4.597
 4175SOL    HW213425   2.619   6.522   4.754
 4176SOL     OW13426   3.347   6.918   2.300
 4176SOL    HW113427   3.421   6.904   2.235
 4176SOL    HW213428   3.369   6.996   2.359
 4177SOL     OW13429   0.554   5.288   5.593
 4177SOL    HW113430   0.535   5.301   5.690
 4177SOL    HW213431   0.560   5.377   5.548
 4178SOL     OW13432   3.364   0.848   4.480
 4178SOL    HW113433   3.371   0.820   4.384
 4178SOL    HW213434   3.433   0.800   4.534
 4179SOL     OW13435   4.920   3.552   4.105
 4179SOL    HW113436   4.968   3.572   4.020
 4179SOL    HW213437   4.917   3.454   4.120
 4180SOL     OW13438   5.264   4.107   2.639
 4180SOL    HW113439   5.266   4.041   2.714
 4180SOL    HW213440   5.258   4.200   2.675
 4181SOL     OW13441   2.159   1.546   5.897
 4181SOL    HW113442   2.259   1.557   5.892
 4181SOL    HW213443   2.115   1.630   5.864
 4182SOL     OW13444   0.150   0.202   3.092
 4182SOL    HW113445   0.240   0.190   3.049
 4182SOL    HW213446   0.106   0.285   3.055
 4183SOL     OW13447   3.059   1.697   1.609
 4183SOL    HW113448   3.109   1.625   1.657
 4183SOL    HW213449   3.118   1.778   1.599
 4184SOL     OW13450   3.963   4.436   1.459
 4184SOL    HW113451   4.050   4.403   1.424
 4184SOL    HW213452   3.949   4.402   1.552
 4185SOL     OW13453   0.669   5.449   3.331
 4185SOL    HW113454   0.673   5.467   3.233
 4185SOL    HW213455   0.753   5.481   3.374
 4186SOL     OW13456   2.250   4.224   0.093
 4186SOL    HW113457   2.311   4.299   0.065
 4186SOL    HW213458   2.157   4.244   0.064
 4187SOL     OW13459   3.669   3.064   6.201
 4187SOL    HW113460   3.657   3.158   6.235
 4187SOL    HW213461   3.715   3.067   6.113
 4188SOL     OW13462   4.869   0.272   4.375
 4188SOL    HW113463   4.921   0.349   4.339
 4188SOL    HW213464   4.922   0.188   4.362
 4189SOL     OW13465   3.094   1.870   4.466
 4189SOL    HW113466   3.033   1.871   4.386
 4189SOL    HW213467   3.177   1.921   4.445
 4190SOL     OW13468   2.654   6.955   6.449
 4190SOL    HW113469   2.628   6.935   6.355
 4190SOL    HW213470   2.752   6.973   6.454
 4191SOL     OW13471   5.961   3.546   3.008
 4191SOL    HW113472   5.950   3.611   2.933
 4191SOL    HW213473   5.994   3.459   2.971
 4192SOL     OW13474   6.859   1.851   3.323
 4192SOL    HW113475   6.889   1.768   3.277
 4192SOL    HW213476   6.904   1.930   3.281
 4193SOL     OW13477   2.514   6.276   1.234
 4193SOL    HW113478   2.443   6.344   1.253
 4193SOL    HW213479   2.566   6.304   1.153
 4194SOL     OW13480   6.557   2.015   4.838
 4194SOL    HW113481   6.611   1.940   4.875
 4194SOL    HW213482   6.567   2.096   4.896
 4195SOL     OW13483   3.840   0.740   1.817
 4195SOL    HW113484   3.890   0.813   1.865
 4195SOL    HW213485   3.819   0.666   1.881
 4196SOL     OW13486   5.966   2.529   4.449
 4196SOL    HW113487   5.951   2.495   4.356
 4196SOL    HW213488   5.893   2.495   4.508
 4197SOL     OW13489   5.057   4.657   4.100
 4197SOL    HW113490   5.089   4.654   4.005
 4197SOL    HW213491   5.135   4.655   4.162
 4198SOL     OW13492   6.225   3.769   0.172
 4198SOL    HW113493   6.175   3.705   0.114
 4198SOL    HW213494   6.218   3.861   0.133
 4199SOL     OW13495   2.742   3.062   6.002
 4199SOL    HW113496   2.676   3.128   6.038
 4199SOL    HW213497   2.708   3.026   5.915
 4200SOL     OW13498   2.871   6.412   5.741
 4200SOL    HW113499   2.831   6.378   5.656
 4200SOL    HW213500   2.964   6.446   5.723
 4201SOL     OW13501   6.116   6.571   3.708
 4201SOL    HW113502   6.047   6.633   3.670
 4201SOL    HW213503   6.070   6.497   3.758
 4202SOL     OW13504   4.550   4.720   5.642
 4202SOL    HW113505   4.558   4.621   5.628
 4202SOL    HW213506   4.478   4.738   5.709
 4203SOL     OW13507   4.385   5.845   2.895
 4203SOL    HW113508   4.327   5.901   2.954
 4203SOL    HW213509   4.407   5.759   2.941
 4204SOL     OW13510   3.295   3.069   2.067
 4204SOL    HW113511   3.218   3.108   2.016
 4204SOL    HW213512   3.260   3.018   2.145
 4205SOL     OW13513   3.651   4.938   4.112
 4205SOL    HW113514   3.582   4.950   4.040
 4205SOL    HW213515   3.606   4.940   4.201
 4206SOL     OW13516   4.625   0.959   6.367
 4206SOL    HW113517   4.583   0.899   6.435
 4206SOL    HW213518   4.636   1.051   6.406
 4207SOL     OW13519   1.994   1.348   1.818
 4207SOL    HW113520   2.004   1.280   1.746
 4207SOL    HW213521   2.013   1.439   1.781
 4208SOL     OW13522   1.292   2.059   1.120
 4208SOL    HW113523   1.236   2.061   1.037
 4208SOL    HW213524   1.387   2.081   1.097
 4209SOL     OW13525   1.525   0.972   4.935
 4209SOL    HW113526   1.482   0.925   4.857
 4209SOL    HW213527   1.487   1.064   4.943
 4210SOL     OW13528   3.186   3.453   1.826
 4210SOL    HW113529   3.108   3.511   1.801
 4210SOL    HW213530   3.270   3.491   1.786
 4211SOL     OW13531   5.220   5.614   5.600
 4211SOL    HW113532   5.243   5.561   5.518
 4211SOL    HW213533   5.235   5.711   5.583
 4212SOL     OW13534   0.020   1.875   2.024
 4212SOL    HW113535   7.015   1.957   1.976
 4212SOL    HW213536   0.118   1.862   2.011
 4213SOL     OW13537   2.514   0.641   2.554
 4213SOL    HW113538   2.565   0.726   2.566
 4213SOL    HW213539   2.469   0.616   2.639
 4214SOL     OW13540   1.040   3.824   6.344
 4214SOL    HW113541   1.037   3.921   6.322
 4214SOL    HW213542   1.023   3.770   6.262
 4215SOL     OW13543   0.247   5.692   4.419
 4215SOL    HW113544   0.304   5.738   4.350
 4215SOL    HW213545   0.183   5.758   4.458
 4216SOL     OW13546   1.155   1.996   4.115
 4216SOL    HW113547   1.214   2.010   4.194
 4216SOL    HW213548   1.074   1.944   4.142
 4217SOL     OW13549   6.856   6.710   2.974
 4217SOL    HW113550   6.793   6.657   3.030
 4217SOL    HW213551   6.919   6.648   2.927
 4218SOL     OW13552   4.988   0.022   1.732
 4218SOL    HW113553   5.069   0.067   1.769
 4218SOL    HW213554   5.010   6.951   1.712
 4219SOL     OW13555   3.070   4.793   5.268
 4219SOL    HW113556   3.010   4.873   5.261
 4219SOL    HW213557   3.019   4.710   5.247
 4220SOL     OW13558   6.645   3.600   2.991
 4220SOL    HW113559   6.679   3.646   2.908
 4220SOL    HW213560   6.678   3.506   2.992
 4221SOL     OW13561   5.974   6.013   6.813
 4221SOL    HW113562   5.935   6.044   6.899
 4221SOL    HW213563   5.923   5.935   6.779
 4222SOL     OW13564   6.451   1.721   2.395
 4222SOL    HW113565   6.469   1.683   2.304
 4222SOL    HW213566   6.353   1.732   2.408
 4223SOL     OW13567   3.673   3.154   2.987
 4223SOL    HW113568   3.650   3.135   2.891
 4223SOL    HW213569   3.671   3.069   3.039
 4224SOL     OW13570   5.046   3.255   4.160
 4224SOL    HW113571   5.085   3.164   4.169
 4224SOL    HW213572   5.074   3.311   4.239
 4225SOL     OW13573   5.651   0.713   5.125
 4225SOL    HW113574   5.717   0.642   5.099
 4225SOL    HW213575   5.699   0.786   5.174
 4226SOL     OW13576   2.021   1.842   3.835
 4226SOL    HW113577   2.039   1.745   3.848
 4226SOL    HW213578   2.060   1.872   3.748
 4227SOL     OW13579   3.753   4.547   6.612
 4227SOL    HW113580   3.674   4.487   6.627
 4227SOL    HW213581   3.827   4.495   6.569
 4228SOL     OW13582   5.776   6.415   4.354
 4228SOL    HW113583   5.782   6.324   4.313
 4228SOL    HW213584   5.868   6.452   4.366
 4229SOL     OW13585   3.925   4.774   5.922
 4229SOL    HW113586   3.858   4.842   5.894
 4229SOL    HW213587   4.014   4.796   5.882
 4230SOL     OW13588   2.466   0.229   4.961
 4230SOL    HW113589   2.378   0.183   4.974
 4230SOL    HW213590   2.468   0.274   4.872
 4231SOL     OW13591   5.111   6.521   5.536
 4231SOL    HW113592   5.098   6.620   5.526
 4231SOL    HW213593   5.029   6.480   5.576
 4232SOL     OW13594   1.057   5.403   2.030
 4232SOL    HW113595   1.101   5.442   1.950
 4232SOL    HW213596   0.957   5.408   2.019
 4233SOL     OW13597   6.009   0.784   6.939
 4233SOL    HW113598   5.943   0.718   6.902
 4233SOL    HW213599   6.100   0.743   6.941
 4234SOL     OW13600   1.984   5.190   5.783
 4234SOL    HW113601   1.995   5.108   5.839
 4234SOL    HW213602   2.071   5.214   5.742
 4235SOL     OW13603   6.139   4.237   5.670
 4235SOL    HW113604   6.066   4.278   5.616
 4235SOL    HW213605   6.109   4.148   5.705
 4236SOL     OW13606   6.904   3.062   4.095
 4236SOL    HW113607   6.910   2.970   4.057
 4236SOL    HW213608   6.989   3.084   4.143
 4237SOL     OW13609   6.236   3.779   4.294
 4237SOL    HW113610   6.150   3.747   4.334
 4237SOL    HW213611   6.285   3.836   4.359
 4238SOL     OW13612   4.169   4.726   3.676
 4238SOL    HW113613   4.108   4.698   3.750
 4238SOL    HW213614   4.127   4.800   3.624
 4239SOL     OW13615   4.720   6.974   4.558
 4239SOL    HW113616   4.772   6.956   4.474
 4239SOL    HW213617   4.729   0.046   4.582
 4240SOL     OW13618   2.764   5.978   6.403
 4240SOL    HW113619   2.765   6.048   6.474
 4240SOL    HW213620   2.684   5.991   6.344
 4241SOL     OW13621   5.266   0.525   1.110
 4241SOL    HW113622   5.182   0.490   1.152
 4241SOL    HW213623   5.305   0.596   1.169
 4242SOL     OW13624   2.470   6.673   2.658
 4242SOL    HW113625   2.465   6.693   2.755
 4242SOL    HW213626   2.415   6.592   2.637
 4243SOL     OW13627   0.324   3.986   2.346
 4243SOL    HW113628   0.354   4.068   2.395
 4243SOL    HW213629   0.382   3.909   2.372
 4244SOL     OW13630   4.849   6.271   0.675
 4244SOL    HW113631   4.754   6.248   0.655
 4244SOL    HW213632   4.904   6.260   0.592
 4245SOL     OW13633   6.428   2.976   0.507
 4245SOL    HW113634   6.406   2.882   0.534
 4245SOL    HW213635   6.521   2.980   0.471
 4246SOL     OW13636   5.649   2.500   2.977
 4246SOL    HW113637   5.678   2.418   3.026
 4246SOL    HW213638   5.581   2.475   2.908
 4247SOL     OW13639   2.765   5.533   4.486
 4247SOL    HW113640   2.687   5.473   4.468
 4247SOL    HW213641   2.828   5.488   4.549
 4248SOL     OW13642   1.944   0.667   2.881
 4248SOL    HW113643   1.905   0.712   2.962
 4248SOL    HW213644   1.978   0.735   2.818
 4249SOL     OW13645   0.252   1.788   4.203
 4249SOL    HW113646   0.280   1.880   4.231
 4249SOL    HW213647   0.159   1.792   4.167
 4250SOL     OW13648   0.370   5.667   3.960
 4250SOL    HW113649   0.282   5.710   3.941
 4250SOL    HW213650   0.357   5.570   3.981
 4251SOL     OW13651   5.373   2.985   6.665
 4251SOL    HW113652   5.300   3.006   6.729
 4251SOL    HW213653   5.461   3.008   6.706
 4252SOL     OW13654   6.112   5.745   5.357
 4252SOL    HW113655   6.174   5.671   5.386
 4252SOL    HW213656   6.138   5.830   5.403
 4253SOL     OW13657   3.957   6.409   1.996
 4253SOL    HW113658   3.940   6.353   2.076
 4253SOL    HW213659   4.051   6.397   1.966
 4254SOL     OW13660   2.075   3.670   0.497
 4254SOL    HW113661   2.092   3.706   0.589
 4254SOL    HW213662   1.996   3.717   0.456
 4255SOL     OW13663   0.738   4.516   3.808
 4255SOL    HW113664   0.741   4.521   3.908
 4255SOL    HW213665   0.702   4.602   3.772
 4256SOL     OW13666   0.432   4.974   1.439
 4256SOL    HW113667   0.356   5.029   1.475
 4256SOL    HW213668   0.428   4.973   1.339
 4257SOL     OW13669   6.046   1.416   5.157
 4257SOL    HW113670   5.990   1.492   5.123
 4257SOL    HW213671   6.072   1.434   5.252
 4258SOL     OW13672   3.258   5.292   1.180
 4258SOL    HW113673   3.236   5.297   1.278
 4258SOL    HW213674   3.279   5.384   1.146
 4259SOL     OW13675   1.816   0.220   1.452
 4259SOL    HW113676   1.775   0.208   1.361
 4259SOL    HW213677   1.877   0.300   1.451
 4260SOL     OW13678   4.698   0.171   4.163
 4260SOL    HW113679   4.731   0.217   4.246
 4260SOL    HW213680   4.772   0.119   4.122
 4261SOL     OW13681   1.913   0.660   4.704
 4261SOL    HW113682   2.012   0.647   4.695
 4261SOL    HW213683   1.877   0.698   4.619
 4262SOL     OW13684   1.211   4.830   6.025
 4262SOL    HW113685   1.246   4.794   6.111
 4262SOL    HW213686   1.122   4.874   6.041
 4263SOL     OW13687   2.797   2.299   3.289
 4263SOL    HW113688   2.782   2.255   3.377
 4263SOL    HW213689   2.713   2.344   3.259
 4264SOL     OW13690   5.964   1.133   4.384
 4264SOL    HW113691   5.896   1.104   4.451
 4264SOL    HW213692   5.925   1.205   4.327
 4265SOL     OW13693   3.153   0.177   1.123
 4265SOL    HW113694   3.205   0.249   1.077
 4265SOL    HW213695   3.182   0.087   1.088
 4266SOL     OW13696   1.202   6.996   0.539
 4266SOL    HW113697   1.171   0.010   0.626
 4266SOL    HW213698   1.206   0.043   0.469
 4267SOL     OW13699   2.279   4.054   3.779
 4267SOL    HW113700   2.378   4.042   3.784
 4267SOL    HW213701   2.233   3.968   3.801
 4268SOL     OW13702   1.344   5.008   6.939
 4268SOL    HW113703   1.419   5.068   6.911
 4268SOL    HW213704   1.260   5.062   6.949
 4269SOL     OW13705   3.370   1.716   3.796
 4269SOL    HW113706   3.315   1.793   3.762
 4269SOL    HW213707   3.420   1.744   3.877
 4270SOL     OW13708   3.795   2.872   1.286
 4270SOL    HW113709   3.821   2.798   1.223
 4270SOL    HW213710   3.859   2.948   1.276
 4271SOL     OW13711   6.263   0.425   1.314
 4271SOL    HW113712   6.201   0.408   1.390
 4271SOL    HW213713   6.251   0.355   1.244
 4272SOL     OW13714   0.018   3.154   5.846
 4272SOL    HW113715   0.028   3.163   5.945
 4272SOL    HW213716   7.014   3.242   5.807
 4273SOL     OW13717   4.729   6.561   5.003
 4273SOL    HW113718   4.761   6.549   4.909
 4273SOL    HW213719   4.797   6.523   5.066
 4274SOL     OW13720   0.212   6.695   1.943
 4274SOL    HW113721   0.217   6.773   2.005
 4274SOL    HW213722   0.117   6.684   1.911
 4275SOL     OW13723   0.616   2.541   3.711
 4275SOL    HW113724   0.703   2.530   3.662
 4275SOL    HW213725   0.634   2.581   3.801
 4276SOL     OW13726   2.776   5.089   3.808
 4276SOL    HW113727   2.824   5.113   3.724
 4276SOL    HW213728   2.685   5.055   3.785
 4277SOL     OW13729   6.533   4.935   3.959
 4277SOL    HW113730   6.619   4.894   3.987
 4277SOL    HW213731   6.516   4.914   3.863
 4278SOL     OW13732   6.469   6.331   2.983
 4278SOL    HW113733   6.462   6.350   2.886
 4278SOL    HW213734   6.381   6.349   3.028
 4279SOL     OW13735   1.219   1.477   2.611
 4279SOL    HW113736   1.133   1.520   2.640
 4279SOL    HW213737   1.295   1.520   2.660
 4280SOL     OW13738   6.336   6.589   6.622
 4280SOL    HW113739   6.274   6.517   6.654
 4280SOL    HW213740   6.298   6.678   6.646
 4281SOL     OW13741   4.506   5.725   3.956
 4281SOL    HW113742   4.448   5.712   3.875
 4281SOL    HW213743   4.479   5.660   4.027
 4282SOL     OW13744   2.963   3.873   1.005
 4282SOL    HW113745   2.950   3.886   1.103
 4282SOL    HW213746   2.885   3.823   0.967
 4283SOL     OW13747   5.219   0.529   2.968
 4283SOL    HW113748   5.191   0.582   3.048
 4283SOL    HW213749   5.307   0.562   2.935
 4284SOL     OW13750   4.307   5.313   0.504
 4284SOL    HW113751   4.337   5.222   0.532
 4284SOL    HW213752   4.371   5.350   0.436
 4285SOL     OW13753   3.201   0.384   6.297
 4285SOL    HW113754   3.235   0.402   6.205
 4285SOL    HW213755   3.253   0.309   6.338
 4286SOL     OW13756   6.415   1.448   0.230
 4286SOL    HW113757   6.475   1.379   0.269
 4286SOL    HW213758   6.320   1.422   0.245
 4287SOL     OW13759   4.516   0.587   6.945
 4287SOL    HW113760   4.432   0.536   6.959
 4287SOL    HW213761   4.584   0.559   7.012
 4288SOL     OW13762   6.294   6.132   1.747
 4288SOL    HW113763   6.233   6.105   1.673
 4288SOL    HW213764   6.389   6.114   1.720
 4289SOL     OW13765   0.631   2.556   5.642
 4289SOL    HW113766   0.620   2.655   5.635
 4289SOL    HW213767   0.666   2.519   5.556
 4290SOL     OW13768   0.319   0.358   3.328
 4290SOL    HW113769   0.270   0.444   3.340
 4290SOL    HW213770   0.254   0.286   3.305
 4291SOL     OW13771   4.674   3.106   5.899
 4291SOL    HW113772   4.626   3.121   5.985
 4291SOL    HW213773   4.642   3.021   5.857
 4292SOL     OW13774   4.817   2.184   7.024
 4292SOL    HW113775   4.879   2.148   6.955
 4292SOL    HW213776   4.761   2.109   0.036
 4293SOL     OW13777   5.342   4.056   6.734
 4293SOL    HW113778   5.285   4.057   6.652
 4293SOL    HW213779   5.300   3.997   6.803
 4294SOL     OW13780   2.950   1.994   6.145
 4294SOL    HW113781   3.014   2.018   6.218
 4294SOL    HW213782   2.971   2.048   6.063
 4295SOL     OW13783   4.217   6.784   2.364
 4295SOL    HW113784   4.300   6.741   2.329
 4295SOL    HW213785   4.202   6.756   2.459
 4296SOL     OW13786   3.120   6.302   1.095
 4296SOL    HW113787   3.022   6.318   1.104
 4296SOL    HW213788   3.156   6.264   1.180
 4297SOL     OW13789   6.961   5.384   0.948
 4297SOL    HW113790   6.931   5.347   0.860
 4297SOL    HW213791   7.023   5.319   0.992
 4298SOL     OW13792   3.478   6.222   1.372
 4298SOL    HW113793   3.554   6.194   1.314
 4298SOL    HW213794   3.504   6.302   1.426
 4299SOL     OW13795   0.431   2.316   6.681
 4299SOL    HW113796   0.366   2.258   6.731
 4299SOL    HW213797   0.488   2.259   6.623
 4300SOL     OW13798   3.655   0.713   1.054
 4300SOL    HW113799   3.569   0.754   1.024
 4300SOL    HW213800   3.720   0.785   1.075
 4301SOL     OW13801   3.070   5.988   1.521
 4301SOL    HW113802   3.139   5.936   1.572
 4301SOL    HW213803   2.996   6.013   1.583
 4302SOL     OW13804   0.388   6.738   6.800
 4302SOL    HW113805   0.408   6.715   6.705
 4302SOL    HW213806   0.334   6.664   6.842
 4303SOL     OW13807   6.825   4.876   4.040
 4303SOL    HW113808   6.919   4.895   4.011
 4303SOL    HW213809   6.819   4.780   4.070
 4304SOL     OW13810   3.146   3.683   1.612
 4304SOL    HW113811   3.126   3.602   1.557
 4304SOL    HW213812   3.241   3.680   1.643
 4305SOL     OW13813   0.434   6.884   5.689
 4305SOL    HW113814   0.402   6.796   5.721
 4305SOL    HW213815   0.533   6.889   5.699
 4306SOL     OW13816   4.890   3.894   4.477
 4306SOL    HW113817   4.886   3.805   4.523
 4306SOL    HW213818   4.904   3.880   4.379
 4307SOL     OW13819   6.407   2.915   5.657
 4307SOL    HW113820   6.413   2.842   5.589
 4307SOL    HW213821   6.312   2.939   5.674
 4308SOL     OW13822   4.945   5.401   1.915
 4308SOL    HW113823   4.857   5.439   1.945
 4308SOL    HW213824   4.971   5.326   1.974
 4309SOL     OW13825   0.902   3.309   7.014
 4309SOL    HW113826   0.880   3.330   0.085
 4309SOL    HW213827   0.835   3.352   6.954
 4310SOL     OW13828   1.357   1.992   2.544
 4310SOL    HW113829   1.277   2.052   2.547
 4310SOL    HW213830   1.330   1.903   2.508
 4311SOL     OW13831   1.034   6.218   2.189
 4311SOL    HW113832   0.942   6.231   2.151
 4311SOL    HW213833   1.037   6.258   2.281
 4312SOL     OW13834   1.047   4.686   2.083
 4312SOL    HW113835   1.089   4.612   2.031
 4312SOL    HW213836   1.089   4.689   2.174
 4313SOL     OW13837   5.116   1.846   0.380
 4313SOL    HW113838   5.040   1.803   0.428
 4313SOL    HW213839   5.163   1.777   0.325
 4314SOL     OW13840   6.562   2.726   6.048
 4314SOL    HW113841   6.588   2.658   6.116
 4314SOL    HW213842   6.621   2.806   6.056
 4315SOL     OW13843   2.042   1.740   3.073
 4315SOL    HW113844   2.001   1.675   3.138
 4315SOL    HW213845   2.057   1.828   3.119
 4316SOL     OW13846   5.230   0.776   2.257
 4316SOL    HW113847   5.229   0.873   2.283
 4316SOL    HW213848   5.180   0.723   2.325
 4317SOL     OW13849   4.455   0.769   5.447
 4317SOL    HW113850   4.357   0.777   5.463
 4317SOL    HW213851   4.502   0.759   5.535
 4318SOL     OW13852   0.628   0.955   4.288
 4318SOL    HW113853   0.706   1.015   4.267
 4318SOL    HW213854   0.649   0.862   4.260
 4319SOL     OW13855   1.568   2.773   1.731
 4319SOL    HW113856   1.541   2.825   1.812
 4319SOL    HW213857   1.497   2.707   1.708
 4320SOL     OW13858   3.735   6.082   0.425
 4320SOL    HW113859   3.711   6.146   0.352
 4320SOL    HW213860   3.682   6.104   0.507
 4321SOL     OW13861   6.945   5.985   2.659
 4321SOL    HW113862   6.847   6.001   2.663
 4321SOL    HW213863   6.976   5.940   2.742
 4322SOL     OW13864   0.712   2.419   5.397
 4322SOL    HW113865   0.776   2.357   5.443
 4322SOL    HW213866   0.747   2.442   5.306
 4323SOL     OW13867   3.826   5.647   0.078
 4323SOL    HW113868   3.901   5.663   0.142
 4323SOL    HW213869   3.855   5.675   7.011
 4324SOL     OW13870   0.667   3.707   5.597
 4324SOL    HW113871   0.621   3.771   5.535
 4324SOL    HW213872   0.685   3.753   5.684
 4325SOL     OW13873   2.974   0.587   3.231
 4325SOL    HW113874   3.045   0.625   3.171
 4325SOL    HW213875   2.952   0.654   3.302
 4326SOL     OW13876   5.161   3.009   2.464
 4326SOL    HW113877   5.151   3.107   2.486
 4326SOL    HW213878   5.256   2.990   2.442
 4327SOL     OW13879   3.404   5.345   3.461
 4327SOL    HW113880   3.340   5.349   3.538
 4327SOL    HW213881   3.359   5.304   3.382
 4328SOL     OW13882   6.474   5.155   4.911
 4328SOL    HW113883   6.397   5.096   4.888
 4328SOL    HW213884   6.525   5.116   4.988
 4329SOL     OW13885   5.500   3.110   5.218
 4329SOL    HW113886   5.493   3.140   5.123
 4329SOL    HW213887   5.448   3.026   5.230
 4330SOL     OW13888   2.466   6.275   5.211
 4330SOL    HW113889   2.368   6.275   5.189
 4330SOL    HW213890   2.479   6.246   5.306
 4331SOL     OW13891   6.686   0.359   1.662
 4331SOL    HW113892   6.589   0.336   1.668
 4331SOL    HW213893   6.696   0.444   1.610
 4332SOL     OW13894   6.226   3.802   3.051
 4332SOL    HW113895   6.149   3.802   3.115
 4332SOL    HW213896   6.265   3.710   3.047
 4333SOL     OW13897   4.654   2.191   5.276
 4333SOL    HW113898   4.655   2.116   5.342
 4333SOL    HW213899   4.601   2.267   5.312
 4334SOL     OW13900   1.207   2.822   2.929
 4334SOL    HW113901   1.199   2.751   2.858
 4334SOL    HW213902   1.128   2.883   2.924
 4335SOL     OW13903   3.432   2.936   0.556
 4335SOL    HW113904   3.448   2.981   0.468
 4335SOL    HW213905   3.350   2.878   0.549
 4336SOL     OW13906   1.666   5.245   5.988
 4336SOL    HW113907   1.700   5.296   6.067
 4336SOL    HW213908   1.619   5.163   6.019
 4337SOL     OW13909   1.393   5.985   2.383
 4337SOL    HW113910   1.301   5.957   2.352
 4337SOL    HW213911   1.391   6.082   2.407
 4338SOL     OW13912   6.454   6.953   5.816
 4338SOL    HW113913   6.373   7.004   5.846
 4338SOL    HW213914   6.500   7.003   5.743
 4339SOL     OW13915   3.869   2.141   6.872
 4339SOL    HW113916   3.951   2.112   6.922
 4339SOL    HW213917   3.850   2.078   6.797
 4340SOL     OW13918   6.258   3.759   0.857
 4340SOL    HW113919   6.265   3.787   0.952
 4340SOL    HW213920   6.341   3.787   0.808
 4341SOL     OW13921   0.743   5.878   1.520
 4341SOL    HW113922   0.679   5.836   1.585
 4341SOL    HW213923   0.746   5.976   1.536
 4342SOL     OW13924   5.221   3.581   2.611
 4342SOL    HW113925   5.286   3.600   2.538
 4342SOL    HW213926   5.143   3.644   2.603
 4343SOL     OW13927   3.882   0.422   5.746
 4343SOL    HW113928   3.826   0.421   5.663
 4343SOL    HW213929   3.920   0.331   5.761
 4344SOL     OW13930   0.712   3.086   3.923
 4344SOL    HW113931   0.693   3.129   3.835
 4344SOL    HW213932   0.627   3.048   3.960
 4345SOL     OW13933   2.948   3.401   2.717
 4345SOL    HW113934   2.921   3.487   2.760
 4345SOL    HW213935   3.048   3.394   2.716
 4346SOL     OW13936   2.372   2.783   2.870
 4346SOL    HW113937   2.280   2.796   2.906
 4346SOL    HW213938   2.379   2.826   2.779
 4347SOL     OW13939   6.249   5.238   1.250
 4347SOL    HW113940   6.299   5.215   1.166
 4347SOL    HW213941   6.163   5.188   1.252
 4348SOL     OW13942   6.638   5.842   3.613
 4348SOL    HW113943   6.619   5.894   3.530
 4348SOL    HW213944   6.670   5.904   3.684
 4349SOL     OW13945   0.148   4.155   3.503
 4349SOL    HW113946   0.181   4.151   3.597
 4349SOL    HW213947   0.219   4.120   3.442
 4350SOL     OW13948   5.979   1.489   4.546
 4350SOL    HW113949   5.970   1.502   4.645
 4350SOL    HW213950   5.895   1.518   4.501
 4351SOL     OW13951   1.217   6.356   1.315
 4351SOL    HW113952   1.216   6.291   1.239
 4351SOL    HW213953   1.158   6.434   1.293
 4352SOL     OW13954   5.296   4.518   0.992
 4352SOL    HW113955   5.274   4.613   1.013
 4352SOL    HW213956   5.389   4.497   1.023
 4353SOL     OW13957   3.312   3.382   6.780
 4353SOL    HW113958   3.303   3.309   6.849
 4353SOL    HW213959   3.316   3.471   6.826
 4354SOL     OW13960   0.209   0.656   4.174
 4354SOL    HW113961   0.265   0.731   4.211
 4354SOL    HW213962   0.197   0.668   4.076
 4355SOL     OW13963   1.223   0.484   3.902
 4355SOL    HW113964   1.224   0.384   3.905
 4355SOL    HW213965   1.147   0.519   3.957
 4356SOL     OW13966   5.279   2.983   5.849
 4356SOL    HW113967   5.219   3.051   5.891
 4356SOL    HW213968   5.266   2.895   5.895
 4357SOL     OW13969   6.355   1.556   2.108
 4357SOL    HW113970   6.302   1.474   2.132
 4357SOL    HW213971   6.432   1.530   2.050
 4358SOL     OW13972   0.320   1.397   0.379
 4358SOL    HW113973   0.316   1.497   0.382
 4358SOL    HW213974   0.406   1.369   0.336
 4359SOL     OW13975   2.629   0.524   6.516
 4359SOL    HW113976   2.587   0.466   6.447
 4359SOL    HW213977   2.693   0.587   6.472
 4360SOL     OW13978   0.939   2.815   3.240
 4360SOL    HW113979   0.935   2.912   3.264
 4360SOL    HW213980   1.034   2.788   3.227
 4361SOL     OW13981   1.548   2.159   1.089
 4361SOL    HW113982   1.558   2.258   1.094
 4361SOL    HW213983   1.631   2.119   1.051
 4362SOL     OW13984   0.857   6.198   4.159
 4362SOL    HW113985   0.944   6.200   4.110
 4362SOL    HW213986   0.875   6.196   4.258
 4363SOL     OW13987   4.437   0.645   2.986
 4363SOL    HW113988   4.384   0.593   3.053
 4363SOL    HW213989   4.376   0.698   2.927
 4364SOL     OW13990   2.963   3.709   2.648
 4364SOL    HW113991   2.976   3.644   2.573
 4364SOL    HW213992   2.962   3.802   2.611
 4365SOL     OW13993   3.195   2.078   1.749
 4365SOL    HW113994   3.261   2.076   1.824
 4365SOL    HW213995   3.105   2.100   1.785
 4366SOL     OW13996   5.242   5.725   5.220
 4366SOL    HW113997   5.299   5.738   5.138
 4366SOL    HW213998   5.291   5.667   5.285
 4367SOL     OW13999   2.720   5.219   3.285
 4367SOL    HW114000   2.723   5.119   3.286
 4367SOL    HW214001   2.812   5.255   3.302
 4368SOL     OW14002   4.802   6.140   2.555
 4368SOL    HW114003   4.898   6.167   2.566
 4368SOL    HW214004   4.788   6.105   2.463
 4369SOL     OW14005   5.010   5.239   3.019
 4369SOL    HW114006   4.911   5.241   3.017
 4369SOL    HW214007   5.046   5.250   2.926
 4370SOL     OW14008   3.754   4.372   1.702
 4370SOL    HW114009   3.692   4.320   1.643
 4370SOL    HW214010   3.747   4.470   1.681
 4371SOL     OW14011   2.776   0.937   1.751
 4371SOL    HW114012   2.851   0.872   1.764
 4371SOL    HW214013   2.780   0.974   1.658
 4372SOL     OW14014   1.775   2.257   5.134
 4372SOL    HW114015   1.724   2.278   5.217
 4372SOL    HW214016   1.790   2.342   5.082
 4373SOL     OW14017   4.817   0.968   6.161
 4373SOL    HW114018   4.750   0.974   6.235
 4373SOL    HW214019   4.830   1.059   6.120
 4374SOL     OW14020   2.324   1.934   1.424
 4374SOL    HW114021   2.332   1.915   1.521
 4374SOL    HW214022   2.409   1.977   1.392
 4375SOL     OW14023   3.894   0.352   3.652
 4375SOL    HW114024   3.950   0.429   3.682
 4375SOL    HW214025   3.877   0.360   3.554
 4376SOL     OW14026   6.366   6.203   1.434
 4376SOL    HW114027   6.290   6.181   1.373
 4376SOL    HW214028   6.452   6.175   1.391
 4377SOL     OW14029   5.797   6.233   0.552
 4377SOL    HW114030   5.703   6.269   0.552
 4377SOL    HW214031   5.843   6.260   0.636
 4378SOL     OW14032   1.809   5.320   2.113
 4378SOL    HW114033   1.880   5.342   2.046
 4378SOL    HW214034   1.782   5.404   2.161
 4379SOL     OW14035   1.875   0.826   1.762
 4379SOL    HW114036   1.785   0.803   1.801
 4379SOL    HW214037   1.929   0.875   1.830
 4380SOL     OW14038   2.229   5.831   4.898
 4380SOL    HW114039   2.270   5.754   4.849
 4380SOL    HW214040   2.189   5.799   4.984
 4381SOL     OW14041   3.745   5.550   4.439
 4381SOL    HW114042   3.689   5.581   4.516
 4381SOL    HW214043   3.702   5.470   4.397
 4382SOL     OW14044   4.918   4.182   4.516
 4382SOL    HW114045   4.833   4.229   4.539
 4382SOL    HW214046   4.902   4.083   4.517
 4383SOL     OW14047   1.234   1.847   6.058
 4383SOL    HW114048   1.158   1.872   6.118
 4383SOL    HW214049   1.284   1.770   6.097
 4384SOL     OW14050   3.841   0.219   1.344
 4384SOL    HW114051   3.836   0.245   1.248
 4384SOL    HW214052   3.822   0.299   1.401
 4385SOL     OW14053   0.168   1.897   3.739
 4385SOL    HW114054   0.078   1.896   3.784
 4385SOL    HW214055   0.215   1.811   3.756
 4386SOL     OW14056   1.055   4.149   6.672
 4386SOL    HW114057   1.060   4.225   6.607
 4386SOL    HW214058   1.148   4.126   6.702
 4387SOL     OW14059   6.403   2.915   1.226
 4387SOL    HW114060   6.431   2.841   1.287
 4387SOL    HW214061   6.419   2.887   1.131
 4388SOL     OW14062   3.942   0.554   6.682
 4388SOL    HW114063   3.938   0.539   6.583
 4388SOL    HW214064   4.032   0.526   6.716
 4389SOL     OW14065   5.745   2.374   1.338
 4389SOL    HW114066   5.684   2.432   1.392
 4389SOL    HW214067   5.839   2.410   1.344
 4390SOL     OW14068   4.951   2.069   1.850
 4390SOL    HW114069   4.978   1.974   1.836
 4390SOL    HW214070   4.985   2.125   1.774
 4391SOL     OW14071   0.866   5.996   6.778
 4391SOL    HW114072   0.832   6.007   6.685
 4391SOL    HW214073   0.873   6.085   6.822
 4392SOL     OW14074   5.032   3.307   4.449
 4392SOL    HW114075   5.111   3.338   4.502
 4392SOL    HW214076   5.022   3.208   4.459
 4393SOL     OW14077   5.380   0.023   3.883
 4393SOL    HW114078   5.374   0.106   3.827
 4393SOL    HW214079   5.448   6.986   3.844
 4394SOL     OW14080   6.081   5.841   3.147
 4394SOL    HW114081   6.036   5.915   3.096
 4394SOL    HW214082   6.068   5.755   3.098
 4395SOL     OW14083   4.551   1.565   1.675
 4395SOL    HW114084   4.523   1.635   1.741
 4395SOL    HW214085   4.471   1.532   1.626
 4396SOL     OW14086   1.766   1.742   4.540
 4396SOL    HW114087   1.823   1.662   4.558
 4396SOL    HW214088   1.695   1.717   4.474
 4397SOL     OW14089   0.293   1.569   4.363
 4397SOL    HW114090   0.365   1.534   4.303
 4397SOL    HW214091   0.273   1.664   4.340
 4398SOL     OW14092   1.176   3.980   4.398
 4398SOL    HW114093   1.077   3.990   4.386
 4398SOL    HW214094   1.209   4.049   4.463
 4399SOL     OW14095   2.499   0.237   0.738
 4399SOL    HW114096   2.420   0.288   0.773
 4399SOL    HW214097   2.566   0.226   0.811
 4400SOL     OW14098   2.117   6.817   4.170
 4400SOL    HW114099   2.189   6.875   4.131
 4400SOL    HW214100   2.148   6.722   4.170
 4401SOL     OW14101   5.734   6.245   5.471
 4401SOL    HW114102   5.831   6.264   5.463
 4401SOL    HW214103   5.682   6.305   5.410
 4402SOL     OW14104   1.163   5.636   2.522
 4402SOL    HW114105   1.128   5.728   2.505
 4402SOL    HW214106   1.220   5.608   2.444
 4403SOL     OW14107   6.842   0.250   3.178
 4403SOL    HW114108   6.848   0.155   3.210
 4403SOL    HW214109   6.907   0.264   3.104
 4404SOL     OW14110   1.049   4.009   4.098
 4404SOL    HW114111   1.109   3.930   4.089
 4404SOL    HW214112   1.026   4.023   4.194
 4405SOL     OW14113   3.155   4.482   5.577
 4405SOL    HW114114   3.061   4.447   5.575
 4405SOL    HW214115   3.201   4.450   5.659
 4406SOL     OW14116   4.663   4.910   1.542
 4406SOL    HW114117   4.651   4.842   1.614
 4406SOL    HW214118   4.759   4.915   1.515
 4407SOL     OW14119   6.976   6.184   0.499
 4407SOL    HW114120   0.026   6.180   0.433
 4407SOL    HW214121   7.001   6.246   0.573
 4408SOL     OW14122   4.468   0.100   0.590
 4408SOL    HW114123   4.433   0.188   0.559
 4408SOL    HW214124   4.567   0.105   0.601
 4409SOL     OW14125   4.251   1.523   1.906
 4409SOL    HW114126   4.203   1.571   1.833
 4409SOL    HW214127   4.184   1.486   1.971
 4410SOL     OW14128   2.562   4.222   0.014
 4410SOL    HW114129   2.551   4.136   0.064
 4410SOL    HW214130   2.513   4.295   0.062
 4411SOL     OW14131   3.611   3.689   2.842
 4411SOL    HW114132   3.602   3.677   2.941
 4411SOL    HW214133   3.537   3.747   2.808
 4412SOL     OW14134   4.543   1.190   5.564
 4412SOL    HW114135   4.581   1.141   5.485
 4412SOL    HW214136   4.581   1.152   5.648
 4413SOL     OW14137   4.156   5.837   4.347
 4413SOL    HW114138   4.163   5.751   4.296
 4413SOL    HW214139   4.060   5.859   4.362
 4414SOL     OW14140   4.381   5.065   2.716
 4414SOL    HW114141   4.409   5.004   2.642
 4414SOL    HW214142   4.450   5.137   2.728
 4415SOL     OW14143   5.796   3.896   6.208
 4415SOL    HW114144   5.860   3.822   6.226
 4415SOL    HW214145   5.835   3.959   6.141
 4416SOL     OW14146   2.920   1.532   3.971
 4416SOL    HW114147   2.993   1.467   3.992
 4416SOL    HW214148   2.909   1.597   4.047
 4417SOL     OW14149   6.637   4.691   2.294
 4417SOL    HW114150   6.618   4.638   2.212
 4417SOL    HW214151   6.567   4.672   2.363
 4418SOL     OW14152   4.530   6.525   3.691
 4418SOL    HW114153   4.485   6.601   3.738
 4418SOL    HW214154   4.524   6.443   3.748
 4419SOL     OW14155   5.906   5.473   0.542
 4419SOL    HW114156   5.894   5.489   0.640
 4419SOL    HW214157   5.950   5.385   0.528
 4420SOL     OW14158   4.864   0.557   0.711
 4420SOL    HW114159   4.785   0.571   0.651
 4420SOL    HW214160   4.850   0.475   0.767
 4421SOL     OW14161   2.679   1.410   2.558
 4421SOL    HW114162   2.649   1.499   2.524
 4421SOL    HW214163   2.600   1.354   2.580
 4422SOL     OW14164   3.130   3.180   5.767
 4422SOL    HW114165   3.151   3.229   5.683
 4422SOL    HW214166   3.147   3.082   5.753
 4423SOL     OW14167   1.458   1.920   5.875
 4423SOL    HW114168   1.383   1.855   5.886
 4423SOL    HW214169   1.447   1.996   5.939
 4424SOL     OW14170   5.145   6.451   3.064
 4424SOL    HW114171   5.187   6.527   3.114
 4424SOL    HW214172   5.106   6.386   3.129
 4425SOL     OW14173   3.732   5.498   6.298
 4425SOL    HW114174   3.800   5.424   6.291
 4425SOL    HW214175   3.689   5.494   6.388
 4426SOL     OW14176   6.970   0.971   5.753
 4426SOL    HW114177   6.994   0.874   5.758
 4426SOL    HW214178   0.020   1.021   5.709
 4427SOL     OW14179   0.708   0.870   3.140
 4427SOL    HW114180   0.706   0.771   3.129
 4427SOL    HW214181   0.784   0.896   3.200
 4428SOL     OW14182   2.832   4.826   4.239
 4428SOL    HW114183   2.813   4.787   4.149
 4428SOL    HW214184   2.768   4.788   4.306
 4429SOL     OW14185   2.752   0.279   3.672
 4429SOL    HW114186   2.726   0.329   3.589
 4429SOL    HW214187   2.750   0.181   3.653
 4430SOL     OW14188   4.602   2.479   3.379
 4430SOL    HW114189   4.619   2.570   3.417
 4430SOL    HW214190   4.542   2.487   3.299
 4431SOL     OW14191   2.910   1.413   2.976
 4431SOL    HW114192   2.845   1.472   2.930
 4431SOL    HW214193   2.963   1.466   3.042
 4432SOL     OW14194   3.679   2.891   3.090
 4432SOL    HW114195   3.657   2.875   2.994
 4432SOL    HW214196   3.769   2.933   3.097
 4433SOL     OW14197   6.001   0.215   3.482
 4433SOL    HW114198   6.038   0.131   3.443
 4433SOL    HW214199   5.916   0.195   3.530
 4434SOL     OW14200   5.115   1.591   4.071
 4434SOL    HW114201   5.066   1.508   4.043
 4434SOL    HW214202   5.191   1.607   4.008
 4435SOL     OW14203   3.723   3.184   0.980
 4435SOL    HW114204   3.689   3.250   1.046
 4435SOL    HW214205   3.823   3.181   0.984
 4436SOL     OW14206   3.106   1.878   7.011
 4436SOL    HW114207   3.108   1.817   6.933
 4436SOL    HW214208   3.187   1.936   7.011
 4437SOL     OW14209   4.335   0.679   4.588
 4437SOL    HW114210   4.304   0.595   4.632
 4437SOL    HW214211   4.395   0.729   4.651
 4438SOL     OW14212   4.612   2.011   0.249
 4438SOL    HW114213   4.532   1.953   0.239
 4438SOL    HW214214   4.610   2.055   0.339
 4439SOL     OW14215   0.613   4.874   1.638
 4439SOL    HW114216   0.582   4.857   1.732
 4439SOL    HW214217   0.538   4.915   1.585
 4440SOL     OW14218   1.880   5.551   0.316
 4440SOL    HW114219   1.819   5.552   0.396
 4440SOL    HW214220   1.957   5.490   0.333
 4441SOL     OW14221   6.555   2.247   1.941
 4441SOL    HW114222   6.488   2.285   2.005
 4441SOL    HW214223   6.645   2.247   1.983
 4442SOL     OW14224   3.721   6.169   3.242
 4442SOL    HW114225   3.764   6.183   3.331
 4442SOL    HW214226   3.765   6.229   3.175
 4443SOL     OW14227   1.716   1.721   6.557
 4443SOL    HW114228   1.788   1.653   6.574
 4443SOL    HW214229   1.719   1.790   6.628
 4444SOL     OW14230   4.671   6.148   0.067
 4444SOL    HW114231   4.616   6.168   0.148
 4444SOL    HW214232   4.626   6.078   0.012
 4445SOL     OW14233   1.319   0.483   6.329
 4445SOL    HW114234   1.376   0.527   6.260
 4445SOL    HW214235   1.296   0.390   6.301
 4446SOL     OW14236   5.878   1.232   1.411
 4446SOL    HW114237   5.930   1.204   1.491
 4446SOL    HW214238   5.867   1.154   1.349
 4447SOL     OW14239   5.220   3.205   5.364
 4447SOL    HW114240   5.228   3.304   5.367
 4447SOL    HW214241   5.296   3.168   5.310
 4448SOL     OW14242   2.912   3.937   0.363
 4448SOL    HW114243   2.859   3.947   0.278
 4448SOL    HW214244   2.921   3.839   0.384
 4449SOL     OW14245   3.489   0.560   5.778
 4449SOL    HW114246   3.478   0.462   5.758
 4449SOL    HW214247   3.407   0.594   5.823
 4450SOL     OW14248   3.032   3.303   3.189
 4450SOL    HW114249   3.105   3.329   3.127
 4450SOL    HW214250   3.024   3.203   3.193
 4451SOL     OW14251   5.936   4.462   2.814
 4451SOL    HW114252   5.861   4.496   2.758
 4451SOL    HW214253   5.984   4.539   2.856
 4452SOL     OW14254   6.306   6.783   5.176
 4452SOL    HW114255   6.301   6.684   5.171
 4452SOL    HW214256   6.224   6.818   5.222
 4453SOL     OW14257   6.449   3.119   1.530
 4453SOL    HW114258   6.502   3.203   1.542
 4453SOL    HW214259   6.400   3.122   1.443
 4454SOL     OW14260   5.292   2.451   0.971
 4454SOL    HW114261   5.288   2.468   1.070
 4454SOL    HW214262   5.262   2.358   0.952
 4455SOL     OW14263   3.511   6.043   1.659
 4455SOL    HW114264   3.596   6.051   1.710
 4455SOL    HW214265   3.470   6.133   1.646
 4456SOL     OW14266   2.268   5.481   2.189
 4456SOL    HW114267   2.212   5.445   2.263
 4456SOL    HW214268   2.290   5.407   2.125
 4457SOL     OW14269   4.204   2.461   6.478
 4457SOL    HW114270   4.190   2.554   6.511
 4457SOL    HW214271   4.209   2.461   6.378
 4458SOL     OW14272   2.311   3.004   6.259
 4458SOL    HW114273   2.304   3.088   6.313
 4458SOL    HW214274   2.238   2.940   6.287
 4459SOL     OW14275   5.420   0.369   3.761
 4459SOL    HW114276   5.386   0.313   3.685
 4459SOL    HW214277   5.362   0.450   3.770
 4460SOL     OW14278   2.184   3.200   6.445
 4460SOL    HW114279   2.147   3.203   6.352
 4460SOL    HW214280   2.148   3.278   6.498
 4461SOL     OW14281   1.045   0.002   2.276
 4461SOL    HW114282   1.038   6.927   2.267
 4461SOL    HW214283   1.039   0.027   2.373
 4462SOL     OW14284   6.425   4.404   0.872
 4462SOL    HW114285   6.473   4.417   0.959
 4462SOL    HW214286   6.327   4.414   0.886
 4463SOL     OW14287   1.558   2.806   6.807
 4463SOL    HW114288   1.649   2.769   6.784
 4463SOL    HW214289   1.569   2.888   6.863
 4464SOL     OW14290   5.955   4.943   0.549
 4464SOL    HW114291   5.871   4.986   0.582
 4464SOL    HW214292   5.938   4.846   0.532
 4465SOL     OW14293   1.844   6.695   2.443
 4465SOL    HW114294   1.751   6.659   2.439
 4465SOL    HW214295   1.840   6.795   2.448
 4466SOL     OW14296   0.925   0.919   2.552
 4466SOL    HW114297   0.916   0.879   2.644
 4466SOL    HW214298   0.930   0.846   2.484
 4467SOL     OW14299   1.128   6.666   3.364
 4467SOL    HW114300   1.156   6.762   3.366
 4467SOL    HW214301   1.074   6.645   3.445
 4468SOL     OW14302   1.141   2.056   0.210
 4468SOL    HW114303   1.085   2.019   0.135
 4468SOL    HW214304   1.119   2.152   0.223
 4469SOL     OW14305   2.928   6.908   2.169
 4469SOL    HW114306   2.830   6.922   2.186
 4469SOL    HW214307   2.974   6.885   2.255
 4470SOL     OW14308   5.353   3.976   1.622
 4470SOL    HW114309   5.339   4.045   1.551
 4470SOL    HW214310   5.412   4.013   1.694
 4471SOL     OW14311   0.322   2.893   0.114
 4471SOL    HW114312   0.304   2.821   0.046
 4471SOL    HW214313   0.265   2.877   0.195
 4472SOL     OW14314   1.790   4.269   2.777
 4472SOL    HW114315   1.870   4.255   2.834
 4472SOL    HW214316   1.707   4.252   2.831
 4473SOL     OW14317   0.228   0.581   4.602
 4473SOL    HW114318   0.207   0.679   4.612
 4473SOL    HW214319   0.318   0.570   4.561
 4474SOL     OW14320   3.078   0.079   2.503
 4474SOL    HW114321   3.044   0.109   2.592
 4474SOL    HW214322   3.157   0.135   2.478
 4475SOL     OW14323   1.391   3.924   1.460
 4475SOL    HW114324   1.480   3.892   1.490
 4475SOL    HW214325   1.320   3.861   1.492
 4476SOL     OW14326   4.955   6.473   2.668
 4476SOL    HW114327   4.913   6.523   2.592
 4476SOL    HW214328   4.885   6.452   2.736
 4477SOL     OW14329   2.093   6.990   6.792
 4477SOL    HW114330   2.018   7.003   6.727
 4477SOL    HW214331   2.178   7.022   6.752
 4478SOL     OW14332   2.530   6.763   2.215
 4478SOL    HW114333   2.558   6.740   2.308
 4478SOL    HW214334   2.456   6.702   2.187
 4479SOL     OW14335   1.482   0.006   6.347
 4479SOL    HW114336   1.523   0.096   6.336
 4479SOL    HW214337   1.419   0.008   6.425
 4480SOL     OW14338   2.112   3.766   4.375
 4480SOL    HW114339   2.186   3.797   4.435
 4480SOL    HW214340   2.064   3.690   4.418
 4481SOL     OW14341   1.926   6.264   4.576
 4481SOL    HW114342   1.984   6.280   4.656
 4481SOL    HW214343   1.967   6.192   4.519
 4482SOL     OW14344   0.680   3.914   4.424
 4482SOL    HW114345   0.595   3.889   4.377
 4482SOL    HW214346   0.666   3.909   4.523
 4483SOL     OW14347   0.216   3.262   1.172
 4483SOL    HW114348   0.147   3.312   1.120
 4483SOL    HW214349   0.284   3.224   1.109
 4484SOL     OW14350   3.653   2.395   5.395
 4484SOL    HW114351   3.570   2.338   5.391
 4484SOL    HW214352   3.734   2.336   5.396
 4485SOL     OW14353   5.009   2.717   6.581
 4485SOL    HW114354   4.925   2.702   6.527
 4485SOL    HW214355   5.085   2.736   6.519
 4486SOL     OW14356   6.970   4.242   5.044
 4486SOL    HW114357   6.934   4.293   4.966
 4486SOL    HW214358   6.897   4.189   5.086
 4487SOL     OW14359   2.371   3.659   6.793
 4487SOL    HW114360   2.318   3.643   6.710
 4487SOL    HW214361   2.409   3.751   6.791
 4488SOL     OW14362   5.605   2.574   5.934
 4488SOL    HW114363   5.525   2.527   5.972
 4488SOL    HW214364   5.599   2.576   5.835
 4489SOL     OW14365   5.370   5.778   4.606
 4489SOL    HW114366   5.272   5.783   4.627
 4489SOL    HW214367   5.422   5.823   4.679
 4490SOL     OW14368   5.846   1.955   1.532
 4490SOL    HW114369   5.763   1.962   1.589
 4490SOL    HW214370   5.910   2.028   1.556
 4491SOL     OW14371   0.881   3.561   2.686
 4491SOL    HW114372   0.854   3.465   2.681
 4491SOL    HW214373   0.955   3.571   2.753
 4492SOL     OW14374   5.270   2.501   0.142
 4492SOL    HW114375   5.184   2.552   0.152
 4492SOL    HW214376   5.323   2.509   0.227
 4493SOL     OW14377   4.282   5.173   4.793
 4493SOL    HW114378   4.356   5.212   4.849
 4493SOL    HW214379   4.309   5.173   4.697
 4494SOL     OW14380   6.945   2.369   6.230
 4494SOL    HW114381   6.865   2.427   6.244
 4494SOL    HW214382   6.972   2.328   6.318
 4495SOL     OW14383   5.088   6.954   2.809
 4495SOL    HW114384   5.113   0.006   2.750
 4495SOL    HW214385   5.154   6.880   2.798
 4496SOL     OW14386   5.244   5.173   0.188
 4496SOL    HW114387   5.340   5.201   0.190
 4496SOL    HW214388   5.237   5.078   0.159
 4497SOL     OW14389   5.436   5.995   0.001
 4497SOL    HW114390   5.377   6.045   6.962
 4497SOL    HW214391   5.437   6.042   0.090
 4498SOL     OW14392   0.175   3.701   6.602
 4498SOL    HW114393   0.127   3.782   6.638
 4498SOL    HW214394   0.150   3.688   6.506
 4499SOL     OW14395   6.366   2.766   4.453
 4499SOL    HW114396   6.372   2.846   4.512
 4499SOL    HW214397   6.459   2.737   4.427
 4500SOL     OW14398   2.945   3.639   3.823
 4500SOL    HW114399   2.917   3.725   3.866
 4500SOL    HW214400   3.005   3.658   3.746
 4501SOL     OW14401   1.016   3.732   6.075
 4501SOL    HW114402   1.108   3.709   6.043
 4501SOL    HW214403   0.954   3.655   6.058
 4502SOL     OW14404   1.701   2.335   6.169
 4502SOL    HW114405   1.800   2.343   6.165
 4502SOL    HW214406   1.676   2.248   6.212
 4503SOL     OW14407   2.477   1.155   3.290
 4503SOL    HW114408   2.465   1.104   3.205
 4503SOL    HW214409   2.397   1.213   3.306
 4504SOL     OW14410   6.901   2.291   5.406
 4504SOL    HW114411   6.999   2.308   5.399
 4504SOL    HW214412   6.858   2.365   5.457
 4505SOL     OW14413   0.454   5.996   4.759
 4505SOL    HW114414   0.425   5.914   4.710
 4505SOL    HW214415   0.439   5.984   4.857
 4506SOL     OW14416   3.892   1.740   4.733
 4506SOL    HW114417   3.918   1.742   4.636
 4506SOL    HW214418   3.870   1.833   4.763
 4507SOL     OW14419   5.201   5.097   1.422
 4507SOL    HW114420   5.167   5.147   1.502
 4507SOL    HW214421   5.176   5.001   1.429
 4508SOL     OW14422   1.516   4.305   0.278
 4508SOL    HW114423   1.485   4.309   0.183
 4508SOL    HW214424   1.482   4.221   0.321
 4509SOL     OW14425   4.550   1.912   4.283
 4509SOL    HW114426   4.477   1.926   4.351
 4509SOL    HW214427   4.606   1.994   4.278
 4510SOL     OW14428   5.705   0.429   5.191
 4510SOL    HW114429   5.787   0.486   5.186
 4510SOL    HW214430   5.708   0.359   5.120
 4511SOL     OW14431   0.540   3.228   0.062
 4511SOL    HW114432   0.559   3.136   0.097
 4511SOL    HW214433   0.514   3.223   6.990
 4512SOL     OW14434   2.597   6.599   6.423
 4512SOL    HW114435   2.624   6.513   6.381
 4512SOL    HW214436   2.647   6.674   6.380
 4513SOL     OW14437   4.634   6.659   1.472
 4513SOL    HW114438   4.668   6.705   1.553
 4513SOL    HW214439   4.698   6.586   1.444
 4514SOL     OW14440   3.753   1.509   4.827
 4514SOL    HW114441   3.742   1.454   4.744
 4514SOL    HW214442   3.813   1.586   4.807
 4515SOL     OW14443   6.424   4.587   6.868
 4515SOL    HW114444   6.518   4.555   6.861
 4515SOL    HW214445   6.423   4.684   6.893
 4516SOL     OW14446   1.044   0.987   5.508
 4516SOL    HW114447   1.022   0.932   5.588
 4516SOL    HW214448   1.081   0.928   5.436
 4517SOL     OW14449   2.574   6.401   6.061
 4517SOL    HW114450   2.560   6.498   6.045
 4517SOL    HW214451   2.567   6.382   6.159
 4518SOL     OW14452   0.704   2.649   3.989
 4518SOL    HW114453   0.771   2.575   3.996
 4518SOL    HW214454   0.645   2.648   4.069
 4519SOL     OW14455   0.085   1.858   3.153
 4519SOL    HW114456   0.120   1.838   3.245
 4519SOL    HW214457   0.107   1.782   3.092
 4520SOL     OW14458   6.052   4.701   2.899
 4520SOL    HW114459   6.088   4.793   2.882
 4520SOL    HW214460   5.988   4.704   2.975
 4521SOL     OW14461   4.836   2.081   6.378
 4521SOL    HW114462   4.894   2.135   6.317
 4521SOL    HW214463   4.887   2.060   6.461
 4522SOL     OW14464   5.345   6.582   3.553
 4522SOL    HW114465   5.287   6.541   3.623
 4522SOL    HW214466   5.345   6.681   3.563
 4523SOL     OW14467   2.576   4.263   6.530
 4523SOL    HW114468   2.509   4.198   6.495
 4523SOL    HW214469   2.653   4.269   6.466
 4524SOL     OW14470   5.274   1.582   5.371
 4524SOL    HW114471   5.279   1.502   5.431
 4524SOL    HW214472   5.324   1.563   5.286
 4525SOL     OW14473   6.680   1.698   3.922
 4525SOL    HW114474   6.681   1.779   3.981
 4525SOL    HW214475   6.741   1.712   3.844
 4526SOL     OW14476   5.063   0.123   1.136
 4526SOL    HW114477   5.135   0.058   1.158
 4526SOL    HW214478   5.054   0.131   1.037
 4527SOL     OW14479   3.921   0.735   3.629
 4527SOL    HW114480   3.981   0.655   3.625
 4527SOL    HW214481   3.883   0.744   3.721
 4528SOL     OW14482   4.885   6.864   0.231
 4528SOL    HW114483   4.926   6.776   0.257
 4528SOL    HW214484   4.908   6.883   0.135
 4529SOL     OW14485   2.649   1.364   3.172
 4529SOL    HW114486   2.734   1.395   3.129
 4529SOL    HW214487   2.668   1.282   3.226
 4530SOL     OW14488   0.437   3.380   5.550
 4530SOL    HW114489   0.368   3.309   5.561
 4530SOL    HW214490   0.403   3.466   5.588
 4531SOL     OW14491   1.323   4.001   3.398
 4531SOL    HW114492   1.250   4.051   3.352
 4531SOL    HW214493   1.374   4.064   3.456
 4532SOL     OW14494   6.938   1.317   1.478
 4532SOL    HW114495   7.000   1.263   1.535
 4532SOL    HW214496   6.844   1.306   1.510
 4533SOL     OW14497   1.652   0.435   3.475
 4533SOL    HW114498   1.651   0.380   3.391
 4533SOL    HW214499   1.743   0.431   3.516
 4534SOL     OW14500   6.416   3.864   5.108
 4534SOL    HW114501   6.365   3.809   5.042
 4534SOL    HW214502   6.360   3.880   5.189
 4535SOL     OW14503   4.596   2.174   2.597
 4535SOL    HW114504   4.669   2.221   2.548
 4535SOL    HW214505   4.581   2.084   2.556
 4536SOL     OW14506   4.670   1.667   4.321
 4536SOL    HW114507   4.634   1.759   4.336
 4536SOL    HW214508   4.767   1.673   4.295
 4537SOL     OW14509   3.642   3.310   6.278
 4537SOL    HW114510   3.693   3.388   6.242
 4537SOL    HW214511   3.565   3.342   6.333
 4538SOL     OW14512   3.217   2.146   3.990
 4538SOL    HW114513   3.177   2.147   3.898
 4538SOL    HW214514   3.316   2.152   3.983
 4539SOL     OW14515   2.765   2.228   4.090
 4539SOL    HW114516   2.702   2.226   4.012
 4539SOL    HW214517   2.713   2.246   4.174
 4540SOL     OW14518   3.424   3.422   3.698
 4540SOL    HW114519   3.349   3.388   3.754
 4540SOL    HW214520   3.422   3.379   3.608
 4541SOL     OW14521   5.112   0.746   0.149
 4541SOL    HW114522   5.078   0.831   0.187
 4541SOL    HW214523   5.177   0.704   0.212
 4542SOL     OW14524   6.110   6.070   1.535
 4542SOL    HW114525   6.130   5.977   1.506
 4542SOL    HW214526   6.013   6.078   1.557
 4543SOL     OW14527   4.623   1.702   6.775
 4543SOL    HW114528   4.616   1.801   6.780
 4543SOL    HW214529   4.534   1.661   6.793
 4544SOL     OW14530   2.164   5.890   6.696
 4544SOL    HW114531   2.138   5.981   6.665
 4544SOL    HW214532   2.101   5.822   6.659
 4545SOL     OW14533   4.438   2.169   5.092
 4545SOL    HW114534   4.401   2.092   5.039
 4545SOL    HW214535   4.532   2.148   5.119
 4546SOL     OW14536   0.756   0.114   6.348
 4546SOL    HW114537   0.671   0.069   6.376
 4546SOL    HW214538   0.801   0.059   6.278
 4547SOL     OW14539   5.461   2.995   1.733
 4547SOL    HW114540   5.499   2.947   1.654
 4547SOL    HW214541   5.406   2.931   1.788
 4548SOL     OW14542   0.955   4.927   4.140
 4548SOL    HW114543   1.042   4.880   4.130
 4548SOL    HW214544   0.957   4.985   4.221
 4549SOL     OW14545   6.458   3.585   3.204
 4549SOL    HW114546   6.476   3.658   3.270
 4549SOL    HW214547   6.540   3.569   3.148
 4550SOL     OW14548   0.728   6.115   3.698
 4550SOL    HW114549   0.728   6.140   3.601
 4550SOL    HW214550   0.813   6.068   3.721
 4551SOL     OW14551   6.939   1.849   5.255
 4551SOL    HW114552   6.893   1.936   5.237
 4551SOL    HW214553   6.875   1.785   5.298
 4552SOL     OW14554   0.243   2.991   5.830
 4552SOL    HW114555   0.161   3.044   5.852
 4552SOL    HW214556   0.319   3.022   5.886
 4553SOL     OW14557   4.059   4.896   6.739
 4553SOL    HW114558   4.128   4.968   6.748
 4553SOL    HW214559   4.103   4.806   6.743
 4554SOL     OW14560   4.101   0.913   2.225
 4554SOL    HW114561   4.200   0.904   2.216
 4554SOL    HW214562   4.079   0.995   2.279
 4555SOL     OW14563   4.369   1.685   6.848
 4555SOL    HW114564   4.306   1.610   6.870
 4555SOL    HW214565   4.318   1.771   6.840
 4556SOL     OW14566   3.637   1.033   3.751
 4556SOL    HW114567   3.633   1.010   3.654
 4556SOL    HW214568   3.554   0.999   3.797
 4557SOL     OW14569   5.103   0.440   4.622
 4557SOL    HW114570   5.163   0.520   4.619
 4557SOL    HW214571   5.018   0.464   4.669
 4558SOL     OW14572   6.217   3.748   6.589
 4558SOL    HW114573   6.251   3.685   6.519
 4558SOL    HW214574   6.126   3.720   6.619
 4559SOL     OW14575   1.872   6.726   1.484
 4559SOL    HW114576   1.932   6.697   1.409
 4559SOL    HW214577   1.777   6.723   1.454
 4560SOL     OW14578   4.968   3.776   3.165
 4560SOL    HW114579   5.062   3.756   3.136
 4560SOL    HW214580   4.969   3.845   3.237
 4561SOL     OW14581   2.635   0.606   0.713
 4561SOL    HW114582   2.536   0.610   0.730
 4561SOL    HW214583   2.684   0.593   0.799
 4562SOL     OW14584   2.979   5.821   5.414
 4562SOL    HW114585   2.926   5.741   5.444
 4562SOL    HW214586   3.068   5.792   5.380
 4563SOL     OW14587   5.273   3.030   0.318
 4563SOL    HW114588   5.363   3.047   0.359
 4563SOL    HW214589   5.205   3.088   0.361
 4564SOL     OW14590   0.923   5.387   0.561
 4564SOL    HW114591   0.992   5.458   0.573
 4564SOL    HW214592   0.862   5.385   0.640
 4565SOL     OW14593   0.590   1.698   5.501
 4565SOL    HW114594   0.551   1.710   5.410
 4565SOL    HW214595   0.690   1.697   5.495
 4566SOL     OW14596   6.879   0.757   0.216
 4566SOL    HW114597   6.794   0.754   0.164
 4566SOL    HW214598   6.946   0.697   0.173
 4567SOL     OW14599   0.460   0.787   1.013
 4567SOL    HW114600   0.552   0.746   1.017
 4567SOL    HW214601   0.433   0.799   0.918
 4568SOL     OW14602   1.830   4.292   5.274
 4568SOL    HW114603   1.842   4.261   5.368
 4568SOL    HW214604   1.919   4.294   5.227
 4569SOL     OW14605   1.456   2.497   3.968
 4569SOL    HW114606   1.479   2.400   3.972
 4569SOL    HW214607   1.539   2.551   3.956
 4570SOL     OW14608   6.936   5.890   3.246
 4570SOL    HW114609   7.022   5.892   3.195
 4570SOL    HW214610   6.914   5.796   3.272
 4571SOL     OW14611   3.224   3.711   4.777
 4571SOL    HW114612   3.152   3.780   4.779
 4571SOL    HW214613   3.187   3.625   4.742
 4572SOL     OW14614   0.137   0.040   0.614
 4572SOL    HW114615   0.133   0.011   0.709
 4572SOL    HW214616   0.135   6.984   0.554
 4573SOL     OW14617   5.422   5.930   0.983
 4573SOL    HW114618   5.337   5.980   0.965
 4573SOL    HW214619   5.452   5.884   0.899
 4574SOL     OW14620   7.005   4.976   0.968
 4574SOL    HW114621   6.924   4.977   1.027
 4574SOL    HW214622   6.989   5.036   0.890
 4575SOL     OW14623   6.913   2.199   0.722
 4575SOL    HW114624   6.909   2.273   0.655
 4575SOL    HW214625   7.008   2.178   0.744
 4576SOL     OW14626   3.065   5.776   5.975
 4576SOL    HW114627   3.085   5.760   5.879
 4576SOL    HW214628   2.969   5.803   5.985
 4577SOL     OW14629   0.628   3.569   2.908
 4577SOL    HW114630   0.546   3.593   2.961
 4577SOL    HW214631   0.650   3.643   2.845
 4578SOL     OW14632   1.034   3.651   3.241
 4578SOL    HW114633   0.982   3.654   3.327
 4578SOL    HW214634   0.975   3.618   3.168
 4579SOL     OW14635   4.695   1.690   2.934
 4579SOL    HW114636   4.659   1.777   2.968
 4579SOL    HW214637   4.704   1.694   2.835
 4580SOL     OW14638   6.210   4.876   0.634
 4580SOL    HW114639   6.121   4.907   0.600
 4580SOL    HW214640   6.243   4.800   0.578
 4581SOL     OW14641   3.178   4.964   2.758
 4581SOL    HW114642   3.270   4.955   2.796
 4581SOL    HW214643   3.184   4.968   2.658
 4582SOL     OW14644   5.831   6.806   4.560
 4582SOL    HW114645   5.849   6.733   4.495
 4582SOL    HW214646   5.819   6.893   4.511
 4583SOL     OW14647   3.227   2.067   5.119
 4583SOL    HW114648   3.203   2.163   5.109
 4583SOL    HW214649   3.168   2.025   5.188
 4584SOL     OW14650   0.389   5.648   5.989
 4584SOL    HW114651   0.348   5.700   6.063
 4584SOL    HW214652   0.424   5.710   5.920
 4585SOL     OW14653   2.723   6.695   3.095
 4585SOL    HW114654   2.817   6.681   3.125
 4585SOL    HW214655   2.722   6.728   3.001
 4586SOL     OW14656   3.298   4.639   0.937
 4586SOL    HW114657   3.227   4.580   0.977
 4586SOL    HW214658   3.371   4.652   1.003
 4587SOL     OW14659   4.266   3.357   1.836
 4587SOL    HW114660   4.208   3.293   1.885
 4587SOL    HW214661   4.253   3.346   1.737
 4588SOL     OW14662   3.737   3.850   5.238
 4588SOL    HW114663   3.672   3.923   5.260
 4588SOL    HW214664   3.780   3.870   5.150
 4589SOL     OW14665   5.839   2.201   2.666
 4589SOL    HW114666   5.853   2.300   2.665
 4589SOL    HW214667   5.867   2.162   2.579
 4590SOL     OW14668   4.615   6.397   2.111
 4590SOL    HW114669   4.539   6.345   2.150
 4590SOL    HW214670   4.702   6.353   2.136
 4591SOL     OW14671   0.005   6.015   5.771
 4591SOL    HW114672   6.936   6.005   5.802
 4591SOL    HW214673   0.050   5.926   5.770
 4592SOL     OW14674   3.981   3.095   1.273
 4592SOL    HW114675   4.047   3.137   1.211
 4592SOL    HW214676   4.026   3.022   1.325
 4593SOL     OW14677   4.158   5.490   3.481
 4593SOL    HW114678   4.167   5.582   3.441
 4593SOL    HW214679   4.115   5.429   3.414
 4594SOL     OW14680   3.937   1.223   1.937
 4594SOL    HW114681   3.924   1.288   1.862
 4594SOL    HW214682   3.916   1.268   2.024
 4595SOL     OW14683   3.752   2.907   6.679
 4595SOL    HW114684   3.708   2.989   6.713
 4595SOL    HW214685   3.684   2.849   6.634
 4596SOL     OW14686   6.392   6.351   1.929
 4596SOL    HW114687   6.371   6.280   1.863
 4596SOL    HW214688   6.328   6.427   1.918
 4597SOL     OW14689   5.424   5.294   6.584
 4597SOL    HW114690   5.475   5.223   6.535
 4597SOL    HW214691   5.398   5.366   6.520
 4598SOL     OW14692   1.213   5.160   6.082
 4598SOL    HW114693   1.220   5.199   5.991
 4598SOL    HW214694   1.116   5.150   6.106
 4599SOL     OW14695   1.371   3.474   1.267
 4599SOL    HW114696   1.353   3.562   1.224
 4599SOL    HW214697   1.445   3.484   1.334
 4600SOL     OW14698   3.252   5.232   6.167
 4600SOL    HW114699   3.335   5.289   6.166
 4600SOL    HW214700   3.269   5.150   6.221
 4601SOL     OW14701   1.697   0.700   5.394
 4601SOL    HW114702   1.703   0.782   5.337
 4601SOL    HW214703   1.601   0.672   5.402
 4602SOL     OW14704   1.625   6.705   1.368
 4602SOL    HW114705   1.585   6.636   1.307
 4602SOL    HW214706   1.552   6.749   1.420
 4603SOL     OW14707   3.583   6.447   1.491
 4603SOL    HW114708   3.621   6.511   1.424
 4603SOL    HW214709   3.578   6.491   1.580
 4604SOL     OW14710   4.202   0.995   1.229
 4604SOL    HW114711   4.136   1.024   1.298
 4604SOL    HW214712   4.294   0.998   1.268
 4605SOL     OW14713   4.791   0.899   3.793
 4605SOL    HW114714   4.698   0.865   3.809
 4605SOL    HW214715   4.802   0.987   3.839
 4606SOL     OW14716   0.145   6.506   3.273
 4606SOL    HW114717   0.188   6.423   3.310
 4606SOL    HW214718   0.049   6.487   3.251
 4607SOL     OW14719   2.736   2.178   0.812
 4607SOL    HW114720   2.697   2.258   0.765
 4607SOL    HW214721   2.734   2.194   0.910
 4608SOL     OW14722   1.065   5.241   5.339
 4608SOL    HW114723   1.046   5.151   5.300
 4608SOL    HW214724   1.008   5.256   5.419
 4609SOL     OW14725   4.291   5.685   6.644
 4609SOL    HW114726   4.316   5.750   6.573
 4609SOL    HW214727   4.267   5.597   6.601
 4610SOL     OW14728   0.182   2.227   0.281
 4610SOL    HW114729   0.189   2.299   0.350
 4610SOL    HW214730   0.114   2.160   0.309
 4611SOL     OW14731   6.494   4.273   0.005
 4611SOL    HW114732   6.448   4.203   0.061
 4611SOL    HW214733   6.433   4.303   6.956
 4612SOL     OW14734   1.534   5.714   6.675
 4612SOL    HW114735   1.513   5.784   6.606
 4612SOL    HW214736   1.471   5.725   6.752
 4613SOL     OW14737   2.338   5.874   3.262
 4613SOL    HW114738   2.377   5.964   3.242
 4613SOL    HW214739   2.319   5.826   3.177
 4614SOL     OW14740   1.884   4.952   6.336
 4614SOL    HW114741   1.887   4.866   6.285
 4614SOL    HW214742   1.923   5.025   6.280
 4615SOL     OW14743   1.520   1.360   0.829
 4615SOL    HW114744   1.613   1.329   0.851
 4615SOL    HW214745   1.493   1.431   0.894
 4616SOL     OW14746   6.924   0.879   6.721
 4616SOL    HW114747   6.930   0.915   6.628
 4616SOL    HW214748   6.829   0.856   6.742
 4617SOL     OW14749   1.014   2.532   2.353
 4617SOL    HW114750   1.076   2.610   2.343
 4617SOL    HW214751   0.960   2.544   2.437
 4618SOL     OW14752   1.461   1.898   5.587
 4618SOL    HW114753   1.558   1.884   5.566
 4618SOL    HW214754   1.451   1.927   5.682
 4619SOL     OW14755   4.503   6.916   3.659
 4619SOL    HW114756   4.434   6.912   3.586
 4619SOL    HW214757   4.551   7.003   3.654
 4620SOL     OW14758   3.702   4.285   6.896
 4620SOL    HW114759   3.609   4.250   6.898
 4620SOL    HW214760   3.700   4.385   6.903
 4621SOL     OW14761   6.209   2.103   4.516
 4621SOL    HW114762   6.303   2.080   4.543
 4621SOL    HW214763   6.162   2.021   4.485
 4622SOL     OW14764   1.531   2.821   0.950
 4622SOL    HW114765   1.598   2.795   0.879
 4622SOL    HW214766   1.576   2.879   1.018
 4623SOL     OW14767   0.267   5.273   0.927
 4623SOL    HW114768   0.199   5.272   0.999
 4623SOL    HW214769   0.272   5.183   0.884
 4624SOL     OW14770   4.482   0.824   3.941
 4624SOL    HW114771   4.414   0.753   3.925
 4624SOL    HW214772   4.440   0.914   3.932
 4625SOL     OW14773   1.763   4.358   0.091
 4625SOL    HW114774   1.796   4.445   0.053
 4625SOL    HW214775   1.761   4.363   0.191
 4626SOL     OW14776   6.482   4.320   1.728
 4626SOL    HW114777   6.417   4.287   1.797
 4626SOL    HW214778   6.458   4.282   1.639
 4627SOL     OW14779   3.689   6.050   5.850
 4627SOL    HW114780   3.607   5.993   5.851
 4627SOL    HW214781   3.755   6.014   5.915
 4628SOL     OW14782   5.591   4.638   2.910
 4628SOL    HW114783   5.635   4.611   2.825
 4628SOL    HW214784   5.653   4.696   2.963
 4629SOL     OW14785   1.975   4.949   5.871
 4629SOL    HW114786   1.953   4.920   5.778
 4629SOL    HW214787   1.896   4.933   5.930
 4630SOL     OW14788   2.703   5.953   3.954
 4630SOL    HW114789   2.638   5.966   3.879
 4630SOL    HW214790   2.772   5.885   3.927
 4631SOL     OW14791   2.463   6.873   3.276
 4631SOL    HW114792   2.431   6.852   3.184
 4631SOL    HW214793   2.434   6.801   3.339
 4632SOL     OW14794   4.525   4.905   3.486
 4632SOL    HW114795   4.491   4.837   3.421
 4632SOL    HW214796   4.506   4.997   3.451
 4633SOL     OW14797   6.710   1.788   4.939
 4633SOL    HW114798   6.700   1.690   4.924
 4633SOL    HW214799   6.775   1.826   4.874
 4634SOL     OW14800   2.934   4.839   6.503
 4634SOL    HW114801   3.029   4.810   6.489
 4634SOL    HW214802   2.929   4.897   6.585
 4635SOL     OW14803   5.782   3.074   2.136
 4635SOL    HW114804   5.852   3.053   2.069
 4635SOL    HW214805   5.693   3.045   2.101
 4636SOL     OW14806   2.689   5.495   6.829
 4636SOL    HW114807   2.624   5.420   6.840
 4636SOL    HW214808   2.763   5.485   6.895
 4637SOL     OW14809   1.384   0.722   6.731
 4637SOL    HW114810   1.400   0.717   6.633
 4637SOL    HW214811   1.468   0.751   6.777
 4638SOL     OW14812   3.875   2.891   6.399
 4638SOL    HW114813   3.794   2.838   6.373
 4638SOL    HW214814   3.951   2.869   6.337
 4639SOL     OW14815   1.267   4.187   5.909
 4639SOL    HW114816   1.249   4.197   6.007
 4639SOL    HW214817   1.306   4.097   5.891
 4640SOL     OW14818   5.016   4.936   4.165
 4640SOL    HW114819   4.988   4.844   4.138
 4640SOL    HW214820   4.981   4.956   4.257
 4641SOL     OW14821   2.484   4.817   4.322
 4641SOL    HW114822   2.557   4.779   4.380
 4641SOL    HW214823   2.447   4.745   4.264
 4642SOL     OW14824   6.681   5.496   4.843
 4642SOL    HW114825   6.617   5.536   4.908
 4642SOL    HW214826   6.732   5.422   4.887
 4643SOL     OW14827   4.710   2.470   0.407
 4643SOL    HW114828   4.796   2.420   0.398
 4643SOL    HW214829   4.700   2.534   0.331
 4644SOL     OW14830   1.335   5.481   5.149
 4644SOL    HW114831   1.370   5.400   5.102
 4644SOL    HW214832   1.389   5.561   5.122
 4645SOL     OW14833   1.959   6.704   4.418
 4645SOL    HW114834   2.016   6.755   4.354
 4645SOL    HW214835   1.994   6.714   4.511
 4646SOL     OW14836   2.907   0.219   2.356
 4646SOL    HW114837   2.926   0.316   2.371
 4646SOL    HW214838   2.969   0.164   2.412
 4647SOL     OW14839   1.191   6.659   3.089
 4647SOL    HW114840   1.159   6.743   3.044
 4647SOL    HW214841   1.145   6.650   3.177
 4648SOL     OW14842   3.529   6.901   1.666
 4648SOL    HW114843   3.460   6.910   1.738
 4648SOL    HW214844   3.498   6.948   1.584
 4649SOL     OW14845   5.048   0.950   5.666
 4649SOL    HW114846   5.018   0.855   5.657
 4649SOL    HW214847   4.988   0.998   5.729
 4650SOL     OW14848   3.866   6.079   2.958
 4650SOL    HW114849   3.773   6.107   2.933
 4650SOL    HW214850   3.920   6.160   2.980
 4651SOL     OW14851   0.760   2.436   1.968
 4651SOL    HW114852   0.756   2.376   1.888
 4651SOL    HW214853   0.669   2.444   2.008
 4652SOL     OW14854   0.709   6.573   3.738
 4652SOL    HW114855   0.695   6.546   3.833
 4652SOL    HW214856   0.664   6.508   3.677
 4653SOL     OW14857   6.742   6.131   0.337
 4653SOL    HW114858   6.643   6.137   0.338
 4653SOL    HW214859   6.777   6.145   0.430
 4654SOL     OW14860   0.872   0.107   0.355
 4654SOL    HW114861   0.804   0.038   0.380
 4654SOL    HW214862   0.829   0.175   0.295
 4655SOL     OW14863   0.492   4.735   2.701
 4655SOL    HW114864   0.552   4.815   2.710
 4655SOL    HW214865   0.491   4.705   2.605
 4656SOL     OW14866   0.960   6.899   3.089
 4656SOL    HW114867   0.915   6.881   3.002
 4656SOL    HW214868   0.993   6.993   3.091
 4657SOL     OW14869   5.378   6.846   1.689
 4657SOL    HW114870   5.374   6.878   1.784
 4657SOL    HW214871   5.349   6.919   1.628
 4658SOL     OW14872   3.995   0.378   2.785
 4658SOL    HW114873   3.935   0.452   2.815
 4658SOL    HW214874   3.942   0.311   2.733
 4659SOL     OW14875   1.622   3.119   5.345
 4659SOL    HW114876   1.611   3.021   5.362
 4659SOL    HW214877   1.709   3.135   5.299
 4660SOL     OW14878   1.540   1.744   4.840
 4660SOL    HW114879   1.498   1.765   4.752
 4660SOL    HW214880   1.492   1.668   4.883
 4661SOL     OW14881   3.721   3.672   4.858
 4661SOL    HW114882   3.643   3.632   4.810
 4661SOL    HW214883   3.802   3.670   4.800
 4662SOL     OW14884   4.806   0.716   5.321
 4662SOL    HW114885   4.711   0.726   5.291
 4662SOL    HW214886   4.857   0.800   5.301
 4663SOL     OW14887   6.990   1.968   2.433
 4663SOL    HW114888   0.023   1.891   2.408
 4663SOL    HW214889   6.906   1.967   2.378
 4664SOL     OW14890   2.238   2.367   6.727
 4664SOL    HW114891   2.143   2.346   6.705
 4664SOL    HW214892   2.284   2.404   6.646
 4665SOL     OW14893   4.835   6.896   6.839
 4665SOL    HW114894   4.910   6.929   6.896
 4665SOL    HW214895   4.753   6.952   6.856
 4666SOL     OW14896   2.246   1.113   0.207
 4666SOL    HW114897   2.296   1.109   0.120
 4666SOL    HW214898   2.151   1.138   0.189
 4667SOL     OW14899   6.722   4.696   6.289
 4667SOL    HW114900   6.634   4.731   6.258
 4667SOL    HW214901   6.742   4.611   6.240
 4668SOL     OW14902   0.357   1.677   4.626
 4668SOL    HW114903   0.329   1.644   4.536
 4668SOL    HW214904   0.297   1.751   4.655
 4669SOL     OW14905   2.590   6.451   0.292
 4669SOL    HW114906   2.658   6.435   0.363
 4669SOL    HW214907   2.507   6.489   0.332
 4670SOL     OW14908   3.031   1.068   4.919
 4670SOL    HW114909   3.079   1.140   4.969
 4670SOL    HW214910   3.097   1.003   4.881
 4671SOL     OW14911   5.820   3.388   1.424
 4671SOL    HW114912   5.763   3.440   1.487
 4671SOL    HW214913   5.908   3.367   1.468
 4672SOL     OW14914   2.585   4.505   6.024
 4672SOL    HW114915   2.631   4.537   6.107
 4672SOL    HW214916   2.593   4.575   5.953
 4673SOL     OW14917   3.674   7.021   1.287
 4673SOL    HW114918   3.722   0.073   1.330
 4673SOL    HW214919   3.740   6.963   1.240
 4674SOL     OW14920   5.656   6.330   6.057
 4674SOL    HW114921   5.608   6.271   5.992
 4674SOL    HW214922   5.747   6.293   6.075
 4675SOL     OW14923   1.298   3.467   0.972
 4675SOL    HW114924   1.242   3.387   0.994
 4675SOL    HW214925   1.391   3.438   0.950
 4676SOL     OW14926   0.892   5.561   3.424
 4676SOL    HW114927   0.991   5.543   3.420
 4676SOL    HW214928   0.874   5.630   3.494
 4677SOL     OW14929   1.461   1.626   0.932
 4677SOL    HW114930   1.495   1.720   0.937
 4677SOL    HW214931   1.422   1.600   1.021
 4678SOL     OW14932   2.149   4.592   2.917
 4678SOL    HW114933   2.197   4.507   2.942
 4678SOL    HW214934   2.215   4.658   2.882
 4679SOL     OW14935   4.849   6.572   1.862
 4679SOL    HW114936   4.897   6.485   1.876
 4679SOL    HW214937   4.823   6.610   1.951
 4680SOL     OW14938   4.078   0.622   1.401
 4680SOL    HW114939   3.997   0.633   1.458
 4680SOL    HW214940   4.080   0.697   1.334
 4681SOL     OW14941   4.927   4.866   6.877
 4681SOL    HW114942   5.022   4.835   6.881
 4681SOL    HW214943   4.922   4.960   6.912
 4682SOL     OW14944   5.321   3.447   6.322
 4682SOL    HW114945   5.337   3.350   6.343
 4682SOL    HW214946   5.223   3.466   6.325
 4683SOL     OW14947   6.198   4.979   2.846
 4683SOL    HW114948   6.219   4.980   2.748
 4683SOL    HW214949   6.283   4.972   2.898
 4684SOL     OW14950   4.380   6.099   6.325
 4684SOL    HW114951   4.356   6.060   6.414
 4684SOL    HW214952   4.306   6.158   6.294
 4685SOL     OW14953   1.999   3.635   6.270
 4685SOL    HW114954   2.084   3.645   6.218
 4685SOL    HW214955   1.950   3.723   6.271
 4686SOL     OW14956   3.588   5.466   0.364
 4686SOL    HW114957   3.671   5.481   0.418
 4686SOL    HW214958   3.605   5.395   0.295
 4687SOL     OW14959   3.729   1.839   3.799
 4687SOL    HW114960   3.743   1.780   3.878
 4687SOL    HW214961   3.729   1.784   3.715
 4688SOL     OW14962   5.979   2.842   5.949
 4688SOL    HW114963   6.019   2.903   6.018
 4688SOL    HW214964   5.887   2.814   5.978
 4689SOL     OW14965   5.401   0.263   1.384
 4689SOL    HW114966   5.417   0.273   1.286
 4689SOL    HW214967   5.378   0.352   1.424
 4690SOL     OW14968   1.819   0.910   0.920
 4690SOL    HW114969   1.755   0.926   0.995
 4690SOL    HW214970   1.872   0.994   0.903
 4691SOL     OW14971   4.662   4.402   0.607
 4691SOL    HW114972   4.591   4.404   0.677
 4691SOL    HW214973   4.671   4.308   0.572
 4692SOL     OW14974   6.388   4.461   3.081
 4692SOL    HW114975   6.404   4.370   3.043
 4692SOL    HW214976   6.341   4.453   3.169
 4693SOL     OW14977   1.658   1.211   4.275
 4693SOL    HW114978   1.693   1.292   4.322
 4693SOL    HW214979   1.731   1.169   4.222
 4694SOL     OW14980   2.562   2.046   0.490
 4694SOL    HW114981   2.494   2.039   0.563
 4694SOL    HW214982   2.654   2.050   0.530
 4695SOL     OW14983   1.677   5.621   0.521
 4695SOL    HW114984   1.597   5.628   0.462
 4695SOL    HW214985   1.654   5.568   0.603
 4696SOL     OW14986   0.506   5.230   6.255
 4696SOL    HW114987   0.513   5.141   6.209
 4696SOL    HW214988   0.428   5.229   6.317
 4697SOL     OW14989   1.335   3.601   2.348
 4697SOL    HW114990   1.415   3.661   2.352
 4697SOL    HW214991   1.294   3.594   2.438
 4698SOL     OW14992   4.270   0.212   3.295
 4698SOL    HW114993   4.287   0.304   3.259
 4698SOL    HW214994   4.314   0.203   3.384
 4699SOL     OW14995   0.404   6.850   2.445
 4699SOL    HW114996   0.477   6.808   2.499
 4699SOL    HW214997   0.316   6.829   2.486
 4700SOL     OW14998   6.958   1.588   2.353
 4700SOL    HW114999   6.905   1.647   2.292
 4700SOL    HW215000   0.024   1.627   2.367
 4701SOL     OW15001   3.311   1.901   2.172
 4701SOL    HW115002   3.356   1.941   2.093
 4701SOL    HW215003   3.376   1.843   2.221
 4702SOL     OW15004   4.756   4.918   0.464
 4702SOL    HW115005   4.718   4.828   0.486
 4702SOL    HW215006   4.813   4.950   0.539
 4703SOL     OW15007   1.484   5.571   2.469
 4703SOL    HW115008   1.537   5.650   2.438
 4703SOL    HW215009   1.417   5.546   2.399
 4704SOL     OW15010   0.217   6.305   5.554
 4704SOL    HW115011   0.308   6.277   5.584
 4704SOL    HW215012   0.165   6.337   5.633
 4705SOL     OW15013   3.280   2.180   0.478
 4705SOL    HW115014   3.363   2.141   0.439
 4705SOL    HW215015   3.275   2.156   0.575
 4706SOL     OW15016   1.316   0.160   0.864
 4706SOL    HW115017   1.229   0.120   0.834
 4706SOL    HW215018   1.329   0.141   0.961
 4707SOL     OW15019   1.555   6.090   1.751
 4707SOL    HW115020   1.620   6.159   1.721
 4707SOL    HW215021   1.481   6.082   1.684
 4708SOL     OW15022   1.118   2.222   5.377
 4708SOL    HW115023   1.135   2.134   5.331
 4708SOL    HW215024   1.186   2.235   5.449
 4709SOL     OW15025   4.913   5.176   4.778
 4709SOL    HW115026   4.890   5.251   4.840
 4709SOL    HW215027   4.840   5.163   4.712
 4710SOL     OW15028   6.112   6.802   4.471
 4710SOL    HW115029   6.049   6.867   4.515
 4710SOL    HW215030   6.205   6.839   4.475
 4711SOL     OW15031   6.477   2.807   3.573
 4711SOL    HW115032   6.540   2.864   3.626
 4711SOL    HW215033   6.383   2.836   3.592
 4712SOL     OW15034   4.555   4.874   6.063
 4712SOL    HW115035   4.493   4.838   5.994
 4712SOL    HW215036   4.537   4.971   6.076
 4713SOL     OW15037   5.321   5.713   1.116
 4713SOL    HW115038   5.240   5.701   1.174
 4713SOL    HW215039   5.341   5.811   1.108
 4714SOL     OW15040   6.621   1.562   6.604
 4714SOL    HW115041   6.604   1.469   6.570
 4714SOL    HW215042   6.578   1.628   6.543
 4715SOL     OW15043   6.111   2.313   1.081
 4715SOL    HW115044   6.155   2.253   1.148
 4715SOL    HW215045   6.122   2.408   1.109
 4716SOL     OW15046   4.760   5.766   5.833
 4716SOL    HW115047   4.852   5.736   5.812
 4716SOL    HW215048   4.728   5.723   5.917
 4717SOL     OW15049   2.075   5.253   5.510
 4717SOL    HW115050   2.159   5.248   5.564
 4717SOL    HW215051   2.015   5.324   5.548
 4718SOL     OW15052   4.815   2.744   1.181
 4718SOL    HW115053   4.901   2.730   1.130
 4718SOL    HW215054   4.738   2.732   1.119
 4719SOL     OW15055   5.522   3.410   3.241
 4719SOL    HW115056   5.586   3.366   3.177
 4719SOL    HW215057   5.458   3.341   3.275
 4720SOL     OW15058   2.717   4.295   6.304
 4720SOL    HW115059   2.675   4.245   6.228
 4720SOL    HW215060   2.774   4.369   6.267
 4721SOL     OW15061   5.901   2.997   1.555
 4721SOL    HW115062   5.839   3.068   1.587
 4721SOL    HW215063   5.889   2.984   1.456
 4722SOL     OW15064   1.241   4.968   0.370
 4722SOL    HW115065   1.204   4.980   0.462
 4722SOL    HW215066   1.245   4.870   0.348
 4723SOL     OW15067   3.428   4.110   5.176
 4723SOL    HW115068   3.479   4.074   5.098
 4723SOL    HW215069   3.475   4.084   5.261
 4724SOL     OW15070   6.858   6.517   3.826
 4724SOL    HW115071   6.939   6.503   3.769
 4724SOL    HW215072   6.835   6.432   3.873
 4725SOL     OW15073   6.074   5.077   0.165
 4725SOL    HW115074   6.105   5.018   0.240
 4725SOL    HW215075   5.980   5.055   0.142
 4726SOL     OW15076   1.505   3.154   5.758
 4726SOL    HW115077   1.583   3.092   5.749
 4726SOL    HW215078   1.428   3.105   5.799
 4727SOL     OW15079   0.616   5.939   0.130
 4727SOL    HW115080   0.563   6.011   0.085
 4727SOL    HW215081   0.572   5.914   0.216
 4728SOL     OW15082   6.535   2.027   2.707
 4728SOL    HW115083   6.623   2.060   2.674
 4728SOL    HW215084   6.461   2.076   2.660
 4729SOL     OW15085   5.028   0.332   0.043
 4729SOL    HW115086   5.061   0.397   6.999
 4729SOL    HW215087   5.034   0.373   0.134
 4730SOL     OW15088   3.692   6.189   5.026
 4730SOL    HW115089   3.755   6.261   5.053
 4730SOL    HW215090   3.744   6.112   4.988
 4731SOL     OW15091   3.398   0.794   0.905
 4731SOL    HW115092   3.429   0.793   0.810
 4731SOL    HW215093   3.322   0.860   0.913
 4732SOL     OW15094   0.867   3.892   5.284
 4732SOL    HW115095   0.770   3.869   5.291
 4732SOL    HW215096   0.922   3.819   5.326
 4733SOL     OW15097   1.626   4.537   2.928
 4733SOL    HW115098   1.612   4.459   2.866
 4733SOL    HW215099   1.722   4.562   2.929
 4734SOL     OW15100   5.321   3.308   6.775
 4734SOL    HW115101   5.383   3.258   6.714
 4734SOL    HW215102   5.329   3.406   6.758
 4735SOL     OW15103   6.880   5.702   3.605
 4735SOL    HW115104   6.793   5.745   3.631
 4735SOL    HW215105   6.869   5.655   3.517
 4736SOL     OW15106   6.049   1.645   4.190
 4736SOL    HW115107   5.961   1.683   4.217
 4736SOL    HW215108   6.119   1.671   4.257
 4737SOL     OW15109   2.213   3.992   0.692
 4737SOL    HW115110   2.219   3.930   0.614
 4737SOL    HW215111   2.303   4.003   0.733
 4738SOL     OW15112   3.533   6.793   3.684
 4738SOL    HW115113   3.533   6.837   3.774
 4738SOL    HW215114   3.626   6.790   3.648
 4739SOL     OW15115   5.873   2.108   3.975
 4739SOL    HW115116   5.819   2.035   3.933
 4739SOL    HW215117   5.839   2.197   3.944
 4740SOL     OW15118   0.372   0.622   1.181
 4740SOL    HW115119   0.327   0.542   1.140
 4740SOL    HW215120   0.407   0.682   1.109
 4741SOL     OW15121   4.411   5.065   1.501
 4741SOL    HW115122   4.437   5.138   1.437
 4741SOL    HW215123   4.479   4.992   1.498
 4742SOL     OW15124   2.761   4.951   1.347
 4742SOL    HW115125   2.691   5.021   1.330
 4742SOL    HW215126   2.847   4.996   1.372
 4743SOL     OW15127   2.529   0.998   5.932
 4743SOL    HW115128   2.595   1.038   5.867
 4743SOL    HW215129   2.512   1.063   6.006
 4744SOL     OW15130   2.445   2.606   5.346
 4744SOL    HW115131   2.445   2.700   5.382
 4744SOL    HW215132   2.451   2.609   5.246
 4745SOL     OW15133   2.914   4.702   5.735
 4745SOL    HW115134   2.928   4.670   5.641
 4745SOL    HW215135   2.885   4.798   5.733
 4746SOL     OW15136   5.578   5.829   0.784
 4746SOL    HW115137   5.585   5.783   0.696
 4746SOL    HW215138   5.655   5.891   0.797
 4747SOL     OW15139   0.891   2.997   6.742
 4747SOL    HW115140   0.899   3.036   6.834
 4747SOL    HW215141   0.951   2.918   6.734
 4748SOL     OW15142   1.451   0.287   1.583
 4748SOL    HW115143   1.491   0.361   1.528
 4748SOL    HW215144   1.410   0.325   1.666
 4749SOL     OW15145   2.950   6.461   6.126
 4749SOL    HW115146   2.922   6.389   6.063
 4749SOL    HW215147   2.936   6.430   6.221
 4750SOL     OW15148   0.045   1.728   4.508
 4750SOL    HW115149   0.067   1.634   4.485
 4750SOL    HW215150   0.057   1.786   4.428
 4751SOL     OW15151   2.086   3.221   0.024
 4751SOL    HW115152   2.109   3.186   0.116
 4751SOL    HW215153   2.170   3.238   6.998
 4752SOL     OW15154   2.655   6.354   0.540
 4752SOL    HW115155   2.752   6.375   0.544
 4752SOL    HW215156   2.642   6.257   0.516
 4753SOL     OW15157   5.886   0.019   4.415
 4753SOL    HW115158   5.972   0.056   4.379
 4753SOL    HW215159   5.830   0.094   4.450
 4754SOL     OW15160   6.154   0.475   6.086
 4754SOL    HW115161   6.217   0.545   6.119
 4754SOL    HW215162   6.127   0.496   5.991
 4755SOL     OW15163   2.498   0.111   6.095
 4755SOL    HW115164   2.546   0.198   6.088
 4755SOL    HW215165   2.401   0.127   6.113
 4756SOL     OW15166   5.893   2.304   2.044
 4756SOL    HW115167   5.982   2.280   2.005
 4756SOL    HW215168   5.824   2.306   1.972
 4757SOL     OW15169   2.418   1.982   1.886
 4757SOL    HW115170   2.506   2.019   1.856
 4757SOL    HW215171   2.355   2.057   1.908
 4758SOL     OW15172   3.841   5.970   4.939
 4758SOL    HW115173   3.875   5.995   4.848
 4758SOL    HW215174   3.823   5.872   4.942
 4759SOL     OW15175   5.006   5.473   4.731
 4759SOL    HW115176   5.061   5.436   4.656
 4759SOL    HW215177   5.057   5.464   4.817
 4760SOL     OW15178   2.881   1.447   1.326
 4760SOL    HW115179   2.913   1.483   1.238
 4760SOL    HW215180   2.848   1.353   1.313
 4761SOL     OW15181   6.785   0.685   6.985
 4761SOL    HW115182   6.873   0.732   6.980
 4761SOL    HW215183   6.720   0.729   6.922
 4762SOL     OW15184   2.170   4.748   3.186
 4762SOL    HW115185   2.130   4.826   3.235
 4762SOL    HW215186   2.188   4.775   3.091
 4763SOL     OW15187   5.713   5.717   3.326
 4763SOL    HW115188   5.758   5.785   3.384
 4763SOL    HW215189   5.634   5.759   3.281
 4764SOL     OW15190   4.657   4.152   5.116
 4764SOL    HW115191   4.665   4.101   5.030
 4764SOL    HW215192   4.719   4.112   5.184
 4765SOL     OW15193   4.835   6.426   4.759
 4765SOL    HW115194   4.884   6.511   4.746
 4765SOL    HW215195   4.866   6.358   4.693
 4766SOL     OW15196   3.904   0.821   4.160
 4766SOL    HW115197   3.831   0.850   4.223
 4766SOL    HW215198   3.890   0.865   4.071
 4767SOL     OW15199   4.219   6.260   0.704
 4767SOL    HW115200   4.305   6.311   0.710
 4767SOL    HW215201   4.226   6.191   0.632
 4768SOL     OW15202   5.412   1.725   4.911
 4768SOL    HW115203   5.491   1.732   4.970
 4768SOL    HW215204   5.432   1.663   4.835
 4769SOL     OW15205   4.146   5.077   1.468
 4769SOL    HW115206   4.107   5.123   1.389
 4769SOL    HW215207   4.245   5.068   1.456
 4770SOL     OW15208   2.215   0.550   3.350
 4770SOL    HW115209   2.222   0.518   3.445
 4770SOL    HW215210   2.128   0.521   3.312
 4771SOL     OW15211   3.113   4.777   5.967
 4771SOL    HW115212   3.118   4.772   6.067
 4771SOL    HW215213   3.018   4.762   5.938
 4772SOL     OW15214   2.639   6.513   1.400
 4772SOL    HW115215   2.663   6.492   1.305
 4772SOL    HW215216   2.629   6.612   1.411
 4773SOL     OW15217   6.924   5.465   4.486
 4773SOL    HW115218   6.833   5.424   4.489
 4773SOL    HW215219   6.921   5.550   4.435
 4774SOL     OW15220   0.617   2.911   2.799
 4774SOL    HW115221   0.674   2.881   2.875
 4774SOL    HW215222   0.669   2.974   2.741
 4775SOL     OW15223   5.580   0.348   3.122
 4775SOL    HW115224   5.678   0.364   3.137
 4775SOL    HW215225   5.564   0.325   3.026
 4776SOL     OW15226   2.338   6.442   2.792
 4776SOL    HW115227   2.386   6.492   2.864
 4776SOL    HW215228   2.251   6.407   2.827
 4777SOL     OW15229   2.393   4.232   1.011
 4777SOL    HW115230   2.306   4.248   1.058
 4777SOL    HW215231   2.386   4.264   0.917
 4778SOL     OW15232   5.666   2.305   1.867
 4778SOL    HW115233   5.623   2.304   1.777
 4778SOL    HW215234   5.630   2.381   1.921
 4779SOL     OW15235   6.153   0.168   1.990
 4779SOL    HW115236   6.202   0.116   2.060
 4779SOL    HW215237   6.213   0.240   1.954
 4780SOL     OW15238   0.841   7.010   6.745
 4780SOL    HW115239   0.929   0.005   6.789
 4780SOL    HW215240   0.785   0.068   6.743
 4781SOL     OW15241   2.618   5.808   1.147
 4781SOL    HW115242   2.698   5.827   1.089
 4781SOL    HW215243   2.548   5.877   1.131
 4782SOL     OW15244   4.636   0.051   6.944
 4782SOL    HW115245   4.619   0.031   0.016
 4782SOL    HW215246   4.686   0.137   6.936
 4783SOL     OW15247   4.318   4.435   0.129
 4783SOL    HW115248   4.249   4.507   0.139
 4783SOL    HW215249   4.272   4.346   0.128
 4784SOL     OW15250   6.177   5.179   6.825
 4784SOL    HW115251   6.220   5.240   6.758
 4784SOL    HW215252   6.113   5.231   6.881
 4785SOL     OW15253   6.543   6.362   1.195
 4785SOL    HW115254   6.622   6.315   1.157
 4785SOL    HW215255   6.570   6.409   1.279
 4786SOL     OW15256   2.035   2.152   2.023
 4786SOL    HW115257   1.960   2.218   2.021
 4786SOL    HW215258   2.038   2.107   2.112
 4787SOL     OW15259   3.461   2.151   3.690
 4787SOL    HW115260   3.456   2.102   3.777
 4787SOL    HW215261   3.557   2.169   3.668
 4788SOL     OW15262   1.501   5.062   6.078
 4788SOL    HW115263   1.511   5.041   6.175
 4788SOL    HW215264   1.404   5.068   6.055
 4789SOL     OW15265   5.450   0.732   0.025
 4789SOL    HW115266   5.370   0.747   6.991
 4789SOL    HW215267   5.511   0.665   7.007
 4790SOL     OW15268   6.038   3.347   7.014
 4790SOL    HW115269   6.108   3.320   6.948
 4790SOL    HW215270   6.028   3.447   7.013
 4791SOL     OW15271   5.971   2.003   1.904
 4791SOL    HW115272   5.879   2.011   1.867
 4791SOL    HW215273   5.989   1.908   1.930
 4792SOL     OW15274   1.882   3.035   2.386
 4792SOL    HW115275   1.874   2.958   2.451
 4792SOL    HW215276   1.819   3.108   2.414
 4793SOL     OW15277   1.329   2.257   5.544
 4793SOL    HW115278   1.427   2.236   5.553
 4793SOL    HW215279   1.314   2.353   5.569
 4794SOL     OW15280   3.876   0.691   3.264
 4794SOL    HW115281   3.813   0.766   3.242
 4794SOL    HW215282   3.966   0.713   3.228
 4795SOL     OW15283   6.911   2.407   3.955
 4795SOL    HW115284   6.962   2.365   4.030
 4795SOL    HW215285   6.814   2.385   3.965
 4796SOL     OW15286   4.918   1.890   6.834
 4796SOL    HW115287   5.013   1.907   6.808
 4796SOL    HW215288   4.915   1.828   6.912
 4797SOL     OW15289   1.375   6.042   5.140
 4797SOL    HW115290   1.388   6.118   5.204
 4797SOL    HW215291   1.320   5.971   5.184
 4798SOL     OW15292   0.455   3.945   5.688
 4798SOL    HW115293   0.358   3.962   5.674
 4798SOL    HW215294   0.508   4.020   5.649
 4799SOL     OW15295   5.038   1.693   5.327
 4799SOL    HW115296   5.127   1.650   5.344
 4799SOL    HW215297   4.969   1.648   5.384
 4800SOL     OW15298   3.177   3.363   5.961
 4800SOL    HW115299   3.186   3.286   5.898
 4800SOL    HW215300   3.108   3.427   5.925
 4801SOL     OW15301   2.500   1.839   0.267
 4801SOL    HW115302   2.536   1.923   0.308
 4801SOL    HW215303   2.401   1.837   0.277
 4802SOL     OW15304   1.183   6.445   1.946
 4802SOL    HW115305   1.153   6.356   1.911
 4802SOL    HW215306   1.282   6.451   1.940
 4803SOL     OW15307   1.075   6.304   0.490
 4803SOL    HW115308   1.161   6.312   0.439
 4803SOL    HW215309   1.095   6.290   0.587
 4804SOL     OW15310   4.313   5.095   6.282
 4804SOL    HW115311   4.394   5.067   6.334
 4804SOL    HW215312   4.244   5.024   6.285
 4805SOL     OW15313   6.573   6.785   1.004
 4805SOL    HW115314   6.658   6.806   1.052
 4805SOL    HW215315   6.574   6.689   0.975
 4806SOL     OW15316   6.646   3.727   3.975
 4806SOL    HW115317   6.555   3.684   3.977
 4806SOL    HW215318   6.656   3.777   3.890
 4807SOL     OW15319   1.288   5.256   1.414
 4807SOL    HW115320   1.296   5.216   1.323
 4807SOL    HW215321   1.368   5.230   1.469
 4808SOL     OW15322   5.953   3.628   0.688
 4808SOL    HW115323   5.867   3.603   0.733
 4808SOL    HW215324   5.978   3.721   0.713
 4809SOL     OW15325   3.680   3.907   7.003
 4809SOL    HW115326   3.776   3.895   0.005
 4809SOL    HW215327   3.639   3.980   0.033
 4810SOL     OW15328   1.682   4.748   1.466
 4810SOL    HW115329   1.622   4.823   1.495
 4810SOL    HW215330   1.706   4.692   1.544
 4811SOL     OW15331   2.432   4.688   2.163
 4811SOL    HW115332   2.403   4.783   2.179
 4811SOL    HW215333   2.393   4.629   2.233
 4812SOL     OW15334   6.663   4.983   5.784
 4812SOL    HW115335   6.705   5.070   5.759
 4812SOL    HW215336   6.729   4.930   5.839
 4813SOL     OW15337   5.016   1.397   1.922
 4813SOL    HW115338   4.930   1.386   1.873
 4813SOL    HW215339   5.090   1.413   1.857
 4814SOL     OW15340   5.773   4.893   0.166
 4814SOL    HW115341   5.739   4.838   0.242
 4814SOL    HW215342   5.696   4.934   0.117
 4815SOL     OW15343   5.676   4.774   2.173
 4815SOL    HW115344   5.621   4.738   2.098
 4815SOL    HW215345   5.665   4.716   2.254
 4816SOL     OW15346   5.925   5.479   2.984
 4816SOL    HW115347   5.907   5.472   2.885
 4816SOL    HW215348   6.021   5.501   2.999
 4817SOL     OW15349   0.375   1.992   6.514
 4817SOL    HW115350   0.450   2.038   6.466
 4817SOL    HW215351   0.288   2.021   6.475
 4818SOL     OW15352   1.299   6.750   4.034
 4818SOL    HW115353   1.326   6.705   4.119
 4818SOL    HW215354   1.368   6.818   4.009
 4819SOL     OW15355   1.801   3.007   0.610
 4819SOL    HW115356   1.867   3.056   0.667
 4819SOL    HW215357   1.712   3.053   0.616
 4820SOL     OW15358   0.186   2.910   1.880
 4820SOL    HW115359   0.137   2.900   1.966
 4820SOL    HW215360   0.282   2.885   1.893
 4821SOL     OW15361   1.195   5.911   2.213
 4821SOL    HW115362   1.196   5.942   2.118
 4821SOL    HW215363   1.102   5.915   2.249
 4822SOL     OW15364   1.465   4.015   4.299
 4822SOL    HW115365   1.512   4.086   4.352
 4822SOL    HW215366   1.367   4.021   4.316
 4823SOL     OW15367   1.505   1.858   2.343
 4823SOL    HW115368   1.532   1.777   2.396
 4823SOL    HW215369   1.478   1.931   2.405
 4824SOL     OW15370   5.277   2.004   5.514
 4824SOL    HW115371   5.183   2.001   5.548
 4824SOL    HW215372   5.276   1.995   5.414
 4825SOL     OW15373   0.814   1.223   4.526
 4825SOL    HW115374   0.912   1.206   4.541
 4825SOL    HW215375   0.764   1.202   4.609
 4826SOL     OW15376   5.027   0.642   0.496
 4826SOL    HW115377   4.980   0.613   0.413
 4826SOL    HW215378   4.973   0.616   0.576
 4827SOL     OW15379   6.595   1.818   0.294
 4827SOL    HW115380   6.531   1.850   0.364
 4827SOL    HW215381   6.546   1.761   0.228
 4828SOL     OW15382   4.381   0.453   1.447
 4828SOL    HW115383   4.375   0.387   1.522
 4828SOL    HW215384   4.319   0.426   1.373
 4829SOL     OW15385   3.952   6.455   6.326
 4829SOL    HW115386   3.943   6.387   6.253
 4829SOL    HW215387   3.985   6.541   6.286
 4830SOL     OW15388   3.768   6.020   3.746
 4830SOL    HW115389   3.671   6.032   3.724
 4830SOL    HW215390   3.802   5.937   3.703
 4831SOL     OW15391   2.820   4.961   5.650
 4831SOL    HW115392   2.722   4.942   5.649
 4831SOL    HW215393   2.840   5.036   5.588
 4832SOL     OW15394   3.955   3.412   4.379
 4832SOL    HW115395   3.860   3.440   4.397
 4832SOL    HW215396   4.010   3.493   4.357
 4833SOL     OW15397   5.609   1.922   3.736
 4833SOL    HW115398   5.699   1.931   3.695
 4833SOL    HW215399   5.538   1.947   3.670
 4834SOL     OW15400   2.700   6.025   2.365
 4834SOL    HW115401   2.674   6.069   2.452
 4834SOL    HW215402   2.774   6.077   2.323
 4835SOL     OW15403   6.271   3.285   5.961
 4835SOL    HW115404   6.225   3.369   5.991
 4835SOL    HW215405   6.211   3.207   5.974
 4836SOL     OW15406   4.738   1.353   5.291
 4836SOL    HW115407   4.765   1.420   5.360
 4836SOL    HW215408   4.763   1.387   5.200
 4837SOL     OW15409   6.726   3.332   3.082
 4837SOL    HW115410   6.801   3.317   3.017
 4837SOL    HW215411   6.726   3.259   3.150
 4838SOL     OW15412   1.284   5.222   6.354
 4838SOL    HW115413   1.274   5.321   6.343
 4838SOL    HW215414   1.278   5.178   6.265
 4839SOL     OW15415   1.389   3.418   0.212
 4839SOL    HW115416   1.347   3.395   0.299
 4839SOL    HW215417   1.318   3.436   0.144
 4840SOL     OW15418   4.988   4.199   5.275
 4840SOL    HW115419   5.078   4.160   5.295
 4840SOL    HW215420   4.998   4.270   5.204
 4841SOL     OW15421   2.951   5.478   2.920
 4841SOL    HW115422   2.863   5.479   2.873
 4841SOL    HW215423   3.001   5.562   2.900
 4842SOL     OW15424   2.312   5.570   3.440
 4842SOL    HW115425   2.379   5.533   3.375
 4842SOL    HW215426   2.347   5.654   3.480
 4843SOL     OW15427   6.546   2.605   1.978
 4843SOL    HW115428   6.499   2.691   1.998
 4843SOL    HW215429   6.590   2.571   2.061
 4844SOL     OW15430   1.275   3.914   5.749
 4844SOL    HW115431   1.345   3.858   5.705
 4844SOL    HW215432   1.186   3.870   5.740
 4845SOL     OW15433   4.650   4.774   5.107
 4845SOL    HW115434   4.717   4.821   5.166
 4845SOL    HW215435   4.681   4.780   5.012
 4846SOL     OW15436   0.384   2.162   3.432
 4846SOL    HW115437   0.415   2.179   3.526
 4846SOL    HW215438   0.413   2.072   3.402
 4847SOL     OW15439   2.577   0.415   5.659
 4847SOL    HW115440   2.616   0.372   5.577
 4847SOL    HW215441   2.651   0.445   5.719
 4848SOL     OW15442   2.101   1.609   3.627
 4848SOL    HW115443   2.053   1.557   3.698
 4848SOL    HW215444   2.161   1.547   3.576
 4849SOL     OW15445   1.959   6.914   0.763
 4849SOL    HW115446   1.868   6.922   0.724
 4849SOL    HW215447   1.973   6.987   0.830
 4850SOL     OW15448   4.631   0.567   1.048
 4850SOL    HW115449   4.553   0.625   1.072
 4850SOL    HW215450   4.651   0.505   1.124
 4851SOL     OW15451   3.884   5.447   6.763
 4851SOL    HW115452   3.816   5.373   6.768
 4851SOL    HW215453   3.840   5.534   6.782
 4852SOL     OW15454   3.461   5.671   4.522
 4852SOL    HW115455   3.476   5.607   4.598
 4852SOL    HW215456   3.413   5.623   4.448
 4853SOL     OW15457   3.342   0.904   2.965
 4853SOL    HW115458   3.322   0.945   3.054
 4853SOL    HW215459   3.430   0.937   2.932
 4854SOL     OW15460   5.744   6.460   1.710
 4854SOL    HW115461   5.683   6.510   1.770
 4854SOL    HW215462   5.743   6.501   1.619
 4855SOL     OW15463   0.246   3.472   5.107
 4855SOL    HW115464   0.338   3.511   5.111
 4855SOL    HW215465   0.194   3.499   5.188
 4856SOL     OW15466   0.387   3.580   2.737
 4856SOL    HW115467   0.458   3.640   2.773
 4856SOL    HW215468   0.415   3.485   2.748
 4857SOL     OW15469   3.469   1.990   4.259
 4857SOL    HW115470   3.555   2.018   4.302
 4857SOL    HW215471   3.394   2.044   4.295
 4858SOL     OW15472   0.645   0.340   4.950
 4858SOL    HW115473   0.607   0.283   4.877
 4858SOL    HW215474   0.613   0.305   5.038
 4859SOL     OW15475   1.020   5.242   1.741
 4859SOL    HW115476   1.056   5.328   1.777
 4859SOL    HW215477   1.082   5.168   1.765
 4860SOL     OW15478   3.884   5.026   6.895
 4860SOL    HW115479   3.949   4.986   6.830
 4860SOL    HW215480   3.932   5.089   6.956
 4861SOL     OW15481   6.650   4.755   5.597
 4861SOL    HW115482   6.639   4.838   5.651
 4861SOL    HW215483   6.563   4.707   5.591
 4862SOL     OW15484   2.682   4.646   4.728
 4862SOL    HW115485   2.627   4.591   4.791
 4862SOL    HW215486   2.756   4.691   4.779
 4863SOL     OW15487   4.973   3.391   2.665
 4863SOL    HW115488   5.055   3.401   2.609
 4863SOL    HW215489   4.931   3.481   2.679
 4864SOL     OW15490   3.338   1.388   1.964
 4864SOL    HW115491   3.436   1.385   1.948
 4864SOL    HW215492   3.303   1.295   1.975
 4865SOL     OW15493   3.441   5.272   5.744
 4865SOL    HW115494   3.343   5.257   5.755
 4865SOL    HW215495   3.465   5.362   5.779
 4866SOL     OW15496   6.419   4.723   1.820
 4866SOL    HW115497   6.343   4.674   1.862
 4866SOL    HW215498   6.407   4.821   1.834
 4867SOL     OW15499   4.679   5.276   3.243
 4867SOL    HW115500   4.734   5.356   3.218
 4867SOL    HW215501   4.674   5.270   3.343
 4868SOL     OW15502   0.590   5.742   1.337
 4868SOL    HW115503   0.654   5.804   1.383
 4868SOL    HW215504   0.620   5.726   1.243
 4869SOL     OW15505   0.317   2.029   0.492
 4869SOL    HW115506   0.256   2.088   0.440
 4869SOL    HW215507   0.388   2.085   0.535
 4870SOL     OW15508   4.065   6.036   1.929
 4870SOL    HW115509   4.042   5.952   1.879
 4870SOL    HW215510   4.128   6.091   1.874
 4871SOL     OW15511   1.449   1.485   3.284
 4871SOL    HW115512   1.415   1.571   3.246
 4871SOL    HW215513   1.473   1.423   3.209
 4872SOL     OW15514   0.754   6.906   2.887
 4872SOL    HW115515   0.725   6.961   2.965
 4872SOL    HW215516   0.767   6.965   2.808
 4873SOL     OW15517   0.120   4.951   5.231
 4873SOL    HW115518   0.147   4.856   5.217
 4873SOL    HW215519   0.020   4.958   5.229
 4874SOL     OW15520   5.219   3.855   2.454
 4874SOL    HW115521   5.285   3.781   2.439
 4874SOL    HW215522   5.241   3.901   2.540
 4875SOL     OW15523   5.571   1.287   1.219
 4875SOL    HW115524   5.651   1.335   1.255
 4875SOL    HW215525   5.600   1.221   1.150
 4876SOL     OW15526   5.920   0.223   5.989
 4876SOL    HW115527   5.950   0.152   6.052
 4876SOL    HW215528   5.939   0.313   6.028
 4877SOL     OW15529   6.424   2.003   0.990
 4877SOL    HW115530   6.346   1.945   0.971
 4877SOL    HW215531   6.462   2.038   0.904
 4878SOL     OW15532   0.231   1.718   1.741
 4878SOL    HW115533   0.221   1.638   1.682
 4878SOL    HW215534   0.306   1.702   1.805
 4879SOL     OW15535   4.288   4.741   2.928
 4879SOL    HW115536   4.263   4.710   2.836
 4879SOL    HW215537   4.359   4.680   2.965
 4880SOL     OW15538   5.182   1.435   0.199
 4880SOL    HW115539   5.122   1.369   0.245
 4880SOL    HW215540   5.242   1.479   0.266
 4881SOL     OW15541   2.778   6.251   5.926
 4881SOL    HW115542   2.821   6.308   5.856
 4881SOL    HW215543   2.711   6.306   5.976
 4882SOL     OW15544   6.386   1.595   5.218
 4882SOL    HW115545   6.469   1.647   5.200
 4882SOL    HW215546   6.399   1.534   5.296
 4883SOL     OW15547   5.870   4.234   2.511
 4883SOL    HW115548   5.945   4.299   2.523
 4883SOL    HW215549   5.898   4.163   2.446
 4884SOL     OW15550   4.713   0.418   1.518
 4884SOL    HW115551   4.748   0.330   1.551
 4884SOL    HW215552   4.673   0.405   1.427
 4885SOL     OW15553   1.998   6.588   1.262
 4885SOL    HW115554   1.942   6.510   1.234
 4885SOL    HW215555   2.070   6.604   1.194
 4886SOL     OW15556   0.144   6.568   6.645
 4886SOL    HW115557   0.116   6.662   6.625
 4886SOL    HW215558   0.190   6.565   6.734
 4887SOL     OW15559   6.783   2.072   3.936
 4887SOL    HW115560   6.685   2.069   3.917
 4887SOL    HW215561   6.797   2.104   4.030
 4888SOL     OW15562   1.751   6.330   3.309
 4888SOL    HW115563   1.718   6.417   3.272
 4888SOL    HW215564   1.744   6.331   3.409
 4889SOL     OW15565   1.109   2.101   0.613
 4889SOL    HW115566   1.014   2.132   0.612
 4889SOL    HW215567   1.123   2.035   0.539
 4890SOL     OW15568   0.520   1.440   4.249
 4890SOL    HW115569   0.579   1.464   4.172
 4890SOL    HW215570   0.565   1.467   4.334
 4891SOL     OW15571   0.667   4.710   0.689
 4891SOL    HW115572   0.642   4.697   0.593
 4891SOL    HW215573   0.762   4.741   0.694
 4892SOL     OW15574   1.755   5.888   1.847
 4892SOL    HW115575   1.745   5.880   1.947
 4892SOL    HW215576   1.672   5.929   1.809
 4893SOL     OW15577   6.670   4.486   6.806
 4893SOL    HW115578   6.734   4.486   6.882
 4893SOL    HW215579   6.682   4.403   6.751
 4894SOL     OW15580   1.922   0.072   3.363
 4894SOL    HW115581   1.865   7.024   3.323
 4894SOL    HW215582   1.986   0.105   3.294
 4895SOL     OW15583   1.177   3.508   0.477
 4895SOL    HW115584   1.243   3.580   0.500
 4895SOL    HW215585   1.164   3.448   0.556
 4896SOL     OW15586   3.004   5.458   4.082
 4896SOL    HW115587   2.954   5.373   4.066
 4896SOL    HW215588   2.939   5.532   4.099
 4897SOL     OW15589   3.627   4.806   6.752
 4897SOL    HW115590   3.643   4.773   6.845
 4897SOL    HW215591   3.689   4.757   6.689
 4898SOL     OW15592   5.769   2.548   5.260
 4898SOL    HW115593   5.812   2.578   5.346
 4898SOL    HW215594   5.781   2.450   5.250
 4899SOL     OW15595   6.251   4.981   2.585
 4899SOL    HW115596   6.229   5.027   2.499
 4899SOL    HW215597   6.347   4.953   2.585
 4900SOL     OW15598   0.132   6.476   5.774
 4900SOL    HW115599   0.068   6.544   5.810
 4900SOL    HW215600   0.126   6.393   5.828
 4901SOL     OW15601   1.528   0.203   4.303
 4901SOL    HW115602   1.477   0.166   4.225
 4901SOL    HW215603   1.568   0.291   4.278
 4902SOL     OW15604   1.617   4.329   1.969
 4902SOL    HW115605   1.552   4.257   1.947
 4902SOL    HW215606   1.706   4.309   1.927
 4903SOL     OW15607   3.654   6.741   6.718
 4903SOL    HW115608   3.688   6.647   6.710
 4903SOL    HW215609   3.717   6.803   6.671
 4904SOL     OW15610   1.931   5.668   4.605
 4904SOL    HW115611   1.863   5.647   4.535
 4904SOL    HW215612   2.020   5.632   4.576
 4905SOL     OW15613   4.721   2.593   2.138
 4905SOL    HW115614   4.640   2.539   2.113
 4905SOL    HW215615   4.786   2.591   2.062
 4906SOL     OW15616   4.716   7.000   0.557
 4906SOL    HW115617   4.753   6.993   0.649
 4906SOL    HW215618   4.790   6.993   0.490
 4907SOL     OW15619   3.992   6.421   3.427
 4907SOL    HW115620   3.928   6.458   3.495
 4907SOL    HW215621   3.998   6.322   3.439
 4908SOL     OW15622   3.944   5.771   6.854
 4908SOL    HW115623   3.938   5.779   6.754
 4908SOL    HW215624   4.037   5.791   6.884
 4909SOL     OW15625   6.019   6.823   5.384
 4909SOL    HW115626   6.051   6.767   5.460
 4909SOL    HW215627   6.078   6.904   5.374
 4910SOL     OW15628   5.200   0.497   5.392
 4910SOL    HW115629   5.141   0.500   5.312
 4910SOL    HW215630   5.258   0.415   5.387
 4911SOL     OW15631   0.121   2.007   5.929
 4911SOL    HW115632   0.097   2.047   6.018
 4911SOL    HW215633   0.092   2.068   5.856
 4912SOL     OW15634   4.131   1.775   2.133
 4912SOL    HW115635   4.133   1.679   2.105
 4912SOL    HW215636   4.141   1.833   2.053
 4913SOL     OW15637   3.386   4.038   3.532
 4913SOL    HW115638   3.294   4.024   3.569
 4913SOL    HW215639   3.445   4.076   3.603
 4914SOL     OW15640   2.789   0.833   4.324
 4914SOL    HW115641   2.831   0.880   4.247
 4914SOL    HW215642   2.855   0.822   4.397
 4915SOL     OW15643   4.391   6.561   4.224
 4915SOL    HW115644   4.338   6.642   4.197
 4915SOL    HW215645   4.405   6.563   4.323
 4916SOL     OW15646   2.923   2.268   3.034
 4916SOL    HW115647   2.884   2.348   2.989
 4916SOL    HW215648   2.893   2.264   3.129
 4917SOL     OW15649   1.663   4.017   1.077
 4917SOL    HW115650   1.703   3.941   1.127
 4917SOL    HW215651   1.665   3.998   0.979
 4918SOL     OW15652   2.797   0.524   2.630
 4918SOL    HW115653   2.708   0.528   2.583
 4918SOL    HW215654   2.802   0.598   2.697
 4919SOL     OW15655   1.428   1.597   2.754
 4919SOL    HW115656   1.450   1.581   2.850
 4919SOL    HW215657   1.484   1.672   2.718
 4920SOL     OW15658   4.348   0.609   0.298
 4920SOL    HW115659   4.348   0.538   0.228
 4920SOL    HW215660   4.293   0.686   0.267
 4921SOL     OW15661   2.304   3.657   1.675
 4921SOL    HW115662   2.208   3.687   1.684
 4921SOL    HW215663   2.329   3.602   1.755
 4922SOL     OW15664   1.724   3.327   5.509
 4922SOL    HW115665   1.672   3.263   5.453
 4922SOL    HW215666   1.821   3.299   5.511
 4923SOL     OW15667   5.398   6.780   2.013
 4923SOL    HW115668   5.389   6.766   2.112
 4923SOL    HW215669   5.346   6.710   1.964
 4924SOL     OW15670   1.772   3.659   4.314
 4924SOL    HW115671   1.699   3.670   4.246
 4924SOL    HW215672   1.737   3.689   4.404
 4925SOL     OW15673   5.151   6.293   1.096
 4925SOL    HW115674   5.211   6.366   1.129
 4925SOL    HW215675   5.056   6.324   1.098
 4926SOL     OW15676   5.628   3.204   1.456
 4926SOL    HW115677   5.601   3.224   1.550
 4926SOL    HW215678   5.714   3.250   1.435
 4927SOL     OW15679   3.654   2.941   2.586
 4927SOL    HW115680   3.735   2.963   2.533
 4927SOL    HW215681   3.581   2.910   2.525
 4928SOL     OW15682   0.216   6.962   6.436
 4928SOL    HW115683   0.264   6.966   6.524
 4928SOL    HW215684   0.228   6.871   6.397
 4929SOL     OW15685   0.857   4.181   5.229
 4929SOL    HW115686   0.851   4.216   5.136
 4929SOL    HW215687   0.862   4.081   5.226
 4930SOL     OW15688   0.909   1.093   0.542
 4930SOL    HW115689   0.830   1.102   0.602
 4930SOL    HW215690   0.965   1.016   0.572
 4931SOL     OW15691   0.468   0.543   6.954
 4931SOL    HW115692   0.519   0.556   6.869
 4931SOL    HW215693   0.370   0.552   6.936
 4932SOL     OW15694   2.466   2.743   1.768
 4932SOL    HW115695   2.561   2.714   1.752
 4932SOL    HW215696   2.448   2.827   1.718
 4933SOL     OW15697   2.284   1.379   4.047
 4933SOL    HW115698   2.334   1.466   4.043
 4933SOL    HW215699   2.204   1.390   4.106
 4934SOL     OW15700   0.680   5.079   4.191
 4934SOL    HW115701   0.756   5.094   4.128
 4934SOL    HW215702   0.630   5.165   4.205
 4935SOL     OW15703   1.620   1.116   6.521
 4935SOL    HW115704   1.679   1.098   6.443
 4935SOL    HW215705   1.626   1.212   6.547
 4936SOL     OW15706   2.883   5.774   1.441
 4936SOL    HW115707   2.791   5.802   1.468
 4936SOL    HW215708   2.936   5.853   1.412
 4937SOL     OW15709   0.834   3.782   6.501
 4937SOL    HW115710   0.920   3.790   6.451
 4937SOL    HW215711   0.769   3.849   6.466
 4938SOL     OW15712   3.186   4.314   1.611
 4938SOL    HW115713   3.140   4.277   1.691
 4938SOL    HW215714   3.262   4.373   1.640
 4939SOL     OW15715   2.055   1.621   1.672
 4939SOL    HW115716   2.100   1.674   1.744
 4939SOL    HW215717   1.968   1.663   1.649
 4940SOL     OW15718   6.880   2.172   4.901
 4940SOL    HW115719   6.922   2.263   4.898
 4940SOL    HW215720   6.859   2.148   4.996
 4941SOL     OW15721   3.985   2.461   5.377
 4941SOL    HW115722   4.007   2.532   5.444
 4941SOL    HW215723   4.046   2.469   5.299
 4942SOL     OW15724   5.511   3.239   4.194
 4942SOL    HW115725   5.604   3.208   4.217
 4942SOL    HW215726   5.464   3.169   4.142
 4943SOL     OW15727   5.775   3.621   6.872
 4943SOL    HW115728   5.765   3.525   6.899
 4943SOL    HW215729   5.690   3.670   6.889
 4944SOL     OW15730   1.918   4.671   0.595
 4944SOL    HW115731   1.823   4.699   0.581
 4944SOL    HW215732   1.969   4.681   0.509
 4945SOL     OW15733   2.069   1.085   5.266
 4945SOL    HW115734   2.116   1.169   5.291
 4945SOL    HW215735   2.119   1.006   5.303
 4946SOL     OW15736   1.343   4.371   0.036
 4946SOL    HW115737   1.255   4.331   0.013
 4946SOL    HW215738   1.410   4.347   6.990
 4947SOL     OW15739   2.516   0.629   2.295
 4947SOL    HW115740   2.529   0.725   2.270
 4947SOL    HW215741   2.508   0.621   2.394
 4948SOL     OW15742   1.825   2.321   2.334
 4948SOL    HW115743   1.811   2.241   2.393
 4948SOL    HW215744   1.850   2.400   2.389
 4949SOL     OW15745   6.733   3.501   5.903
 4949SOL    HW115746   6.664   3.430   5.920
 4949SOL    HW215747   6.693   3.574   5.848
 4950SOL     OW15748   2.472   4.398   5.330
 4950SOL    HW115749   2.384   4.444   5.342
 4950SOL    HW215750   2.459   4.299   5.339
 4951SOL     OW15751   6.197   5.957   3.896
 4951SOL    HW115752   6.213   6.055   3.900
 4951SOL    HW215753   6.208   5.925   3.801
 4952SOL     OW15754   0.071   0.647   6.623
 4952SOL    HW115755   0.106   0.682   6.536
 4952SOL    HW215756   0.044   0.724   6.681
 4953SOL     OW15757   1.514   1.992   4.556
 4953SOL    HW115758   1.477   2.033   4.472
 4953SOL    HW215759   1.540   1.897   4.538
 4954SOL     OW15760   2.458   4.141   5.707
 4954SOL    HW115761   2.366   4.151   5.670
 4954SOL    HW215762   2.465   4.055   5.757
 4955SOL     OW15763   2.830   5.337   0.324
 4955SOL    HW115764   2.921   5.303   0.301
 4955SOL    HW215765   2.768   5.321   0.247
 4956SOL     OW15766   2.742   0.552   5.344
 4956SOL    HW115767   2.841   0.550   5.328
 4956SOL    HW215768   2.711   0.460   5.369
 4957SOL     OW15769   5.969   3.909   7.017
 4957SOL    HW115770   5.878   3.901   0.031
 4957SOL    HW215771   5.971   3.982   6.949
 4958SOL     OW15772   1.854   6.262   5.446
 4958SOL    HW115773   1.906   6.199   5.504
 4958SOL    HW215774   1.850   6.226   5.353
 4959SOL     OW15775   0.037   1.979   1.323
 4959SOL    HW115776   0.062   2.047   1.254
 4959SOL    HW215777   6.970   1.998   1.357
 4960SOL     OW15778   4.118   5.150   3.570
 4960SOL    HW115779   4.201   5.127   3.621
 4960SOL    HW215780   4.055   5.199   3.630
 4961SOL     OW15781   2.895   1.038   6.959
 4961SOL    HW115782   2.876   1.016   0.030
 4961SOL    HW215783   2.839   0.981   6.899
 4962SOL     OW15784   6.667   2.468   0.674
 4962SOL    HW115785   6.609   2.461   0.755
 4962SOL    HW215786   6.611   2.497   0.596
 4963SOL     OW15787   1.208   5.541   0.816
 4963SOL    HW115788   1.155   5.619   0.782
 4963SOL    HW215789   1.199   5.535   0.916
 4964SOL     OW15790   2.489   6.785   4.544
 4964SOL    HW115791   2.571   6.794   4.489
 4964SOL    HW215792   2.433   6.868   4.535
 4965SOL     OW15793   1.207   6.770   2.786
 4965SOL    HW115794   1.238   6.676   2.775
 4965SOL    HW215795   1.277   6.832   2.751
 4966SOL     OW15796   2.753   5.964   4.483
 4966SOL    HW115797   2.820   5.917   4.540
 4966SOL    HW215798   2.666   5.970   4.532
 4967SOL     OW15799   3.815   4.680   5.458
 4967SOL    HW115800   3.880   4.620   5.411
 4967SOL    HW215801   3.802   4.647   5.552
 4968SOL     OW15802   0.303   0.889   4.281
 4968SOL    HW115803   0.332   0.822   4.350
 4968SOL    HW215804   0.323   0.981   4.313
 4969SOL     OW15805   0.246   6.445   2.440
 4969SOL    HW115806   0.291   6.405   2.360
 4969SOL    HW215807   0.150   6.462   2.420
 4970SOL     OW15808   1.836   1.086   1.696
 4970SOL    HW115809   1.871   1.096   1.789
 4970SOL    HW215810   1.842   0.990   1.669
 4971SOL     OW15811   6.382   6.063   2.865
 4971SOL    HW115812   6.437   5.981   2.847
 4971SOL    HW215813   6.385   6.084   2.962
 4972SOL     OW15814   1.134   3.992   1.057
 4972SOL    HW115815   1.111   4.080   1.015
 4972SOL    HW215816   1.216   4.003   1.113
 4973SOL     OW15817   0.197   0.331   1.940
 4973SOL    HW115818   0.114   0.310   1.889
 4973SOL    HW215819   0.194   0.286   2.029
 4974SOL     OW15820   4.872   4.097   6.497
 4974SOL    HW115821   4.848   4.012   6.545
 4974SOL    HW215822   4.904   4.165   6.562
 4975SOL     OW15823   5.061   3.644   1.067
 4975SOL    HW115824   5.066   3.545   1.075
 4975SOL    HW215825   5.153   3.683   1.076
 4976SOL     OW15826   0.771   0.681   4.603
 4976SOL    HW115827   0.725   0.769   4.618
 4976SOL    HW215828   0.743   0.617   4.674
 4977SOL     OW15829   3.652   3.841   6.690
 4977SOL    HW115830   3.699   3.926   6.714
 4977SOL    HW215831   3.556   3.860   6.670
 4978SOL     OW15832   4.710   4.804   5.426
 4978SOL    HW115833   4.633   4.804   5.490
 4978SOL    HW215834   4.784   4.862   5.463
 4979SOL     OW15835   0.767   6.858   0.079
 4979SOL    HW115836   0.824   6.816   0.149
 4979SOL    HW215837   0.821   6.922   0.024
 4980SOL     OW15838   6.704   4.655   2.848
 4980SOL    HW115839   6.696   4.608   2.936
 4980SOL    HW215840   6.788   4.627   2.802
 4981SOL     OW15841   3.391   5.503   1.995
 4981SOL    HW115842   3.454   5.449   2.052
 4981SOL    HW215843   3.351   5.443   1.925
 4982SOL     OW15844   4.119   1.421   6.717
 4982SOL    HW115845   4.092   1.415   6.621
 4982SOL    HW215846   4.051   1.474   6.767
 4983SOL     OW15847   6.012   5.010   3.997
 4983SOL    HW115848   6.062   5.004   3.911
 4983SOL    HW215849   5.933   4.949   3.994
 4984SOL     OW15850   4.943   4.122   2.837
 4984SOL    HW115851   4.903   4.103   2.747
 4984SOL    HW215852   4.987   4.212   2.835
 4985SOL     OW15853   5.121   6.161   2.564
 4985SOL    HW115854   5.130   6.067   2.529
 4985SOL    HW215855   5.187   6.220   2.517
 4986SOL     OW15856   6.616   4.829   1.152
 4986SOL    HW115857   6.547   4.811   1.222
 4986SOL    HW215858   6.682   4.896   1.187
 4987SOL     OW15859   1.079   6.148   2.892
 4987SOL    HW115860   1.157   6.144   2.954
 4987SOL    HW215861   1.008   6.207   2.931
 4988SOL     OW15862   6.215   1.090   3.466
 4988SOL    HW115863   6.146   1.023   3.442
 4988SOL    HW215864   6.183   1.147   3.542
 4989SOL     OW15865   4.768   0.688   1.494
 4989SOL    HW115866   4.767   0.596   1.532
 4989SOL    HW215867   4.778   0.755   1.568
 4990SOL     OW15868   3.778   1.956   0.059
 4990SOL    HW115869   3.860   1.900   0.045
 4990SOL    HW215870   3.790   2.044   0.014
 4991SOL     OW15871   0.041   5.914   4.225
 4991SOL    HW115872   0.129   5.960   4.235
 4991SOL    HW215873   6.991   5.981   4.232
 4992SOL     OW15874   6.532   1.780   2.853
 4992SOL    HW115875   6.544   1.869   2.811
 4992SOL    HW215876   6.436   1.754   2.849
 4993SOL     OW15877   4.226   6.627   4.863
 4993SOL    HW115878   4.302   6.581   4.909
 4993SOL    HW215879   4.145   6.568   4.865
 4994SOL     OW15880   2.098   5.370   4.871
 4994SOL    HW115881   1.999   5.385   4.875
 4994SOL    HW215882   2.144   5.445   4.917
 4995SOL     OW15883   0.665   0.580   4.843
 4995SOL    HW115884   0.674   0.508   4.912
 4995SOL    HW215885   0.576   0.573   4.799
 4996SOL     OW15886   0.286   1.654   3.708
 4996SOL    HW115887   0.379   1.665   3.741
 4996SOL    HW215888   0.267   1.557   3.693
 4997SOL     OW15889   3.688   2.445   1.454
 4997SOL    HW115890   3.611   2.501   1.424
 4997SOL    HW215891   3.722   2.479   1.542
 4998SOL     OW15892   1.649   3.583   3.398
 4998SOL    HW115893   1.633   3.672   3.355
 4998SOL    HW215894   1.585   3.516   3.361
 4999SOL     OW15895   0.655   3.396   5.020
 4999SOL    HW115896   0.659   3.496   5.025
 4999SOL    HW215897   0.606   3.361   5.100
 5000SOL     OW15898   3.108   6.457   3.374
 5000SOL    HW115899   3.147   6.521   3.440
 5000SOL    HW215900   3.086   6.506   3.289
 5001SOL     OW15901   0.281   5.929   2.380
 5001SOL    HW115902   0.293   6.023   2.347
 5001SOL    HW215903   0.371   5.890   2.399
 5002SOL     OW15904   0.724   4.559   2.566
 5002SOL    HW115905   0.787   4.503   2.618
 5002SOL    HW215906   0.647   4.586   2.624
 5003SOL     OW15907   3.976   6.290   3.062
 5003SOL    HW115908   4.052   6.309   3.000
 5003SOL    HW215909   3.901   6.354   3.043
 5004SOL     OW15910   2.577   5.305   5.515
 5004SOL    HW115911   2.556   5.328   5.610
 5004SOL    HW215912   2.668   5.264   5.510
 5005SOL     OW15913   2.379   3.055   6.001
 5005SOL    HW115914   2.334   3.040   6.089
 5005SOL    HW215915   2.437   2.976   5.980
 5006SOL     OW15916   5.467   0.954   2.278
 5006SOL    HW115917   5.396   0.996   2.335
 5006SOL    HW215918   5.556   0.995   2.301
 5007SOL     OW15919   6.878   0.455   0.996
 5007SOL    HW115920   6.948   0.497   1.055
 5007SOL    HW215921   6.884   0.494   0.904
 5008SOL     OW15922   6.724   5.420   1.112
 5008SOL    HW115923   6.650   5.435   1.046
 5008SOL    HW215924   6.810   5.412   1.062
 5009SOL     OW15925   1.262   2.852   0.515
 5009SOL    HW115926   1.313   2.802   0.585
 5009SOL    HW215927   1.326   2.905   0.458
 5010SOL     OW15928   3.909   2.359   0.780
 5010SOL    HW115929   3.844   2.413   0.729
 5010SOL    HW215930   3.999   2.403   0.778
 5011SOL     OW15931   2.153   4.055   1.242
 5011SOL    HW115932   2.128   3.992   1.168
 5011SOL    HW215933   2.131   4.149   1.215
 5012SOL     OW15934   6.053   3.045   5.228
 5012SOL    HW115935   6.057   3.104   5.147
 5012SOL    HW215936   6.054   3.102   5.311
 5013SOL     OW15937   5.730   0.522   5.668
 5013SOL    HW115938   5.742   0.574   5.583
 5013SOL    HW215939   5.731   0.424   5.647
 5014SOL     OW15940   6.818   4.580   0.022
 5014SOL    HW115941   6.780   4.496   0.061
 5014SOL    HW215942   6.897   4.557   6.990
 5015SOL     OW15943   5.229   0.698   4.645
 5015SOL    HW115944   5.314   0.699   4.593
 5015SOL    HW215945   5.151   0.711   4.584
 5016SOL     OW15946   1.159   2.675   4.716
 5016SOL    HW115947   1.059   2.672   4.716
 5016SOL    HW215948   1.195   2.601   4.660
 5017SOL     OW15949   1.149   2.295   1.205
 5017SOL    HW115950   1.189   2.213   1.164
 5017SOL    HW215951   1.223   2.356   1.235
 5018SOL     OW15952   1.482   5.038   2.336
 5018SOL    HW115953   1.498   4.951   2.290
 5018SOL    HW215954   1.502   5.113   2.273
 5019SOL     OW15955   2.211   5.802   5.938
 5019SOL    HW115956   2.283   5.807   5.869
 5019SOL    HW215957   2.224   5.721   5.994
 5020SOL     OW15958   0.305   6.624   5.348
 5020SOL    HW115959   0.205   6.631   5.347
 5020SOL    HW215960   0.344   6.703   5.300
 5021SOL     OW15961   1.458   0.657   1.667
 5021SOL    HW115962   1.535   0.592   1.669
 5021SOL    HW215963   1.389   0.624   1.602
 5022SOL     OW15964   0.948   2.657   1.387
 5022SOL    HW115965   0.983   2.627   1.298
 5022SOL    HW215966   0.867   2.715   1.374
 5023SOL     OW15967   0.184   4.216   1.566
 5023SOL    HW115968   0.243   4.272   1.507
 5023SOL    HW215969   0.089   4.239   1.547
 5024SOL     OW15970   5.942   5.142   0.728
 5024SOL    HW115971   5.982   5.127   0.638
 5024SOL    HW215972   5.870   5.211   0.721
 5025SOL     OW15973   4.007   1.897   3.700
 5025SOL    HW115974   3.986   1.993   3.678
 5025SOL    HW215975   3.942   1.864   3.768
 5026SOL     OW15976   0.120   5.151   4.732
 5026SOL    HW115977   0.164   5.200   4.807
 5026SOL    HW215978   0.021   5.160   4.741
 5027SOL     OW15979   6.054   0.353   1.468
 5027SOL    HW115980   5.987   0.323   1.400
 5027SOL    HW215981   6.031   0.445   1.500
 5028SOL     OW15982   6.714   2.034   3.545
 5028SOL    HW115983   6.769   1.974   3.488
 5028SOL    HW215984   6.620   2.036   3.510
 5029SOL     OW15985   6.498   2.446   2.401
 5029SOL    HW115986   6.424   2.513   2.402
 5029SOL    HW215987   6.466   2.362   2.356
 5030SOL     OW15988   6.837   5.987   6.164
 5030SOL    HW115989   6.843   6.087   6.165
 5030SOL    HW215990   6.928   5.948   6.157
 5031SOL     OW15991   0.185   1.054   5.614
 5031SOL    HW115992   0.223   1.141   5.644
 5031SOL    HW215993   0.249   1.009   5.550
 5032SOL     OW15994   2.499   1.913   5.816
 5032SOL    HW115995   2.437   1.920   5.894
 5032SOL    HW215996   2.593   1.934   5.845
 5033SOL     OW15997   2.094   0.453   0.202
 5033SOL    HW115998   2.188   0.483   0.220
 5033SOL    HW215999   2.047   0.437   0.289
 5034SOL     OW16000   5.202   6.895   4.040
 5034SOL    HW116001   5.275   6.947   3.995
 5034SOL    HW216002   5.193   6.806   3.997
 5035SOL     OW16003   1.032   3.740   5.717
 5035SOL    HW116004   0.948   3.777   5.757
 5035SOL    HW216005   1.050   3.649   5.754
 5036SOL     OW16006   6.304   5.249   6.589
 5036SOL    HW116007   6.353   5.175   6.542
 5036SOL    HW216008   6.346   5.336   6.566
 5037SOL     OW16009   4.482   4.634   1.489
 5037SOL    HW116010   4.551   4.600   1.426
 5037SOL    HW216011   4.482   4.577   1.572
 5038SOL     OW16012   4.083   3.381   3.926
 5038SOL    HW116013   4.093   3.292   3.970
 5038SOL    HW216014   4.080   3.369   3.827
 5039SOL     OW16015   2.228   2.988   5.781
 5039SOL    HW116016   2.277   2.995   5.694
 5039SOL    HW216017   2.292   3.006   5.856
 5040SOL     OW16018   0.935   6.033   5.123
 5040SOL    HW116019   0.874   5.958   5.098
 5040SOL    HW216020   1.014   5.997   5.172
 5041SOL     OW16021   1.170   2.296   1.947
 5041SOL    HW116022   1.167   2.326   2.042
 5041SOL    HW216023   1.202   2.201   1.943
 5042SOL     OW16024   0.054   2.808   0.596
 5042SOL    HW116025   0.008   2.849   0.675
 5042SOL    HW216026   0.087   2.716   0.621
 5043SOL     OW16027   4.599   0.576   6.699
 5043SOL    HW116028   4.698   0.566   6.709
 5043SOL    HW216029   4.556   0.565   6.789
 5044SOL     OW16030   0.631   5.694   1.001
 5044SOL    HW116031   0.661   5.788   0.983
 5044SOL    HW216032   0.531   5.690   0.997
 5045SOL     OW16033   6.439   5.894   5.999
 5045SOL    HW116034   6.450   5.801   5.964
 5045SOL    HW216035   6.401   5.953   5.928
 5046SOL     OW16036   3.783   4.041   3.823
 5046SOL    HW116037   3.854   4.005   3.884
 5046SOL    HW216038   3.809   4.022   3.728
 5047SOL     OW16039   2.311   4.374   3.066
 5047SOL    HW116040   2.366   4.356   3.147
 5047SOL    HW216041   2.216   4.391   3.093
 5048SOL     OW16042   1.421   0.732   4.444
 5048SOL    HW116043   1.479   0.797   4.493
 5048SOL    HW216044   1.337   0.718   4.495
 5049SOL     OW16045   4.615   1.049   0.110
 5049SOL    HW116046   4.592   0.991   0.031
 5049SOL    HW216047   4.548   1.034   0.182
 5050SOL     OW16048   1.344   1.267   6.746
 5050SOL    HW116049   1.281   1.310   6.810
 5050SOL    HW216050   1.385   1.186   6.789
 5051SOL     OW16051   4.720   4.263   1.475
 5051SOL    HW116052   4.696   4.223   1.563
 5051SOL    HW216053   4.649   4.241   1.408
 5052SOL     OW16054   3.265   2.022   6.050
 5052SOL    HW116055   3.211   2.043   6.132
 5052SOL    HW216056   3.224   1.945   6.002
 5053SOL     OW16057   0.996   5.206   3.176
 5053SOL    HW116058   1.009   5.248   3.086
 5053SOL    HW216059   1.065   5.242   3.239
 5054SOL     OW16060   2.761   4.829   5.227
 5054SOL    HW116061   2.777   4.745   5.176
 5054SOL    HW216062   2.672   4.867   5.201
 5055SOL     OW16063   1.159   2.175   6.010
 5055SOL    HW116064   1.124   2.082   6.014
 5055SOL    HW216065   1.082   2.239   6.009
 5056SOL     OW16066   5.199   4.035   5.615
 5056SOL    HW116067   5.129   3.964   5.622
 5056SOL    HW216068   5.210   4.080   5.703
 5057SOL     OW16069   7.005   0.034   3.203
 5057SOL    HW116070   0.010   6.965   3.221
 5057SOL    HW216071   0.060   0.090   3.181
 5058SOL     OW16072   3.434   4.221   6.800
 5058SOL    HW116073   3.478   4.256   6.718
 5058SOL    HW216074   3.337   4.205   6.782
 5059SOL     OW16075   0.150   0.597   3.347
 5059SOL    HW116076   0.215   0.631   3.279
 5059SOL    HW216077   0.085   0.669   3.370
 5060SOL     OW16078   0.026   2.272   6.481
 5060SOL    HW116079   0.083   2.252   6.561
 5060SOL    HW216080   6.957   2.288   6.510
 5061SOL     OW16081   4.603   2.563   0.626
 5061SOL    HW116082   4.631   2.527   0.538
 5061SOL    HW216083   4.682   2.571   0.687
 5062SOL     OW16084   6.194   0.209   2.294
 5062SOL    HW116085   6.190   0.288   2.355
 5062SOL    HW216086   6.116   0.212   2.231
 5063SOL     OW16087   0.212   6.965   2.033
 5063SOL    HW116088   0.283   6.984   2.101
 5063SOL    HW216089   0.123   6.993   2.069
 5064SOL     OW16090   5.106   2.892   0.914
 5064SOL    HW116091   5.087   2.980   0.958
 5064SOL    HW216092   5.071   2.894   0.820
 5065SOL     OW16093   3.437   0.624   5.462
 5065SOL    HW116094   3.509   0.563   5.497
 5065SOL    HW216095   3.398   0.675   5.538
 5066SOL     OW16096   5.061   4.899   2.047
 5066SOL    HW116097   5.005   4.825   2.011
 5066SOL    HW216098   5.080   4.883   2.144
 5067SOL     OW16099   4.728   1.501   0.933
 5067SOL    HW116100   4.702   1.451   1.015
 5067SOL    HW216101   4.697   1.450   0.852
 5068SOL     OW16102   2.228   4.540   1.090
 5068SOL    HW116103   2.257   4.480   1.164
 5068SOL    HW216104   2.299   4.541   1.019
 5069SOL     OW16105   2.018   4.635   3.430
 5069SOL    HW116106   2.044   4.634   3.527
 5069SOL    HW216107   2.071   4.706   3.382
 5070SOL     OW16108   5.015   3.259   3.647
 5070SOL    HW116109   4.963   3.219   3.723
 5070SOL    HW216110   5.100   3.298   3.682
 5071SOL     OW16111   4.359   2.313   4.845
 5071SOL    HW116112   4.424   2.253   4.890
 5071SOL    HW216113   4.296   2.351   4.912
 5072SOL     OW16114   0.580   5.979   0.510
 5072SOL    HW116115   0.666   5.932   0.531
 5072SOL    HW216116   0.537   6.010   0.595
 5073SOL     OW16117   6.643   6.581   3.138
 5073SOL    HW116118   6.579   6.632   3.195
 5073SOL    HW216119   6.593   6.532   3.067
 5074SOL     OW16120   3.586   3.429   6.893
 5074SOL    HW116121   3.501   3.420   6.840
 5074SOL    HW216122   3.631   3.515   6.870
 5075SOL     OW16123   0.327   1.293   5.625
 5075SOL    HW116124   0.393   1.265   5.695
 5075SOL    HW216125   0.375   1.340   5.551
 5076SOL     OW16126   4.084   0.958   0.988
 5076SOL    HW116127   4.139   0.975   0.907
 5076SOL    HW216128   4.142   0.961   1.069
 5077SOL     OW16129   0.906   2.499   3.727
 5077SOL    HW116130   0.897   2.451   3.814
 5077SOL    HW216131   0.961   2.582   3.741
 5078SOL     OW16132   0.803   1.700   3.408
 5078SOL    HW116133   0.867   1.773   3.384
 5078SOL    HW216134   0.756   1.669   3.325
 5079SOL     OW16135   3.143   4.774   6.253
 5079SOL    HW116136   3.054   4.729   6.247
 5079SOL    HW216137   3.189   4.746   6.337
 5080SOL     OW16138   5.622   6.714   5.113
 5080SOL    HW116139   5.694   6.764   5.162
 5080SOL    HW216140   5.662   6.632   5.071
 5081SOL     OW16141   3.877   3.420   2.979
 5081SOL    HW116142   3.954   3.417   3.044
 5081SOL    HW216143   3.801   3.471   3.020
 5082SOL     OW16144   5.897   6.213   5.148
 5082SOL    HW116145   5.799   6.228   5.161
 5082SOL    HW216146   5.922   6.123   5.183
 5083SOL     OW16147   1.848   6.345   2.573
 5083SOL    HW116148   1.870   6.395   2.490
 5083SOL    HW216149   1.806   6.257   2.549
 5084SOL     OW16150   1.078   4.983   4.757
 5084SOL    HW116151   1.042   4.914   4.695
 5084SOL    HW216152   1.157   5.028   4.715
 5085SOL     OW16153   5.565   2.139   6.124
 5085SOL    HW116154   5.504   2.217   6.112
 5085SOL    HW216155   5.535   2.086   6.204
 5086SOL     OW16156   6.207   5.340   4.015
 5086SOL    HW116157   6.152   5.280   4.073
 5086SOL    HW216158   6.266   5.285   3.955
 5087SOL     OW16159   6.980   6.180   3.795
 5087SOL    HW116160   6.901   6.190   3.856
 5087SOL    HW216161   6.972   6.095   3.743
 5088SOL     OW16162   6.041   1.129   5.455
 5088SOL    HW116163   5.977   1.192   5.499
 5088SOL    HW216164   5.994   1.044   5.433
 5089SOL     OW16165   6.547   3.256   3.371
 5089SOL    HW116166   6.634   3.232   3.414
 5089SOL    HW216167   6.552   3.350   3.337
 5090SOL     OW16168   2.042   3.863   1.508
 5090SOL    HW116169   2.132   3.854   1.465
 5090SOL    HW216170   1.998   3.947   1.475
 5091SOL     OW16171   0.892   5.974   3.100
 5091SOL    HW116172   0.864   5.984   3.005
 5091SOL    HW216173   0.963   6.041   3.122
 5092SOL     OW16174   3.533   2.624   1.326
 5092SOL    HW116175   3.523   2.723   1.321
 5092SOL    HW216176   3.444   2.581   1.312
 5093SOL     OW16177   1.363   1.892   1.581
 5093SOL    HW116178   1.293   1.904   1.511
 5093SOL    HW216179   1.438   1.956   1.564
 5094SOL     OW16180   1.151   0.267   5.585
 5094SOL    HW116181   1.135   0.218   5.500
 5094SOL    HW216182   1.219   0.218   5.640
 5095SOL     OW16183   1.180   0.640   4.551
 5095SOL    HW116184   1.199   0.577   4.476
 5095SOL    HW216185   1.096   0.692   4.531
 5096SOL     OW16186   4.296   3.978   0.743
 5096SOL    HW116187   4.318   3.885   0.772
 5096SOL    HW216188   4.260   4.029   0.821
 5097SOL     OW16189   1.787   0.339   6.405
 5097SOL    HW116190   1.805   0.383   6.316
 5097SOL    HW216191   1.729   0.398   6.460
 5098SOL     OW16192   0.345   0.546   1.688
 5098SOL    HW116193   0.378   0.470   1.744
 5098SOL    HW216194   0.404   0.625   1.701
 5099SOL     OW16195   1.252   0.242   6.201
 5099SOL    HW116196   1.349   0.220   6.191
 5099SOL    HW216197   1.202   0.160   6.230
 5100SOL     OW16198   4.453   6.658   6.093
 5100SOL    HW116199   4.419   6.735   6.039
 5100SOL    HW216200   4.479   6.584   6.031
 5101SOL     OW16201   5.422   6.411   0.180
 5101SOL    HW116202   5.521   6.404   0.194
 5101SOL    HW216203   5.391   6.500   0.213
 5102SOL     OW16204   6.048   0.364   5.382
 5102SOL    HW116205   5.984   0.288   5.370
 5102SOL    HW216206   6.104   0.347   5.464
 5103SOL     OW16207   0.031   0.915   4.188
 5103SOL    HW116208   0.046   0.933   4.091
 5103SOL    HW216209   0.119   0.901   4.233
 5104SOL     OW16210   1.777   6.859   1.162
 5104SOL    HW116211   1.722   6.784   1.199
 5104SOL    HW216212   1.859   6.822   1.118
 5105SOL     OW16213   4.345   3.933   6.774
 5105SOL    HW116214   4.432   3.904   6.815
 5105SOL    HW216215   4.339   4.033   6.778
 5106SOL     OW16216   3.574   0.292   2.243
 5106SOL    HW116217   3.524   0.293   2.157
 5106SOL    HW216218   3.532   0.224   2.304
 5107SOL     OW16219   2.944   0.604   0.050
 5107SOL    HW116220   2.881   0.669   0.094
 5107SOL    HW216221   2.891   0.530   0.008
 5108SOL     OW16222   3.183   3.915   3.667
 5108SOL    HW116223   3.132   3.935   3.751
 5108SOL    HW216224   3.175   3.818   3.646
 5109SOL     OW16225   1.009   1.833   0.974
 5109SOL    HW116226   1.069   1.909   0.947
 5109SOL    HW216227   1.056   1.746   0.955
 5110SOL     OW16228   1.231   6.680   6.186
 5110SOL    HW116229   1.312   6.653   6.239
 5110SOL    HW216230   1.166   6.727   6.245
 5111SOL     OW16231   0.744   1.022   5.688
 5111SOL    HW116232   0.697   1.085   5.751
 5111SOL    HW216233   0.678   0.980   5.627
 5112SOL     OW16234   0.590   6.683   3.162
 5112SOL    HW116235   0.683   6.670   3.196
 5112SOL    HW216236   0.533   6.606   3.191
 5113SOL     OW16237   0.996   0.547   1.134
 5113SOL    HW116238   0.999   0.485   1.056
 5113SOL    HW216239   1.043   0.506   1.212
 5114SOL     OW16240   3.185   3.332   0.144
 5114SOL    HW116241   3.253   3.392   0.187
 5114SOL    HW216242   3.163   3.257   0.205
 5115SOL     OW16243   1.491   4.384   5.656
 5115SOL    HW116244   1.585   4.356   5.674
 5115SOL    HW216245   1.435   4.303   5.637
 5116SOL     OW16246   5.029   5.713   5.783
 5116SOL    HW116247   5.058   5.686   5.691
 5116SOL    HW216248   5.089   5.670   5.851
 5117SOL     OW16249   2.033   4.821   4.096
 5117SOL    HW116250   1.967   4.781   4.159
 5117SOL    HW216251   2.119   4.770   4.101
 5118SOL     OW16252   4.437   6.854   0.287
 5118SOL    HW116253   4.341   6.826   0.278
 5118SOL    HW216254   4.472   6.824   0.376
 5119SOL     OW16255   5.091   0.341   1.581
 5119SOL    HW116256   5.178   0.314   1.622
 5119SOL    HW216257   5.047   0.260   1.541
 5120SOL     OW16258   6.101   1.455   2.958
 5120SOL    HW116259   6.192   1.442   2.999
 5120SOL    HW216260   6.073   1.550   2.968
 5121SOL     OW16261   1.219   3.048   6.233
 5121SOL    HW116262   1.308   3.006   6.215
 5121SOL    HW216263   1.232   3.146   6.252
 5122SOL     OW16264   2.691   0.679   3.895
 5122SOL    HW116265   2.675   0.664   3.992
 5122SOL    HW216266   2.604   0.698   3.849
 5123SOL     OW16267   5.408   3.524   4.087
 5123SOL    HW116268   5.354   3.562   4.012
 5123SOL    HW216269   5.429   3.428   4.068
 5124SOL     OW16270   2.389   5.701   6.462
 5124SOL    HW116271   2.472   5.722   6.513
 5124SOL    HW216272   2.318   5.669   6.525
 5125SOL     OW16273   0.215   3.611   4.457
 5125SOL    HW116274   0.135   3.555   4.434
 5125SOL    HW216275   0.264   3.570   4.534
 5126SOL     OW16276   5.991   4.848   5.754
 5126SOL    HW116277   6.045   4.777   5.710
 5126SOL    HW216278   6.049   4.902   5.816
 5127SOL     OW16279   5.845   3.889   0.822
 5127SOL    HW116280   5.889   3.930   0.742
 5127SOL    HW216281   5.841   3.956   0.896
 5128SOL     OW16282   0.830   0.476   0.000
 5128SOL    HW116283   0.794   0.552   6.971
 5128SOL    HW216284   0.781   0.471   0.087
 5129SOL     OW16285   5.477   0.617   2.964
 5129SOL    HW116286   5.554   0.680   2.952
 5129SOL    HW216287   5.512   0.526   2.985
 5130SOL     OW16288   0.872   5.577   4.572
 5130SOL    HW116289   0.922   5.589   4.658
 5130SOL    HW216290   0.791   5.636   4.572
 5131SOL     OW16291   3.299   4.952   3.377
 5131SOL    HW116292   3.234   4.916   3.443
 5131SOL    HW216293   3.275   5.047   3.354
 5132SOL     OW16294   3.028   1.663   6.490
 5132SOL    HW116295   3.126   1.654   6.471
 5132SOL    HW216296   2.977   1.595   6.437
 5133SOL     OW16297   3.496   5.394   6.092
 5133SOL    HW116298   3.509   5.456   6.169
 5133SOL    HW216299   3.464   5.446   6.012
 5134SOL     OW16300   6.259   7.022   1.686
 5134SOL    HW116301   6.293   6.943   1.635
 5134SOL    HW216302   6.313   0.009   1.770
 5135SOL     OW16303   6.317   3.545   2.935
 5135SOL    HW116304   6.330   3.469   2.872
 5135SOL    HW216305   6.374   3.531   3.016
 5136SOL     OW16306   0.221   1.057   5.914
 5136SOL    HW116307   0.155   0.994   5.953
 5136SOL    HW216308   0.174   1.140   5.883
 5137SOL     OW16309   4.667   2.776   5.508
 5137SOL    HW116310   4.759   2.740   5.494
 5137SOL    HW216311   4.641   2.831   5.429
 5138SOL     OW16312   3.516   4.087   3.778
 5138SOL    HW116313   3.610   4.076   3.808
 5138SOL    HW216314   3.467   4.000   3.788
 5139SOL     OW16315   1.429   0.337   4.617
 5139SOL    HW116316   1.435   0.238   4.634
 5139SOL    HW216317   1.356   0.376   4.673
 5140SOL     OW16318   3.791   1.783   6.226
 5140SOL    HW116319   3.769   1.724   6.149
 5140SOL    HW216320   3.890   1.784   6.239
 5141SOL     OW16321   6.271   3.140   1.290
 5141SOL    HW116322   6.190   3.166   1.238
 5141SOL    HW216323   6.306   3.053   1.255
 5142SOL     OW16324   5.669   6.632   3.880
 5142SOL    HW116325   5.696   6.627   3.976
 5142SOL    HW216326   5.610   6.554   3.858
 5143SOL     OW16327   0.658   3.993   4.715
 5143SOL    HW116328   0.708   4.018   4.798
 5143SOL    HW216329   0.563   3.974   4.737
 5144SOL     OW16330   2.097   3.375   6.690
 5144SOL    HW116331   2.007   3.354   6.654
 5144SOL    HW216332   2.128   3.462   6.653
 5145SOL     OW16333   3.583   6.167   6.335
 5145SOL    HW116334   3.570   6.083   6.282
 5145SOL    HW216335   3.511   6.232   6.313
 5146SOL     OW16336   4.123   4.287   5.587
 5146SOL    HW116337   4.057   4.213   5.601
 5146SOL    HW216338   4.133   4.305   5.489
 5147SOL     OW16339   5.226   3.723   3.045
 5147SOL    HW116340   5.313   3.744   3.090
 5147SOL    HW216341   5.233   3.636   2.996
 5148SOL     OW16342   0.858   0.326   2.089
 5148SOL    HW116343   0.955   0.302   2.095
 5148SOL    HW216344   0.802   0.249   2.118
 5149SOL     OW16345   5.804   4.599   3.797
 5149SOL    HW116346   5.786   4.649   3.881
 5149SOL    HW216347   5.893   4.628   3.760
 5150SOL     OW16348   1.177   5.343   3.660
 5150SOL    HW116349   1.174   5.332   3.561
 5150SOL    HW216350   1.211   5.258   3.702
 5151SOL     OW16351   6.242   4.519   1.190
 5151SOL    HW116352   6.169   4.524   1.258
 5151SOL    HW216353   6.313   4.585   1.211
 5152SOL     OW16354   1.701   6.329   6.527
 5152SOL    HW116355   1.611   6.286   6.527
 5152SOL    HW216356   1.707   6.394   6.450
 5153SOL     OW16357   1.755   0.917   0.507
 5153SOL    HW116358   1.701   0.888   0.428
 5153SOL    HW216359   1.710   0.994   0.551
 5154SOL     OW16360   0.776   2.419   6.694
 5154SOL    HW116361   0.698   2.458   6.744
 5154SOL    HW216362   0.758   2.425   6.596
 5155SOL     OW16363   2.595   1.744   0.709
 5155SOL    HW116364   2.521   1.785   0.655
 5155SOL    HW216365   2.564   1.731   0.803
 5156SOL     OW16366   5.099   5.355   4.960
 5156SOL    HW116367   5.032   5.398   5.021
 5156SOL    HW216368   5.077   5.258   4.950
 5157SOL     OW16369   3.841   1.403   2.127
 5157SOL    HW116370   3.852   1.501   2.110
 5157SOL    HW216371   3.810   1.389   2.221
 5158SOL     OW16372   3.781   1.697   1.186
 5158SOL    HW116373   3.748   1.604   1.204
 5158SOL    HW216374   3.880   1.694   1.171
 5159SOL     OW16375   5.946   3.675   6.634
 5159SOL    HW116376   5.900   3.638   6.714
 5159SOL    HW216377   5.910   3.632   6.551
 5160SOL     OW16378   6.457   6.734   3.265
 5160SOL    HW116379   6.432   6.720   3.361
 5160SOL    HW216380   6.482   6.830   3.251
 5161SOL     OW16381   1.171   3.228   6.794
 5161SOL    HW116382   1.243   3.290   6.824
 5161SOL    HW216383   1.157   3.157   6.863
 5162SOL     OW16384   0.200   5.521   2.583
 5162SOL    HW116385   0.245   5.532   2.494
 5162SOL    HW216386   0.117   5.468   2.572
 5163SOL     OW16387   3.256   6.036   1.887
 5163SOL    HW116388   3.259   5.985   1.973
 5163SOL    HW216389   3.349   6.040   1.848
 5164SOL     OW16390   2.882   3.040   0.633
 5164SOL    HW116391   2.964   3.019   0.581
 5164SOL    HW216392   2.817   2.964   0.626
 5165SOL     OW16393   1.533   4.897   0.091
 5165SOL    HW116394   1.514   4.803   0.063
 5165SOL    HW216395   1.477   4.960   0.038
 5166SOL     OW16396   1.790   5.353   1.776
 5166SOL    HW116397   1.869   5.372   1.718
 5166SOL    HW216398   1.745   5.439   1.800
 5167SOL     OW16399   5.531   3.749   5.555
 5167SOL    HW116400   5.447   3.708   5.592
 5167SOL    HW216401   5.547   3.837   5.599
 5168SOL     OW16402   4.879   2.477   2.358
 5168SOL    HW116403   4.838   2.394   2.395
 5168SOL    HW216404   4.830   2.505   2.276
 5169SOL     OW16405   3.946   1.200   3.827
 5169SOL    HW116406   3.870   1.218   3.891
 5169SOL    HW216407   3.944   1.268   3.753
 5170SOL     OW16408   1.406   3.215   6.060
 5170SOL    HW116409   1.351   3.172   5.989
 5170SOL    HW216410   1.443   3.302   6.027
 5171SOL     OW16411   1.318   5.079   5.771
 5171SOL    HW116412   1.404   5.128   5.756
 5171SOL    HW216413   1.337   4.983   5.792
 5172SOL     OW16414   1.012   5.151   4.325
 5172SOL    HW116415   1.025   5.208   4.406
 5172SOL    HW216416   0.960   5.202   4.257
 5173SOL     OW16417   4.618   3.905   6.139
 5173SOL    HW116418   4.565   3.937   6.218
 5173SOL    HW216419   4.660   3.984   6.093
 5174SOL     OW16420   1.291   6.844   3.567
 5174SOL    HW116421   1.317   6.922   3.511
 5174SOL    HW216422   1.216   6.869   3.627
 5175SOL     OW16423   3.057   4.250   6.530
 5175SOL    HW116424   3.107   4.251   6.444
 5175SOL    HW216425   2.964   4.216   6.515
 5176SOL     OW16426   5.362   5.442   6.326
 5176SOL    HW116427   5.448   5.466   6.370
 5176SOL    HW216428   5.300   5.521   6.328
 5177SOL     OW16429   5.186   0.249   0.753
 5177SOL    HW116430   5.184   0.276   0.657
 5177SOL    HW216431   5.098   0.209   0.779
 5178SOL     OW16432   1.089   4.235   2.092
 5178SOL    HW116433   1.135   4.147   2.097
 5178SOL    HW216434   0.996   4.226   2.128
 5179SOL     OW16435   5.156   3.911   2.841
 5179SOL    HW116436   5.086   3.966   2.887
 5179SOL    HW216437   5.191   3.842   2.904
 5180SOL     OW16438   3.031   6.572   1.202
 5180SOL    HW116439   2.949   6.515   1.195
 5180SOL    HW216440   3.022   6.652   1.143
 5181SOL     OW16441   6.966   1.121   6.872
 5181SOL    HW116442   6.957   1.029   6.834
 5181SOL    HW216443   6.891   1.178   6.838
 5182SOL     OW16444   4.218   4.658   2.672
 5182SOL    HW116445   4.187   4.571   2.635
 5182SOL    HW216446   4.177   4.733   2.621
 5183SOL     OW16447   4.005   2.228   3.259
 5183SOL    HW116448   4.021   2.232   3.160
 5183SOL    HW216449   4.087   2.259   3.307
 5184SOL     OW16450   2.112   2.535   3.904
 5184SOL    HW116451   2.200   2.536   3.952
 5184SOL    HW216452   2.112   2.461   3.837
 5185SOL     OW16453   4.775   0.386   2.511
 5185SOL    HW116454   4.862   0.387   2.560
 5185SOL    HW216455   4.719   0.311   2.545
 5186SOL     OW16456   6.386   3.475   5.773
 5186SOL    HW116457   6.303   3.447   5.725
 5186SOL    HW216458   6.391   3.429   5.862
 5187SOL     OW16459   2.368   5.121   4.634
 5187SOL    HW116460   2.437   5.052   4.656
 5187SOL    HW216461   2.337   5.108   4.539
 5188SOL     OW16462   6.921   6.367   1.440
 5188SOL    HW116463   6.957   6.338   1.351
 5188SOL    HW216464   6.845   6.430   1.426
 5189SOL     OW16465   5.789   6.883   6.155
 5189SOL    HW116466   5.870   6.940   6.142
 5189SOL    HW216467   5.709   6.942   6.166
 5190SOL     OW16468   1.776   2.941   1.981
 5190SOL    HW116469   1.801   2.935   1.884
 5190SOL    HW216470   1.855   2.968   2.035
 5191SOL     OW16471   3.052   6.064   2.263
 5191SOL    HW116472   3.026   6.035   2.355
 5191SOL    HW216473   3.065   5.983   2.205
 5192SOL     OW16474   1.614   5.902   1.285
 5192SOL    HW116475   1.555   5.964   1.336
 5192SOL    HW216476   1.558   5.845   1.224
 5193SOL     OW16477   5.542   0.563   6.643
 5193SOL    HW116478   5.638   0.542   6.629
 5193SOL    HW216479   5.494   0.481   6.676
 5194SOL     OW16480   3.194   1.645   6.246
 5194SOL    HW116481   3.173   1.550   6.221
 5194SOL    HW216482   3.288   1.666   6.219
 5195SOL     OW16483   0.665   0.511   3.362
 5195SOL    HW116484   0.615   0.425   3.353
 5195SOL    HW216485   0.710   0.533   3.275
 5196SOL     OW16486   4.791   6.742   2.790
 5196SOL    HW116487   4.708   6.721   2.842
 5196SOL    HW216488   4.869   6.746   2.853
 5197SOL     OW16489   1.884   3.518   6.477
 5197SOL    HW116490   1.929   3.541   6.391
 5197SOL    HW216491   1.876   3.600   6.534
 5198SOL     OW16492   4.083   5.734   3.362
 5198SOL    HW116493   4.024   5.717   3.284
 5198SOL    HW216494   4.131   5.821   3.350
 5199SOL     OW16495   0.004   5.657   1.112
 5199SOL    HW116496   6.960   5.588   1.091
 5199SOL    HW216497   0.034   5.646   1.207
 5200SOL     OW16498   0.592   3.878   5.348
 5200SOL    HW116499   0.519   3.815   5.376
 5200SOL    HW216500   0.569   3.970   5.380
 5201SOL     OW16501   0.944   6.480   4.415
 5201SOL    HW116502   0.937   6.381   4.400
 5201SOL    HW216503   0.864   6.525   4.377
 5202SOL     OW16504   7.019   3.554   6.782
 5202SOL    HW116505   6.949   3.494   6.744
 5202SOL    HW216506   0.077   3.549   6.725
 5203SOL     OW16507   1.130   2.428   0.048
 5203SOL    HW116508   1.033   2.408   0.063
 5203SOL    HW216509   1.153   2.516   0.090
 5204SOL     OW16510   3.895   4.976   0.344
 5204SOL    HW116511   3.828   5.036   0.300
 5204SOL    HW216512   3.848   4.894   0.378
 5205SOL     OW16513   1.694   0.469   1.723
 5205SOL    HW116514   1.767   0.532   1.698
 5205SOL    HW216515   1.730   0.376   1.730
 5206SOL     OW16516   0.436   4.547   6.756
 5206SOL    HW116517   0.339   4.521   6.751
 5206SOL    HW216518   0.492   4.474   6.718
 5207SOL     OW16519   1.196   5.569   4.530
 5207SOL    HW116520   1.229   5.483   4.490
 5207SOL    HW216521   1.120   5.604   4.475
 5208SOL     OW16522   3.806   0.957   0.454
 5208SOL    HW116523   3.732   1.024   0.456
 5208SOL    HW216524   3.786   0.882   0.516
 5209SOL     OW16525   5.918   6.194   3.799
 5209SOL    HW116526   5.880   6.135   3.870
 5209SOL    HW216527   5.904   6.290   3.825
 5210SOL     OW16528   5.378   3.577   4.798
 5210SOL    HW116529   5.317   3.552   4.873
 5210SOL    HW216530   5.412   3.670   4.812
 5211SOL     OW16531   3.629   3.067   3.894
 5211SOL    HW116532   3.543   3.116   3.878
 5211SOL    HW216533   3.702   3.134   3.912
 5212SOL     OW16534   0.133   2.545   0.628
 5212SOL    HW116535   0.136   2.523   0.725
 5212SOL    HW216536   0.048   2.510   0.589
 5213SOL     OW16537   5.212   2.091   6.146
 5213SOL    HW116538   5.280   2.060   6.080
 5213SOL    HW216539   5.203   2.023   6.219
 5214SOL     OW16540   5.543   1.409   6.572
 5214SOL    HW116541   5.468   1.444   6.628
 5214SOL    HW216542   5.506   1.368   6.488
 5215SOL     OW16543   5.728   5.289   3.002
 5215SOL    HW116544   5.783   5.372   3.013
 5215SOL    HW216545   5.789   5.211   2.990
 5216SOL     OW16546   4.697   5.653   1.452
 5216SOL    HW116547   4.657   5.732   1.406
 5216SOL    HW216548   4.629   5.613   1.514
 5217SOL     OW16549   2.953   5.213   3.626
 5217SOL    HW116550   3.019   5.286   3.609
 5217SOL    HW216551   2.961   5.143   3.555
 5218SOL     OW16552   1.922   0.575   3.824
 5218SOL    HW116553   1.911   0.479   3.799
 5218SOL    HW216554   1.853   0.630   3.775
 5219SOL     OW16555   3.734   0.378   6.632
 5219SOL    HW116556   3.801   0.450   6.649
 5219SOL    HW216557   3.758   0.329   6.548
 5220SOL     OW16558   0.956   5.275   2.462
 5220SOL    HW116559   0.896   5.319   2.395
 5220SOL    HW216560   1.039   5.243   2.416
 5221SOL     OW16561   5.688   1.918   4.536
 5221SOL    HW116562   5.625   1.987   4.571
 5221SOL    HW216563   5.761   1.903   4.602
 5222SOL     OW16564   2.625   0.153   4.079
 5222SOL    HW116565   2.658   0.059   4.069
 5222SOL    HW216566   2.692   0.206   4.132
 5223SOL     OW16567   4.744   0.358   0.873
 5223SOL    HW116568   4.682   0.286   0.904
 5223SOL    HW216569   4.713   0.446   0.909
 5224SOL     OW16570   6.706   2.121   3.206
 5224SOL    HW116571   6.666   2.140   3.116
 5224SOL    HW216572   6.806   2.120   3.199
 5225SOL     OW16573   6.424   0.459   2.987
 5225SOL    HW116574   6.442   0.394   3.061
 5225SOL    HW216575   6.499   0.524   2.981
 5226SOL     OW16576   0.468   6.402   5.348
 5226SOL    HW116577   0.441   6.338   5.421
 5226SOL    HW216578   0.397   6.472   5.338
 5227SOL     OW16579   0.741   4.875   4.009
 5227SOL    HW116580   0.651   4.883   4.053
 5227SOL    HW216581   0.808   4.927   4.061
 5228SOL     OW16582   6.374   2.689   0.230
 5228SOL    HW116583   6.438   2.751   0.275
 5228SOL    HW216584   6.295   2.675   0.289
 5229SOL     OW16585   2.116   4.572   6.485
 5229SOL    HW116586   2.203   4.554   6.439
 5229SOL    HW216587   2.128   4.649   6.549
 5230SOL     OW16588   0.634   0.246   0.809
 5230SOL    HW116589   0.643   0.162   0.756
 5230SOL    HW216590   0.670   0.323   0.757
 5231SOL     OW16591   3.125   3.027   4.501
 5231SOL    HW116592   3.166   2.939   4.524
 5231SOL    HW216593   3.188   3.101   4.525
 5232SOL     OW16594   3.150   2.373   6.105
 5232SOL    HW116595   3.238   2.337   6.135
 5232SOL    HW216596   3.138   2.354   6.007
 5233SOL     OW16597   6.659   6.488   1.427
 5233SOL    HW116598   6.680   6.531   1.515
 5233SOL    HW216599   6.632   6.559   1.362
 5234SOL     OW16600   3.074   0.424   0.251
 5234SOL    HW116601   3.085   0.493   0.179
 5234SOL    HW216602   3.059   0.334   0.209
 5235SOL     OW16603   1.277   2.796   1.411
 5235SOL    HW116604   1.287   2.697   1.421
 5235SOL    HW216605   1.309   2.825   1.321
 5236SOL     OW16606   5.399   3.273   1.340
 5236SOL    HW116607   5.339   3.264   1.419
 5236SOL    HW216608   5.493   3.253   1.368
 5237SOL     OW16609   3.074   1.966   5.346
 5237SOL    HW116610   3.018   2.045   5.370
 5237SOL    HW216611   3.052   1.889   5.406
 5238SOL     OW16612   1.614   5.122   0.719
 5238SOL    HW116613   1.586   5.032   0.686
 5238SOL    HW216614   1.677   5.112   0.797
 5239SOL     OW16615   3.566   3.921   4.149
 5239SOL    HW116616   3.613   4.007   4.130
 5239SOL    HW216617   3.593   3.854   4.079
 5240SOL     OW16618   3.148   1.821   5.897
 5240SOL    HW116619   3.088   1.745   5.921
 5240SOL    HW216620   3.106   1.875   5.824
 5241SOL     OW16621   1.006   5.841   6.385
 5241SOL    HW116622   1.053   5.802   6.306
 5241SOL    HW216623   1.063   5.914   6.424
 5242SOL     OW16624   5.906   0.135   5.245
 5242SOL    HW116625   5.821   0.096   5.279
 5242SOL    HW216626   5.896   0.158   5.148
 5243SOL     OW16627   1.188   5.798   1.015
 5243SOL    HW116628   1.150   5.715   1.056
 5243SOL    HW216629   1.225   5.857   1.086
 5244SOL     OW16630   4.624   4.134   5.692
 5244SOL    HW116631   4.621   4.040   5.658
 5244SOL    HW216632   4.547   4.185   5.655
 5245SOL     OW16633   4.745   4.103   5.953
 5245SOL    HW116634   4.678   4.099   5.879
 5245SOL    HW216635   4.749   4.196   5.990
 5246SOL     OW16636   6.588   4.164   2.629
 5246SOL    HW116637   6.533   4.156   2.546
 5246SOL    HW216638   6.665   4.225   2.613
 5247SOL     OW16639   0.800   6.441   0.139
 5247SOL    HW116640   0.887   6.399   0.113
 5247SOL    HW216641   0.735   6.369   0.163
 5248SOL     OW16642   5.310   0.354   5.745
 5248SOL    HW116643   5.379   0.353   5.672
 5248SOL    HW216644   5.332   0.284   5.813
 5249SOL     OW16645   0.910   5.078   4.946
 5249SOL    HW116646   0.967   5.028   4.880
 5249SOL    HW216647   0.930   5.045   5.038
 5250SOL     OW16648   0.199   1.253   6.158
 5250SOL    HW116649   0.163   1.192   6.087
 5250SOL    HW216650   0.139   1.331   6.169
 5251SOL     OW16651   0.572   3.194   1.277
 5251SOL    HW116652   0.484   3.204   1.323
 5251SOL    HW216653   0.585   3.271   1.214
 5252SOL     OW16654   2.135   5.499   1.022
 5252SOL    HW116655   2.218   5.486   1.078
 5252SOL    HW216656   2.061   5.443   1.060
 5253SOL     OW16657   6.032   3.663   4.762
 5253SOL    HW116658   5.970   3.730   4.724
 5253SOL    HW216659   6.110   3.651   4.701
 5254SOL     OW16660   5.213   1.572   3.320
 5254SOL    HW116661   5.286   1.627   3.281
 5254SOL    HW216662   5.143   1.631   3.361
 5255SOL     OW16663   4.423   0.294   4.512
 5255SOL    HW116664   4.493   0.343   4.460
 5255SOL    HW216665   4.434   0.196   4.499
 5256SOL     OW16666   5.361   0.972   3.196
 5256SOL    HW116667   5.404   0.901   3.251
 5256SOL    HW216668   5.385   0.958   3.100
 5257SOL     OW16669   4.864   0.098   2.041
 5257SOL    HW116670   4.806   0.069   1.965
 5257SOL    HW216671   4.960   0.087   2.015
 5258SOL     OW16672   5.118   4.631   1.691
 5258SOL    HW116673   5.116   4.534   1.669
 5258SOL    HW216674   5.076   4.683   1.616
 5259SOL     OW16675   4.693   6.108   1.451
 5259SOL    HW116676   4.604   6.120   1.495
 5259SOL    HW216677   4.683   6.045   1.373
 5260SOL     OW16678   4.737   3.258   0.469
 5260SOL    HW116679   4.701   3.351   0.459
 5260SOL    HW216680   4.662   3.195   0.487
 5261SOL     OW16681   1.103   2.448   5.071
 5261SOL    HW116682   1.146   2.358   5.087
 5261SOL    HW216683   1.141   2.514   5.136
 5262SOL     OW16684   2.402   6.925   2.612
 5262SOL    HW116685   2.405   6.948   2.515
 5262SOL    HW216686   2.421   6.828   2.624
 5263SOL     OW16687   1.124   0.012   6.210
 5263SOL    HW116688   1.039   7.012   6.163
 5263SOL    HW216689   1.129   6.990   6.298
 5264SOL     OW16690   6.324   1.614   1.764
 5264SOL    HW116691   6.322   1.529   1.711
 5264SOL    HW216692   6.231   1.643   1.785
 5265SOL     OW16693   5.046   4.210   2.263
 5265SOL    HW116694   5.128   4.155   2.252
 5265SOL    HW216695   5.011   4.201   2.356
 5266SOL     OW16696   2.810   6.305   1.453
 5266SOL    HW116697   2.835   6.271   1.544
 5266SOL    HW216698   2.732   6.367   1.461
 5267SOL     OW16699   4.726   5.086   5.763
 5267SOL    HW116700   4.779   5.005   5.788
 5267SOL    HW216701   4.645   5.092   5.822
 5268SOL     OW16702   6.506   5.625   5.044
 5268SOL    HW116703   6.439   5.621   4.971
 5268SOL    HW216704   6.515   5.719   5.077
 5269SOL     OW16705   2.251   6.354   3.984
 5269SOL    HW116706   2.306   6.395   4.057
 5269SOL    HW216707   2.215   6.426   3.925
 5270SOL     OW16708   4.698   1.916   1.630
 5270SOL    HW116709   4.667   1.861   1.552
 5270SOL    HW216710   4.787   1.882   1.660
 5271SOL     OW16711   4.187   5.113   4.196
 5271SOL    HW116712   4.109   5.050   4.201
 5271SOL    HW216713   4.181   5.166   4.111
 5272SOL     OW16714   0.646   6.137   3.962
 5272SOL    HW116715   0.674   6.133   3.867
 5272SOL    HW216716   0.727   6.138   4.021
 5273SOL     OW16717   1.246   3.093   3.705
 5273SOL    HW116718   1.275   3.046   3.788
 5273SOL    HW216719   1.273   3.189   3.710
 5274SOL     OW16720   6.304   5.249   2.895
 5274SOL    HW116721   6.332   5.291   2.808
 5274SOL    HW216722   6.265   5.159   2.877
 5275SOL     OW16723   3.239   0.666   6.375
 5275SOL    HW116724   3.287   0.579   6.378
 5275SOL    HW216725   3.256   0.716   6.460
 5276SOL     OW16726   0.208   6.351   0.238
 5276SOL    HW116727   0.267   6.322   0.313
 5276SOL    HW216728   0.213   6.451   0.229
 5277SOL     OW16729   1.818   2.055   3.024
 5277SOL    HW116730   1.769   1.970   3.008
 5277SOL    HW216731   1.896   2.037   3.085
 5278SOL     OW16732   5.718   7.015   5.822
 5278SOL    HW116733   5.798   6.980   5.773
 5278SOL    HW216734   5.647   6.945   5.825
 5279SOL     OW16735   1.195   6.413   6.701
 5279SOL    HW116736   1.228   6.425   6.795
 5279SOL    HW216737   1.107   6.458   6.690
 5280SOL     OW16738   3.536   6.071   5.237
 5280SOL    HW116739   3.576   6.090   5.147
 5280SOL    HW216740   3.444   6.108   5.242
 5281SOL     OW16741   1.009   1.389   4.202
 5281SOL    HW116742   0.981   1.373   4.107
 5281SOL    HW216743   0.972   1.477   4.233
 5282SOL     OW16744   2.183   0.133   2.424
 5282SOL    HW116745   2.193   0.130   2.523
 5282SOL    HW216746   2.144   0.222   2.397
 5283SOL     OW16747   1.625   0.758   3.223
 5283SOL    HW116748   1.541   0.800   3.257
 5283SOL    HW216749   1.668   0.707   3.297
 5284SOL     OW16750   4.689   2.692   3.000
 5284SOL    HW116751   4.714   2.600   3.030
 5284SOL    HW216752   4.709   2.757   3.073
 5285SOL     OW16753   0.878   3.692   4.419
 5285SOL    HW116754   0.827   3.656   4.497
 5285SOL    HW216755   0.835   3.776   4.386
 5286SOL     OW16756   6.160   3.060   0.499
 5286SOL    HW116757   6.258   3.037   0.496
 5286SOL    HW216758   6.145   3.135   0.563
 5287SOL     OW16759   2.969   5.111   1.461
 5287SOL    HW116760   3.028   5.046   1.509
 5287SOL    HW216761   2.949   5.189   1.522
 5288SOL     OW16762   4.555   0.490   2.803
 5288SOL    HW116763   4.506   0.544   2.871
 5288SOL    HW216764   4.501   0.485   2.719
 5289SOL     OW16765   2.717   5.175   6.218
 5289SOL    HW116766   2.644   5.154   6.153
 5289SOL    HW216767   2.806   5.154   6.177
 5290SOL     OW16768   1.510   3.740   5.756
 5290SOL    HW116769   1.506   3.672   5.683
 5290SOL    HW216770   1.598   3.788   5.752
 5291SOL     OW16771   2.897   4.449   6.136
 5291SOL    HW116772   2.886   4.546   6.158
 5291SOL    HW216773   2.920   4.439   6.039
 5292SOL     OW16774   5.629   4.888   6.270
 5292SOL    HW116775   5.725   4.914   6.268
 5292SOL    HW216776   5.619   4.801   6.319
 5293SOL     OW16777   1.943   6.560   5.188
 5293SOL    HW116778   1.982   6.637   5.239
 5293SOL    HW216779   1.847   6.548   5.213
 5294SOL     OW16780   4.783   1.861   5.675
 5294SOL    HW116781   4.705   1.890   5.730
 5294SOL    HW216782   4.755   1.848   5.580
 5295SOL     OW16783   3.685   0.901   3.241
 5295SOL    HW116784   3.702   0.991   3.202
 5295SOL    HW216785   3.676   0.908   3.340
 5296SOL     OW16786   3.563   4.093   0.182
 5296SOL    HW116787   3.631   4.040   0.232
 5296SOL    HW216788   3.607   4.171   0.138
 5297SOL     OW16789   1.657   3.340   0.217
 5297SOL    HW116790   1.694   3.338   0.124
 5297SOL    HW216791   1.558   3.324   0.214
 5298SOL     OW16792   1.797   5.954   6.264
 5298SOL    HW116793   1.894   5.962   6.242
 5298SOL    HW216794   1.746   6.023   6.212
 5299SOL     OW16795   2.966   2.782   0.474
 5299SOL    HW116796   2.970   2.827   0.384
 5299SOL    HW216797   2.882   2.728   0.479
 5300SOL     OW16798   0.829   5.463   1.034
 5300SOL    HW116799   0.761   5.536   1.027
 5300SOL    HW216800   0.877   5.471   1.121
 5301SOL     OW16801   3.976   1.344   6.027
 5301SOL    HW116802   4.025   1.416   5.977
 5301SOL    HW216803   3.991   1.257   5.981
 5302SOL     OW16804   5.643   5.967   3.749
 5302SOL    HW116805   5.692   5.963   3.836
 5302SOL    HW216806   5.553   5.925   3.759
 5303SOL     OW16807   0.152   5.339   4.973
 5303SOL    HW116808   0.190   5.367   5.061
 5303SOL    HW216809   0.063   5.382   4.961
 5304SOL     OW16810   5.703   1.138   0.349
 5304SOL    HW116811   5.712   1.082   0.266
 5304SOL    HW216812   5.764   1.101   0.420
 5305SOL     OW16813   0.803   5.063   2.365
 5305SOL    HW116814   0.802   4.967   2.393
 5305SOL    HW216815   0.850   5.117   2.435
 5306SOL     OW16816   0.966   4.520   5.611
 5306SOL    HW116817   1.027   4.591   5.577
 5306SOL    HW216818   1.019   4.453   5.663
 5307SOL     OW16819   3.628   1.918   0.363
 5307SOL    HW116820   3.700   1.915   0.294
 5307SOL    HW216821   3.570   1.837   0.356
 5308SOL     OW16822   1.396   4.300   2.487
 5308SOL    HW116823   1.331   4.331   2.418
 5308SOL    HW216824   1.488   4.298   2.447
 5309SOL     OW16825   4.077   4.933   2.037
 5309SOL    HW116826   3.989   4.914   2.079
 5309SOL    HW216827   4.138   4.854   2.048
 5310SOL     OW16828   6.149   3.544   1.448
 5310SOL    HW116829   6.204   3.609   1.501
 5310SOL    HW216830   6.092   3.490   1.510
 5311SOL     OW16831   5.947   6.745   0.323
 5311SOL    HW116832   5.857   6.748   0.365
 5311SOL    HW216833   6.003   6.820   0.357
 5312SOL     OW16834   0.851   5.623   1.718
 5312SOL    HW116835   0.785   5.694   1.743
 5312SOL    HW216836   0.803   5.535   1.708
 5313SOL     OW16837   1.215   3.116   5.899
 5313SOL    HW116838   1.129   3.147   5.939
 5313SOL    HW216839   1.208   3.020   5.874
 5314SOL     OW16840   3.855   6.525   0.114
 5314SOL    HW116841   3.780   6.546   0.052
 5314SOL    HW216842   3.936   6.497   0.061
 5315SOL     OW16843   5.033   3.484   1.990
 5315SOL    HW116844   4.973   3.405   1.999
 5315SOL    HW216845   5.077   3.483   1.900
 5316SOL     OW16846   0.900   3.277   5.295
 5316SOL    HW116847   0.891   3.377   5.290
 5316SOL    HW216848   0.810   3.236   5.305
 5317SOL     OW16849   5.871   2.262   5.304
 5317SOL    HW116850   5.825   2.187   5.255
 5317SOL    HW216851   5.970   2.250   5.299
 5318SOL     OW16852   0.810   2.549   0.751
 5318SOL    HW116853   0.785   2.576   0.658
 5318SOL    HW216854   0.730   2.558   0.811
 5319SOL     OW16855   4.181   6.070   0.917
 5319SOL    HW116856   4.238   6.109   0.989
 5319SOL    HW216857   4.185   6.129   0.836
 5320SOL     OW16858   4.120   5.002   0.796
 5320SOL    HW116859   4.122   5.102   0.795
 5320SOL    HW216860   4.128   4.968   0.702
 5321SOL     OW16861   2.004   4.448   4.436
 5321SOL    HW116862   2.014   4.392   4.519
 5321SOL    HW216863   2.076   4.517   4.434
 5322SOL     OW16864   5.093   5.983   0.405
 5322SOL    HW116865   5.160   5.977   0.332
 5322SOL    HW216866   5.058   6.077   0.411
 5323SOL     OW16867   3.474   1.671   6.167
 5323SOL    HW116868   3.533   1.700   6.243
 5323SOL    HW216869   3.528   1.623   6.099
 5324SOL     OW16870   3.346   2.092   0.738
 5324SOL    HW116871   3.388   2.158   0.801
 5324SOL    HW216872   3.417   2.038   0.694
 5325SOL     OW16873   4.586   0.468   4.388
 5325SOL    HW116874   4.623   0.517   4.309
 5325SOL    HW216875   4.610   0.516   4.472
 5326SOL     OW16876   6.559   5.631   3.066
 5326SOL    HW116877   6.548   5.588   2.977
 5326SOL    HW216878   6.495   5.592   3.131
 5327SOL     OW16879   5.747   3.232   5.212
 5327SOL    HW116880   5.756   3.251   5.309
 5327SOL    HW216881   5.662   3.181   5.196
 5328SOL     OW16882   3.868   3.863   5.983
 5328SOL    HW116883   3.828   3.951   5.957
 5328SOL    HW216884   3.801   3.791   5.971
 5329SOL     OW16885   0.410   4.821   6.614
 5329SOL    HW116886   0.341   4.752   6.637
 5329SOL    HW216887   0.365   4.906   6.587
 5330SOL     OW16888   4.552   3.751   0.165
 5330SOL    HW116889   4.583   3.833   0.213
 5330SOL    HW216890   4.457   3.731   0.190
 5331SOL     OW16891   6.385   1.352   5.933
 5331SOL    HW116892   6.312   1.418   5.914
 5331SOL    HW216893   6.347   1.271   5.977
 5332SOL     OW16894   0.792   3.117   1.526
 5332SOL    HW116895   0.750   3.175   1.596
 5332SOL    HW216896   0.745   3.028   1.524
 5333SOL     OW16897   0.962   0.949   3.164
 5333SOL    HW116898   0.971   1.041   3.203
 5333SOL    HW216899   1.014   0.945   3.078
 5334SOL     OW16900   3.297   0.218   4.586
 5334SOL    HW116901   3.232   0.263   4.525
 5334SOL    HW216902   3.390   0.229   4.550
 5335SOL     OW16903   0.034   6.034   0.834
 5335SOL    HW116904   6.970   6.068   0.803
 5335SOL    HW216905   0.093   6.017   0.755
 5336SOL     OW16906   1.851   3.612   2.618
 5336SOL    HW116907   1.837   3.704   2.653
 5336SOL    HW216908   1.928   3.570   2.666
 5337SOL     OW16909   4.854   4.496   1.124
 5337SOL    HW116910   4.941   4.448   1.111
 5337SOL    HW216911   4.826   4.537   1.037
 5338SOL     OW16912   5.967   1.996   0.334
 5338SOL    HW116913   5.914   1.923   0.291
 5338SOL    HW216914   5.936   2.084   0.299
 5339SOL     OW16915   6.939   1.854   3.863
 5339SOL    HW116916   6.878   1.932   3.880
 5339SOL    HW216917   6.894   1.789   3.801
 5340SOL     OW16918   4.516   4.782   0.957
 5340SOL    HW116919   4.542   4.767   1.053
 5340SOL    HW216920   4.598   4.789   0.901
 5341SOL     OW16921   3.900   2.597   6.654
 5341SOL    HW116922   3.891   2.552   6.565
 5341SOL    HW216923   3.938   2.689   6.640
 5342SOL     OW16924   4.124   0.027   4.075
 5342SOL    HW116925   4.154   7.010   3.989
 5342SOL    HW216926   4.197   0.018   4.143
 5343SOL     OW16927   3.530   4.208   4.733
 5343SOL    HW116928   3.456   4.189   4.798
 5343SOL    HW216929   3.532   4.306   4.712
 5344SOL     OW16930   2.061   2.784   2.364
 5344SOL    HW116931   2.154   2.754   2.346
 5344SOL    HW216932   2.045   2.872   2.320
 5345SOL     OW16933   4.121   6.064   1.514
 5345SOL    HW116934   4.139   6.013   1.599
 5345SOL    HW216935   4.031   6.038   1.478
 5346SOL     OW16936   3.188   6.125   4.036
 5346SOL    HW116937   3.260   6.086   4.094
 5346SOL    HW216938   3.101   6.078   4.055
 5347SOL     OW16939   0.844   2.447   2.563
 5347SOL    HW116940   0.796   2.360   2.554
 5347SOL    HW216941   0.904   2.444   2.643
 5348SOL     OW16942   6.986   1.782   0.904
 5348SOL    HW116943   6.901   1.809   0.859
 5348SOL    HW216944   7.012   1.690   0.874
 5349SOL     OW16945   1.209   2.697   0.068
 5349SOL    HW116946   1.174   2.751   7.016
 5349SOL    HW216947   1.309   2.697   0.065
 5350SOL     OW16948   1.442   0.388   5.609
 5350SOL    HW116949   1.355   0.431   5.634
 5350SOL    HW216950   1.430   0.334   5.525
 5351SOL     OW16951   5.958   5.491   1.679
 5351SOL    HW116952   6.004   5.403   1.664
 5351SOL    HW216953   6.023   5.566   1.664
 5352SOL     OW16954   1.547   5.544   4.236
 5352SOL    HW116955   1.598   5.492   4.167
 5352SOL    HW216956   1.470   5.591   4.192
 5353SOL     OW16957   3.621   5.642   3.879
 5353SOL    HW116958   3.597   5.549   3.904
 5353SOL    HW216959   3.672   5.685   3.953
 5354SOL     OW16960   2.127   5.013   1.502
 5354SOL    HW116961   2.054   4.947   1.516
 5354SOL    HW216962   2.192   5.008   1.578
 5355SOL     OW16963   4.969   2.685   3.620
 5355SOL    HW116964   4.884   2.733   3.641
 5355SOL    HW216965   4.949   2.605   3.563
 5356SOL     OW16966   6.066   4.591   1.450
 5356SOL    HW116967   6.119   4.569   1.531
 5356SOL    HW216968   5.969   4.584   1.470
 5357SOL     OW16969   3.303   6.791   0.350
 5357SOL    HW116970   3.219   6.781   0.296
 5357SOL    HW216971   3.375   6.734   0.310
 5358SOL     OW16972   4.269   1.367   0.647
 5358SOL    HW116973   4.350   1.409   0.687
 5358SOL    HW216974   4.194   1.433   0.647
 5359SOL     OW16975   1.773   1.722   0.047
 5359SOL    HW116976   1.761   1.785   0.123
 5359SOL    HW216977   1.685   1.678   0.026
 5360SOL     OW16978   4.767   6.549   5.391
 5360SOL    HW116979   4.748   6.615   5.465
 5360SOL    HW216980   4.723   6.462   5.412
 5361SOL     OW16981   2.145   0.112   4.692
 5361SOL    HW116982   2.163   0.022   4.732
 5361SOL    HW216983   2.125   0.102   4.594
 5362SOL     OW16984   5.465   5.133   3.470
 5362SOL    HW116985   5.471   5.208   3.536
 5362SOL    HW216986   5.421   5.054   3.513
 5363SOL     OW16987   0.556   6.983   6.438
 5363SOL    HW116988   0.506   6.941   6.362
 5363SOL    HW216989   0.500   6.979   6.521
 5364SOL     OW16990   6.906   5.578   1.583
 5364SOL    HW116991   6.917   5.666   1.631
 5364SOL    HW216992   6.920   5.503   1.648
 5365SOL     OW16993   3.505   3.083   0.080
 5365SOL    HW116994   3.601   3.111   0.087
 5365SOL    HW216995   3.499   3.001   0.023
 5366SOL     OW16996   4.990   5.930   1.652
 5366SOL    HW116997   5.007   5.918   1.750
 5366SOL    HW216998   4.959   6.024   1.635
 5367SOL     OW16999   0.479   5.672   0.487
 5367SOL    HW117000   0.422   5.739   0.533
 5367SOL    HW217001   0.501   5.705   0.395
 5368SOL     OW17002   5.082   0.599   2.745
 5368SOL    HW117003   5.130   0.659   2.680
 5368SOL    HW217004   5.130   0.600   2.833
 5369SOL     OW17005   3.229   0.037   2.069
 5369SOL    HW117006   3.137   0.038   2.030
 5369SOL    HW217007   3.228   7.008   2.154
 5370SOL     OW17008   4.482   2.881   1.236
 5370SOL    HW117009   4.434   2.818   1.296
 5370SOL    HW217010   4.543   2.830   1.175
 5371SOL     OW17011   1.743   4.038   4.601
 5371SOL    HW117012   1.816   4.031   4.534
 5371SOL    HW217013   1.770   4.101   4.674
 5372SOL     OW17014   2.093   6.167   3.496
 5372SOL    HW117015   2.058   6.104   3.565
 5372SOL    HW217016   2.178   6.207   3.529
 5373SOL     OW17017   3.051   5.833   3.957
 5373SOL    HW117018   3.094   5.827   4.047
 5373SOL    HW217019   3.110   5.790   3.889
 5374SOL     OW17020   1.094   4.268   0.301
 5374SOL    HW117021   1.076   4.336   0.373
 5374SOL    HW217022   1.045   4.293   0.218
 5375SOL     OW17023   1.581   4.216   4.463
 5375SOL    HW117024   1.642   4.160   4.518
 5375SOL    HW217025   1.546   4.292   4.518
 5376SOL     OW17026   2.137   3.392   0.879
 5376SOL    HW117027   2.132   3.485   0.917
 5376SOL    HW217028   2.138   3.325   0.953
 5377SOL     OW17029   0.272   0.113   1.660
 5377SOL    HW117030   0.332   0.176   1.710
 5377SOL    HW217031   0.303   0.019   1.675
 5378SOL     OW17032   6.986   0.355   2.415
 5378SOL    HW117033   7.012   0.332   2.509
 5378SOL    HW217034   0.020   0.305   2.351
 5379SOL     OW17035   1.467   5.758   5.241
 5379SOL    HW117036   1.548   5.709   5.274
 5379SOL    HW217037   1.488   5.803   5.154
 5380SOL     OW17038   1.634   1.602   3.696
 5380SOL    HW117039   1.685   1.669   3.750
 5380SOL    HW217040   1.697   1.535   3.656
 5381SOL     OW17041   6.284   4.086   0.990
 5381SOL    HW117042   6.230   4.033   1.055
 5381SOL    HW217043   6.224   4.139   0.931
 5382SOL     OW17044   3.253   0.332   2.399
 5382SOL    HW117045   3.181   0.382   2.446
 5382SOL    HW217046   3.332   0.392   2.387
 5383SOL     OW17047   2.684   2.431   5.462
 5383SOL    HW117048   2.589   2.458   5.442
 5383SOL    HW217049   2.746   2.480   5.402
 5384SOL     OW17050   5.584   0.106   4.154
 5384SOL    HW117051   5.566   0.185   4.096
 5384SOL    HW217052   5.654   0.049   4.112
 5385SOL     OW17053   3.011   3.124   3.987
 5385SOL    HW117054   2.960   3.206   3.961
 5385SOL    HW217055   3.023   3.065   3.908
 5386SOL     OW17056   4.729   0.218   4.628
 5386SOL    HW117057   4.783   0.253   4.552
 5386SOL    HW217058   4.675   0.293   4.667
 5387SOL     OW17059   2.697   6.042   3.524
 5387SOL    HW117060   2.742   5.977   3.462
 5387SOL    HW217061   2.759   6.118   3.543
 5388SOL     OW17062   6.165   0.424   3.581
 5388SOL    HW117063   6.106   0.365   3.527
 5388SOL    HW217064   6.232   0.368   3.631
 5389SOL     OW17065   5.162   0.684   1.834
 5389SOL    HW117066   5.188   0.672   1.738
 5389SOL    HW217067   5.070   0.723   1.838
 5390SOL     OW17068   4.802   4.091   3.226
 5390SOL    HW117069   4.794   4.038   3.142
 5390SOL    HW217070   4.730   4.161   3.229
 5391SOL     OW17071   1.568   2.401   1.455
 5391SOL    HW117072   1.542   2.489   1.496
 5391SOL    HW217073   1.486   2.346   1.439
 5392SOL     OW17074   5.943   3.132   0.843
 5392SOL    HW117075   5.969   3.040   0.816
 5392SOL    HW217076   6.023   3.192   0.840
 5393SOL     OW17077   5.375   0.093   6.251
 5393SOL    HW117078   5.433   0.149   6.191
 5393SOL    HW217079   5.432   0.029   6.302
 5394SOL     OW17080   6.758   4.037   6.916
 5394SOL    HW117081   6.750   4.124   6.965
 5394SOL    HW217082   6.855   4.012   6.910
 5395SOL     OW17083   4.757   1.110   1.823
 5395SOL    HW117084   4.825   1.112   1.897
 5395SOL    HW217085   4.738   1.203   1.792
 5396SOL     OW17086   5.049   4.363   3.062
 5396SOL    HW117087   5.086   4.372   2.969
 5396SOL    HW217088   4.977   4.432   3.075
 5397SOL     OW17089   6.909   3.142   2.093
 5397SOL    HW117090   6.872   3.063   2.044
 5397SOL    HW217091   7.000   3.120   2.129
 5398SOL     OW17092   3.201   1.690   2.424
 5398SOL    HW117093   3.273   1.681   2.355
 5398SOL    HW217094   3.237   1.738   2.503
 5399SOL     OW17095   2.215   5.633   6.875
 5399SOL    HW117096   2.126   5.662   6.911
 5399SOL    HW217097   2.225   5.665   6.781
 5400SOL     OW17098   2.648   3.851   0.670
 5400SOL    HW117099   2.694   3.815   0.752
 5400SOL    HW217100   2.592   3.779   0.629
 5401SOL     OW17101   5.932   3.494   1.656
 5401SOL    HW117102   5.837   3.487   1.685
 5401SOL    HW217103   5.990   3.442   1.719
 5402SOL     OW17104   2.002   4.476   1.755
 5402SOL    HW117105   2.026   4.379   1.751
 5402SOL    HW217106   2.082   4.531   1.730
 5403SOL     OW17107   6.389   2.547   6.485
 5403SOL    HW117108   6.379   2.595   6.571
 5403SOL    HW217109   6.336   2.593   6.414
 5404SOL     OW17110   1.053   1.308   2.899
 5404SOL    HW117111   1.056   1.290   2.801
 5404SOL    HW217112   0.959   1.299   2.932
 5405SOL     OW17113   5.684   6.010   6.964
 5405SOL    HW117114   5.688   5.936   6.897
 5405SOL    HW217115   5.590   6.019   6.997
 5406SOL     OW17116   2.458   0.472   7.019
 5406SOL    HW117117   2.448   0.531   6.940
 5406SOL    HW217118   2.388   0.494   0.062
 5407SOL     OW17119   4.203   3.171   1.127
 5407SOL    HW117120   4.219   3.080   1.089
 5407SOL    HW217121   4.284   3.200   1.178
 5408SOL     OW17122   3.144   1.182   6.615
 5408SOL    HW117123   3.055   1.183   6.661
 5408SOL    HW217124   3.131   1.198   6.517
 5409SOL     OW17125   6.014   1.039   3.812
 5409SOL    HW117126   6.068   0.976   3.756
 5409SOL    HW217127   5.996   0.997   3.901
 5410SOL     OW17128   2.591   2.230   1.581
 5410SOL    HW117129   2.632   2.272   1.662
 5410SOL    HW217130   2.620   2.135   1.574
 5411SOL     OW17131   6.291   5.525   5.421
 5411SOL    HW117132   6.357   5.503   5.493
 5411SOL    HW217133   6.322   5.488   5.334
 5412SOL     OW17134   3.928   1.102   6.841
 5412SOL    HW117135   3.872   1.087   6.923
 5412SOL    HW217136   3.948   1.015   6.797
 5413SOL     OW17137   2.033   1.604   1.162
 5413SOL    HW117138   1.938   1.618   1.189
 5413SOL    HW217139   2.093   1.653   1.226
 5414SOL     OW17140   5.094   2.330   4.871
 5414SOL    HW117141   5.115   2.425   4.846
 5414SOL    HW217142   5.077   2.325   4.969
 5415SOL     OW17143   1.545   5.567   0.813
 5415SOL    HW117144   1.564   5.504   0.888
 5415SOL    HW217145   1.475   5.527   0.753
 5416SOL     OW17146   4.779   5.183   6.091
 5416SOL    HW117147   4.808   5.270   6.052
 5416SOL    HW217148   4.858   5.137   6.132
 5417SOL     OW17149   4.044   6.640   5.219
 5417SOL    HW117150   4.137   6.610   5.199
 5417SOL    HW217151   4.021   6.617   5.314
 5418SOL     OW17152   3.475   6.551   3.576
 5418SOL    HW117153   3.455   6.471   3.634
 5418SOL    HW217154   3.514   6.624   3.633
 5419SOL     OW17155   2.714   5.352   0.568
 5419SOL    HW117156   2.767   5.359   0.483
 5419SOL    HW217157   2.740   5.426   0.630
 5420SOL     OW17158   1.156   2.200   2.403
 5420SOL    HW117159   1.132   2.112   2.362
 5420SOL    HW217160   1.172   2.267   2.330
 5421SOL     OW17161   2.161   3.020   2.651
 5421SOL    HW117162   2.229   2.948   2.632
 5421SOL    HW217163   2.181   3.100   2.595
 5422SOL     OW17164   0.675   5.602   0.220
 5422SOL    HW117165   0.696   5.613   0.123
 5422SOL    HW217166   0.658   5.505   0.239
 5423SOL     OW17167   5.760   2.723   6.961
 5423SOL    HW117168   5.837   2.760   7.013
 5423SOL    HW217169   5.676   2.732   7.015
 5424SOL     OW17170   5.201   2.995   4.233
 5424SOL    HW117171   5.176   2.899   4.221
 5424SOL    HW217172   5.235   3.009   4.326
 5425SOL     OW17173   4.051   1.500   4.042
 5425SOL    HW117174   4.121   1.556   3.997
 5425SOL    HW217175   4.096   1.429   4.097
 5426SOL     OW17176   6.352   5.126   3.875
 5426SOL    HW117177   6.409   5.053   3.913
 5426SOL    HW217178   6.380   5.145   3.781
 5427SOL     OW17179   4.442   4.863   0.251
 5427SOL    HW117180   4.397   4.839   0.165
 5427SOL    HW217181   4.534   4.897   0.232
 5428SOL     OW17182   0.243   6.855   1.720
 5428SOL    HW117183   0.176   6.840   1.647
 5428SOL    HW217184   0.212   6.807   1.803
 5429SOL     OW17185   1.435   1.977   6.578
 5429SOL    HW117186   1.366   1.905   6.587
 5429SOL    HW217187   1.514   1.954   6.635
 5430SOL     OW17188   0.607   3.161   6.254
 5430SOL    HW117189   0.538   3.206   6.197
 5430SOL    HW217190   0.693   3.155   6.204
 5431SOL     OW17191   3.431   5.694   0.447
 5431SOL    HW117192   3.404   5.759   0.375
 5431SOL    HW217193   3.486   5.621   0.406
 5432SOL     OW17194   5.107   6.667   6.972
 5432SOL    HW117195   5.059   6.750   6.943
 5432SOL    HW217196   5.205   6.686   6.978
 5433SOL     OW17197   0.567   1.820   4.023
 5433SOL    HW117198   0.593   1.728   3.994
 5433SOL    HW217199   0.497   1.815   4.094
 5434SOL     OW17200   4.113   0.669   5.232
 5434SOL    HW117201   4.172   0.704   5.159
 5434SOL    HW217202   4.024   0.645   5.194
 5435SOL     OW17203   5.072   0.965   1.654
 5435SOL    HW117204   5.048   0.960   1.557
 5435SOL    HW217205   4.989   0.976   1.709
 5436SOL     OW17206   5.163   3.836   3.778
 5436SOL    HW117207   5.232   3.901   3.746
 5436SOL    HW217208   5.133   3.862   3.870
 5437SOL     OW17209   3.324   4.603   5.989
 5437SOL    HW117210   3.397   4.662   6.020
 5437SOL    HW217211   3.236   4.639   6.019
 5438SOL     OW17212   6.583   3.683   2.492
 5438SOL    HW117213   6.540   3.596   2.468
 5438SOL    HW217214   6.615   3.680   2.586
 5439SOL     OW17215   1.041   2.594   1.105
 5439SOL    HW117216   1.026   2.504   1.064
 5439SOL    HW217217   1.013   2.665   1.040
 5440SOL     OW17218   0.717   1.194   1.958
 5440SOL    HW117219   0.707   1.095   1.967
 5440SOL    HW217220   0.805   1.222   1.997
 5441SOL     OW17221   4.986   2.242   2.748
 5441SOL    HW117222   4.932   2.326   2.744
 5441SOL    HW217223   5.081   2.264   2.767
 5442SOL     OW17224   3.106   5.801   3.278
 5442SOL    HW117225   3.105   5.728   3.346
 5442SOL    HW217226   3.017   5.847   3.276
 5443SOL     OW17227   2.463   0.809   3.791
 5443SOL    HW117228   2.449   0.847   3.882
 5443SOL    HW217229   2.374   0.801   3.745
 5444SOL     OW17230   1.794   0.582   4.271
 5444SOL    HW117231   1.835   0.493   4.250
 5444SOL    HW217232   1.709   0.568   4.321
 5445SOL     OW17233   6.079   3.639   3.638
 5445SOL    HW117234   6.074   3.732   3.674
 5445SOL    HW217235   6.041   3.575   3.705
 5446SOL     OW17236   6.869   5.329   4.976
 5446SOL    HW117237   6.814   5.323   5.059
 5446SOL    HW217238   6.920   5.414   4.975
 5447SOL     OW17239   2.504   1.326   6.484
 5447SOL    HW117240   2.411   1.328   6.446
 5447SOL    HW217241   2.550   1.413   6.464
 5448SOL     OW17242   4.650   2.911   5.142
 5448SOL    HW117243   4.691   2.828   5.182
 5448SOL    HW217244   4.628   2.975   5.215
 5449SOL     OW17245   1.840   2.761   6.732
 5449SOL    HW117246   1.893   2.843   6.755
 5449SOL    HW217247   1.822   2.760   6.634
 5450SOL     OW17248   1.466   0.587   2.073
 5450SOL    HW117249   1.426   0.611   2.161
 5450SOL    HW217250   1.393   0.572   2.006
 5451SOL     OW17251   1.101   6.400   3.288
 5451SOL    HW117252   1.112   6.346   3.372
 5451SOL    HW217253   1.187   6.447   3.268
 5452SOL     OW17254   2.298   4.331   6.629
 5452SOL    HW117255   2.348   4.365   6.549
 5452SOL    HW217256   2.233   4.400   6.659
 5453SOL     OW17257   5.613   4.745   1.528
 5453SOL    HW117258   5.609   4.725   1.626
 5453SOL    HW217259   5.611   4.844   1.514
 5454SOL     OW17260   0.007   3.940   6.647
 5454SOL    HW117261   0.031   4.012   6.711
 5454SOL    HW217262   6.940   3.906   6.668
 5455SOL     OW17263   6.113   3.473   0.509
 5455SOL    HW117264   6.100   3.478   0.410
 5455SOL    HW217265   6.046   3.533   0.554
 5456SOL     OW17266   3.037   0.345   6.817
 5456SOL    HW117267   3.098   0.314   6.889
 5456SOL    HW217268   3.009   0.266   6.762
 5457SOL     OW17269   6.039   2.583   6.914
 5457SOL    HW117270   5.942   2.603   6.928
 5457SOL    HW217271   6.056   2.569   6.816
 5458SOL     OW17272   0.714   4.477   0.231
 5458SOL    HW117273   0.645   4.413   0.266
 5458SOL    HW217274   0.673   4.568   0.224
 5459SOL     OW17275   2.416   4.005   6.504
 5459SOL    HW117276   2.434   3.934   6.573
 5459SOL    HW217277   2.318   4.027   6.505
 5460SOL     OW17278   3.715   0.428   2.848
 5460SOL    HW117279   3.668   0.350   2.889
 5460SOL    HW217280   3.661   0.463   2.771
 5461SOL     OW17281   5.857   6.805   5.175
 5461SOL    HW117282   5.928   6.823   5.244
 5461SOL    HW217283   5.852   6.882   5.112
 5462SOL     OW17284   1.148   0.244   6.704
 5462SOL    HW117285   1.061   0.289   6.723
 5462SOL    HW217286   1.215   0.313   6.676
 5463SOL     OW17287   6.803   2.381   0.274
 5463SOL    HW117288   6.817   2.472   0.235
 5463SOL    HW217289   6.707   2.355   0.262
 5464SOL     OW17290   0.999   1.410   3.904
 5464SOL    HW117291   0.960   1.500   3.882
 5464SOL    HW217292   1.095   1.421   3.927
 5465SOL     OW17293   3.956   5.979   3.252
 5465SOL    HW117294   3.947   6.035   3.170
 5465SOL    HW217295   3.875   5.921   3.261
 5466SOL     OW17296   5.246   4.100   5.359
 5466SOL    HW117297   5.224   4.062   5.449
 5466SOL    HW217298   5.328   4.156   5.365
 5467SOL     OW17299   5.505   2.625   3.175
 5467SOL    HW117300   5.434   2.672   3.123
 5467SOL    HW217301   5.569   2.580   3.112
 5468SOL     OW17302   5.536   2.125   4.686
 5468SOL    HW117303   5.539   2.171   4.597
 5468SOL    HW217304   5.504   2.189   4.756
 5469SOL     OW17305   3.961   5.675   6.491
 5469SOL    HW117306   3.983   5.580   6.469
 5469SOL    HW217307   3.874   5.678   6.541
 5470SOL     OW17308   3.332   6.078   2.509
 5470SOL    HW117309   3.418   6.101   2.464
 5470SOL    HW217310   3.333   5.982   2.537
 5471SOL     OW17311   5.099   0.111   2.347
 5471SOL    HW117312   5.105   0.209   2.329
 5471SOL    HW217313   5.003   0.084   2.354
 5472SOL     OW17314   4.070   3.833   5.793
 5472SOL    HW117315   4.003   3.831   5.867
 5472SOL    HW217316   4.158   3.865   5.828
 5473SOL     OW17317   0.127   3.528   3.108
 5473SOL    HW117318   0.139   3.567   3.017
 5473SOL    HW217319   0.046   3.569   3.151
 5474SOL     OW17320   1.563   4.396   4.676
 5474SOL    HW117321   1.611   4.432   4.597
 5474SOL    HW217322   1.629   4.358   4.741
 5475SOL     OW17323   2.321   2.309   1.518
 5475SOL    HW117324   2.413   2.270   1.526
 5475SOL    HW217325   2.317   2.396   1.566
 5476SOL     OW17326   1.922   4.245   5.537
 5476SOL    HW117327   1.838   4.212   5.582
 5476SOL    HW217328   1.953   4.329   5.582
 5477SOL     OW17329   2.343   4.373   3.743
 5477SOL    HW117330   2.419   4.439   3.742
 5477SOL    HW217331   2.281   4.394   3.668
 5478SOL     OW17332   4.038   5.393   5.237
 5478SOL    HW117333   3.967   5.331   5.205
 5478SOL    HW217334   4.075   5.444   5.160
 5479SOL     OW17335   4.511   1.591   6.148
 5479SOL    HW117336   4.584   1.575   6.081
 5479SOL    HW217337   4.551   1.618   6.235
 5480SOL     OW17338   6.950   3.934   3.232
 5480SOL    HW117339   6.987   3.853   3.277
 5480SOL    HW217340   7.022   4.001   3.217
 5481SOL     OW17341   4.193   1.338   4.192
 5481SOL    HW117342   4.264   1.387   4.244
 5481SOL    HW217343   4.225   1.246   4.170
 5482SOL     OW17344   3.752   4.628   1.691
 5482SOL    HW117345   3.786   4.704   1.636
 5482SOL    HW217346   3.679   4.660   1.751
 5483SOL     OW17347   0.025   2.194   5.727
 5483SOL    HW117348   6.954   2.167   5.734
 5483SOL    HW217349   0.050   2.206   5.631
 5484SOL     OW17350   4.524   0.770   4.764
 5484SOL    HW117351   4.540   0.868   4.747
 5484SOL    HW217352   4.581   0.740   4.841
 5485SOL     OW17353   4.444   0.156   5.602
 5485SOL    HW117354   4.542   0.167   5.582
 5485SOL    HW217355   4.391   0.194   5.526
 5486SOL     OW17356   2.837   5.614   5.552
 5486SOL    HW117357   2.764   5.680   5.568
 5486SOL    HW217358   2.818   5.531   5.604
 5487SOL     OW17359   4.026   3.576   6.632
 5487SOL    HW117360   3.957   3.581   6.704
 5487SOL    HW217361   4.118   3.584   6.673
 5488SOL     OW17362   6.179   0.718   1.249
 5488SOL    HW117363   6.080   0.710   1.262
 5488SOL    HW217364   6.227   0.684   1.330
 5489SOL     OW17365   6.939   3.473   1.573
 5489SOL    HW117366   6.956   3.378   1.547
 5489SOL    HW217367   6.860   3.478   1.633
 5490SOL     OW17368   2.467   0.179   2.174
 5490SOL    HW117369   2.548   0.159   2.117
 5490SOL    HW217370   2.388   0.131   2.136
 5491SOL     OW17371   0.600   2.959   0.098
 5491SOL    HW117372   0.513   2.920   0.126
 5491SOL    HW217373   0.639   2.903   0.024
 5492SOL     OW17374   0.504   2.841   5.982
 5492SOL    HW117375   0.524   2.846   6.080
 5492SOL    HW217376   0.589   2.831   5.930
 5493SOL     OW17377   3.873   3.693   3.166
 5493SOL    HW117378   3.953   3.729   3.118
 5493SOL    HW217379   3.899   3.666   3.259
 5494SOL     OW17380   6.825   4.091   5.222
 5494SOL    HW117381   6.763   4.068   5.297
 5494SOL    HW217382   6.839   4.010   5.164
 5495SOL     OW17383   5.629   0.733   1.142
 5495SOL    HW117384   5.616   0.768   1.049
 5495SOL    HW217385   5.654   0.636   1.138
 5496SOL     OW17386   4.236   1.030   3.511
 5496SOL    HW117387   4.331   1.043   3.482
 5496SOL    HW217388   4.229   1.042   3.609
 5497SOL     OW17389   0.486   1.440   5.469
 5497SOL    HW117390   0.509   1.535   5.493
 5497SOL    HW217391   0.557   1.403   5.410
 5498SOL     OW17392   6.855   4.887   2.168
 5498SOL    HW117393   6.953   4.882   2.149
 5498SOL    HW217394   6.829   4.810   2.227
 5499SOL     OW17395   0.913   0.576   3.722
 5499SOL    HW117396   0.813   0.576   3.721
 5499SOL    HW217397   0.947   0.499   3.669
 5500SOL     OW17398   0.991   0.727   0.013
 5500SOL    HW117399   0.993   0.631   0.042
 5500SOL    HW217400   1.053   0.739   6.961
 5501SOL     OW17401   3.970   1.725   0.886
 5501SOL    HW117402   4.007   1.797   0.945
 5501SOL    HW217403   3.870   1.728   0.890
 5502SOL     OW17404   5.795   3.540   6.410
 5502SOL    HW117405   5.779   3.441   6.402
 5502SOL    HW217406   5.722   3.580   6.465
 5503SOL     OW17407   0.345   4.464   1.075
 5503SOL    HW117408   0.443   4.465   1.054
 5503SOL    HW217409   0.299   4.398   1.015
 5504SOL     OW17410   4.369   1.054   5.186
 5504SOL    HW117411   4.402   1.146   5.163
 5504SOL    HW217412   4.411   1.024   5.272
 5505SOL     OW17413   2.071   4.947   3.368
 5505SOL    HW117414   2.151   5.007   3.364
 5505SOL    HW217415   2.028   4.954   3.458
 5506SOL     OW17416   0.097   3.157   0.212
 5506SOL    HW117417   0.082   3.073   0.263
 5506SOL    HW217418   0.155   3.219   0.265
 5507SOL     OW17419   3.870   0.636   5.074
 5507SOL    HW117420   3.834   0.554   5.030
 5507SOL    HW217421   3.795   0.699   5.095
 5508SOL     OW17422   0.962   0.578   0.376
 5508SOL    HW117423   0.930   0.508   0.312
 5508SOL    HW217424   0.887   0.602   0.438
 5509SOL     OW17425   0.423   5.759   0.250
 5509SOL    HW117426   0.329   5.726   0.240
 5509SOL    HW217427   0.486   5.697   0.203
 5510SOL     OW17428   4.764   5.087   6.507
 5510SOL    HW117429   4.725   5.006   6.552
 5510SOL    HW217430   4.823   5.135   6.571
 5511SOL     OW17431   1.044   1.157   4.903
 5511SOL    HW117432   0.985   1.102   4.963
 5511SOL    HW217433   1.077   1.238   4.953
 5512SOL     OW17434   3.146   1.215   0.701
 5512SOL    HW117435   3.077   1.146   0.719
 5512SOL    HW217436   3.136   1.290   0.767
 5513SOL     OW17437   3.548   5.157   5.532
 5513SOL    HW117438   3.570   5.059   5.539
 5513SOL    HW217439   3.520   5.190   5.622
 5514SOL     OW17440   3.497   0.172   5.191
 5514SOL    HW117441   3.512   0.258   5.143
 5514SOL    HW217442   3.497   0.188   5.290
 5515SOL     OW17443   1.681   5.600   1.835
 5515SOL    HW117444   1.605   5.580   1.897
 5515SOL    HW217445   1.667   5.689   1.793
 5516SOL     OW17446   2.248   2.833   4.985
 5516SOL    HW117447   2.292   2.920   5.004
 5516SOL    HW217448   2.251   2.814   4.887
 5517SOL     OW17449   2.071   3.655   1.868
 5517SOL    HW117450   1.974   3.632   1.875
 5517SOL    HW217451   2.125   3.588   1.918
 5518SOL     OW17452   6.296   4.868   5.611
 5518SOL    HW117453   6.196   4.860   5.608
 5518SOL    HW217454   6.336   4.778   5.626
 5519SOL     OW17455   5.626   3.184   3.531
 5519SOL    HW117456   5.578   3.263   3.495
 5519SOL    HW217457   5.722   3.187   3.502
 5520SOL     OW17458   5.849   6.513   2.197
 5520SOL    HW117459   5.779   6.561   2.144
 5520SOL    HW217460   5.852   6.550   2.290
 5521SOL     OW17461   5.726   5.693   1.358
 5521SOL    HW117462   5.686   5.731   1.275
 5521SOL    HW217463   5.826   5.702   1.354
 5522SOL     OW17464   6.593   5.571   1.585
 5522SOL    HW117465   6.691   5.591   1.592
 5522SOL    HW217466   6.581   5.476   1.555
 5523SOL     OW17467   4.914   1.005   2.453
 5523SOL    HW117468   4.823   0.964   2.442
 5523SOL    HW217469   4.912   1.099   2.418
 5524SOL     OW17470   3.292   6.855   4.748
 5524SOL    HW117471   3.386   6.821   4.743
 5524SOL    HW217472   3.291   6.954   4.737
 5525SOL     OW17473   0.675   2.514   0.344
 5525SOL    HW117474   0.708   2.438   0.399
 5525SOL    HW217475   0.688   2.493   0.247
 5526SOL     OW17476   4.538   4.438   2.829
 5526SOL    HW117477   4.602   4.453   2.753
 5526SOL    HW217478   4.555   4.347   2.868
 5527SOL     OW17479   4.891   3.526   3.321
 5527SOL    HW117480   4.936   3.584   3.253
 5527SOL    HW217481   4.873   3.436   3.281
 5528SOL     OW17482   1.355   1.359   1.433
 5528SOL    HW117483   1.420   1.324   1.500
 5528SOL    HW217484   1.354   1.299   1.353
 5529SOL     OW17485   2.712   7.007   3.686
 5529SOL    HW117486   2.803   7.007   3.645
 5529SOL    HW217487   2.664   6.923   3.661
 5530SOL     OW17488   6.484   2.393   1.538
 5530SOL    HW117489   6.472   2.294   1.540
 5530SOL    HW217490   6.478   2.429   1.631
 5531SOL     OW17491   3.908   3.576   1.651
 5531SOL    HW117492   3.921   3.510   1.725
 5531SOL    HW217493   3.875   3.662   1.688
 5532SOL     OW17494   2.171   2.948   0.849
 5532SOL    HW117495   2.168   2.949   0.749
 5532SOL    HW217496   2.173   2.853   0.881
 5533SOL     OW17497   4.858   1.665   3.724
 5533SOL    HW117498   4.794   1.617   3.783
 5533SOL    HW217499   4.872   1.758   3.758
 5534SOL     OW17500   0.984   1.093   6.084
 5534SOL    HW117501   0.898   1.045   6.100
 5534SOL    HW217502   1.029   1.054   6.003
 5535SOL     OW17503   0.731   1.304   2.635
 5535SOL    HW117504   0.769   1.397   2.633
 5535SOL    HW217505   0.767   1.252   2.558
 5536SOL     OW17506   4.197   0.543   4.330
 5536SOL    HW117507   4.230   0.550   4.424
 5536SOL    HW217508   4.199   0.447   4.302
 5537SOL     OW17509   3.785   1.689   2.624
 5537SOL    HW117510   3.809   1.642   2.708
 5537SOL    HW217511   3.690   1.722   2.629
 5538SOL     OW17512   3.944   6.024   4.693
 5538SOL    HW117513   3.953   5.946   4.631
 5538SOL    HW217514   3.870   6.084   4.661
 5539SOL     OW17515   1.755   3.558   1.357
 5539SOL    HW117516   1.664   3.534   1.391
 5539SOL    HW217517   1.816   3.575   1.434
 5540SOL     OW17518   4.462   4.854   3.746
 5540SOL    HW117519   4.450   4.756   3.763
 5540SOL    HW217520   4.505   4.867   3.657
 5541SOL     OW17521   4.548   1.298   6.001
 5541SOL    HW117522   4.547   1.396   5.979
 5541SOL    HW217523   4.460   1.273   6.043
 5542SOL     OW17524   4.136   3.415   6.155
 5542SOL    HW117525   4.183   3.465   6.083
 5542SOL    HW217526   4.113   3.477   6.230
 5543SOL     OW17527   5.546   3.754   6.911
 5543SOL    HW117528   5.556   3.800   6.823
 5543SOL    HW217529   5.451   3.726   6.923
 5544SOL     OW17530   5.479   0.596   6.371
 5544SOL    HW117531   5.499   0.591   6.469
 5544SOL    HW217532   5.404   0.661   6.356
 5545SOL     OW17533   4.090   1.981   3.206
 5545SOL    HW117534   4.047   2.071   3.217
 5545SOL    HW217535   4.067   1.923   3.284
 5546SOL     OW17536   1.218   5.570   5.604
 5546SOL    HW117537   1.206   5.471   5.605
 5546SOL    HW217538   1.307   5.594   5.643
 5547SOL     OW17539   3.160   5.945   5.038
 5547SOL    HW117540   3.183   6.003   4.960
 5547SOL    HW217541   3.241   5.891   5.063
 5548SOL     OW17542   6.134   3.533   5.490
 5548SOL    HW117543   6.055   3.589   5.513
 5548SOL    HW217544   6.134   3.450   5.546
 5549SOL     OW17545   3.238   4.913   6.660
 5549SOL    HW117546   3.323   4.906   6.713
 5549SOL    HW217547   3.226   4.830   6.606
 5550SOL     OW17548   2.577   5.878   1.882
 5550SOL    HW117549   2.598   5.864   1.785
 5550SOL    HW217550   2.576   5.789   1.929
 5551SOL     OW17551   1.552   0.519   3.106
 5551SOL    HW117552   1.580   0.614   3.117
 5551SOL    HW217553   1.467   0.503   3.156
 5552SOL     OW17554   0.309   1.264   0.648
 5552SOL    HW117555   0.260   1.331   0.593
 5552SOL    HW217556   0.343   1.307   0.731
 5553SOL     OW17557   4.333   6.779   6.923
 5553SOL    HW117558   4.376   6.821   6.843
 5553SOL    HW217559   4.403   6.738   6.981
 5554SOL     OW17560   3.037   2.357   5.365
 5554SOL    HW117561   2.959   2.295   5.364
 5554SOL    HW217562   3.090   2.346   5.281
 5555SOL     OW17563   0.440   5.467   3.082
 5555SOL    HW117564   0.434   5.457   3.181
 5555SOL    HW217565   0.383   5.398   3.037
 5556SOL     OW17566   1.163   2.078   4.893
 5556SOL    HW117567   1.136   2.168   4.860
 5556SOL    HW217568   1.256   2.057   4.861
 5557SOL     OW17569   2.454   6.048   3.752
 5557SOL    HW117570   2.462   6.139   3.793
 5557SOL    HW217571   2.495   6.049   3.661
 5558SOL     OW17572   5.045   2.946   5.202
 5558SOL    HW117573   5.057   2.847   5.194
 5558SOL    HW217574   5.122   2.993   5.159
 5559SOL     OW17575   2.678   6.893   0.619
 5559SOL    HW117576   2.599   6.953   0.616
 5559SOL    HW217577   2.648   6.797   0.622
 5560SOL     OW17578   0.436   0.789   2.922
 5560SOL    HW117579   0.535   0.803   2.916
 5560SOL    HW217580   0.389   0.861   2.872
 5561SOL     OW17581   1.383   3.223   3.979
 5561SOL    HW117582   1.316   3.296   3.968
 5561SOL    HW217583   1.429   3.232   4.067
 5562SOL     OW17584   1.993   2.628   6.278
 5562SOL    HW117585   1.914   2.671   6.322
 5562SOL    HW217586   1.971   2.534   6.253
 5563SOL     OW17587   4.468   6.454   2.436
 5563SOL    HW117588   4.511   6.412   2.516
 5563SOL    HW217589   4.428   6.383   2.379
 5564SOL     OW17590   5.034   4.127   1.869
 5564SOL    HW117591   5.034   4.081   1.780
 5564SOL    HW217592   4.942   4.157   1.891
 5565SOL     OW17593   4.170   2.360   5.647
 5565SOL    HW117594   4.121   2.430   5.594
 5565SOL    HW217595   4.111   2.328   5.720
 5566SOL     OW17596   1.947   5.364   0.566
 5566SOL    HW117597   1.994   5.284   0.603
 5566SOL    HW217598   2.008   5.415   0.506
 5567SOL     OW17599   1.826   5.561   1.149
 5567SOL    HW117600   1.857   5.506   1.226
 5567SOL    HW217601   1.756   5.511   1.099
 5568SOL     OW17602   4.350   1.258   1.184
 5568SOL    HW117603   4.396   1.179   1.225
 5568SOL    HW217604   4.388   1.342   1.223
 5569SOL     OW17605   4.362   1.780   1.417
 5569SOL    HW117606   4.385   1.826   1.332
 5569SOL    HW217607   4.291   1.712   1.400
 5570SOL     OW17608   6.464   4.539   5.330
 5570SOL    HW117609   6.421   4.629   5.319
 5570SOL    HW217610   6.506   4.512   5.244
 5571SOL     OW17611   0.012   5.716   0.513
 5571SOL    HW117612   0.001   5.642   0.579
 5571SOL    HW217613   6.947   5.756   0.493
 5572SOL     OW17614   3.957   2.501   6.126
 5572SOL    HW117615   3.923   2.407   6.133
 5572SOL    HW217616   3.978   2.522   6.030
 5573SOL     OW17617   1.424   3.962   0.701
 5573SOL    HW117618   1.356   3.925   0.764
 5573SOL    HW217619   1.431   3.902   0.621
 5574SOL     OW17620   0.355   6.690   4.627
 5574SOL    HW117621   0.350   6.666   4.724
 5574SOL    HW217622   0.264   6.688   4.587
 5575SOL     OW17623   1.302   1.196   1.210
 5575SOL    HW117624   1.286   1.211   1.112
 5575SOL    HW217625   1.335   1.103   1.225
 5576SOL     OW17626   5.485   5.993   0.511
 5576SOL    HW117627   5.427   5.911   0.516
 5576SOL    HW217628   5.574   5.974   0.552
 5577SOL     OW17629   2.553   3.379   5.384
 5577SOL    HW117630   2.605   3.464   5.382
 5577SOL    HW217631   2.475   3.386   5.321
 5578SOL     OW17632   4.409   2.739   0.252
 5578SOL    HW117633   4.486   2.684   0.219
 5578SOL    HW217634   4.428   2.769   0.346
 5579SOL     OW17635   5.259   3.696   0.028
 5579SOL    HW117636   5.286   3.656   6.965
 5579SOL    HW217637   5.197   3.772   0.012
 5580SOL     OW17638   5.274   0.980   0.650
 5580SOL    HW117639   5.367   0.994   0.684
 5580SOL    HW217640   5.208   1.020   0.714
 5581SOL     OW17641   1.776   0.713   6.332
 5581SOL    HW117642   1.796   0.737   6.427
 5581SOL    HW217643   1.677   0.708   6.319
 5582SOL     OW17644   3.634   3.407   3.990
 5582SOL    HW117645   3.549   3.444   4.027
 5582SOL    HW217646   3.674   3.473   3.926
 5583SOL     OW17647   3.362   6.906   1.880
 5583SOL    HW117648   3.356   6.825   1.938
 5583SOL    HW217649   3.321   6.984   1.927
 5584SOL     OW17650   6.400   4.271   2.905
 5584SOL    HW117651   6.429   4.303   2.814
 5584SOL    HW217652   6.407   4.172   2.909
 5585SOL     OW17653   6.908   0.738   3.953
 5585SOL    HW117654   6.968   0.658   3.956
 5585SOL    HW217655   6.869   0.747   3.861
 5586SOL     OW17656   2.419   1.577   5.849
 5586SOL    HW117657   2.468   1.490   5.851
 5586SOL    HW217658   2.425   1.616   5.757
 5587SOL     OW17659   4.124   0.566   3.500
 5587SOL    HW117660   4.222   0.560   3.478
 5587SOL    HW217661   4.072   0.518   3.429
 5588SOL     OW17662   2.624   0.274   5.416
 5588SOL    HW117663   2.547   0.210   5.419
 5588SOL    HW217664   2.698   0.235   5.362
 5589SOL     OW17665   5.011   2.655   6.153
 5589SOL    HW117666   4.925   2.651   6.204
 5589SOL    HW217667   5.080   2.702   6.208
 5590SOL     OW17668   0.033   5.842   4.489
 5590SOL    HW117669   7.013   5.871   4.405
 5590SOL    HW217670   6.998   5.860   4.567
 5591SOL     OW17671   5.644   0.544   6.978
 5591SOL    HW117672   5.561   0.490   6.967
 5591SOL    HW217673   5.724   0.485   6.970
 5592SOL     OW17674   1.618   4.058   2.567
 5592SOL    HW117675   1.701   4.095   2.610
 5592SOL    HW217676   1.542   4.121   2.582
 5593SOL     OW17677   1.567   2.789   5.923
 5593SOL    HW117678   1.628   2.710   5.930
 5593SOL    HW217679   1.510   2.781   5.842
 5594SOL     OW17680   1.989   7.020   0.425
 5594SOL    HW117681   2.071   0.052   0.411
 5594SOL    HW217682   1.981   6.996   0.522
 5595SOL     OW17683   6.721   1.555   5.870
 5595SOL    HW117684   6.808   1.604   5.864
 5595SOL    HW217685   6.728   1.468   5.820
 5596SOL     OW17686   5.025   0.748   2.435
 5596SOL    HW117687   5.002   0.844   2.456
 5596SOL    HW217688   4.943   0.692   2.446
 5597SOL     OW17689   6.331   1.335   6.419
 5597SOL    HW117690   6.280   1.332   6.333
 5597SOL    HW217691   6.285   1.279   6.488
 5598SOL     OW17692   6.190   1.669   3.914
 5598SOL    HW117693   6.238   1.606   3.852
 5598SOL    HW217694   6.241   1.755   3.920
 5599SOL     OW17695   4.832   4.028   2.217
 5599SOL    HW117696   4.910   4.090   2.220
 5599SOL    HW217697   4.814   4.000   2.123
 5600SOL     OW17698   2.405   1.079   2.819
 5600SOL    HW117699   2.347   1.073   2.738
 5600SOL    HW217700   2.417   1.175   2.844
 5601SOL     OW17701   5.375   3.372   5.605
 5601SOL    HW117702   5.278   3.346   5.606
 5601SOL    HW217703   5.431   3.291   5.587
 5602SOL     OW17704   0.385   2.384   3.280
 5602SOL    HW117705   0.472   2.424   3.307
 5602SOL    HW217706   0.367   2.302   3.334
 5603SOL     OW17707   4.077   2.189   4.717
 5603SOL    HW117708   4.060   2.269   4.776
 5603SOL    HW217709   4.110   2.220   4.628
 5604SOL     OW17710   0.926   0.160   3.929
 5604SOL    HW117711   0.939   0.120   4.019
 5604SOL    HW217712   0.831   0.190   3.919
 5605SOL     OW17713   2.510   6.064   4.638
 5605SOL    HW117714   2.520   6.031   4.732
 5605SOL    HW217715   2.420   6.039   4.603
 5606SOL     OW17716   4.626   2.185   0.467
 5606SOL    HW117717   4.658   2.165   0.560
 5606SOL    HW217718   4.645   2.281   0.445
 5607SOL     OW17719   5.943   2.892   2.014
 5607SOL    HW117720   5.975   2.918   2.105
 5607SOL    HW217721   6.018   2.851   1.962
 5608SOL     OW17722   4.741   1.311   3.686
 5608SOL    HW117723   4.779   1.375   3.619
 5608SOL    HW217724   4.643   1.327   3.696
 5609SOL     OW17725   6.137   6.819   1.004
 5609SOL    HW117726   6.171   6.842   1.095
 5609SOL    HW217727   6.114   6.722   0.999
 5610SOL     OW17728   5.205   4.597   0.334
 5610SOL    HW117729   5.305   4.601   0.339
 5610SOL    HW217730   5.165   4.635   0.417
 5611SOL     OW17731   0.135   5.267   1.835
 5611SOL    HW117732   0.176   5.222   1.914
 5611SOL    HW217733   0.197   5.338   1.801
 5612SOL     OW17734   3.016   0.969   0.791
 5612SOL    HW117735   2.936   0.945   0.845
 5612SOL    HW217736   2.995   0.960   0.694
 5613SOL     OW17737   6.748   5.386   5.207
 5613SOL    HW117738   6.683   5.442   5.257
 5613SOL    HW217739   6.837   5.387   5.253
 5614SOL     OW17740   6.069   1.856   4.500
 5614SOL    HW117741   6.042   1.900   4.585
 5614SOL    HW217742   5.998   1.871   4.430
 5615SOL     OW17743   6.713   3.308   2.627
 5615SOL    HW117744   6.719   3.222   2.678
 5615SOL    HW217745   6.795   3.320   2.571
 5616SOL     OW17746   1.773   3.579   2.910
 5616SOL    HW117747   1.840   3.545   2.977
 5616SOL    HW217748   1.788   3.677   2.897
 5617SOL     OW17749   2.185   5.247   6.464
 5617SOL    HW117750   2.097   5.236   6.416
 5617SOL    HW217751   2.238   5.318   6.419
 5618SOL     OW17752   6.750   5.899   3.934
 5618SOL    HW117753   6.842   5.929   3.959
 5618SOL    HW217754   6.749   5.800   3.923
 5619SOL     OW17755   3.596   3.249   4.824
 5619SOL    HW117756   3.565   3.176   4.763
 5619SOL    HW217757   3.673   3.296   4.783
 5620SOL     OW17758   4.652   4.421   5.618
 5620SOL    HW117759   4.578   4.354   5.607
 5620SOL    HW217760   4.729   4.378   5.665
 5621SOL     OW17761   1.832   2.472   4.969
 5621SOL    HW117762   1.760   2.527   4.927
 5621SOL    HW217763   1.919   2.521   4.964
 5622SOL     OW17764   4.897   5.672   4.912
 5622SOL    HW117765   4.926   5.635   5.000
 5622SOL    HW217766   4.911   5.604   4.841
 5623SOL     OW17767   4.947   6.565   4.023
 5623SOL    HW117768   4.866   6.522   3.982
 5623SOL    HW217769   4.924   6.658   4.050
 5624SOL     OW17770   0.061   5.278   4.350
 5624SOL    HW117771   0.027   5.210   4.284
 5624SOL    HW217772   7.014   5.299   4.416
 5625SOL     OW17773   1.096   5.572   4.792
 5625SOL    HW117774   1.137   5.547   4.705
 5625SOL    HW217775   1.080   5.490   4.847
 5626SOL     OW17776   1.955   3.994   4.455
 5626SOL    HW117777   1.986   3.902   4.478
 5626SOL    HW217778   2.025   4.061   4.482
 5627SOL     OW17779   1.044   5.501   0.240
 5627SOL    HW117780   1.139   5.526   0.257
 5627SOL    HW217781   0.983   5.560   0.293
 5628SOL     OW17782   2.592   2.980   0.904
 5628SOL    HW117783   2.603   3.040   0.983
 5628SOL    HW217784   2.655   2.903   0.911
 5629SOL     OW17785   5.160   4.295   1.335
 5629SOL    HW117786   5.072   4.247   1.330
 5629SOL    HW217787   5.179   4.318   1.430
 5630SOL     OW17788   1.869   3.722   6.673
 5630SOL    HW117789   1.946   3.724   6.737
 5630SOL    HW217790   1.865   3.808   6.623
 5631SOL     OW17791   4.453   0.684   2.429
 5631SOL    HW117792   4.455   0.657   2.333
 5631SOL    HW217793   4.546   0.684   2.466
 5632SOL     OW17794   5.945   6.910   5.688
 5632SOL    HW117795   5.975   7.003   5.667
 5632SOL    HW217796   5.981   6.847   5.619
 5633SOL     OW17797   0.225   4.651   5.749
 5633SOL    HW117798   0.184   4.565   5.719
 5633SOL    HW217799   0.155   4.722   5.756
 5634SOL     OW17800   3.059   6.250   6.600
 5634SOL    HW117801   3.058   6.344   6.635
 5634SOL    HW217802   3.061   6.187   6.678
 5635SOL     OW17803   2.481   6.959   6.645
 5635SOL    HW117804   2.564   6.959   6.588
 5635SOL    HW217805   2.448   6.865   6.656
 5636SOL     OW17806   6.619   1.119   5.868
 5636SOL    HW117807   6.634   1.095   5.772
 5636SOL    HW217808   6.558   1.198   5.874
 5637SOL     OW17809   5.470   6.135   4.886
 5637SOL    HW117810   5.384   6.123   4.935
 5637SOL    HW217811   5.456   6.196   4.808
 5638SOL     OW17812   4.892   5.189   0.992
 5638SOL    HW117813   4.893   5.223   1.086
 5638SOL    HW217814   4.906   5.265   0.929
 5639SOL     OW17815   1.099   0.072   1.508
 5639SOL    HW117816   1.114   6.998   1.501
 5639SOL    HW217817   1.023   0.090   1.571
 5640SOL     OW17818   3.115   5.956   2.905
 5640SOL    HW117819   3.064   6.042   2.894
 5640SOL    HW217820   3.167   5.960   2.991
 5641SOL     OW17821   1.213   4.788   4.184
 5641SOL    HW117822   1.300   4.742   4.168
 5641SOL    HW217823   1.180   4.766   4.276
 5642SOL     OW17824   1.330   4.626   0.085
 5642SOL    HW117825   1.256   4.661   0.142
 5642SOL    HW217826   1.330   4.526   0.088
 5643SOL     OW17827   4.391   2.345   4.578
 5643SOL    HW117828   4.391   2.338   4.678
 5643SOL    HW217829   4.449   2.422   4.550
 5644SOL     OW17830   5.230   1.251   5.201
 5644SOL    HW117831   5.249   1.267   5.105
 5644SOL    HW217832   5.312   1.216   5.247
 5645SOL     OW17833   5.321   6.081   2.747
 5645SOL    HW117834   5.225   6.087   2.776
 5645SOL    HW217835   5.380   6.122   2.816
 5646SOL     OW17836   0.234   5.989   3.461
 5646SOL    HW117837   0.278   6.035   3.538
 5646SOL    HW217838   0.200   5.900   3.491
 5647SOL     OW17839   5.840   6.453   0.102
 5647SOL    HW117840   5.870   6.412   0.016
 5647SOL    HW217841   5.908   6.435   0.173
 5648SOL     OW17842   2.119   1.872   3.594
 5648SOL    HW117843   2.142   1.774   3.597
 5648SOL    HW217844   2.027   1.883   3.555
 5649SOL     OW17845   0.982   0.808   4.486
 5649SOL    HW117846   0.945   0.839   4.399
 5649SOL    HW217847   0.913   0.754   4.535
 5650SOL     OW17848   6.748   4.836   0.081
 5650SOL    HW117849   6.697   4.844   0.166
 5650SOL    HW217850   6.780   4.742   0.070
 5651SOL     OW17851   0.108   0.993   1.747
 5651SOL    HW117852   0.103   0.897   1.774
 5651SOL    HW217853   0.166   1.043   1.811
 5652SOL     OW17854   5.052   5.631   1.829
 5652SOL    HW117855   5.004   5.635   1.742
 5652SOL    HW217856   5.025   5.548   1.879
 5653SOL     OW17857   6.946   5.518   5.618
 5653SOL    HW117858   6.900   5.483   5.700
 5653SOL    HW217859   6.951   5.446   5.549
 5654SOL     OW17860   0.033   0.440   5.360
 5654SOL    HW117861   0.131   0.442   5.383
 5654SOL    HW217862   7.010   0.510   5.414
 5655SOL     OW17863   0.987   3.539   3.771
 5655SOL    HW117864   1.069   3.589   3.798
 5655SOL    HW217865   0.997   3.443   3.797
 5656SOL     OW17866   3.101   3.404   0.813
 5656SOL    HW117867   3.024   3.392   0.875
 5656SOL    HW217868   3.184   3.418   0.865
 5657SOL     OW17869   4.323   0.278   1.691
 5657SOL    HW117870   4.254   0.339   1.653
 5657SOL    HW217871   4.310   0.270   1.790
 5658SOL     OW17872   3.657   6.975   5.301
 5658SOL    HW117873   3.753   6.965   5.277
 5658SOL    HW217874   3.614   0.016   5.239
 5659SOL     OW17875   2.894   3.567   3.163
 5659SOL    HW117876   2.945   3.481   3.169
 5659SOL    HW217877   2.880   3.591   3.067
 5660SOL     OW17878   5.173   0.511   6.934
 5660SOL    HW117879   5.158   0.504   6.835
 5660SOL    HW217880   5.165   0.606   6.962
 5661SOL     OW17881   0.116   6.094   5.410
 5661SOL    HW117882   0.043   6.047   5.462
 5661SOL    HW217883   0.175   6.143   5.474
 5662SOL     OW17884   2.706   4.766   3.684
 5662SOL    HW117885   2.684   4.818   3.601
 5662SOL    HW217886   2.800   4.784   3.711
 5663SOL     OW17887   0.963   3.948   0.670
 5663SOL    HW117888   1.010   3.978   0.587
 5663SOL    HW217889   0.967   3.848   0.676
 5664SOL     OW17890   0.130   4.850   2.939
 5664SOL    HW117891   0.068   4.890   2.872
 5664SOL    HW217892   0.111   4.752   2.947
 5665SOL     OW17893   2.351   2.499   6.487
 5665SOL    HW117894   2.358   2.454   6.398
 5665SOL    HW217895   2.335   2.597   6.473
 5666SOL     OW17896   4.513   5.543   0.755
 5666SOL    HW117897   4.541   5.558   0.661
 5666SOL    HW217898   4.414   5.560   0.764
 5667SOL     OW17899   6.972   5.406   2.959
 5667SOL    HW117900   6.980   5.361   3.048
 5667SOL    HW217901   6.988   5.339   2.886
 5668SOL     OW17902   4.536   1.928   6.153
 5668SOL    HW117903   4.489   2.002   6.105
 5668SOL    HW217904   4.503   1.922   6.247
 5669SOL     OW17905   0.234   5.058   5.931
 5669SOL    HW117906   0.214   5.156   5.944
 5669SOL    HW217907   0.207   5.030   5.839
 5670SOL     OW17908   0.256   3.393   3.871
 5670SOL    HW117909   0.186   3.328   3.901
 5670SOL    HW217910   0.219   3.452   3.799
 5671SOL     OW17911   2.151   6.701   6.498
 5671SOL    HW117912   2.095   6.668   6.423
 5671SOL    HW217913   2.218   6.767   6.464
 5672SOL     OW17914   5.097   3.754   5.861
 5672SOL    HW117915   5.065   3.754   5.766
 5672SOL    HW217916   5.107   3.848   5.892
 5673SOL     OW17917   0.595   0.367   2.414
 5673SOL    HW117918   0.575   0.455   2.372
 5673SOL    HW217919   0.540   0.356   2.497
 5674SOL     OW17920   0.198   3.498   1.468
 5674SOL    HW117921   0.231   3.515   1.560
 5674SOL    HW217922   0.100   3.477   1.471
 5675SOL     OW17923   4.507   2.398   5.604
 5675SOL    HW117924   4.516   2.452   5.519
 5675SOL    HW217925   4.410   2.384   5.623
 5676SOL     OW17926   1.512   0.950   1.582
 5676SOL    HW117927   1.478   1.010   1.655
 5676SOL    HW217928   1.499   0.854   1.608
 5677SOL     OW17929   6.516   2.128   3.909
 5677SOL    HW117930   6.428   2.082   3.899
 5677SOL    HW217931   6.503   2.227   3.908
 5678SOL     OW17932   3.781   6.474   3.109
 5678SOL    HW117933   3.690   6.484   3.068
 5678SOL    HW217934   3.793   6.543   3.180
 5679SOL     OW17935   1.656   6.650   4.930
 5679SOL    HW117936   1.737   6.600   4.901
 5679SOL    HW217937   1.675   6.749   4.927
 5680SOL     OW17938   1.291   5.081   6.600
 5680SOL    HW117939   1.239   5.014   6.548
 5680SOL    HW217940   1.321   5.155   6.539
 5681SOL     OW17941   1.237   2.357   6.584
 5681SOL    HW117942   1.282   2.365   6.496
 5681SOL    HW217943   1.264   2.433   6.643
 5682SOL     OW17944   1.547   2.765   5.665
 5682SOL    HW117945   1.483   2.806   5.600
 5682SOL    HW217946   1.637   2.805   5.654
 5683SOL     OW17947   3.545   2.747   6.544
 5683SOL    HW117948   3.454   2.787   6.531
 5683SOL    HW217949   3.597   2.752   6.459
 5684SOL     OW17950   3.711   3.552   4.459
 5684SOL    HW117951   3.656   3.522   4.537
 5684SOL    HW217952   3.651   3.581   4.385
 5685SOL     OW17953   0.697   4.922   2.696
 5685SOL    HW117954   0.793   4.948   2.692
 5685SOL    HW217955   0.650   4.952   2.613
 5686SOL     OW17956   3.789   0.387   0.579
 5686SOL    HW117957   3.711   0.383   0.642
 5686SOL    HW217958   3.858   0.321   0.608
 5687SOL     OW17959   5.866   4.411   4.885
 5687SOL    HW117960   5.956   4.451   4.871
 5687SOL    HW217961   5.795   4.476   4.858
 5688SOL     OW17962   5.928   2.519   1.662
 5688SOL    HW117963   5.922   2.452   1.736
 5688SOL    HW217964   5.974   2.478   1.584
 5689SOL     OW17965   4.656   0.979   0.514
 5689SOL    HW117966   4.612   0.974   0.604
 5689SOL    HW217967   4.662   1.075   0.485
 5690SOL     OW17968   4.297   6.070   0.496
 5690SOL    HW117969   4.217   6.031   0.451
 5690SOL    HW217970   4.366   5.999   0.509
 5691SOL     OW17971   3.289   6.556   2.320
 5691SOL    HW117972   3.273   6.596   2.230
 5691SOL    HW217973   3.377   6.588   2.355
 5692SOL     OW17974   6.591   1.683   5.602
 5692SOL    HW117975   6.628   1.665   5.693
 5692SOL    HW217976   6.498   1.720   5.611
 5693SOL     OW17977   5.089   2.926   2.129
 5693SOL    HW117978   5.187   2.940   2.116
 5693SOL    HW217979   5.060   2.969   2.214
 5694SOL     OW17980   0.449   1.136   3.408
 5694SOL    HW117981   0.516   1.204   3.437
 5694SOL    HW217982   0.357   1.165   3.436
 5695SOL     OW17983   1.262   2.319   3.863
 5695SOL    HW117984   1.322   2.395   3.888
 5695SOL    HW217985   1.309   2.232   3.880
 5696SOL     OW17986   2.796   1.903   4.822
 5696SOL    HW117987   2.788   1.967   4.745
 5696SOL    HW217988   2.813   1.954   4.906
 5697SOL     OW17989   0.265   2.316   0.529
 5697SOL    HW117990   0.264   2.244   0.598
 5697SOL    HW217991   0.226   2.400   0.567
 5698SOL     OW17992   0.569   2.401   2.337
 5698SOL    HW117993   0.621   2.324   2.376
 5698SOL    HW217994   0.488   2.417   2.394
 5699SOL     OW17995   6.355   1.093   4.081
 5699SOL    HW117996   6.293   1.040   4.023
 5699SOL    HW217997   6.369   1.044   4.167
 5700SOL     OW17998   1.163   6.339   4.792
 5700SOL    HW117999   1.197   6.379   4.707
 5700SOL    HW218000   1.239   6.296   4.840
 5701SOL     OW18001   0.635   6.071   2.648
 5701SOL    HW118002   0.658   5.974   2.650
 5701SOL    HW218003   0.565   6.086   2.578
 5702SOL     OW18004   1.688   6.457   5.981
 5702SOL    HW118005   1.778   6.424   5.955
 5702SOL    HW218006   1.696   6.519   6.059
 5703SOL     OW18007   4.932   5.129   6.952
 5703SOL    HW118008   4.948   5.178   0.012
 5703SOL    HW218009   4.927   5.194   6.876
 5704SOL     OW18010   4.433   5.149   3.380
 5704SOL    HW118011   4.445   5.218   3.309
 5704SOL    HW218012   4.337   5.144   3.407
 5705SOL     OW18013   5.870   0.458   1.021
 5705SOL    HW118014   5.960   0.416   1.010
 5705SOL    HW218015   5.808   0.392   1.063
 5706SOL     OW18016   1.754   1.792   0.383
 5706SOL    HW118017   1.784   1.883   0.356
 5706SOL    HW218018   1.722   1.793   0.478
 5707SOL     OW18019   1.681   6.974   6.772
 5707SOL    HW118020   1.680   0.049   6.772
 5707SOL    HW218021   1.588   6.939   6.779
 5708SOL     OW18022   4.966   6.823   2.068
 5708SOL    HW118023   5.021   6.900   2.035
 5708SOL    HW218024   4.871   6.850   2.075
 5709SOL     OW18025   0.519   6.370   3.600
 5709SOL    HW118026   0.557   6.335   3.514
 5709SOL    HW218027   0.460   6.448   3.581
 5710SOL     OW18028   2.991   3.663   5.921
 5710SOL    HW118029   2.946   3.690   5.835
 5710SOL    HW218030   2.930   3.603   5.973
 5711SOL     OW18031   4.856   1.154   3.874
 5711SOL    HW118032   4.897   1.207   3.947
 5711SOL    HW218033   4.820   1.215   3.804
 5712SOL     OW18034   6.766   0.031   5.099
 5712SOL    HW118035   6.746   0.120   5.140
 5712SOL    HW218036   6.682   7.002   5.095
 5713SOL     OW18037   0.548   2.540   2.108
 5713SOL    HW118038   0.457   2.581   2.098
 5713SOL    HW218039   0.558   2.503   2.201
 5714SOL     OW18040   1.365   6.979   0.012
 5714SOL    HW118041   1.373   6.946   6.942
 5714SOL    HW218042   1.285   6.937   0.055
 5715SOL     OW18043   1.142   6.195   2.598
 5715SOL    HW118044   1.092   6.151   2.672
 5715SOL    HW218045   1.179   6.282   2.630
 5716SOL     OW18046   1.731   3.990   5.775
 5716SOL    HW118047   1.681   4.008   5.690
 5716SOL    HW218048   1.794   3.914   5.760
 5717SOL     OW18049   1.077   4.769   1.198
 5717SOL    HW118050   1.042   4.792   1.108
 5717SOL    HW218051   1.107   4.852   1.245
 5718SOL     OW18052   1.795   4.748   6.823
 5718SOL    HW118053   1.884   4.772   6.785
 5718SOL    HW218054   1.725   4.756   6.752
 5719SOL     OW18055   3.180   0.939   6.254
 5719SOL    HW118056   3.208   0.843   6.259
 5719SOL    HW218057   3.174   0.966   6.158
 5720SOL     OW18058   0.176   4.871   4.812
 5720SOL    HW118059   0.150   4.903   4.903
 5720SOL    HW218060   0.147   4.937   4.743
 5721SOL     OW18061   0.941   3.076   0.348
 5721SOL    HW118062   0.869   3.078   0.279
 5721SOL    HW218063   0.991   3.163   0.345
 5722SOL     OW18064   5.323   0.956   4.784
 5722SOL    HW118065   5.387   0.978   4.857
 5722SOL    HW218066   5.373   0.930   4.702
 5723SOL     OW18067   3.395   4.836   0.590
 5723SOL    HW118068   3.297   4.827   0.570
 5723SOL    HW218069   3.406   4.873   0.682
 5724SOL     OW18070   4.378   2.156   6.635
 5724SOL    HW118071   4.440   2.085   6.601
 5724SOL    HW218072   4.355   2.219   6.562
 5725SOL     OW18073   5.253   5.415   3.719
 5725SOL    HW118074   5.350   5.403   3.697
 5725SOL    HW218075   5.232   5.512   3.725
 5726SOL     OW18076   6.113   3.571   5.054
 5726SOL    HW118077   6.122   3.518   5.138
 5726SOL    HW218078   6.054   3.650   5.071
 5727SOL     OW18079   5.862   2.666   2.829
 5727SOL    HW118080   5.912   2.710   2.904
 5727SOL    HW218081   5.801   2.596   2.866
 5728SOL     OW18082   6.092   0.991   5.724
 5728SOL    HW118083   6.126   1.032   5.639
 5728SOL    HW218084   6.164   0.995   5.793
 5729SOL     OW18085   0.437   1.923   0.215
 5729SOL    HW118086   0.533   1.944   0.198
 5729SOL    HW218087   0.409   1.962   0.303
 5730SOL     OW18088   4.066   5.727   5.220
 5730SOL    HW118089   4.133   5.709   5.292
 5730SOL    HW218090   4.023   5.816   5.236
 5731SOL     OW18091   1.555   6.390   4.299
 5731SOL    HW118092   1.537   6.293   4.318
 5731SOL    HW218093   1.652   6.408   4.309
 5732SOL     OW18094   6.058   4.748   4.466
 5732SOL    HW118095   6.018   4.777   4.380
 5732SOL    HW218096   6.005   4.786   4.542
 5733SOL     OW18097   3.536   0.922   0.028
 5733SOL    HW118098   3.548   0.832   7.010
 5733SOL    HW218099   3.500   0.910   0.120
 5734SOL     OW18100   1.636   6.764   5.371
 5734SOL    HW118101   1.717   6.815   5.341
 5734SOL    HW218102   1.664   6.676   5.410
 5735SOL     OW18103   3.827   0.949   2.790
 5735SOL    HW118104   3.894   0.914   2.856
 5735SOL    HW218105   3.853   1.041   2.762
 5736SOL     OW18106   5.163   4.323   6.292
 5736SOL    HW118107   5.242   4.267   6.268
 5736SOL    HW218108   5.079   4.271   6.278
 5737SOL     OW18109   5.119   5.929   1.318
 5737SOL    HW118110   5.120   6.016   1.367
 5737SOL    HW218111   5.143   5.855   1.381
 5738SOL     OW18112   3.437   1.112   6.870
 5738SOL    HW118113   3.526   1.124   6.824
 5738SOL    HW218114   3.450   1.058   6.953
 5739SOL     OW18115   2.048   6.567   5.890
 5739SOL    HW118116   1.983   6.642   5.880
 5739SOL    HW218117   2.106   6.583   5.971
 5740SOL     OW18118   4.843   3.271   0.803
 5740SOL    HW118119   4.759   3.317   0.774
 5740SOL    HW218120   4.875   3.210   0.731
 5741SOL     OW18121   0.439   3.789   4.316
 5741SOL    HW118122   0.358   3.733   4.335
 5741SOL    HW218123   0.516   3.729   4.294
 5742SOL     OW18124   3.822   6.775   3.831
 5742SOL    HW118125   3.820   6.832   3.749
 5742SOL    HW218126   3.775   6.822   3.906
 5743SOL     OW18127   4.180   4.582   5.922
 5743SOL    HW118128   4.113   4.520   5.881
 5743SOL    HW218129   4.213   4.543   6.008
 5744SOL     OW18130   5.917   0.376   3.148
 5744SOL    HW118131   6.007   0.359   3.187
 5744SOL    HW218132   5.925   0.438   3.070
 5745SOL     OW18133   2.391   2.772   3.789
 5745SOL    HW118134   2.481   2.796   3.752
 5745SOL    HW218135   2.320   2.796   3.724
 5746SOL     OW18136   4.059   0.133   3.632
 5746SOL    HW118137   4.138   0.143   3.694
 5746SOL    HW218138   4.004   0.217   3.635
 5747SOL     OW18139   1.089   6.198   1.819
 5747SOL    HW118140   1.077   6.192   1.720
 5747SOL    HW218141   1.072   6.109   1.861
 5748SOL     OW18142   0.512   6.372   0.531
 5748SOL    HW118143   0.470   6.284   0.510
 5748SOL    HW218144   0.612   6.364   0.528
 5749SOL     OW18145   1.996   6.859   5.005
 5749SOL    HW118146   2.000   6.760   5.017
 5749SOL    HW218147   2.047   6.885   4.923
 5750SOL     OW18148   6.592   4.387   5.126
 5750SOL    HW118149   6.566   4.321   5.197
 5750SOL    HW218150   6.556   4.357   5.038
 5751SOL     OW18151   1.977   3.530   4.410
 5751SOL    HW118152   1.901   3.585   4.374
 5751SOL    HW218153   2.024   3.485   4.335
 5752SOL     OW18154   5.496   0.218   1.102
 5752SOL    HW118155   5.584   0.225   1.150
 5752SOL    HW218156   5.486   0.295   1.040
 5753SOL     OW18157   2.938   3.984   5.328
 5753SOL    HW118158   3.010   4.002   5.394
 5753SOL    HW218159   2.964   3.907   5.269
 5754SOL     OW18160   1.834   6.566   1.695
 5754SOL    HW118161   1.860   6.607   1.783
 5754SOL    HW218162   1.858   6.629   1.621
 5755SOL     OW18163   1.910   1.532   6.640
 5755SOL    HW118164   1.987   1.554   6.579
 5755SOL    HW218165   1.944   1.485   6.721
 5756SOL     OW18166   6.763   0.244   2.500
 5756SOL    HW118167   6.788   0.252   2.596
 5756SOL    HW218168   6.837   0.282   2.443
 5757SOL     OW18169   6.768   5.612   3.867
 5757SOL    HW118170   6.672   5.612   3.843
 5757SOL    HW218171   6.824   5.621   3.784
 5758SOL     OW18172   2.027   0.121   3.108
 5758SOL    HW118173   1.989   0.029   3.104
 5758SOL    HW218174   1.974   0.182   3.048
 5759SOL     OW18175   4.592   0.032   1.918
 5759SOL    HW118176   4.568   6.968   1.957
 5759SOL    HW218177   4.539   0.103   1.965
 5760SOL     OW18178   6.945   3.493   2.041
 5760SOL    HW118179   6.948   3.509   2.140
 5760SOL    HW218180   7.023   3.436   2.014
 5761SOL     OW18181   5.219   6.099   5.004
 5761SOL    HW118182   5.183   6.005   5.002
 5761SOL    HW218183   5.144   6.163   4.985
 5762SOL     OW18184   4.508   4.467   0.873
 5762SOL    HW118185   4.605   4.488   0.881
 5762SOL    HW218186   4.459   4.547   0.837
 5763SOL     OW18187   5.345   6.680   0.309
 5763SOL    HW118188   5.426   6.733   0.283
 5763SOL    HW218189   5.328   6.691   0.407
 5764SOL     OW18190   3.886   5.250   3.177
 5764SOL    HW118191   3.964   5.259   3.240
 5764SOL    HW218192   3.919   5.215   3.089
 5765SOL     OW18193   6.543   4.347   0.634
 5765SOL    HW118194   6.477   4.353   0.559
 5765SOL    HW218195   6.496   4.364   0.721
 5766SOL     OW18196   1.895   2.010   4.508
 5766SOL    HW118197   1.845   1.928   4.482
 5766SOL    HW218198   1.992   1.988   4.519
 5767SOL     OW18199   2.074   0.185   0.107
 5767SOL    HW118200   2.159   0.138   0.133
 5767SOL    HW218201   2.067   0.270   0.159
 5768SOL     OW18202   6.859   6.962   3.631
 5768SOL    HW118203   6.899   6.951   3.722
 5768SOL    HW218204   6.908   6.903   3.566
 5769SOL     OW18205   2.551   5.176   5.847
 5769SOL    HW118206   2.639   5.131   5.860
 5769SOL    HW218207   2.486   5.111   5.808
 5770SOL     OW18208   0.654   6.520   6.784
 5770SOL    HW118209   0.591   6.446   6.808
 5770SOL    HW218210   0.669   6.578   6.864
 5771SOL     OW18211   2.064   6.739   3.544
 5771SOL    HW118212   2.083   6.642   3.556
 5771SOL    HW218213   2.039   6.780   3.632
 5772SOL     OW18214   4.488   1.302   1.970
 5772SOL    HW118215   4.439   1.383   1.936
 5772SOL    HW218216   4.429   1.222   1.963
 5773SOL     OW18217   4.389   1.602   2.493
 5773SOL    HW118218   4.412   1.699   2.506
 5773SOL    HW218219   4.337   1.591   2.409
 5774SOL     OW18220   1.856   0.451   5.132
 5774SOL    HW118221   1.813   0.521   5.075
 5774SOL    HW218222   1.893   0.379   5.075
 5775SOL     OW18223   1.158   5.910   2.755
 5775SOL    HW118224   1.135   5.824   2.801
 5775SOL    HW218225   1.141   5.987   2.817
 5776SOL     OW18226   1.324   0.172   3.096
 5776SOL    HW118227   1.346   0.169   2.999
 5776SOL    HW218228   1.225   0.178   3.108
 5777SOL     OW18229   1.428   0.293   3.549
 5777SOL    HW118230   1.346   0.331   3.506
 5777SOL    HW218231   1.504   0.357   3.538
 5778SOL     OW18232   1.467   0.590   0.363
 5778SOL    HW118233   1.400   0.633   0.302
 5778SOL    HW218234   1.553   0.641   0.359
 5779SOL     OW18235   4.726   2.776   6.791
 5779SOL    HW118236   4.743   2.855   6.851
 5779SOL    HW218237   4.754   2.799   6.698
 5780SOL     OW18238   5.728   5.631   4.785
 5780SOL    HW118239   5.731   5.581   4.699
 5780SOL    HW218240   5.669   5.710   4.775
 5781SOL     OW18241   6.634   4.857   4.833
 5781SOL    HW118242   6.555   4.836   4.775
 5781SOL    HW218243   6.602   4.901   4.917
 5782SOL     OW18244   1.318   1.124   0.682
 5782SOL    HW118245   1.254   1.063   0.634
 5782SOL    HW218246   1.267   1.185   0.742
 5783SOL     OW18247   1.235   0.840   2.399
 5783SOL    HW118248   1.209   0.842   2.303
 5783SOL    HW218249   1.270   0.929   2.427
 5784SOL     OW18250   0.223   6.072   6.857
 5784SOL    HW118251   0.202   5.980   6.825
 5784SOL    HW218252   0.204   6.079   6.955
 5785SOL     OW18253   2.062   1.835   0.312
 5785SOL    HW118254   2.053   1.846   0.411
 5785SOL    HW218255   2.071   1.738   0.290
 5786SOL     OW18256   6.803   4.444   0.603
 5786SOL    HW118257   6.708   4.414   0.612
 5786SOL    HW218258   6.820   4.475   0.510
 5787SOL     OW18259   2.239   1.794   5.447
 5787SOL    HW118260   2.270   1.779   5.353
 5787SOL    HW218261   2.216   1.890   5.459
 5788SOL     OW18262   2.733   1.549   2.816
 5788SOL    HW118263   2.659   1.614   2.834
 5788SOL    HW218264   2.710   1.493   2.736
 5789SOL     OW18265   3.637   5.042   6.658
 5789SOL    HW118266   3.602   4.971   6.718
 5789SOL    HW218267   3.653   5.125   6.710
 5790SOL     OW18268   1.354   3.746   4.569
 5790SOL    HW118269   1.308   3.761   4.657
 5790SOL    HW218270   1.291   3.699   4.507
 5791SOL     OW18271   4.117   0.472   1.962
 5791SOL    HW118272   4.058   0.395   1.939
 5791SOL    HW218273   4.065   0.541   2.013
 5792SOL     OW18274   6.773   2.523   3.038
 5792SOL    HW118275   6.852   2.500   2.980
 5792SOL    HW218276   6.764   2.455   3.110
 5793SOL     OW18277   5.179   1.124   3.316
 5793SOL    HW118278   5.135   1.178   3.244
 5793SOL    HW218279   5.248   1.064   3.275
 5794SOL     OW18280   3.821   1.907   0.625
 5794SOL    HW118281   3.744   1.965   0.596
 5794SOL    HW218282   3.851   1.851   0.547
 5795SOL     OW18283   6.206   5.578   6.223
 5795SOL    HW118284   6.197   5.530   6.310
 5795SOL    HW218285   6.118   5.575   6.174
 5796SOL     OW18286   4.201   0.826   0.245
 5796SOL    HW118287   4.126   0.853   0.184
 5796SOL    HW218288   4.176   0.847   0.339
 5797SOL     OW18289   4.238   1.880   5.255
 5797SOL    HW118290   4.159   1.834   5.296
 5797SOL    HW218291   4.221   1.979   5.254
 5798SOL     OW18292   0.965   4.220   5.499
 5798SOL    HW118293   0.938   4.195   5.592
 5798SOL    HW218294   0.897   4.186   5.434
 5799SOL     OW18295   5.537   1.351   3.716
 5799SOL    HW118296   5.576   1.284   3.652
 5799SOL    HW218297   5.472   1.409   3.668
 5800SOL     OW18298   5.139   5.982   0.693
 5800SOL    HW118299   5.181   5.895   0.721
 5800SOL    HW218300   5.116   5.977   0.596
 5801SOL     OW18301   1.086   2.334   4.818
 5801SOL    HW118302   1.092   2.370   4.912
 5801SOL    HW218303   1.140   2.392   4.757
 5802SOL     OW18304   0.904   4.485   0.433
 5802SOL    HW118305   0.919   4.573   0.387
 5802SOL    HW218306   0.817   4.446   0.402
 5803SOL     OW18307   1.193   4.373   2.335
 5803SOL    HW118308   1.188   4.351   2.238
 5803SOL    HW218309   1.101   4.369   2.374
 5804SOL     OW18310   6.240   4.428   3.621
 5804SOL    HW118311   6.335   4.449   3.646
 5804SOL    HW218312   6.211   4.491   3.549
 5805SOL     OW18313   3.520   3.941   6.396
 5805SOL    HW118314   3.458   3.935   6.318
 5805SOL    HW218315   3.473   3.911   6.479
 5806SOL     OW18316   0.114   6.140   6.143
 5806SOL    HW118317   0.023   6.173   6.119
 5806SOL    HW218318   0.117   6.119   6.241
 5807SOL     OW18319   1.594   3.429   1.933
 5807SOL    HW118320   1.597   3.346   1.876
 5807SOL    HW218321   1.513   3.482   1.911
 5808SOL     OW18322   6.050   3.900   3.702
 5808SOL    HW118323   5.971   3.885   3.642
 5808SOL    HW218324   6.086   3.992   3.687
 5809SOL     OW18325   0.221   2.346   4.992
 5809SOL    HW118326   0.274   2.413   5.044
 5809SOL    HW218327   0.204   2.266   5.049
 5810SOL     OW18328   3.314   1.009   4.120
 5810SOL    HW118329   3.280   1.028   4.213
 5810SOL    HW218330   3.241   0.966   4.067
 5811SOL     OW18331   2.698   0.136   5.046
 5811SOL    HW118332   2.604   0.166   5.030
 5811SOL    HW218333   2.704   0.037   5.032
 5812SOL     OW18334   5.551   0.322   3.995
 5812SOL    HW118335   5.595   0.409   4.018
 5812SOL    HW218336   5.478   0.338   3.929
 5813SOL     OW18337   1.147   0.904   0.615
 5813SOL    HW118338   1.139   0.846   0.534
 5813SOL    HW218339   1.162   0.846   0.695
 5814SOL     OW18340   6.170   4.483   0.941
 5814SOL    HW118341   6.196   4.503   1.036
 5814SOL    HW218342   6.191   4.562   0.884
 5815SOL     OW18343   4.503   2.496   4.107
 5815SOL    HW118344   4.519   2.519   4.203
 5815SOL    HW218345   4.405   2.501   4.087
 5816SOL     OW18346   4.860   5.673   0.139
 5816SOL    HW118347   4.858   5.743   0.067
 5816SOL    HW218348   4.876   5.716   0.227
 5817SOL     OW18349   5.119   3.327   5.705
 5817SOL    HW118350   5.071   3.241   5.688
 5817SOL    HW218351   5.054   3.396   5.736
 5818SOL     OW18352   6.597   6.143   5.140
 5818SOL    HW118353   6.693   6.147   5.168
 5818SOL    HW218354   6.583   6.199   5.059
 5819SOL     OW18355   4.402   0.208   6.667
 5819SOL    HW118356   4.380   0.111   6.671
 5819SOL    HW218357   4.501   0.220   6.656
 5820SOL     OW18358   4.742   6.411   3.922
 5820SOL    HW118359   4.673   6.480   3.942
 5820SOL    HW218360   4.716   6.325   3.966
 5821SOL     OW18361   0.649   0.003   2.079
 5821SOL    HW118362   0.692   6.941   2.106
 5821SOL    HW218363   0.667   0.073   2.147
 5822SOL     OW18364   0.354   2.445   2.482
 5822SOL    HW118365   0.369   2.399   2.569
 5822SOL    HW218366   0.314   2.535   2.499
 5823SOL     OW18367   0.761   0.915   5.987
 5823SOL    HW118368   0.681   0.921   6.046
 5823SOL    HW218369   0.752   0.981   5.912
 5824SOL     OW18370   6.675   6.081   2.689
 5824SOL    HW118371   6.689   6.166   2.637
 5824SOL    HW218372   6.671   6.103   2.787
 5825SOL     OW18373   2.383   1.821   5.196
 5825SOL    HW118374   2.338   1.813   5.108
 5825SOL    HW218375   2.478   1.788   5.188
 5826SOL     OW18376   6.937   5.307   5.439
 5826SOL    HW118377   7.021   5.268   5.401
 5826SOL    HW218378   6.893   5.240   5.498
 5827SOL     OW18379   2.013   5.009   5.087
 5827SOL    HW118380   2.070   5.018   5.005
 5827SOL    HW218381   1.918   5.031   5.065
 5828SOL     OW18382   6.909   3.040   1.328
 5828SOL    HW118383   6.875   2.951   1.359
 5828SOL    HW218384   6.840   3.110   1.347
 5829SOL     OW18385   2.717   2.084   2.619
 5829SOL    HW118386   2.777   2.162   2.599
 5829SOL    HW218387   2.740   2.045   2.707
 5830SOL     OW18388   4.175   0.104   5.620
 5830SOL    HW118389   4.264   0.064   5.639
 5830SOL    HW218390   4.178   0.150   5.531
 5831SOL     OW18391   7.010   0.439   3.869
 5831SOL    HW118392   0.065   0.384   3.893
 5831SOL    HW218393   6.931   0.379   3.855
 5832SOL     OW18394   3.725   4.380   5.271
 5832SOL    HW118395   3.626   4.369   5.278
 5832SOL    HW218396   3.770   4.304   5.317
 5833SOL     OW18397   4.065   3.302   5.080
 5833SOL    HW118398   4.031   3.213   5.050
 5833SOL    HW218399   4.143   3.289   5.142
 5834SOL     OW18400   5.831   2.550   0.516
 5834SOL    HW118401   5.842   2.451   0.513
 5834SOL    HW218402   5.814   2.579   0.611
 5835SOL     OW18403   4.944   3.191   2.850
 5835SOL    HW118404   4.945   3.261   2.778
 5835SOL    HW218405   5.034   3.146   2.853
 5836SOL     OW18406   3.142   6.648   2.937
 5836SOL    HW118407   3.098   6.694   2.860
 5836SOL    HW218408   3.162   6.553   2.913
 5837SOL     OW18409   4.385   5.043   5.698
 5837SOL    HW118410   4.400   4.945   5.685
 5837SOL    HW218411   4.331   5.058   5.780
 5838SOL     OW18412   2.441   1.728   5.616
 5838SOL    HW118413   2.448   1.804   5.680
 5838SOL    HW218414   2.355   1.733   5.567
 5839SOL     OW18415   0.204   2.472   2.872
 5839SOL    HW118416   0.223   2.476   2.971
 5839SOL    HW218417   0.221   2.562   2.832
 5840SOL     OW18418   1.533   5.248   6.983
 5840SOL    HW118419   1.501   5.266   6.890
 5840SOL    HW218420   1.633   5.250   6.986
 5841SOL     OW18421   5.440   2.035   2.414
 5841SOL    HW118422   5.477   2.124   2.441
 5841SOL    HW218423   5.371   2.047   2.343
 5842SOL     OW18424   4.339   3.066   1.526
 5842SOL    HW118425   4.258   3.017   1.492
 5842SOL    HW218426   4.310   3.150   1.572
 5843SOL     OW18427   2.123   3.647   2.220
 5843SOL    HW118428   2.141   3.574   2.153
 5843SOL    HW218429   2.172   3.730   2.193
 5844SOL     OW18430   0.709   6.994   5.732
 5844SOL    HW118431   0.748   0.059   5.709
 5844SOL    HW218432   0.756   6.923   5.680
 5845SOL     OW18433   1.242   0.511   2.787
 5845SOL    HW118434   1.229   0.524   2.689
 5845SOL    HW218435   1.331   0.470   2.804
 5846SOL     OW18436   6.273   3.260   4.497
 5846SOL    HW118437   6.331   3.315   4.437
 5846SOL    HW218438   6.331   3.201   4.553
 5847SOL     OW18439   2.200   1.863   2.128
 5847SOL    HW118440   2.294   1.891   2.143
 5847SOL    HW218441   2.137   1.931   2.166
 5848SOL     OW18442   2.440   5.387   3.055
 5848SOL    HW118443   2.467   5.324   2.983
 5848SOL    HW218444   2.356   5.435   3.029
 5849SOL     OW18445   6.649   0.864   6.844
 5849SOL    HW118446   6.689   0.886   6.933
 5849SOL    HW218447   6.550   0.876   6.847
 5850SOL     OW18448   0.761   3.558   2.084
 5850SOL    HW118449   0.792   3.478   2.135
 5850SOL    HW218450   0.809   3.563   1.996
 5851SOL     OW18451   5.246   3.293   2.466
 5851SOL    HW118452   5.158   3.309   2.423
 5851SOL    HW218453   5.320   3.315   2.403
 5852SOL     OW18454   5.156   6.627   3.337
 5852SOL    HW118455   5.214   6.631   3.418
 5852SOL    HW218456   5.060   6.619   3.364
 5853SOL     OW18457   3.047   5.457   5.122
 5853SOL    HW118458   3.048   5.552   5.092
 5853SOL    HW218459   3.127   5.410   5.084
 5854SOL     OW18460   6.209   3.872   5.309
 5854SOL    HW118461   6.117   3.850   5.279
 5854SOL    HW218462   6.238   3.807   5.379
 5855SOL     OW18463   0.450   0.488   4.467
 5855SOL    HW118464   0.534   0.434   4.471
 5855SOL    HW218465   0.391   0.452   4.393
 5856SOL     OW18466   2.011   6.433   3.604
 5856SOL    HW118467   2.044   6.361   3.543
 5856SOL    HW218468   2.064   6.433   3.688
 5857SOL     OW18469   6.235   2.843   5.186
 5857SOL    HW118470   6.186   2.764   5.149
 5857SOL    HW218471   6.169   2.915   5.208
 5858SOL     OW18472   2.656   2.166   2.012
 5858SOL    HW118473   2.659   2.066   2.011
 5858SOL    HW218474   2.749   2.202   2.013
 5859SOL     OW18475   5.633   0.004   0.973
 5859SOL    HW118476   5.689   6.975   1.036
 5859SOL    HW218477   5.562   0.053   1.024
 5860SOL     OW18478   2.162   3.916   1.870
 5860SOL    HW118479   2.205   3.925   1.960
 5860SOL    HW218480   2.129   3.822   1.858
 5861SOL     OW18481   5.248   1.518   4.312
 5861SOL    HW118482   5.177   1.546   4.248
 5861SOL    HW218483   5.301   1.442   4.273
 5862SOL     OW18484   5.054   4.673   3.291
 5862SOL    HW118485   5.056   4.765   3.251
 5862SOL    HW218486   5.140   4.626   3.271
 5863SOL     OW18487   3.150   0.921   4.650
 5863SOL    HW118488   3.173   0.900   4.745
 5863SOL    HW218489   3.226   0.893   4.591
 5864SOL     OW18490   4.139   3.650   1.920
 5864SOL    HW118491   4.061   3.588   1.914
 5864SOL    HW218492   4.224   3.598   1.924
 5865SOL     OW18493   5.464   0.204   4.380
 5865SOL    HW118494   5.497   0.220   4.287
 5865SOL    HW218495   5.488   0.111   4.409
 5866SOL     OW18496   3.583   5.852   6.734
 5866SOL    HW118497   3.538   5.904   6.661
 5866SOL    HW218498   3.559   5.891   6.822
 5867SOL     OW18499   0.305   3.633   0.942
 5867SOL    HW118500   0.311   3.733   0.950
 5867SOL    HW218501   0.229   3.600   0.998
 5868SOL     OW18502   6.676   0.768   5.410
 5868SOL    HW118503   6.611   0.700   5.376
 5868SOL    HW218504   6.640   0.860   5.392
 5869SOL     OW18505   2.052   5.643   3.332
 5869SOL    HW118506   2.142   5.655   3.372
 5869SOL    HW218507   2.006   5.731   3.324
 5870SOL     OW18508   4.692   5.750   4.653
 5870SOL    HW118509   4.754   5.813   4.608
 5870SOL    HW218510   4.727   5.656   4.644
 5871SOL     OW18511   4.308   3.461   0.287
 5871SOL    HW118512   4.255   3.381   0.315
 5871SOL    HW218513   4.314   3.464   0.188
 5872SOL     OW18514   3.863   4.890   6.529
 5872SOL    HW118515   3.795   4.930   6.589
 5872SOL    HW218516   3.949   4.877   6.579
 5873SOL     OW18517   2.136   2.710   0.952
 5873SOL    HW118518   2.091   2.699   1.041
 5873SOL    HW218519   2.234   2.696   0.962
 5874SOL     OW18520   2.737   2.849   1.261
 5874SOL    HW118521   2.795   2.820   1.185
 5874SOL    HW218522   2.701   2.768   1.308
 5875SOL     OW18523   3.681   1.431   1.153
 5875SOL    HW118524   3.587   1.465   1.156
 5875SOL    HW218525   3.709   1.421   1.057
 5876SOL     OW18526   3.025   3.008   6.994
 5876SOL    HW118527   2.973   2.960   6.923
 5876SOL    HW218528   2.980   2.996   0.057
 5877SOL     OW18529   6.361   0.039   0.960
 5877SOL    HW118530   6.418   0.108   0.915
 5877SOL    HW218531   6.414   6.979   0.969
 5878SOL     OW18532   5.090   4.943   3.231
 5878SOL    HW118533   5.096   5.029   3.281
 5878SOL    HW218534   4.994   4.917   3.220
 5879SOL     OW18535   2.746   3.362   6.317
 5879SOL    HW118536   2.846   3.360   6.310
 5879SOL    HW218537   2.717   3.305   6.394
 5880SOL     OW18538   4.625   4.224   6.448
 5880SOL    HW118539   4.584   4.155   6.389
 5880SOL    HW218540   4.720   4.199   6.467
 5881SOL     OW18541   1.312   0.071   2.362
 5881SOL    HW118542   1.240   0.014   2.321
 5881SOL    HW218543   1.401   0.033   2.338
 5882SOL     OW18544   0.817   6.805   5.567
 5882SOL    HW118545   0.847   6.716   5.601
 5882SOL    HW218546   0.754   6.793   5.490
 5883SOL     OW18547   0.384   1.667   0.334
 5883SOL    HW118548   0.431   1.644   0.420
 5883SOL    HW218549   0.393   1.766   0.318
 5884SOL     OW18550   6.636   0.884   4.691
 5884SOL    HW118551   6.545   0.901   4.653
 5884SOL    HW218552   6.705   0.928   4.634
 5885SOL     OW18553   0.720   5.621   0.584
 5885SOL    HW118554   0.643   5.655   0.530
 5885SOL    HW218555   0.685   5.576   0.666
 5886SOL     OW18556   1.200   3.463   3.378
 5886SOL    HW118557   1.118   3.516   3.355
 5886SOL    HW218558   1.264   3.466   3.302
 5887SOL     OW18559   3.069   1.753   2.125
 5887SOL    HW118560   3.105   1.778   2.215
 5887SOL    HW218561   3.033   1.834   2.079
 5888SOL     OW18562   2.589   6.541   0.874
 5888SOL    HW118563   2.627   6.564   0.784
 5888SOL    HW218564   2.562   6.445   0.875
 5889SOL     OW18565   6.496   1.277   1.032
 5889SOL    HW118566   6.539   1.213   0.968
 5889SOL    HW218567   6.517   1.371   1.005
 5890SOL     OW18568   1.714   6.622   2.712
 5890SOL    HW118569   1.719   6.601   2.615
 5890SOL    HW218570   1.773   6.700   2.732
 5891SOL     OW18571   2.502   3.701   0.115
 5891SOL    HW118572   2.418   3.746   0.085
 5891SOL    HW218573   2.497   3.604   0.095
 5892SOL     OW18574   0.185   4.627   1.552
 5892SOL    HW118575   0.273   4.585   1.528
 5892SOL    HW218576   0.118   4.608   1.480
 5893SOL     OW18577   1.539   4.934   1.606
 5893SOL    HW118578   1.460   4.874   1.595
 5893SOL    HW218579   1.569   4.934   1.701
 5894SOL     OW18580   0.705   5.880   5.033
 5894SOL    HW118581   0.624   5.935   5.053
 5894SOL    HW218582   0.699   5.793   5.083
 5895SOL     OW18583   6.251   3.328   3.938
 5895SOL    HW118584   6.228   3.237   3.903
 5895SOL    HW218585   6.169   3.372   3.974
 5896SOL     OW18586   5.264   1.413   1.712
 5896SOL    HW118587   5.242   1.424   1.615
 5896SOL    HW218588   5.259   1.317   1.737
 5897SOL     OW18589   4.031   1.630   1.767
 5897SOL    HW118590   4.007   1.535   1.749
 5897SOL    HW218591   3.978   1.690   1.708
 5898SOL     OW18592   2.576   1.098   5.401
 5898SOL    HW118593   2.614   1.152   5.476
 5898SOL    HW218594   2.635   1.107   5.320
 5899SOL     OW18595   0.156   5.391   5.982
 5899SOL    HW118596   0.151   5.399   6.082
 5899SOL    HW218597   0.240   5.433   5.949
 5900SOL     OW18598   6.671   5.288   3.294
 5900SOL    HW118599   6.737   5.215   3.309
 5900SOL    HW218600   6.712   5.376   3.320
 5901SOL     OW18601   1.627   1.018   1.063
 5901SOL    HW118602   1.585   0.994   0.975
 5901SOL    HW218603   1.563   0.998   1.137
 5902SOL     OW18604   5.743   3.747   5.012
 5902SOL    HW118605   5.731   3.676   5.081
 5902SOL    HW218606   5.805   3.714   4.941
 5903SOL     OW18607   5.350   2.639   6.784
 5903SOL    HW118608   5.359   2.697   6.703
 5903SOL    HW218609   5.273   2.670   6.839
 5904SOL     OW18610   1.650   4.211   1.341
 5904SOL    HW118611   1.677   4.307   1.352
 5904SOL    HW218612   1.664   4.183   1.246
 5905SOL     OW18613   5.263   1.047   3.846
 5905SOL    HW118614   5.215   1.117   3.794
 5905SOL    HW218615   5.321   0.994   3.785
 5906SOL     OW18616   5.475   1.481   5.182
 5906SOL    HW118617   5.404   1.451   5.118
 5906SOL    HW218618   5.535   1.404   5.203
 5907SOL     OW18619   1.535   6.821   0.504
 5907SOL    HW118620   1.623   6.781   0.478
 5907SOL    HW218621   1.462   6.780   0.448
 5908SOL     OW18622   5.225   3.651   0.449
 5908SOL    HW118623   5.231   3.613   0.356
 5908SOL    HW218624   5.202   3.579   0.513
 5909SOL     OW18625   0.479   4.302   6.027
 5909SOL    HW118626   0.409   4.368   6.001
 5909SOL    HW218627   0.527   4.335   6.108
 5910SOL     OW18628   1.555   4.399   0.666
 5910SOL    HW118629   1.554   4.411   0.567
 5910SOL    HW218630   1.472   4.351   0.695
 5911SOL     OW18631   0.517   5.952   6.105
 5911SOL    HW118632   0.499   5.897   6.023
 5911SOL    HW218633   0.614   5.943   6.130
 5912SOL     OW18634   6.209   3.305   6.795
 5912SOL    HW118635   6.279   3.237   6.819
 5912SOL    HW218636   6.158   3.274   6.715
 5913SOL     OW18637   2.037   2.820   5.902
 5913SOL    HW118638   2.108   2.883   5.868
 5913SOL    HW218639   2.080   2.749   5.958
 5914SOL     OW18640   2.275   5.799   0.090
 5914SOL    HW118641   2.211   5.851   0.033
 5914SOL    HW218642   2.341   5.753   0.031
 5915SOL     OW18643   5.565   3.569   1.983
 5915SOL    HW118644   5.516   3.656   1.975
 5915SOL    HW218645   5.510   3.496   1.943
 5916SOL     OW18646   4.035   0.202   5.825
 5916SOL    HW118647   4.099   0.158   5.762
 5916SOL    HW218648   4.084   0.263   5.887
 5917SOL     OW18649   3.680   3.389   3.366
 5917SOL    HW118650   3.644   3.307   3.411
 5917SOL    HW218651   3.749   3.431   3.425
 5918SOL     OW18652   2.055   3.748   4.719
 5918SOL    HW118653   1.958   3.728   4.730
 5918SOL    HW218654   2.086   3.804   4.796
 5919SOL     OW18655   3.111   1.601   0.216
 5919SOL    HW118656   3.030   1.649   0.183
 5919SOL    HW218657   3.084   1.527   0.277
 5920SOL     OW18658   3.284   0.295   7.004
 5920SOL    HW118659   3.249   0.225   0.042
 5920SOL    HW218660   3.348   0.253   6.939
 5921SOL     OW18661   3.563   4.975   5.132
 5921SOL    HW118662   3.478   4.926   5.149
 5921SOL    HW218663   3.626   4.963   5.210
 5922SOL     OW18664   6.397   5.037   3.381
 5922SOL    HW118665   6.361   5.065   3.292
 5922SOL    HW218666   6.478   4.981   3.369
 5923SOL     OW18667   6.429   1.019   2.842
 5923SOL    HW118668   6.395   1.006   2.749
 5923SOL    HW218669   6.520   1.060   2.838
 5924SOL     OW18670   5.684   2.494   4.758
 5924SOL    HW118671   5.638   2.579   4.731
 5924SOL    HW218672   5.669   2.478   4.856
 5925SOL     OW18673   4.473   6.337   3.160
 5925SOL    HW118674   4.529   6.280   3.099
 5925SOL    HW218675   4.505   6.326   3.254
 5926SOL     OW18676   3.244   5.038   1.781
 5926SOL    HW118677   3.151   5.053   1.814
 5926SOL    HW218678   3.251   4.949   1.737
 5927SOL     OW18679   1.945   4.298   2.059
 5927SOL    HW118680   1.938   4.198   2.058
 5927SOL    HW218681   2.041   4.324   2.071
 5928SOL     OW18682   2.611   0.241   2.405
 5928SOL    HW118683   2.711   0.236   2.403
 5928SOL    HW218684   2.575   0.222   2.314
 5929SOL     OW18685   0.655   6.152   5.913
 5929SOL    HW118686   0.607   6.064   5.919
 5929SOL    HW218687   0.589   6.227   5.915
 5930SOL     OW18688   5.699   1.349   3.938
 5930SOL    HW118689   5.766   1.420   3.955
 5930SOL    HW218690   5.634   1.380   3.868
 5931SOL     OW18691   5.735   4.845   2.635
 5931SOL    HW118692   5.710   4.903   2.712
 5931SOL    HW218693   5.695   4.881   2.551
 5932SOL     OW18694   2.241   6.637   0.786
 5932SOL    HW118695   2.166   6.600   0.731
 5932SOL    HW218696   2.325   6.639   0.732
 5933SOL     OW18697   6.973   4.731   1.883
 5933SOL    HW118698   6.887   4.781   1.870
 5933SOL    HW218699   6.969   4.645   1.831
 5934SOL     OW18700   3.423   3.795   3.781
 5934SOL    HW118701   3.335   3.839   3.798
 5934SOL    HW218702   3.422   3.750   3.692
 5935SOL     OW18703   3.814   3.301   4.654
 5935SOL    HW118704   3.904   3.323   4.617
 5935SOL    HW218705   3.777   3.220   4.608
 5936SOL     OW18706   4.345   3.602   6.538
 5936SOL    HW118707   4.337   3.509   6.502
 5936SOL    HW218708   4.394   3.599   6.625
 5937SOL     OW18709   0.366   3.964   2.038
 5937SOL    HW118710   0.334   3.947   2.131
 5937SOL    HW218711   0.289   3.996   1.982
 5938SOL     OW18712   1.593   4.758   4.174
 5938SOL    HW118713   1.527   4.691   4.140
 5938SOL    HW218714   1.564   4.790   4.264
 5939SOL     OW18715   3.515   0.381   3.440
 5939SOL    HW118716   3.447   0.355   3.371
 5939SOL    HW218717   3.493   0.338   3.527
 5940SOL     OW18718   4.469   6.702   2.300
 5940SOL    HW118719   4.531   6.768   2.342
 5940SOL    HW218720   4.469   6.618   2.354
 5941SOL     OW18721   6.164   4.593   1.924
 5941SOL    HW118722   6.077   4.641   1.941
 5941SOL    HW218723   6.164   4.506   1.972
 5942SOL     OW18724   4.391   2.766   6.233
 5942SOL    HW118725   4.377   2.749   6.135
 5942SOL    HW218726   4.445   2.849   6.245
 5943SOL     OW18727   2.807   6.083   0.160
 5943SOL    HW118728   2.812   5.999   0.105
 5943SOL    HW218729   2.722   6.131   0.139
 5944SOL     OW18730   6.039   1.691   1.851
 5944SOL    HW118731   5.974   1.683   1.775
 5944SOL    HW218732   6.006   1.639   1.930
 5945SOL     OW18733   7.006   4.794   5.797
 5945SOL    HW118734   7.018   4.848   5.714
 5945SOL    HW218735   6.937   4.837   5.855
 5946SOL     OW18736   3.462   4.196   5.626
 5946SOL    HW118737   3.469   4.283   5.578
 5946SOL    HW218738   3.368   4.184   5.659
 5947SOL     OW18739   3.726   2.854   2.021
 5947SOL    HW118740   3.705   2.882   2.114
 5947SOL    HW218741   3.693   2.761   2.005
 5948SOL     OW18742   3.662   5.352   3.073
 5948SOL    HW118743   3.755   5.325   3.099
 5948SOL    HW218744   3.599   5.276   3.090
 5949SOL     OW18745   4.007   3.998   1.353
 5949SOL    HW118746   4.041   3.940   1.428
 5949SOL    HW218747   3.943   3.945   1.297
 5950SOL     OW18748   5.611   2.876   5.692
 5950SOL    HW118749   5.551   2.829   5.756
 5950SOL    HW218750   5.555   2.915   5.618
 5951SOL     OW18751   0.606   6.203   4.924
 5951SOL    HW118752   0.538   6.228   4.994
 5951SOL    HW218753   0.561   6.150   4.852
 5952SOL     OW18754   5.944   6.451   3.923
 5952SOL    HW118755   5.994   6.392   3.987
 5952SOL    HW218756   5.895   6.521   3.975
 5953SOL     OW18757   6.993   2.799   5.655
 5953SOL    HW118758   0.042   2.795   5.722
 5953SOL    HW218759   6.984   2.710   5.610
 5954SOL     OW18760   6.668   4.441   5.844
 5954SOL    HW118761   6.609   4.374   5.890
 5954SOL    HW218762   6.634   4.458   5.751
 5955SOL     OW18763   6.243   5.968   1.984
 5955SOL    HW118764   6.255   6.017   2.070
 5955SOL    HW218765   6.251   6.031   1.907
 5956SOL     OW18766   3.445   1.810   0.970
 5956SOL    HW118767   3.363   1.849   0.928
 5956SOL    HW218768   3.430   1.713   0.987
 5957SOL     OW18769   4.920   6.827   5.862
 5957SOL    HW118770   4.869   6.746   5.831
 5957SOL    HW218771   5.010   6.828   5.818
 5958SOL     OW18772   5.753   6.170   2.534
 5958SOL    HW118773   5.705   6.083   2.549
 5958SOL    HW218774   5.698   6.228   2.475
 5959SOL     OW18775   3.294   1.741   5.520
 5959SOL    HW118776   3.347   1.739   5.605
 5959SOL    HW218777   3.345   1.791   5.450
 5960SOL     OW18778   3.674   6.980   3.922
 5960SOL    HW118779   3.643   0.022   3.854
 5960SOL    HW218780   3.624   6.994   4.008
 5961SOL     OW18781   4.197   1.419   3.504
 5961SOL    HW118782   4.282   1.370   3.485
 5961SOL    HW218783   4.210   1.517   3.486
 5962SOL     OW18784   5.233   5.522   2.123
 5962SOL    HW118785   5.145   5.546   2.165
 5962SOL    HW218786   5.223   5.436   2.073
 5963SOL     OW18787   3.840   3.299   4.137
 5963SOL    HW118788   3.767   3.352   4.095
 5963SOL    HW218789   3.867   3.341   4.224
 5964SOL     OW18790   6.836   5.309   6.103
 5964SOL    HW118791   6.888   5.368   6.164
 5964SOL    HW218792   6.745   5.349   6.089
 5965SOL     OW18793   1.761   1.863   6.315
 5965SOL    HW118794   1.723   1.828   6.401
 5965SOL    HW218795   1.858   1.882   6.327
 5966SOL     OW18796   2.905   5.416   5.372
 5966SOL    HW118797   2.921   5.512   5.398
 5966SOL    HW218798   2.938   5.401   5.279
 5967SOL     OW18799   3.857   6.474   2.506
 5967SOL    HW118800   3.813   6.414   2.440
 5967SOL    HW218801   3.788   6.518   2.564
 5968SOL     OW18802   5.999   1.751   3.066
 5968SOL    HW118803   5.930   1.813   3.104
 5968SOL    HW218804   6.026   1.783   2.976
 5969SOL     OW18805   6.256   1.832   5.260
 5969SOL    HW118806   6.264   1.889   5.179
 5969SOL    HW218807   6.294   1.741   5.240
 5970SOL     OW18808   0.335   4.595   2.484
 5970SOL    HW118809   0.319   4.541   2.401
 5970SOL    HW218810   0.294   4.548   2.562
 5971SOL     OW18811   1.893   0.310   2.984
 5971SOL    HW118812   1.938   0.346   2.902
 5971SOL    HW218813   1.794   0.311   2.970
 5972SOL     OW18814   4.052   6.605   0.387
 5972SOL    HW118815   4.123   6.640   0.325
 5972SOL    HW218816   4.014   6.521   0.349
 5973SOL     OW18817   1.859   5.511   2.672
 5973SOL    HW118818   1.826   5.452   2.598
 5973SOL    HW218819   1.782   5.542   2.728
 5974SOL     OW18820   5.934   4.077   5.955
 5974SOL    HW118821   5.967   4.049   5.864
 5974SOL    HW218822   5.837   4.100   5.950
 5975SOL     OW18823   4.130   2.204   0.952
 5975SOL    HW118824   4.151   2.237   0.860
 5975SOL    HW218825   4.070   2.270   0.997
 5976SOL     OW18826   2.928   3.692   5.033
 5976SOL    HW118827   2.991   3.752   5.083
 5976SOL    HW218828   2.884   3.630   5.098
 5977SOL     OW18829   1.295   4.755   1.566
 5977SOL    HW118830   1.273   4.673   1.513
 5977SOL    HW218831   1.272   4.836   1.511
 5978SOL     OW18832   5.666   5.032   2.817
 5978SOL    HW118833   5.592   4.999   2.875
 5978SOL    HW218834   5.748   5.047   2.872
 5979SOL     OW18835   6.944   0.832   3.352
 5979SOL    HW118836   6.906   0.782   3.430
 5979SOL    HW218837   6.872   0.854   3.287
 5980SOL     OW18838   3.796   4.542   6.896
 5980SOL    HW118839   3.807   4.526   6.798
 5980SOL    HW218840   3.807   4.640   6.916
 5981SOL     OW18841   7.012   1.346   1.904
 5981SOL    HW118842   6.993   1.417   1.837
 5981SOL    HW218843   6.978   1.376   1.994
 5982SOL     OW18844   5.813   1.822   6.678
 5982SOL    HW118845   5.885   1.793   6.614
 5982SOL    HW218846   5.726   1.779   6.652
 5983SOL     OW18847   2.503   1.710   4.206
 5983SOL    HW118848   2.534   1.639   4.144
 5983SOL    HW218849   2.444   1.774   4.157
 5984SOL     OW18850   0.293   0.214   4.453
 5984SOL    HW118851   0.288   0.255   4.363
 5984SOL    HW218852   0.233   0.263   4.516
 5985SOL     OW18853   5.464   2.456   4.220
 5985SOL    HW118854   5.520   2.457   4.303
 5985SOL    HW218855   5.519   2.423   4.144
 5986SOL     OW18856   3.227   3.018   4.136
 5986SOL    HW118857   3.147   3.060   4.093
 5986SOL    HW218858   3.228   3.042   4.233
 5987SOL     OW18859   4.315   0.773   5.060
 5987SOL    HW118860   4.254   0.767   4.980
 5987SOL    HW218861   4.311   0.866   5.098
 5988SOL     OW18862   4.120   6.189   4.875
 5988SOL    HW118863   4.093   6.173   4.969
 5988SOL    HW218864   4.069   6.128   4.814
 5989SOL     OW18865   2.243   6.407   6.598
 5989SOL    HW118866   2.227   6.495   6.553
 5989SOL    HW218867   2.304   6.421   6.676
 5990SOL     OW18868   3.644   4.051   0.782
 5990SOL    HW118869   3.723   3.991   0.788
 5990SOL    HW218870   3.661   4.134   0.834
 5991SOL     OW18871   4.384   5.045   5.051
 5991SOL    HW118872   4.424   5.129   5.016
 5991SOL    HW218873   4.385   4.975   4.979
 5992SOL     OW18874   3.776   0.359   4.180
 5992SOL    HW118875   3.810   0.271   4.145
 5992SOL    HW218876   3.849   0.404   4.231
 5993SOL     OW18877   3.512   6.861   6.156
 5993SOL    HW118878   3.580   6.793   6.129
 5993SOL    HW218879   3.554   6.926   6.220
 5994SOL     OW18880   6.147   2.274   1.892
 5994SOL    HW118881   6.214   2.224   1.836
 5994SOL    HW218882   6.175   2.369   1.901
 5995SOL     OW18883   6.754   5.410   1.402
 5995SOL    HW118884   6.809   5.480   1.448
 5995SOL    HW218885   6.782   5.404   1.307
 5996SOL     OW18886   0.598   5.805   6.579
 5996SOL    HW118887   0.556   5.832   6.493
 5996SOL    HW218888   0.545   5.844   6.655
 5997SOL     OW18889   0.591   6.500   2.588
 5997SOL    HW118890   0.602   6.596   2.613
 5997SOL    HW218891   0.586   6.491   2.489
 5998SOL     OW18892   5.145   2.561   2.522
 5998SOL    HW118893   5.077   2.490   2.503
 5998SOL    HW218894   5.106   2.651   2.501
 5999SOL     OW18895   1.287   2.172   2.984
 5999SOL    HW118896   1.307   2.209   3.075
 5999SOL    HW218897   1.191   2.144   2.979
 6000SOL     OW18898   4.048   5.511   2.237
 6000SOL    HW118899   4.022   5.540   2.329
 6000SOL    HW218900   4.110   5.578   2.197
 6001SOL     OW18901   0.631   3.930   6.348
 6001SOL    HW118902   0.570   3.989   6.401
 6001SOL    HW218903   0.580   3.851   6.315
 6002SOL     OW18904   0.508   6.664   1.382
 6002SOL    HW118905   0.549   6.751   1.410
 6002SOL    HW218906   0.512   6.600   1.459
 6003SOL     OW18907   6.086   3.028   4.592
 6003SOL    HW118908   6.057   2.937   4.562
 6003SOL    HW218909   6.036   3.054   4.675
 6004SOL     OW18910   0.210   4.061   3.242
 6004SOL    HW118911   0.249   4.076   3.151
 6004SOL    HW218912   0.279   4.021   3.302
 6005SOL     OW18913   4.072   4.958   3.893
 6005SOL    HW118914   4.155   4.996   3.854
 6005SOL    HW218915   3.995   4.972   3.831
 6006SOL     OW18916   3.528   0.230   6.832
 6006SOL    HW118917   3.615   0.271   6.859
 6006SOL    HW218918   3.525   0.135   6.864
 6007SOL     OW18919   4.841   3.019   3.937
 6007SOL    HW118920   4.926   2.998   3.890
 6007SOL    HW218921   4.819   3.115   3.925
 6008SOL     OW18922   2.628   5.455   5.741
 6008SOL    HW118923   2.565   5.506   5.799
 6008SOL    HW218924   2.687   5.398   5.797
 6009SOL     OW18925   2.681   1.671   4.908
 6009SOL    HW118926   2.735   1.594   4.874
 6009SOL    HW218927   2.725   1.757   4.881
 6010SOL     OW18928   2.199   4.371   2.029
 6010SOL    HW118929   2.299   4.369   2.029
 6010SOL    HW218930   2.166   4.448   1.975
 6011SOL     OW18931   5.269   2.589   1.780
 6011SOL    HW118932   5.255   2.610   1.683
 6011SOL    HW218933   5.191   2.536   1.814
 6012SOL     OW18934   6.956   2.202   0.403
 6012SOL    HW118935   6.899   2.120   0.399
 6012SOL    HW218936   6.915   2.274   0.346
 6013SOL     OW18937   6.185   1.574   2.584
 6013SOL    HW118938   6.201   1.485   2.625
 6013SOL    HW218939   6.090   1.579   2.551
 6014SOL     OW18940   4.830   1.861   0.853
 6014SOL    HW118941   4.922   1.877   0.887
 6014SOL    HW218942   4.811   1.762   0.852
 6015SOL     OW18943   6.129   2.582   5.976
 6015SOL    HW118944   6.204   2.602   6.039
 6015SOL    HW218945   6.078   2.665   5.957
 6016SOL     OW18946   0.995   0.801   5.940
 6016SOL    HW118947   0.909   0.847   5.964
 6016SOL    HW218948   0.997   0.783   5.842
 6017SOL     OW18949   6.109   5.298   2.571
 6017SOL    HW118950   6.048   5.349   2.632
 6017SOL    HW218951   6.061   5.217   2.536
 6018SOL     OW18952   3.526   2.749   0.249
 6018SOL    HW118953   3.517   2.660   0.205
 6018SOL    HW218954   3.481   2.819   0.193
 6019SOL     OW18955   4.951   1.934   3.896
 6019SOL    HW118956   4.864   1.919   3.943
 6019SOL    HW218957   5.011   1.991   3.952
 6020SOL     OW18958   2.235   6.549   1.497
 6020SOL    HW118959   2.175   6.507   1.566
 6020SOL    HW218960   2.211   6.646   1.487
 6021SOL     OW18961   4.787   0.001   2.772
 6021SOL    HW118962   4.880   0.024   2.803
 6021SOL    HW218963   4.775   6.927   2.774
 6022SOL     OW18964   4.642   0.822   4.494
 6022SOL    HW118965   4.547   0.796   4.513
 6022SOL    HW218966   4.692   0.829   4.580
 6023SOL     OW18967   6.652   1.454   3.082
 6023SOL    HW118968   6.581   1.394   3.119
 6023SOL    HW218969   6.623   1.549   3.088
 6024SOL     OW18970   0.406   4.741   2.948
 6024SOL    HW118971   0.308   4.761   2.951
 6024SOL    HW218972   0.436   4.736   2.852
 6025SOL     OW18973   4.519   0.482   1.863
 6025SOL    HW118974   4.466   0.397   1.858
 6025SOL    HW218975   4.594   0.478   1.797
 6026SOL     OW18976   0.493   4.219   4.381
 6026SOL    HW118977   0.399   4.206   4.413
 6026SOL    HW218978   0.557   4.205   4.457
 6027SOL     OW18979   1.925   3.678   5.977
 6027SOL    HW118980   2.002   3.741   5.972
 6027SOL    HW218981   1.899   3.651   5.884
 6028SOL     OW18982   1.090   4.046   0.457
 6028SOL    HW118983   1.039   3.973   0.413
 6028SOL    HW218984   1.099   4.123   0.394
 6029SOL     OW18985   1.965   6.543   6.960
 6029SOL    HW118986   2.027   6.592   6.899
 6029SOL    HW218987   1.889   6.505   6.907
 6030SOL     OW18988   2.552   0.729   3.120
 6030SOL    HW118989   2.471   0.670   3.118
 6030SOL    HW218990   2.631   0.678   3.085
 6031SOL     OW18991   4.488   5.301   4.940
 6031SOL    HW118992   4.452   5.346   5.022
 6031SOL    HW218993   4.574   5.345   4.913
 6032SOL     OW18994   1.588   3.441   2.465
 6032SOL    HW118995   1.566   3.530   2.424
 6032SOL    HW218996   1.628   3.382   2.396
 6033SOL     OW18997   1.786   2.477   2.974
 6033SOL    HW118998   1.826   2.503   2.886
 6033SOL    HW218999   1.712   2.412   2.959
 6034SOL     OW19000   1.966   5.058   4.549
 6034SOL    HW119001   1.997   5.111   4.470
 6034SOL    HW219002   2.029   4.981   4.564
 6035SOL     OW19003   6.239   1.257   3.793
 6035SOL    HW119004   6.259   1.331   3.857
 6035SOL    HW219005   6.147   1.223   3.808
 6036SOL     OW19006   0.176   6.999   4.501
 6036SOL    HW119007   0.218   0.045   4.444
 6036SOL    HW219008   0.205   7.011   4.596
 6037SOL     OW19009   4.957   5.560   6.197
 6037SOL    HW119010   5.041   5.606   6.225
 6037SOL    HW219011   4.975   5.500   6.120
 6038SOL     OW19012   0.828   3.146   6.074
 6038SOL    HW119013   0.886   3.072   6.107
 6038SOL    HW219014   0.837   3.154   5.975
 6039SOL     OW19015   3.289   3.839   3.073
 6039SOL    HW119016   3.379   3.796   3.064
 6039SOL    HW219017   3.296   3.916   3.137
 6040SOL     OW19018   0.373   1.715   6.256
 6040SOL    HW119019   0.300   1.718   6.326
 6040SOL    HW219020   0.394   1.619   6.236
 6041SOL     OW19021   1.425   1.668   6.180
 6041SOL    HW119022   1.486   1.743   6.158
 6041SOL    HW219023   1.464   1.582   6.146
 6042SOL     OW19024   5.859   5.095   1.704
 6042SOL    HW119025   5.848   5.017   1.766
 6042SOL    HW219026   5.794   5.167   1.729
 6043SOL     OW19027   1.112   4.758   5.079
 6043SOL    HW119028   1.185   4.778   5.014
 6043SOL    HW219029   1.090   4.660   5.076
 6044SOL     OW19030   0.185   1.935   0.912
 6044SOL    HW119031   0.094   1.894   0.903
 6044SOL    HW219032   0.217   1.923   1.006
 6045SOL     OW19033   5.111   5.567   1.326
 6045SOL    HW119034   5.023   5.560   1.279
 6045SOL    HW219035   5.099   5.616   1.413
 6046SOL     OW19036   3.036   1.764   0.618
 6046SOL    HW119037   2.951   1.723   0.584
 6046SOL    HW219038   3.058   1.844   0.562
 6047SOL     OW19039   6.461   1.177   3.667
 6047SOL    HW119040   6.536   1.241   3.680
 6047SOL    HW219041   6.382   1.205   3.721
 6048SOL     OW19042   4.601   6.785   3.291
 6048SOL    HW119043   4.512   6.796   3.248
 6048SOL    HW219044   4.599   6.707   3.353
 6049SOL     OW19045   5.037   3.327   6.404
 6049SOL    HW119046   5.025   3.295   6.498
 6049SOL    HW219047   4.996   3.417   6.395
 6050SOL     OW19048   3.864   4.177   5.937
 6050SOL    HW119049   3.839   4.248   6.003
 6050SOL    HW219050   3.781   4.129   5.907
 6051SOL     OW19051   2.276   2.087   3.164
 6051SOL    HW119052   2.362   2.055   3.126
 6051SOL    HW219053   2.211   2.107   3.090
 6052SOL     OW19054   6.605   0.255   0.569
 6052SOL    HW119055   6.663   0.177   0.547
 6052SOL    HW219056   6.642   0.337   0.524
 6053SOL     OW19057   3.300   0.401   6.624
 6053SOL    HW119058   3.225   0.424   6.685
 6053SOL    HW219059   3.356   0.329   6.665
 6054SOL     OW19060   2.451   3.517   1.024
 6054SOL    HW119061   2.384   3.494   1.095
 6054SOL    HW219062   2.406   3.571   0.953
 6055SOL     OW19063   5.485   0.651   5.766
 6055SOL    HW119064   5.410   0.596   5.802
 6055SOL    HW219065   5.548   0.592   5.716
 6056SOL     OW19066   4.484   1.790   5.323
 6056SOL    HW119067   4.393   1.828   5.309
 6056SOL    HW219068   4.506   1.726   5.249
 6057SOL     OW19069   4.495   2.080   4.584
 6057SOL    HW119070   4.580   2.098   4.534
 6057SOL    HW219071   4.449   2.166   4.604
 6058SOL     OW19072   5.518   2.941   3.147
 6058SOL    HW119073   5.515   2.942   3.247
 6058SOL    HW219074   5.455   2.872   3.112
 6059SOL     OW19075   4.681   5.446   5.869
 6059SOL    HW119076   4.601   5.447   5.809
 6059SOL    HW219077   4.755   5.396   5.825
 6060SOL     OW19078   3.382   3.830   5.799
 6060SOL    HW119079   3.360   3.847   5.703
 6060SOL    HW219080   3.424   3.739   5.807
 6061SOL     OW19081   3.717   2.643   0.963
 6061SOL    HW119082   3.781   2.717   0.942
 6061SOL    HW219083   3.670   2.615   0.879
 6062SOL     OW19084   2.447   1.669   4.501
 6062SOL    HW119085   2.502   1.597   4.542
 6062SOL    HW219086   2.449   1.660   4.401
 6063SOL     OW19087   3.861   1.467   6.441
 6063SOL    HW119088   3.922   1.546   6.436
 6063SOL    HW219089   3.852   1.437   6.536
 6064SOL     OW19090   2.375   5.606   2.567
 6064SOL    HW119091   2.293   5.558   2.599
 6064SOL    HW219092   2.455   5.548   2.581
 6065SOL     OW19093   5.957   6.565   0.991
 6065SOL    HW119094   5.879   6.621   1.018
 6065SOL    HW219095   5.975   6.496   1.061
 6066SOL     OW19096   4.655   1.538   1.265
 6066SOL    HW119097   4.651   1.635   1.243
 6066SOL    HW219098   4.709   1.523   1.347
 6067SOL     OW19099   6.658   1.744   6.847
 6067SOL    HW119100   6.666   1.684   6.767
 6067SOL    HW219101   6.727   1.816   6.841
 6068SOL     OW19102   5.852   3.500   4.871
 6068SOL    HW119103   5.925   3.547   4.822
 6068SOL    HW219104   5.891   3.428   4.928
 6069SOL     OW19105   6.408   3.568   6.130
 6069SOL    HW119106   6.451   3.652   6.095
 6069SOL    HW219107   6.320   3.555   6.084
 6070SOL     OW19108   2.825   1.869   6.411
 6070SOL    HW119109   2.913   1.860   6.458
 6070SOL    HW219110   2.753   1.829   6.468
 6071SOL     OW19111   4.550   6.209   5.908
 6071SOL    HW119112   4.502   6.127   5.939
 6071SOL    HW219113   4.616   6.237   5.977
 6072SOL     OW19114   0.964   1.350   1.998
 6072SOL    HW119115   0.944   1.440   1.959
 6072SOL    HW219116   1.007   1.293   1.928
 6073SOL     OW19117   6.167   3.269   0.683
 6073SOL    HW119118   6.265   3.254   0.674
 6073SOL    HW219119   6.137   3.336   0.615
 6074SOL     OW19120   1.542   6.548   4.550
 6074SOL    HW119121   1.575   6.525   4.459
 6074SOL    HW219122   1.580   6.484   4.617
 6075SOL     OW19123   6.691   3.054   6.783
 6075SOL    HW119124   6.649   2.977   6.736
 6075SOL    HW219125   6.646   3.067   6.871
 6076SOL     OW19126   2.332   6.853   5.170
 6076SOL    HW119127   2.253   6.818   5.221
 6076SOL    HW219128   2.306   6.938   5.124
 6077SOL     OW19129   4.813   5.906   2.727
 6077SOL    HW119130   4.841   5.999   2.702
 6077SOL    HW219131   4.719   5.891   2.696
 6078SOL     OW19132   3.482   4.933   2.499
 6078SOL    HW119133   3.503   5.003   2.568
 6078SOL    HW219134   3.565   4.882   2.478
 6079SOL     OW19135   3.195   3.666   6.660
 6079SOL    HW119136   3.137   3.591   6.628
 6079SOL    HW219137   3.236   3.642   6.748
 6080SOL     OW19138   0.244   1.576   1.065
 6080SOL    HW119139   0.256   1.667   1.103
 6080SOL    HW219140   0.208   1.515   1.135
 6081SOL     OW19141   6.570   3.768   4.740
 6081SOL    HW119142   6.574   3.735   4.645
 6081SOL    HW219143   6.477   3.758   4.775
 6082SOL     OW19144   3.462   0.755   3.345
 6082SOL    HW119145   3.524   0.717   3.414
 6082SOL    HW219146   3.515   0.808   3.278
 6083SOL     OW19147   0.946   5.700   5.814
 6083SOL    HW119148   0.863   5.646   5.828
 6083SOL    HW219149   1.018   5.641   5.777
 6084SOL     OW19150   0.008   5.648   4.214
 6084SOL    HW119151   0.095   5.628   4.259
 6084SOL    HW219152   7.018   5.747   4.211
 6085SOL     OW19153   6.786   4.086   0.216
 6085SOL    HW119154   6.774   4.015   0.284
 6085SOL    HW219155   6.881   4.086   0.184
 6086SOL     OW19156   3.747   1.552   4.492
 6086SOL    HW119157   3.657   1.527   4.455
 6086SOL    HW219158   3.799   1.601   4.422
 6087SOL     OW19159   5.153   0.174   6.868
 6087SOL    HW119160   5.109   0.205   6.953
 6087SOL    HW219161   5.214   0.246   6.834
 6088SOL     OW19162   0.066   6.262   4.394
 6088SOL    HW119163   0.162   6.278   4.370
 6088SOL    HW219164   0.059   6.242   4.491
 6089SOL     OW19165   0.535   3.772   1.871
 6089SOL    HW119166   0.609   3.839   1.867
 6089SOL    HW219167   0.448   3.817   1.853
 6090SOL     OW19168   0.556   6.180   6.354
 6090SOL    HW119169   0.531   6.114   6.283
 6090SOL    HW219170   0.635   6.233   6.324
 6091SOL     OW19171   0.817   1.526   2.504
 6091SOL    HW119172   0.717   1.525   2.504
 6091SOL    HW219173   0.850   1.515   2.410
 6092SOL     OW19174   2.748   0.535   3.067
 6092SOL    HW119175   2.731   0.444   3.031
 6092SOL    HW219176   2.803   0.529   3.151
 6093SOL     OW19177   1.641   2.633   2.340
 6093SOL    HW119178   1.587   2.557   2.305
 6093SOL    HW219179   1.728   2.598   2.375
 6094SOL     OW19180   2.324   1.449   1.709
 6094SOL    HW119181   2.396   1.491   1.654
 6094SOL    HW219182   2.309   1.355   1.679
 6095SOL     OW19183   4.802   3.080   6.695
 6095SOL    HW119184   4.786   3.014   6.622
 6095SOL    HW219185   4.777   3.171   6.663
 6096SOL     OW19186   5.848   0.591   3.904
 6096SOL    HW119187   5.774   0.646   3.867
 6096SOL    HW219188   5.926   0.593   3.841
 6097SOL     OW19189   2.331   0.585   3.119
 6097SOL    HW119190   2.284   0.617   3.202
 6097SOL    HW219191   2.309   0.488   3.104
 6098SOL     OW19192   1.891   2.215   5.522
 6098SOL    HW119193   1.982   2.240   5.487
 6098SOL    HW219194   1.900   2.144   5.591
 6099SOL     OW19195   5.497   5.861   5.802
 6099SOL    HW119196   5.573   5.911   5.842
 6099SOL    HW219197   5.412   5.888   5.846
 6100SOL     OW19198   6.025   3.213   6.582
 6100SOL    HW119199   5.947   3.215   6.521
 6100SOL    HW219200   6.013   3.141   6.651
 6101SOL     OW19201   6.990   1.906   5.565
 6101SOL    HW119202   6.927   1.845   5.517
 6101SOL    HW219203   6.945   1.994   5.583
 6102SOL     OW19204   3.473   1.199   4.620
 6102SOL    HW119205   3.558   1.247   4.645
 6102SOL    HW219206   3.395   1.249   4.657
 6103SOL     OW19207   0.203   0.739   3.929
 6103SOL    HW119208   0.287   0.741   3.875
 6103SOL    HW219209   0.139   0.807   3.894
 6104SOL     OW19210   6.401   2.119   6.495
 6104SOL    HW119211   6.324   2.073   6.452
 6104SOL    HW219212   6.371   2.162   6.580
 6105SOL     OW19213   3.196   6.333   5.418
 6105SOL    HW119214   3.243   6.398   5.358
 6105SOL    HW219215   3.124   6.286   5.367
 6106SOL     OW19216   2.472   5.003   6.102
 6106SOL    HW119217   2.442   5.029   6.195
 6106SOL    HW219218   2.395   5.015   6.039
 6107SOL     OW19219   2.118   5.096   4.139
 6107SOL    HW119220   2.054   5.020   4.128
 6107SOL    HW219221   2.082   5.177   4.093
 6108SOL     OW19222   0.596   2.230   3.096
 6108SOL    HW119223   0.595   2.296   3.021
 6108SOL    HW219224   0.601   2.278   3.183
 6109SOL     OW19225   5.105   2.720   6.870
 6109SOL    HW119226   5.056   2.694   6.787
 6109SOL    HW219227   5.049   2.698   6.950
 6110SOL     OW19228   2.662   2.707   6.777
 6110SOL    HW119229   2.567   2.733   6.757
 6110SOL    HW219230   2.693   2.640   6.709
 6111SOL     OW19231   1.333   4.975   2.563
 6111SOL    HW119232   1.255   4.912   2.562
 6111SOL    HW219233   1.362   4.993   2.470
 6112SOL     OW19234   1.716   2.077   2.783
 6112SOL    HW119235   1.747   2.111   2.872
 6112SOL    HW219236   1.616   2.086   2.777
 6113SOL     OW19237   0.544   0.949   6.117
 6113SOL    HW119238   0.551   0.930   6.215
 6113SOL    HW219239   0.483   0.883   6.074
 6114SOL     OW19240   4.910   5.044   0.630
 6114SOL    HW119241   4.845   5.036   0.706
 6114SOL    HW219242   4.986   5.102   0.658
 6115SOL     OW19243   4.935   5.264   3.584
 6115SOL    HW119244   4.903   5.169   3.581
 6115SOL    HW219245   4.910   5.304   3.672
 6116SOL     OW19246   3.217   1.083   1.831
 6116SOL    HW119247   3.210   1.099   1.732
 6116SOL    HW219248   3.128   1.100   1.873
 6117SOL     OW19249   6.292   0.113   4.763
 6117SOL    HW119250   6.317   0.085   4.855
 6117SOL    HW219251   6.349   0.191   4.735
 6118SOL     OW19252   0.366   2.308   1.825
 6118SOL    HW119253   0.382   2.343   1.733
 6118SOL    HW219254   0.270   2.319   1.849
 6119SOL     OW19255   0.186   4.176   4.485
 6119SOL    HW119256   0.214   4.263   4.525
 6119SOL    HW219257   0.167   4.188   4.388
 6120SOL     OW19258   3.010   0.015   4.098
 6120SOL    HW119259   2.914   0.002   4.074
 6120SOL    HW219260   3.034   0.112   4.085
 6121SOL     OW19261   6.897   2.796   4.761
 6121SOL    HW119262   6.939   2.887   4.763
 6121SOL    HW219263   6.818   2.795   4.821
 6122SOL     OW19264   3.691   6.603   2.667
 6122SOL    HW119265   3.662   6.536   2.736
 6122SOL    HW219266   3.688   6.695   2.707
 6123SOL     OW19267   0.088   0.715   1.496
 6123SOL    HW119268   0.164   0.778   1.513
 6123SOL    HW219269   0.055   0.679   1.584
 6124SOL     OW19270   3.567   6.532   5.100
 6124SOL    HW119271   3.649   6.514   5.155
 6124SOL    HW219272   3.586   6.605   5.035
 6125SOL     OW19273   2.376   5.515   1.167
 6125SOL    HW119274   2.389   5.614   1.159
 6125SOL    HW219275   2.380   5.489   1.263
 6126SOL     OW19276   5.193   5.868   4.044
 6126SOL    HW119277   5.285   5.888   4.076
 6126SOL    HW219278   5.145   5.954   4.024
 6127SOL     OW19279   2.380   6.814   1.150
 6127SOL    HW119280   2.362   6.882   1.221
 6127SOL    HW219281   2.471   6.774   1.163
 6128SOL     OW19282   6.923   3.000   0.736
 6128SOL    HW119283   6.888   3.078   0.685
 6128SOL    HW219284   6.855   2.926   0.735
 6129SOL     OW19285   6.407   3.995   2.966
 6129SOL    HW119286   6.340   3.923   2.985
 6129SOL    HW219287   6.497   3.954   2.954
 6130SOL     OW19288   6.760   3.195   4.815
 6130SOL    HW119289   6.662   3.209   4.835
 6130SOL    HW219290   6.810   3.279   4.836
 6131SOL     OW19291   0.151   1.505   5.646
 6131SOL    HW119292   0.217   1.431   5.657
 6131SOL    HW219293   0.157   1.541   5.552
 6132SOL     OW19294   3.804   0.812   1.287
 6132SOL    HW119295   3.842   0.882   1.347
 6132SOL    HW219296   3.730   0.764   1.335
 6133SOL     OW19297   0.707   3.264   2.458
 6133SOL    HW119298   0.704   3.363   2.446
 6133SOL    HW219299   0.753   3.222   2.379
 6134SOL     OW19300   3.942   3.275   6.315
 6134SOL    HW119301   3.856   3.271   6.264
 6134SOL    HW219302   4.003   3.343   6.273
 6135SOL     OW19303   6.511   0.315   2.219
 6135SOL    HW119304   6.530   0.225   2.182
 6135SOL    HW219305   6.414   0.322   2.241
 6136SOL     OW19306   0.509   1.111   2.585
 6136SOL    HW119307   0.535   1.014   2.588
 6136SOL    HW219308   0.590   1.167   2.601
 6137SOL     OW19309   3.754   1.033   6.162
 6137SOL    HW119310   3.786   1.128   6.169
 6137SOL    HW219311   3.728   1.014   6.067
 6138SOL     OW19312   3.099   6.770   2.695
 6138SOL    HW119313   3.008   6.738   2.671
 6138SOL    HW219314   3.154   6.781   2.613
 6139SOL     OW19315   1.839   3.259   5.213
 6139SOL    HW119316   1.839   3.357   5.194
 6139SOL    HW219317   1.930   3.222   5.192
 6140SOL     OW19318   0.490   6.763   2.153
 6140SOL    HW119319   0.494   6.670   2.116
 6140SOL    HW219320   0.578   6.785   2.196
 6141SOL     OW19321   6.291   6.429   4.587
 6141SOL    HW119322   6.206   6.448   4.636
 6141SOL    HW219323   6.358   6.501   4.606
 6142SOL     OW19324   0.321   5.171   0.418
 6142SOL    HW119325   0.267   5.249   0.448
 6142SOL    HW219326   0.260   5.094   0.397
 6143SOL     OW19327   5.908   4.600   6.540
 6143SOL    HW119328   5.973   4.539   6.496
 6143SOL    HW219329   5.915   4.691   6.498
 6144SOL     OW19330   6.937   4.606   2.719
 6144SOL    HW119331   7.004   4.592   2.791
 6144SOL    HW219332   6.926   4.704   2.701
 6145SOL     OW19333   4.875   5.977   3.421
 6145SOL    HW119334   4.944   6.036   3.461
 6145SOL    HW219335   4.800   5.964   3.486
 6146SOL     OW19336   4.450   1.325   3.413
 6146SOL    HW119337   4.446   1.259   3.338
 6146SOL    HW219338   4.536   1.376   3.408
 6147SOL     OW19339   1.537   4.828   2.965
 6147SOL    HW119340   1.511   4.764   3.036
 6147SOL    HW219341   1.548   4.779   2.878
 6148SOL     OW19342   0.052   6.529   4.008
 6148SOL    HW119343   0.004   6.499   4.091
 6148SOL    HW219344   7.015   6.523   3.930
 6149SOL     OW19345   3.560   4.910   3.555
 6149SOL    HW119346   3.461   4.895   3.545
 6149SOL    HW219347   3.604   4.901   3.466
 6150SOL     OW19348   4.493   5.101   6.987
 6150SOL    HW119349   4.410   5.080   0.015
 6150SOL    HW219350   4.566   5.127   0.025
 6151SOL     OW19351   5.936   3.294   5.037
 6151SOL    HW119352   5.867   3.273   5.107
 6151SOL    HW219353   6.027   3.293   5.079
 6152SOL     OW19354   5.272   4.886   5.967
 6152SOL    HW119355   5.221   4.801   5.954
 6152SOL    HW219356   5.337   4.898   5.892
 6153SOL     OW19357   4.731   4.040   1.658
 6153SOL    HW119358   4.829   4.023   1.654
 6153SOL    HW219359   4.681   3.958   1.629
 6154SOL     OW19360   5.433   1.399   2.142
 6154SOL    HW119361   5.497   1.376   2.069
 6154SOL    HW219362   5.425   1.498   2.150
 6155SOL     OW19363   1.462   3.217   4.245
 6155SOL    HW119364   1.481   3.266   4.330
 6155SOL    HW219365   1.533   3.239   4.177
 6156SOL     OW19366   4.481   6.161   2.733
 6156SOL    HW119367   4.523   6.238   2.687
 6156SOL    HW219368   4.497   6.077   2.680
 6157SOL     OW19369   1.333   2.467   3.572
 6157SOL    HW119370   1.285   2.386   3.606
 6157SOL    HW219371   1.400   2.440   3.503
 6158SOL     OW19372   4.881   0.913   6.511
 6158SOL    HW119373   4.897   1.011   6.507
 6158SOL    HW219374   4.798   0.890   6.460
 6159SOL     OW19375   4.949   1.708   0.067
 6159SOL    HW119376   5.042   1.737   0.088
 6159SOL    HW219377   4.885   1.783   0.085
 6160SOL     OW19378   5.372   5.739   0.541
 6160SOL    HW119379   5.325   5.695   0.465
 6160SOL    HW219380   5.445   5.680   0.575
 6161SOL     OW19381   6.048   1.629   5.587
 6161SOL    HW119382   6.018   1.700   5.649
 6161SOL    HW219383   5.974   1.565   5.570
 6162SOL     OW19384   0.812   4.705   4.531
 6162SOL    HW119385   0.718   4.722   4.502
 6162SOL    HW219386   0.864   4.790   4.527
 6163SOL     OW19387   5.451   5.355   1.004
 6163SOL    HW119388   5.462   5.445   0.962
 6163SOL    HW219389   5.369   5.355   1.062
 6164SOL     OW19390   2.147   2.516   1.700
 6164SOL    HW119391   2.069   2.454   1.693
 6164SOL    HW219392   2.220   2.472   1.752
 6165SOL     OW19393   4.031   5.975   0.408
 6165SOL    HW119394   3.947   5.978   0.462
 6165SOL    HW219395   4.012   6.003   0.314
 6166SOL     OW19396   3.028   1.177   5.678
 6166SOL    HW119397   2.973   1.109   5.629
 6166SOL    HW219398   3.124   1.164   5.656
 6167SOL     OW19399   1.105   4.775   2.316
 6167SOL    HW119400   1.129   4.867   2.286
 6167SOL    HW219401   1.025   4.778   2.375
 6168SOL     OW19402   0.773   3.639   1.227
 6168SOL    HW119403   0.801   3.595   1.312
 6168SOL    HW219404   0.855   3.670   1.178
 6169SOL     OW19405   1.942   2.939   1.743
 6169SOL    HW119406   1.915   2.976   1.654
 6169SOL    HW219407   2.034   2.971   1.765
 6170SOL     OW19408   0.488   3.329   5.271
 6170SOL    HW119409   0.401   3.296   5.235
 6170SOL    HW219410   0.473   3.375   5.358
 6171SOL     OW19411   0.618   1.400   0.574
 6171SOL    HW119412   0.522   1.397   0.546
 6171SOL    HW219413   0.637   1.325   0.636
 6172SOL     OW19414   0.831   2.305   3.270
 6172SOL    HW119415   0.916   2.356   3.269
 6172SOL    HW219416   0.839   2.229   3.335
 6173SOL     OW19417   6.523   5.854   2.773
 6173SOL    HW119418   6.605   5.801   2.793
 6173SOL    HW219419   6.542   5.920   2.699
 6174SOL     OW19420   4.812   4.928   3.317
 6174SOL    HW119421   4.719   4.918   3.281
 6174SOL    HW219422   4.808   4.946   3.415
 6175SOL     OW19423   3.518   0.693   4.676
 6175SOL    HW119424   3.456   0.618   4.696
 6175SOL    HW219425   3.491   0.774   4.728
 6176SOL     OW19426   4.415   3.467   5.274
 6176SOL    HW119427   4.490   3.474   5.207
 6176SOL    HW219428   4.378   3.558   5.292
 6177SOL     OW19429   6.025   2.176   1.607
 6177SOL    HW119430   6.100   2.128   1.562
 6177SOL    HW219431   6.052   2.202   1.699
 6178SOL     OW19432   4.996   3.711   1.762
 6178SOL    HW119433   4.982   3.739   1.857
 6178SOL    HW219434   4.929   3.641   1.737
 6179SOL     OW19435   6.796   5.053   1.196
 6179SOL    HW119436   6.726   5.123   1.210
 6179SOL    HW219437   6.862   5.055   1.272
 6180SOL     OW19438   3.125   4.789   0.792
 6180SOL    HW119439   3.196   4.757   0.855
 6180SOL    HW219440   3.037   4.752   0.820
 6181SOL     OW19441   5.221   5.835   6.189
 6181SOL    HW119442   5.311   5.877   6.193
 6181SOL    HW219443   5.218   5.768   6.114
 6182SOL     OW19444   3.826   3.146   0.282
 6182SOL    HW119445   3.791   3.052   0.288
 6182SOL    HW219446   3.846   3.168   0.187
 6183SOL     OW19447   1.629   2.481   1.187
 6183SOL    HW119448   1.664   2.427   1.263
 6183SOL    HW219449   1.530   2.488   1.193
 6184SOL     OW19450   3.242   0.649   5.905
 6184SOL    HW119451   3.173   0.585   5.939
 6184SOL    HW219452   3.198   0.733   5.874
 6185SOL     OW19453   2.892   3.332   5.738
 6185SOL    HW119454   2.821   3.336   5.809
 6185SOL    HW219455   2.959   3.262   5.764
 6186SOL     OW19456   0.192   1.981   1.706
 6186SOL    HW119457   0.179   1.884   1.725
 6186SOL    HW219458   0.236   1.992   1.616
 6187SOL     OW19459   4.715   2.431   5.124
 6187SOL    HW119460   4.729   2.434   5.025
 6187SOL    HW219461   4.717   2.336   5.155
 6188SOL     OW19462   1.831   1.579   5.198
 6188SOL    HW119463   1.811   1.676   5.190
 6188SOL    HW219464   1.750   1.531   5.234
 6189SOL     OW19465   3.977   5.526   2.516
 6189SOL    HW119466   3.995   5.532   2.614
 6189SOL    HW219467   3.885   5.562   2.497
 6190SOL     OW19468   6.552   3.678   5.758
 6190SOL    HW119469   6.505   3.748   5.812
 6190SOL    HW219470   6.498   3.594   5.758
 6191SOL     OW19471   2.527   2.799   5.953
 6191SOL    HW119472   2.481   2.730   5.897
 6191SOL    HW219473   2.577   2.861   5.894
 6192SOL     OW19474   2.224   1.474   6.651
 6192SOL    HW119475   2.180   1.510   6.569
 6192SOL    HW219476   2.274   1.548   6.697
 6193SOL     OW19477   5.226   5.283   0.465
 6193SOL    HW119478   5.196   5.232   0.545
 6193SOL    HW219479   5.198   5.235   0.382
 6194SOL     OW19480   6.635   1.009   0.052
 6194SOL    HW119481   6.541   0.978   0.061
 6194SOL    HW219482   6.662   1.059   0.135
 6195SOL     OW19483   5.472   0.381   4.929
 6195SOL    HW119484   5.398   0.356   4.866
 6195SOL    HW219485   5.453   0.472   4.967
 6196SOL     OW19486   5.419   4.705   2.516
 6196SOL    HW119487   5.385   4.698   2.609
 6196SOL    HW219488   5.416   4.800   2.486
 6197SOL     OW19489   2.594   5.252   2.392
 6197SOL    HW119490   2.510   5.201   2.370
 6197SOL    HW219491   2.570   5.340   2.432
 6198SOL     OW19492   5.438   6.376   6.285
 6198SOL    HW119493   5.527   6.356   6.244
 6198SOL    HW219494   5.451   6.429   6.369
 6199SOL     OW19495   0.806   0.411   0.681
 6199SOL    HW119496   0.785   0.501   0.644
 6199SOL    HW219497   0.868   0.363   0.620
 6200SOL     OW19498   1.195   1.020   2.705
 6200SOL    HW119499   1.113   1.045   2.654
 6200SOL    HW219500   1.271   1.006   2.641
 6201SOL     OW19501   0.064   4.701   3.922
 6201SOL    HW119502   0.147   4.647   3.940
 6201SOL    HW219503   7.011   4.660   3.969
 6202SOL     OW19504   6.074   1.787   3.457
 6202SOL    HW119505   6.112   1.807   3.547
 6202SOL    HW219506   6.108   1.699   3.424
 6203SOL     OW19507   6.453   5.660   1.801
 6203SOL    HW119508   6.387   5.597   1.843
 6203SOL    HW219509   6.490   5.619   1.718
 6204SOL     OW19510   1.015   6.079   4.842
 6204SOL    HW119511   0.989   6.065   4.937
 6204SOL    HW219512   1.043   6.175   4.829
 6205SOL     OW19513   4.733   4.996   2.214
 6205SOL    HW119514   4.833   5.006   2.213
 6205SOL    HW219515   4.707   4.916   2.160
 6206SOL     OW19516   4.631   1.842   3.775
 6206SOL    HW119517   4.601   1.762   3.723
 6206SOL    HW219518   4.580   1.922   3.745
 6207SOL     OW19519   1.576   5.793   4.383
 6207SOL    HW119520   1.555   5.703   4.345
 6207SOL    HW219521   1.656   5.831   4.336
 6208SOL     OW19522   3.481   3.086   6.577
 6208SOL    HW119523   3.561   3.134   6.615
 6208SOL    HW219524   3.398   3.136   6.602
 6209SOL     OW19525   3.362   4.266   0.788
 6209SOL    HW119526   3.458   4.249   0.810
 6209SOL    HW219527   3.304   4.214   0.851
 6210SOL     OW19528   4.947   3.355   3.090
 6210SOL    HW119529   5.047   3.359   3.097
 6210SOL    HW219530   4.921   3.288   3.020
 6211SOL     OW19531   4.780   5.647   5.272
 6211SOL    HW119532   4.720   5.607   5.202
 6211SOL    HW219533   4.875   5.640   5.242
 6212SOL     OW19534   2.491   4.914   5.185
 6212SOL    HW119535   2.502   4.907   5.086
 6212SOL    HW219536   2.428   4.989   5.207
 6213SOL     OW19537   4.692   6.647   0.352
 6213SOL    HW119538   4.767   6.581   0.349
 6213SOL    HW219539   4.644   6.639   0.439
 6214SOL     OW19540   5.874   5.637   5.428
 6214SOL    HW119541   5.958   5.692   5.426
 6214SOL    HW219542   5.849   5.619   5.523
 6215SOL     OW19543   5.148   3.238   5.967
 6215SOL    HW119544   5.071   3.177   5.950
 6215SOL    HW219545   5.143   3.316   5.904
 6216SOL     OW19546   5.727   2.743   3.354
 6216SOL    HW119547   5.662   2.818   3.367
 6216SOL    HW219548   5.683   2.669   3.304
 6217SOL     OW19549   0.884   4.767   2.485
 6217SOL    HW119550   0.960   4.787   2.547
 6217SOL    HW219551   0.847   4.676   2.507
 6218SOL     OW19552   4.949   6.046   0.077
 6218SOL    HW119553   4.859   6.088   0.071
 6218SOL    HW219554   4.948   5.958   0.029
 6219SOL     OW19555   1.091   0.911   5.220
 6219SOL    HW119556   1.037   0.986   5.182
 6219SOL    HW219557   1.188   0.935   5.217
 6220SOL     OW19558   3.469   0.485   0.338
 6220SOL    HW119559   3.503   0.393   0.321
 6220SOL    HW219560   3.547   0.548   0.343
 6221SOL     OW19561   6.739   6.327   6.629
 6221SOL    HW119562   6.731   6.227   6.628
 6221SOL    HW219563   6.827   6.353   6.669
 6222SOL     OW19564   6.047   1.121   1.775
 6222SOL    HW119565   6.053   1.072   1.862
 6222SOL    HW219566   6.094   1.209   1.784
 6223SOL     OW19567   0.458   5.517   3.711
 6223SOL    HW119568   0.448   5.420   3.735
 6223SOL    HW219569   0.471   5.571   3.794
 6224SOL     OW19570   4.336   1.181   6.123
 6224SOL    HW119571   4.263   1.114   6.109
 6224SOL    HW219572   4.316   1.236   6.205
 6225SOL     OW19573   4.232   0.745   6.665
 6225SOL    HW119574   4.166   0.772   6.594
 6225SOL    HW219575   4.321   0.786   6.646
 6226SOL     OW19576   1.388   1.568   4.144
 6226SOL    HW119577   1.352   1.650   4.100
 6226SOL    HW219578   1.461   1.593   4.207
 6227SOL     OW19579   3.233   4.471   5.326
 6227SOL    HW119580   3.150   4.484   5.272
 6227SOL    HW219581   3.211   4.478   5.423
 6228SOL     OW19582   1.988   2.409   3.326
 6228SOL    HW119583   1.909   2.348   3.337
 6228SOL    HW219584   1.955   2.502   3.307
 6229SOL     OW19585   0.060   3.299   5.018
 6229SOL    HW119586   0.116   3.376   5.047
 6229SOL    HW219587   7.011   3.331   4.958
 6230SOL     OW19588   0.239   1.629   2.485
 6230SOL    HW119589   0.284   1.553   2.438
 6230SOL    HW219590   0.213   1.698   2.418
 6231SOL     OW19591   5.390   4.353   0.494
 6231SOL    HW119592   5.433   4.402   0.419
 6231SOL    HW219593   5.295   4.333   0.471
 6232SOL     OW19594   5.515   0.854   0.491
 6232SOL    HW119595   5.510   0.884   0.586
 6232SOL    HW219596   5.455   0.911   0.435
 6233SOL     OW19597   0.573   3.750   2.170
 6233SOL    HW119598   0.634   3.678   2.137
 6233SOL    HW219599   0.527   3.793   2.092
 6234SOL     OW19600   0.340   6.797   4.189
 6234SOL    HW119601   0.335   6.700   4.166
 6234SOL    HW219602   0.272   6.848   4.136
 6235SOL     OW19603   6.879   0.717   2.544
 6235SOL    HW119604   6.893   0.677   2.454
 6235SOL    HW219605   6.823   0.655   2.600
 6236SOL     OW19606   0.682   4.173   1.044
 6236SOL    HW119607   0.694   4.112   1.122
 6236SOL    HW219608   0.766   4.177   0.990
 6237SOL     OW19609   3.831   6.907   0.570
 6237SOL    HW119610   3.737   6.942   0.573
 6237SOL    HW219611   3.860   6.880   0.662
 6238SOL     OW19612   3.170   6.673   3.812
 6238SOL    HW119613   3.178   6.667   3.712
 6238SOL    HW219614   3.122   6.592   3.845
 6239SOL     OW19615   4.442   6.879   2.605
 6239SOL    HW119616   4.402   6.802   2.655
 6239SOL    HW219617   4.417   6.964   2.650
 6240SOL     OW19618   2.950   3.233   4.508
 6240SOL    HW119619   2.960   3.265   4.602
 6240SOL    HW219620   2.996   3.145   4.498
 6241SOL     OW19621   3.382   6.762   3.969
 6241SOL    HW119622   3.314   6.729   3.904
 6241SOL    HW219623   3.336   6.810   4.044
 6242SOL     OW19624   2.850   2.314   2.561
 6242SOL    HW119625   2.772   2.376   2.573
 6242SOL    HW219626   2.935   2.364   2.577
 6243SOL     OW19627   6.045   0.755   6.312
 6243SOL    HW119628   6.066   0.740   6.215
 6243SOL    HW219629   6.122   0.801   6.356
 6244SOL     OW19630   4.492   4.579   3.063
 6244SOL    HW119631   4.574   4.636   3.075
 6244SOL    HW219632   4.502   4.523   2.980
 6245SOL     OW19633   1.094   4.809   2.653
 6245SOL    HW119634   1.050   4.790   2.741
 6245SOL    HW219635   1.157   4.734   2.631
 6246SOL     OW19636   1.437   6.838   4.575
 6246SOL    HW119637   1.341   6.821   4.597
 6246SOL    HW219638   1.481   6.752   4.549
 6247SOL     OW19639   0.030   5.330   3.622
 6247SOL    HW119640   6.956   5.335   3.610
 6247SOL    HW219641   0.054   5.242   3.663
 6248SOL     OW19642   4.265   2.722   6.588
 6248SOL    HW119643   4.328   2.743   6.662
 6248SOL    HW219644   4.180   2.772   6.601
 6249SOL     OW19645   0.071   3.186   1.516
 6249SOL    HW119646   0.023   3.127   1.582
 6249SOL    HW219647   0.041   3.163   1.423
 6250SOL     OW19648   0.100   6.863   0.792
 6250SOL    HW119649   0.125   6.858   0.889
 6250SOL    HW219650   0.016   6.810   0.777
 6251SOL     OW19651   2.785   0.049   4.477
 6251SOL    HW119652   2.823   6.999   4.421
 6251SOL    HW219653   2.829   0.049   4.567
 6252SOL     OW19654   2.971   5.645   6.777
 6252SOL    HW119655   2.885   5.623   6.731
 6252SOL    HW219656   3.046   5.596   6.733
 6253SOL     OW19657   2.994   4.880   4.468
 6253SOL    HW119658   2.942   4.851   4.388
 6253SOL    HW219659   2.931   4.916   4.537
 6254SOL     OW19660   0.222   5.352   0.642
 6254SOL    HW119661   0.231   5.329   0.739
 6254SOL    HW219662   0.150   5.421   0.631
 6255SOL     OW19663   1.442   1.813   1.204
 6255SOL    HW119664   1.507   1.838   1.133
 6255SOL    HW219665   1.351   1.846   1.178
 6256SOL     OW19666   4.876   5.837   2.362
 6256SOL    HW119667   4.852   5.929   2.333
 6256SOL    HW219668   4.974   5.833   2.384
 6257SOL     OW19669   4.339   3.721   0.825
 6257SOL    HW119670   4.419   3.751   0.878
 6257SOL    HW219671   4.362   3.722   0.728
 6258SOL     OW19672   4.426   6.936   6.015
 6258SOL    HW119673   4.493   6.997   5.973
 6258SOL    HW219674   4.352   6.917   5.950
 6259SOL     OW19675   1.851   6.745   5.938
 6259SOL    HW119676   1.774   6.749   6.001
 6259SOL    HW219677   1.822   6.772   5.847
 6260SOL     OW19678   1.865   0.474   0.387
 6260SOL    HW119679   1.802   0.480   0.464
 6260SOL    HW219680   1.911   0.562   0.375
 6261SOL     OW19681   4.607   6.907   1.225
 6261SOL    HW119682   4.637   6.815   1.199
 6261SOL    HW219683   4.588   6.910   1.323
 6262SOL     OW19684   6.342   6.523   2.348
 6262SOL    HW119685   6.413   6.516   2.419
 6262SOL    HW219686   6.385   6.543   2.260
 6263SOL     OW19687   0.302   6.544   4.100
 6263SOL    HW119688   0.218   6.545   4.045
 6263SOL    HW219689   0.381   6.531   4.041
 6264SOL     OW19690   0.288   6.942   1.164
 6264SOL    HW119691   0.373   6.922   1.115
 6264SOL    HW219692   0.310   6.969   1.258
 6265SOL     OW19693   4.084   2.553   0.472
 6265SOL    HW119694   3.987   2.569   0.490
 6265SOL    HW219695   4.122   2.496   0.545
 6266SOL     OW19696   3.073   5.521   2.627
 6266SOL    HW119697   3.040   5.586   2.560
 6266SOL    HW219698   3.043   5.548   2.718
 6267SOL     OW19699   0.954   6.391   5.307
 6267SOL    HW119700   0.960   6.313   5.369
 6267SOL    HW219701   0.913   6.361   5.221
 6268SOL     OW19702   3.783   0.560   2.019
 6268SOL    HW119703   3.839   0.612   2.083
 6268SOL    HW219704   3.689   0.558   2.051
 6269SOL     OW19705   5.609   6.385   1.185
 6269SOL    HW119706   5.651   6.467   1.146
 6269SOL    HW219707   5.648   6.304   1.141
 6270SOL     OW19708   1.270   6.336   0.128
 6270SOL    HW119709   1.294   6.357   0.222
 6270SOL    HW219710   1.344   6.365   0.067
 6271SOL     OW19711   6.137   2.968   6.737
 6271SOL    HW119712   6.108   2.954   6.831
 6271SOL    HW219713   6.230   3.003   6.735
 6272SOL     OW19714   6.062   0.141   0.168
 6272SOL    HW119715   6.115   0.226   0.171
 6272SOL    HW219716   5.971   0.159   0.131
 6273SOL     OW19717   0.064   6.758   2.266
 6273SOL    HW119718   0.060   6.670   2.313
 6273SOL    HW219719   0.128   6.819   2.313
 6274SOL     OW19720   3.183   6.119   4.847
 6274SOL    HW119721   3.133   6.197   4.885
 6274SOL    HW219722   3.176   6.119   4.748
 6275SOL     OW19723   2.411   6.133   0.878
 6275SOL    HW119724   2.323   6.089   0.900
 6275SOL    HW219725   2.458   6.078   0.808
 6276SOL     OW19726   2.407   5.812   3.506
 6276SOL    HW119727   2.384   5.809   3.409
 6276SOL    HW219728   2.439   5.904   3.530
 6277SOL     OW19729   5.304   2.372   1.496
 6277SOL    HW119730   5.359   2.328   1.425
 6277SOL    HW219731   5.303   2.471   1.482
 6278SOL     OW19732   3.296   0.283   5.580
 6278SOL    HW119733   3.380   0.257   5.533
 6278SOL    HW219734   3.218   0.240   5.534
 6279SOL     OW19735   3.574   6.010   1.189
 6279SOL    HW119736   3.651   6.003   1.126
 6279SOL    HW219737   3.491   5.977   1.144
 6280SOL     OW19738   6.376   1.760   6.872
 6280SOL    HW119739   6.323   1.732   6.792
 6280SOL    HW219740   6.474   1.750   6.852
 6281SOL     OW19741   6.276   3.754   4.919
 6281SOL    HW119742   6.201   3.694   4.947
 6281SOL    HW219743   6.277   3.763   4.819
 6282SOL     OW19744   0.072   3.588   6.345
 6282SOL    HW119745   7.017   3.647   6.331
 6282SOL    HW219746   0.134   3.595   6.267
 6283SOL     OW19747   1.195   5.816   5.189
 6283SOL    HW119748   1.274   5.771   5.230
 6283SOL    HW219749   1.179   5.779   5.098
 6284SOL     OW19750   2.138   4.017   6.873
 6284SOL    HW119751   2.064   4.070   6.833
 6284SOL    HW219752   2.224   4.067   6.865
 6285SOL     OW19753   1.855   3.864   2.723
 6285SOL    HW119754   1.845   3.910   2.811
 6285SOL    HW219755   1.921   3.914   2.667
 6286SOL     OW19756   0.771   3.421   4.472
 6286SOL    HW119757   0.701   3.358   4.438
 6286SOL    HW219758   0.862   3.380   4.459
 6287SOL     OW19759   4.324   4.796   5.174
 6287SOL    HW119760   4.349   4.888   5.141
 6287SOL    HW219761   4.225   4.785   5.168
 6288SOL     OW19762   3.798   3.558   6.216
 6288SOL    HW119763   3.715   3.573   6.270
 6288SOL    HW219764   3.790   3.604   6.127
 6289SOL     OW19765   2.367   4.473   6.386
 6289SOL    HW119766   2.466   4.481   6.384
 6289SOL    HW219767   2.334   4.432   6.301
 6290SOL     OW19768   6.047   5.255   6.255
 6290SOL    HW119769   5.974   5.299   6.202
 6290SOL    HW219770   6.124   5.234   6.195
 6291SOL     OW19771   3.349   3.262   2.777
 6291SOL    HW119772   3.285   3.214   2.716
 6291SOL    HW219773   3.347   3.360   2.757
 6292SOL     OW19774   1.996   2.840   4.408
 6292SOL    HW119775   2.084   2.850   4.453
 6292SOL    HW219776   1.924   2.831   4.477
 6293SOL     OW19777   5.075   1.033   6.986
 6293SOL    HW119778   5.140   1.101   6.951
 6293SOL    HW219779   4.985   1.049   6.945
 6294SOL     OW19780   3.022   1.272   3.990
 6294SOL    HW119781   2.940   1.220   3.964
 6294SOL    HW219782   3.089   1.268   3.916
 6295SOL     OW19783   5.232   4.719   5.057
 6295SOL    HW119784   5.153   4.687   5.004
 6295SOL    HW219785   5.266   4.644   5.113
 6296SOL     OW19786   0.132   3.309   6.260
 6296SOL    HW119787   0.085   3.396   6.244
 6296SOL    HW219788   0.065   3.234   6.259
 6297SOL     OW19789   6.473   0.485   4.498
 6297SOL    HW119790   6.451   0.562   4.439
 6297SOL    HW219791   6.564   0.449   4.474
 6298SOL     OW19792   5.681   4.738   6.748
 6298SOL    HW119793   5.734   4.654   6.753
 6298SOL    HW219794   5.584   4.717   6.744
 6299SOL     OW19795   4.993   2.766   2.931
 6299SOL    HW119796   5.077   2.798   2.887
 6299SOL    HW219797   4.918   2.766   2.864
 6300SOL     OW19798   3.844   1.273   6.255
 6300SOL    HW119799   3.871   1.318   6.170
 6300SOL    HW219800   3.835   1.341   6.327
 6301SOL     OW19801   3.248   6.717   6.826
 6301SOL    HW119802   3.298   6.694   6.742
 6301SOL    HW219803   3.295   6.676   6.905
 6302SOL     OW19804   2.677   1.072   5.724
 6302SOL    HW119805   2.705   1.162   5.691
 6302SOL    HW219806   2.753   1.007   5.714
 6303SOL     OW19807   1.028   6.435   5.775
 6303SOL    HW119808   1.018   6.343   5.812
 6303SOL    HW219809   1.047   6.499   5.849
 6304SOL     OW19810   4.481   1.123   3.221
 6304SOL    HW119811   4.383   1.137   3.229
 6304SOL    HW219812   4.499   1.027   3.197
 6305SOL     OW19813   6.974   5.612   5.361
 6305SOL    HW119814   6.976   5.584   5.457
 6305SOL    HW219815   7.011   5.705   5.353
 6306SOL     OW19816   0.093   4.328   3.910
 6306SOL    HW119817   0.043   4.288   3.987
 6306SOL    HW219818   0.166   4.387   3.945
 6307SOL     OW19819   4.002   3.730   3.676
 6307SOL    HW119820   3.998   3.751   3.579
 6307SOL    HW219821   3.994   3.815   3.729
 6308SOL     OW19822   0.139   2.799   6.456
 6308SOL    HW119823   0.171   2.716   6.502
 6308SOL    HW219824   0.046   2.820   6.486
 6309SOL     OW19825   0.915   6.765   4.705
 6309SOL    HW119826   0.905   6.690   4.770
 6309SOL    HW219827   0.831   6.775   4.652
 6310SOL     OW19828   1.653   6.519   3.091
 6310SOL    HW119829   1.625   6.610   3.122
 6310SOL    HW219830   1.729   6.528   3.026
 6311SOL     OW19831   5.719   1.189   5.997
 6311SOL    HW119832   5.662   1.138   6.061
 6311SOL    HW219833   5.790   1.129   5.960
 6312SOL     OW19834   3.059   6.531   6.649
 6312SOL    HW119835   3.065   6.620   6.695
 6312SOL    HW219836   3.141   6.517   6.594
 6313SOL     OW19837   5.072   6.010   3.091
 6313SOL    HW119838   5.069   6.053   3.001
 6313SOL    HW219839   5.152   6.043   3.142
 6314SOL     OW19840   2.706   0.319   1.464
 6314SOL    HW119841   2.758   0.297   1.382
 6314SOL    HW219842   2.762   0.375   1.525
 6315SOL     OW19843   1.792   2.942   4.236
 6315SOL    HW119844   1.810   2.932   4.139
 6315SOL    HW219845   1.854   2.884   4.288
 6316SOL     OW19846   5.578   1.736   5.147
 6316SOL    HW119847   5.557   1.643   5.176
 6316SOL    HW219848   5.583   1.795   5.228
 6317SOL     OW19849   5.188   4.583   2.473
 6317SOL    HW119850   5.200   4.500   2.419
 6317SOL    HW219851   5.276   4.630   2.483
 6318SOL     OW19852   6.506   0.422   6.551
 6318SOL    HW119853   6.606   0.420   6.554
 6318SOL    HW219854   6.475   0.412   6.457
 6319SOL     OW19855   5.678   2.867   4.475
 6319SOL    HW119856   5.696   2.962   4.503
 6319SOL    HW219857   5.643   2.816   4.553
 6320SOL     OW19858   0.597   0.798   3.985
 6320SOL    HW119859   0.660   0.854   3.931
 6320SOL    HW219860   0.508   0.842   3.990
 6321SOL     OW19861   5.559   2.264   0.612
 6321SOL    HW119862   5.601   2.284   0.701
 6321SOL    HW219863   5.582   2.337   0.548
 6322SOL     OW19864   2.051   0.742   0.837
 6322SOL    HW119865   2.071   0.807   0.765
 6322SOL    HW219866   2.004   0.789   0.912
 6323SOL     OW19867   2.715   2.714   0.868
 6323SOL    HW119868   2.774   2.648   0.821
 6323SOL    HW219869   2.635   2.666   0.905
 6324SOL     OW19870   4.628   1.262   1.100
 6324SOL    HW119871   4.551   1.210   1.063
 6324SOL    HW219872   4.598   1.314   1.180
 6325SOL     OW19873   1.498   2.431   2.202
 6325SOL    HW119874   1.553   2.385   2.132
 6325SOL    HW219875   1.478   2.368   2.276
 6326SOL     OW19876   4.883   5.283   5.791
 6326SOL    HW119877   4.813   5.212   5.801
 6326SOL    HW219878   4.956   5.250   5.732
 6327SOL     OW19879   0.146   2.342   3.699
 6327SOL    HW119880   0.217   2.279   3.730
 6327SOL    HW219881   0.059   2.293   3.689
 6328SOL     OW19882   4.373   3.292   5.906
 6328SOL    HW119883   4.422   3.376   5.883
 6328SOL    HW219884   4.296   3.279   5.844
 6329SOL     OW19885   1.369   2.739   5.219
 6329SOL    HW119886   1.282   2.787   5.225
 6329SOL    HW219887   1.379   2.700   5.127
 6330SOL     OW19888   6.887   1.268   3.330
 6330SOL    HW119889   6.964   1.286   3.269
 6330SOL    HW219890   6.813   1.331   3.309
 6331SOL     OW19891   6.613   3.085   4.567
 6331SOL    HW119892   6.516   3.072   4.589
 6331SOL    HW219893   6.666   3.091   4.652
 6332SOL     OW19894   1.793   1.654   1.301
 6332SOL    HW119895   1.713   1.663   1.360
 6332SOL    HW219896   1.862   1.599   1.347
 6333SOL     OW19897   4.981   7.022   0.438
 6333SOL    HW119898   5.067   6.982   0.469
 6333SOL    HW219899   4.959   6.988   0.346
 6334SOL     OW19900   2.929   1.575   2.007
 6334SOL    HW119901   2.984   1.648   2.046
 6334SOL    HW219902   2.931   1.495   2.068
 6335SOL     OW19903   5.610   0.801   0.824
 6335SOL    HW119904   5.698   0.770   0.858
 6335SOL    HW219905   5.570   0.730   0.765
 6336SOL     OW19906   0.292   3.897   6.144
 6336SOL    HW119907   0.263   3.909   6.239
 6336SOL    HW219908   0.298   3.799   6.123
 6337SOL     OW19909   4.097   5.739   4.883
 6337SOL    HW119910   4.073   5.735   4.980
 6337SOL    HW219911   4.196   5.751   4.874
 6338SOL     OW19912   3.052   2.216   4.184
 6338SOL    HW119913   2.955   2.204   4.163
 6338SOL    HW219914   3.105   2.216   4.099
 6339SOL     OW19915   0.995   4.040   3.076
 6339SOL    HW119916   1.025   4.065   3.168
 6339SOL    HW219917   0.897   4.058   3.067
 6340SOL     OW19918   2.424   3.868   1.242
 6340SOL    HW119919   2.360   3.943   1.257
 6340SOL    HW219920   2.515   3.905   1.221
 6341SOL     OW19921   1.177   4.187   3.851
 6341SOL    HW119922   1.247   4.173   3.921
 6341SOL    HW219923   1.102   4.242   3.890
 6342SOL     OW19924   1.877   0.852   2.116
 6342SOL    HW119925   1.787   0.837   2.155
 6342SOL    HW219926   1.906   0.945   2.134
 6343SOL     OW19927   2.945   6.318   0.193
 6343SOL    HW119928   2.966   6.336   0.290
 6343SOL    HW219929   2.903   6.228   0.185
 6344SOL     OW19930   5.707   2.370   3.458
 6344SOL    HW119931   5.642   2.306   3.417
 6344SOL    HW219932   5.800   2.332   3.450
 6345SOL     OW19933   5.479   3.664   1.542
 6345SOL    HW119934   5.451   3.628   1.453
 6345SOL    HW219935   5.397   3.687   1.595
 6346SOL     OW19936   0.552   4.321   5.744
 6346SOL    HW119937   0.518   4.305   5.836
 6346SOL    HW219938   0.626   4.389   5.747
 6347SOL     OW19939   2.614   2.457   2.571
 6347SOL    HW119940   2.545   2.462   2.499
 6347SOL    HW219941   2.578   2.501   2.654
 6348SOL     OW19942   0.348   1.598   5.957
 6348SOL    HW119943   0.438   1.575   5.920
 6348SOL    HW219944   0.332   1.546   6.040
 6349SOL     OW19945   1.242   0.427   0.762
 6349SOL    HW119946   1.336   0.461   0.764
 6349SOL    HW219947   1.242   0.329   0.781
 6350SOL     OW19948   0.984   4.906   1.951
 6350SOL    HW119949   1.016   4.823   1.997
 6350SOL    HW219950   0.974   4.889   1.853
 6351SOL     OW19951   6.751   3.823   3.450
 6351SOL    HW119952   6.794   3.762   3.383
 6351SOL    HW219953   6.817   3.895   3.476
 6352SOL     OW19954   2.050   0.920   4.250
 6352SOL    HW119955   2.140   0.879   4.262
 6352SOL    HW219956   1.996   0.865   4.186
 6353SOL     OW19957   2.375   5.968   6.842
 6353SOL    HW119958   2.360   6.064   6.867
 6353SOL    HW219959   2.294   5.932   6.797
 6354SOL     OW19960   5.163   4.661   2.945
 6354SOL    HW119961   5.218   4.658   3.029
 6354SOL    HW219962   5.138   4.756   2.926
 6355SOL     OW19963   2.698   4.697   0.381
 6355SOL    HW119964   2.690   4.599   0.401
 6355SOL    HW219965   2.771   4.737   0.436
 6356SOL     OW19966   5.088   5.328   6.478
 6356SOL    HW119967   5.126   5.405   6.529
 6356SOL    HW219968   5.142   5.312   6.395
 6357SOL     OW19969   6.025   2.362   1.387
 6357SOL    HW119970   6.019   2.277   1.439
 6357SOL    HW219971   6.105   2.360   1.328
 6358SOL     OW19972   1.287   2.053   6.334
 6358SOL    HW119973   1.328   2.021   6.420
 6358SOL    HW219974   1.191   2.025   6.331
 6359SOL     OW19975   5.525   6.339   0.590
 6359SOL    HW119976   5.501   6.436   0.583
 6359SOL    HW219977   5.442   6.284   0.586
 6360SOL     OW19978   6.890   2.484   3.661
 6360SOL    HW119979   6.957   2.457   3.593
 6360SOL    HW219980   6.926   2.467   3.753
 6361SOL     OW19981   0.106   0.906   0.238
 6361SOL    HW119982   0.123   0.980   0.303
 6361SOL    HW219983   0.010   0.910   0.208
 6362SOL     OW19984   0.889   5.623   6.766
 6362SOL    HW119985   0.867   5.652   6.673
 6362SOL    HW219986   0.856   5.529   6.780
 6363SOL     OW19987   2.493   4.837   3.289
 6363SOL    HW119988   2.497   4.901   3.213
 6363SOL    HW219989   2.397   4.823   3.315
 6364SOL     OW19990   2.717   2.303   4.842
 6364SOL    HW119991   2.811   2.281   4.819
 6364SOL    HW219992   2.714   2.362   4.923
 6365SOL     OW19993   6.179   5.949   4.309
 6365SOL    HW119994   6.100   5.914   4.260
 6365SOL    HW219995   6.149   6.017   4.376
 6366SOL     OW19996   6.108   6.482   4.964
 6366SOL    HW119997   6.183   6.501   5.027
 6366SOL    HW219998   6.116   6.389   4.929
 6367SOL     OW19999   3.416   2.048   2.979
 6367SOL    HW120000   3.489   2.061   3.045
 6367SOL    HW220001   3.454   2.045   2.887
 6368SOL     OW20002   4.729   4.140   3.704
 6368SOL    HW120003   4.759   4.138   3.800
 6368SOL    HW220004   4.804   4.110   3.645
 6369SOL     OW20005   3.349   6.315   6.265
 6369SOL    HW120006   3.289   6.390   6.237
 6369SOL    HW220007   3.301   6.228   6.256
 6370SOL     OW20008   4.920   3.536   3.619
 6370SOL    HW120009   4.929   3.437   3.633
 6370SOL    HW220010   4.908   3.554   3.521
 6371SOL     OW20011   5.237   4.393   1.582
 6371SOL    HW120012   5.292   4.331   1.639
 6371SOL    HW220013   5.297   4.459   1.537
 6372SOL     OW20014   0.324   0.997   2.728
 6372SOL    HW120015   0.249   0.987   2.663
 6372SOL    HW220016   0.400   1.044   2.685
 6373SOL     OW20017   5.540   4.421   1.121
 6373SOL    HW120018   5.604   4.382   1.188
 6373SOL    HW220019   5.586   4.490   1.066
 6374SOL     OW20020   4.975   2.757   0.415
 6374SOL    HW120021   4.968   2.665   0.454
 6374SOL    HW220022   4.904   2.816   0.455
 6375SOL     OW20023   6.847   2.966   2.321
 6375SOL    HW120024   6.747   2.977   2.320
 6375SOL    HW220025   6.886   3.013   2.242
 6376SOL     OW20026   4.167   0.785   5.487
 6376SOL    HW120027   4.097   0.857   5.495
 6376SOL    HW220028   4.132   0.711   5.431
 6377SOL     OW20029   0.212   0.274   0.208
 6377SOL    HW120030   0.259   0.283   0.296
 6377SOL    HW220031   0.276   0.292   0.134
 6378SOL     OW20032   5.642   5.912   2.532
 6378SOL    HW120033   5.570   5.864   2.582
 6378SOL    HW220034   5.630   5.899   2.434
 6379SOL     OW20035   2.405   5.904   6.259
 6379SOL    HW120036   2.331   5.927   6.194
 6379SOL    HW220037   2.377   5.826   6.314
 6380SOL     OW20038   1.044   3.107   5.141
 6380SOL    HW120039   0.990   3.177   5.187
 6380SOL    HW220040   0.983   3.051   5.084
 6381SOL     OW20041   4.482   3.147   0.400
 6381SOL    HW120042   4.525   3.218   0.343
 6381SOL    HW220043   4.413   3.099   0.347
 6382SOL     OW20044   2.570   1.874   1.164
 6382SOL    HW120045   2.611   1.787   1.192
 6382SOL    HW220046   2.603   1.947   1.223
 6383SOL     OW20047   1.873   2.577   2.718
 6383SOL    HW120048   1.884   2.676   2.712
 6383SOL    HW220049   1.958   2.532   2.692
 6384SOL     OW20050   6.132   2.756   2.274
 6384SOL    HW120051   6.118   2.689   2.347
 6384SOL    HW220052   6.186   2.715   2.200
 6385SOL     OW20053   0.577   3.415   1.116
 6385SOL    HW120054   0.608   3.477   1.188
 6385SOL    HW220055   0.583   3.462   1.027
 6386SOL     OW20056   1.750   3.480   0.662
 6386SOL    HW120057   1.655   3.483   0.691
 6386SOL    HW220058   1.755   3.480   0.563
 6387SOL     OW20059   6.133   1.424   0.200
 6387SOL    HW120060   6.050   1.417   0.256
 6387SOL    HW220061   6.115   1.389   0.108
 6388SOL     OW20062   6.395   5.307   2.628
 6388SOL    HW120063   6.298   5.322   2.609
 6388SOL    HW220064   6.440   5.272   2.546
 6389SOL     OW20065   1.566   0.092   0.181
 6389SOL    HW120066   1.649   0.037   0.185
 6389SOL    HW220067   1.504   0.054   0.112
 6390SOL     OW20068   5.810   0.860   0.452
 6390SOL    HW120069   5.832   0.862   0.354
 6390SOL    HW220070   5.711   0.852   0.463
 6391SOL     OW20071   0.901   0.653   5.322
 6391SOL    HW120072   0.969   0.726   5.311
 6391SOL    HW220073   0.929   0.573   5.270
 6392SOL     OW20074   3.244   5.681   3.476
 6392SOL    HW120075   3.263   5.617   3.402
 6392SOL    HW220076   3.327   5.732   3.498
 6393SOL     OW20077   5.567   6.702   1.329
 6393SOL    HW120078   5.610   6.775   1.382
 6393SOL    HW220079   5.476   6.732   1.300
 6394SOL     OW20080   1.011   5.021   1.013
 6394SOL    HW120081   1.070   5.066   1.080
 6394SOL    HW220082   1.023   5.065   0.924
 6395SOL     OW20083   0.803   4.218   2.974
 6395SOL    HW120084   0.707   4.189   2.973
 6395SOL    HW220085   0.809   4.314   3.000
 6396SOL     OW20086   6.739   3.495   0.373
 6396SOL    HW120087   6.702   3.402   0.378
 6396SOL    HW220088   6.688   3.548   0.305
 6397SOL     OW20089   5.802   2.216   3.124
 6397SOL    HW120090   5.775   2.157   3.048
 6397SOL    HW220091   5.734   2.210   3.197
 6398SOL     OW20092   0.839   6.133   1.535
 6398SOL    HW120093   0.937   6.136   1.515
 6398SOL    HW220094   0.799   6.223   1.516
 6399SOL     OW20095   2.296   6.831   6.285
 6399SOL    HW120096   2.394   6.836   6.268
 6399SOL    HW220097   2.253   6.919   6.265
 6400SOL     OW20098   1.602   5.736   2.842
 6400SOL    HW120099   1.522   5.774   2.796
 6400SOL    HW220100   1.683   5.787   2.813
 6401SOL     OW20101   3.861   4.913   3.093
 6401SOL    HW120102   3.873   4.955   3.003
 6401SOL    HW220103   3.930   4.842   3.106
 6402SOL     OW20104   1.956   4.790   3.851
 6402SOL    HW120105   1.863   4.756   3.864
 6402SOL    HW220106   2.004   4.791   3.938
 6403SOL     OW20107   5.585   6.266   5.127
 6403SOL    HW120108   5.533   6.212   5.193
 6403SOL    HW220109   5.574   6.227   5.036
 6404SOL     OW20110   3.547   1.078   2.512
 6404SOL    HW120111   3.629   1.091   2.456
 6404SOL    HW220112   3.480   1.023   2.461
 6405SOL     OW20113   5.343   1.079   2.711
 6405SOL    HW120114   5.358   1.023   2.792
 6405SOL    HW220115   5.290   1.160   2.736
 6406SOL     OW20116   1.149   2.621   2.735
 6406SOL    HW120117   1.049   2.621   2.744
 6406SOL    HW220118   1.176   2.560   2.661
 6407SOL     OW20119   2.241   6.536   3.757
 6407SOL    HW120120   2.270   6.502   3.668
 6407SOL    HW220121   2.275   6.630   3.769
 6408SOL     OW20122   6.783   0.545   0.726
 6408SOL    HW120123   6.734   0.543   0.639
 6408SOL    HW220124   6.828   0.634   0.738
 6409SOL     OW20125   6.358   4.891   3.644
 6409SOL    HW120126   6.405   4.805   3.623
 6409SOL    HW220127   6.385   4.961   3.578
 6410SOL     OW20128   2.990   1.052   5.341
 6410SOL    HW120129   3.036   1.139   5.355
 6410SOL    HW220130   2.906   1.066   5.288
 6411SOL     OW20131   0.144   2.977   2.518
 6411SOL    HW120132   0.172   3.068   2.550
 6411SOL    HW220133   0.056   2.953   2.558
 6412SOL     OW20134   3.340   0.779   6.694
 6412SOL    HW120135   3.438   0.759   6.696
 6412SOL    HW220136   3.290   0.700   6.729
 6413SOL     OW20137   4.184   4.801   4.453
 6413SOL    HW120138   4.089   4.829   4.442
 6413SOL    HW220139   4.225   4.787   4.363
 6414SOL     OW20140   1.102   0.004   6.842
 6414SOL    HW120141   1.065   0.034   6.930
 6414SOL    HW220142   1.139   0.084   6.794
 6415SOL     OW20143   1.540   3.326   3.310
 6415SOL    HW120144   1.511   3.391   3.240
 6415SOL    HW220145   1.474   3.250   3.314
 6416SOL     OW20146   2.926   0.061   6.313
 6416SOL    HW120147   2.976   7.006   6.347
 6416SOL    HW220148   2.863   0.032   6.240
 6417SOL     OW20149   4.924   1.610   1.081
 6417SOL    HW120150   4.856   1.569   1.021
 6417SOL    HW220151   4.881   1.683   1.135
 6418SOL     OW20152   4.076   4.717   1.419
 6418SOL    HW120153   4.051   4.621   1.430
 6418SOL    HW220154   4.015   4.773   1.475
 6419SOL     OW20155   0.869   6.681   6.752
 6419SOL    HW120156   0.795   6.615   6.761
 6419SOL    HW220157   0.834   6.766   6.713
 6420SOL     OW20158   1.445   3.536   3.822
 6420SOL    HW120159   1.412   3.482   3.900
 6420SOL    HW220160   1.524   3.590   3.850
 6421SOL     OW20161   5.280   0.068   1.547
 6421SOL    HW120162   5.194   0.041   1.504
 6421SOL    HW220163   5.326   0.136   1.489
 6422SOL     OW20164   0.132   2.743   4.880
 6422SOL    HW120165   0.153   2.739   4.978
 6422SOL    HW220166   0.037   2.716   4.866
 6423SOL     OW20167   2.297   5.046   4.365
 6423SOL    HW120168   2.234   5.037   4.288
 6423SOL    HW220169   2.363   4.972   4.363
 6424SOL     OW20170   0.315   3.169   4.715
 6424SOL    HW120171   0.308   3.187   4.617
 6424SOL    HW220172   0.410   3.154   4.739
 6425SOL     OW20173   0.025   5.892   2.873
 6425SOL    HW120174   0.074   5.903   2.960
 6425SOL    HW220175   0.003   5.796   2.859
 6426SOL     OW20176   4.481   4.500   4.746
 6426SOL    HW120177   4.450   4.564   4.675
 6426SOL    HW220178   4.444   4.529   4.834
 6427SOL     OW20179   3.375   3.329   3.439
 6427SOL    HW120180   3.427   3.329   3.353
 6427SOL    HW220181   3.281   3.359   3.421
 6428SOL     OW20182   4.999   2.630   0.124
 6428SOL    HW120183   4.989   2.690   0.204
 6428SOL    HW220184   4.955   2.542   0.143
 6429SOL     OW20185   2.192   0.824   5.060
 6429SOL    HW120186   2.171   0.838   4.963
 6429SOL    HW220187   2.112   0.789   5.107
 6430SOL     OW20188   6.906   0.674   5.480
 6430SOL    HW120189   6.832   0.728   5.442
 6430SOL    HW220190   6.978   0.734   5.515
 6431SOL     OW20191   4.453   5.509   2.893
 6431SOL    HW120192   4.469   5.434   2.829
 6431SOL    HW220193   4.364   5.496   2.937
 6432SOL     OW20194   3.041   4.506   6.671
 6432SOL    HW120195   3.057   4.421   6.621
 6432SOL    HW220196   2.949   4.506   6.709
 6433SOL     OW20197   2.638   5.718   6.636
 6433SOL    HW120198   2.630   5.635   6.692
 6433SOL    HW220199   2.712   5.705   6.569
 6434SOL     OW20200   3.182   6.056   6.478
 6434SOL    HW120201   3.121   6.124   6.520
 6434SOL    HW220202   3.172   6.060   6.379
 6435SOL     OW20203   5.891   0.308   0.442
 6435SOL    HW120204   5.986   0.280   0.428
 6435SOL    HW220205   5.864   0.372   0.369
 6436SOL     OW20206   0.588   4.081   3.661
 6436SOL    HW120207   0.565   3.985   3.676
 6436SOL    HW220208   0.656   4.110   3.728
 6437SOL     OW20209   0.910   1.118   5.310
 6437SOL    HW120210   0.926   1.048   5.379
 6437SOL    HW220211   0.988   1.182   5.308
 6438SOL     OW20212   0.463   5.621   6.896
 6438SOL    HW120213   0.556   5.636   6.929
 6438SOL    HW220214   0.466   5.594   6.800
 6439SOL     OW20215   5.974   1.251   3.643
 6439SOL    HW120216   5.926   1.234   3.557
 6439SOL    HW220217   5.978   1.166   3.697
 6440SOL     OW20218   2.425   0.754   5.925
 6440SOL    HW120219   2.465   0.844   5.911
 6440SOL    HW220220   2.471   0.708   6.001
 6441SOL     OW20221   0.573   0.264   3.330
 6441SOL    HW120222   0.474   0.272   3.335
 6441SOL    HW220223   0.603   0.187   3.387
 6442SOL     OW20224   2.343   2.094   5.253
 6442SOL    HW120225   2.353   2.003   5.214
 6442SOL    HW220226   2.403   2.158   5.205
 6443SOL     OW20227   4.336   2.145   0.468
 6443SOL    HW120228   4.314   2.140   0.566
 6443SOL    HW220229   4.435   2.157   0.457
 6444SOL     OW20230   0.062   2.570   5.519
 6444SOL    HW120231   0.071   2.540   5.614
 6444SOL    HW220232   0.140   2.535   5.466
 6445SOL     OW20233   3.330   3.617   3.304
 6445SOL    HW120234   3.272   3.697   3.295
 6445SOL    HW220235   3.273   3.534   3.306
 6446SOL     OW20236   1.514   1.576   6.428
 6446SOL    HW120237   1.518   1.606   6.333
 6446SOL    HW220238   1.590   1.617   6.479
 6447SOL     OW20239   6.464   4.259   1.110
 6447SOL    HW120240   6.387   4.201   1.083
 6447SOL    HW220241   6.550   4.209   1.095
 6448SOL     OW20242   4.575   5.753   2.365
 6448SOL    HW120243   4.571   5.803   2.451
 6448SOL    HW220244   4.671   5.737   2.340
 6449SOL     OW20245   2.943   5.611   1.675
 6449SOL    HW120246   2.903   5.669   1.605
 6449SOL    HW220247   3.011   5.663   1.727
 6450SOL     OW20248   0.935   4.124   1.606
 6450SOL    HW120249   0.869   4.171   1.547
 6450SOL    HW220250   0.917   4.150   1.702
 6451SOL     OW20251   3.483   2.248   0.018
 6451SOL    HW120252   3.429   2.166   0.034
 6451SOL    HW220253   3.567   2.245   0.072
 6452SOL     OW20254   5.600   3.559   3.461
 6452SOL    HW120255   5.699   3.571   3.469
 6452SOL    HW220256   5.579   3.512   3.376
 6453SOL     OW20257   3.586   0.224   1.545
 6453SOL    HW120258   3.531   0.266   1.473
 6453SOL    HW220259   3.679   0.260   1.542
 6454SOL     OW20260   6.681   2.457   2.612
 6454SOL    HW120261   6.611   2.456   2.540
 6454SOL    HW220262   6.637   2.472   2.701
 6455SOL     OW20263   6.702   4.472   3.042
 6455SOL    HW120264   6.705   4.379   3.006
 6455SOL    HW220265   6.611   4.489   3.081
 6456SOL     OW20266   0.576   1.248   2.886
 6456SOL    HW120267   0.584   1.265   2.788
 6456SOL    HW220268   0.540   1.330   2.932
 6457SOL     OW20269   5.019   6.805   1.363
 6457SOL    HW120270   4.958   6.882   1.382
 6457SOL    HW220271   4.986   6.724   1.411
 6458SOL     OW20272   0.860   5.211   3.989
 6458SOL    HW120273   0.771   5.253   4.009
 6458SOL    HW220274   0.933   5.272   4.020
 6459SOL     OW20275   6.055   2.630   3.127
 6459SOL    HW120276   6.133   2.619   3.065
 6459SOL    HW220277   6.058   2.559   3.197
 6460SOL     OW20278   6.936   5.924   5.503
 6460SOL    HW120279   6.841   5.954   5.516
 6460SOL    HW220280   6.980   5.914   5.592
 6461SOL     OW20281   3.347   4.514   0.657
 6461SOL    HW120282   3.364   4.417   0.676
 6461SOL    HW220283   3.313   4.559   0.740
 6462SOL     OW20284   1.726   3.808   4.998
 6462SOL    HW120285   1.765   3.778   4.911
 6462SOL    HW220286   1.628   3.786   4.999
 6463SOL     OW20287   4.833   1.066   1.217
 6463SOL    HW120288   4.789   0.976   1.203
 6463SOL    HW220289   4.789   1.133   1.158
 6464SOL     OW20290   0.934   6.203   4.431
 6464SOL    HW120291   0.857   6.192   4.494
 6464SOL    HW220292   0.998   6.127   4.443
 6465SOL     OW20293   5.314   3.074   2.158
 6465SOL    HW120294   5.297   3.172   2.170
 6465SOL    HW220295   5.342   3.034   2.246
 6466SOL     OW20296   6.773   3.796   6.643
 6466SOL    HW120297   6.738   3.734   6.573
 6466SOL    HW220298   6.763   3.754   6.733
 6467SOL     OW20299   3.465   0.811   0.633
 6467SOL    HW120300   3.432   0.904   0.615
 6467SOL    HW220301   3.428   0.748   0.565
 6468SOL     OW20302   3.482   6.924   0.168
 6468SOL    HW120303   3.580   6.945   0.165
 6468SOL    HW220304   3.444   6.957   0.254
 6469SOL     OW20305   3.205   1.895   3.712
 6469SOL    HW120306   3.208   1.994   3.726
 6469SOL    HW220307   3.110   1.864   3.708
 6470SOL     OW20308   6.863   2.532   0.035
 6470SOL    HW120309   6.960   2.504   0.038
 6470SOL    HW220310   6.842   2.570   6.970
 6471SOL     OW20311   0.284   6.450   4.870
 6471SOL    HW120312   0.283   6.378   4.801
 6471SOL    HW220313   0.353   6.428   4.939
 6472SOL     OW20314   7.002   6.454   2.050
 6472SOL    HW120315   0.028   6.368   2.054
 6472SOL    HW220316   0.029   6.525   2.097
 6473SOL     OW20317   2.049   1.578   3.955
 6473SOL    HW120318   1.968   1.569   4.014
 6473SOL    HW220319   2.069   1.489   3.913
 6474SOL     OW20320   3.825   5.197   5.170
 6474SOL    HW120321   3.774   5.190   5.256
 6474SOL    HW220322   3.896   5.127   5.167
 6475SOL     OW20323   5.508   5.345   3.651
 6475SOL    HW120324   5.571   5.402   3.598
 6475SOL    HW220325   5.561   5.280   3.705
 6476SOL     OW20326   3.463   2.149   6.553
 6476SOL    HW120327   3.512   2.166   6.467
 6476SOL    HW220328   3.515   2.189   6.629
 6477SOL     OW20329   0.160   6.115   1.057
 6477SOL    HW120330   0.223   6.039   1.074
 6477SOL    HW220331   0.099   6.093   0.982
 6478SOL     OW20332   2.726   5.986   1.621
 6478SOL    HW120333   2.753   6.026   1.708
 6478SOL    HW220334   2.647   6.036   1.585
 6479SOL     OW20335   3.068   5.840   4.244
 6479SOL    HW120336   3.153   5.872   4.287
 6479SOL    HW220337   3.010   5.797   4.313
 6480SOL     OW20338   2.524   0.964   6.765
 6480SOL    HW120339   2.575   0.916   6.694
 6480SOL    HW220340   2.547   1.061   6.764
 6481SOL     OW20341   3.013   2.430   1.647
 6481SOL    HW120342   2.995   2.439   1.745
 6481SOL    HW220343   2.998   2.518   1.603
 6482SOL     OW20344   6.883   3.028   5.519
 6482SOL    HW120345   6.897   2.944   5.571
 6482SOL    HW220346   6.811   3.082   5.562
 6483SOL     OW20347   1.408   5.248   4.530
 6483SOL    HW120348   1.483   5.294   4.578
 6483SOL    HW220349   1.387   5.297   4.446
 6484SOL     OW20350   2.915   1.068   3.512
 6484SOL    HW120351   2.989   1.136   3.517
 6484SOL    HW220352   2.937   0.991   3.573
 6485SOL     OW20353   2.266   6.622   4.509
 6485SOL    HW120354   2.281   6.538   4.561
 6485SOL    HW220355   2.345   6.683   4.522
 6486SOL     OW20356   1.358   5.022   3.273
 6486SOL    HW120357   1.449   5.059   3.256
 6486SOL    HW220358   1.292   5.097   3.274
 6487SOL     OW20359   0.920   4.975   4.514
 6487SOL    HW120360   0.884   5.040   4.580
 6487SOL    HW220361   0.953   5.024   4.433
 6488SOL     OW20362   5.128   5.355   4.502
 6488SOL    HW120363   5.089   5.386   4.416
 6488SOL    HW220364   5.153   5.258   4.495
 6489SOL     OW20365   4.117   3.102   6.589
 6489SOL    HW120366   4.098   3.013   6.630
 6489SOL    HW220367   4.032   3.143   6.556
 6490SOL     OW20368   1.570   1.394   6.628
 6490SOL    HW120369   1.486   1.351   6.659
 6490SOL    HW220370   1.548   1.468   6.565
 6491SOL     OW20371   1.960   0.474   1.189
 6491SOL    HW120372   1.936   0.467   1.286
 6491SOL    HW220373   1.927   0.393   1.141
 6492SOL     OW20374   3.094   4.027   4.652
 6492SOL    HW120375   3.041   4.106   4.683
 6492SOL    HW220376   3.191   4.044   4.665
 6493SOL     OW20377   1.772   4.448   5.943
 6493SOL    HW120378   1.773   4.352   5.914
 6493SOL    HW220379   1.862   4.472   5.981
 6494SOL     OW20380   6.024   6.557   1.834
 6494SOL    HW120381   5.925   6.559   1.817
 6494SOL    HW220382   6.045   6.483   1.898
 6495SOL     OW20383   6.761   6.947   4.018
 6495SOL    HW120384   6.760   6.902   4.108
 6495SOL    HW220385   6.801   6.886   3.950
 6496SOL     OW20386   4.742   6.600   2.559
 6496SOL    HW120387   4.761   6.649   2.645
 6496SOL    HW220388   4.676   6.527   2.575
 6497SOL     OW20389   0.683   1.557   0.976
 6497SOL    HW120390   0.655   1.497   1.051
 6497SOL    HW220391   0.674   1.508   0.889
 6498SOL     OW20392   0.551   4.503   4.518
 6498SOL    HW120393   0.535   4.500   4.419
 6498SOL    HW220394   0.587   4.415   4.548
 6499SOL     OW20395   5.664   4.077   4.102
 6499SOL    HW120396   5.613   4.017   4.041
 6499SOL    HW220397   5.625   4.073   4.194
 6500SOL     OW20398   1.074   3.816   2.241
 6500SOL    HW120399   1.137   3.890   2.263
 6500SOL    HW220400   1.123   3.729   2.244
 6501SOL     OW20401   6.719   1.970   0.974
 6501SOL    HW120402   6.782   2.026   0.921
 6501SOL    HW220403   6.685   2.022   1.053
 6502SOL     OW20404   6.149   4.159   1.377
 6502SOL    HW120405   6.074   4.138   1.441
 6502SOL    HW220406   6.163   4.082   1.315
 6503SOL     OW20407   6.313   2.854   6.009
 6503SOL    HW120408   6.400   2.815   6.041
 6503SOL    HW220409   6.319   2.872   5.911
 6504SOL     OW20410   4.789   6.547   6.872
 6504SOL    HW120411   4.715   6.523   6.935
 6504SOL    HW220412   4.791   6.646   6.858
 6505SOL     OW20413   5.701   6.315   0.269
 6505SOL    HW120414   5.743   6.307   0.359
 6505SOL    HW220415   5.764   6.363   0.207
 6506SOL     OW20416   0.069   3.212   3.609
 6506SOL    HW120417   0.026   3.243   3.694
 6506SOL    HW220418   0.114   3.124   3.625
 6507SOL     OW20419   3.331   5.612   6.570
 6507SOL    HW120420   3.391   5.607   6.490
 6507SOL    HW220421   3.386   5.635   6.651
 6508SOL     OW20422   1.432   6.786   1.555
 6508SOL    HW120423   1.486   6.855   1.603
 6508SOL    HW220424   1.463   6.695   1.581
 6509SOL     OW20425   3.508   1.357   5.658
 6509SOL    HW120426   3.585   1.312   5.702
 6509SOL    HW220427   3.442   1.387   5.727
 6510SOL     OW20428   4.343   6.104   5.763
 6510SOL    HW120429   4.371   6.175   5.827
 6510SOL    HW220430   4.405   6.026   5.770
 6511SOL     OW20431   4.200   1.324   6.327
 6511SOL    HW120432   4.130   1.270   6.374
 6511SOL    HW220433   4.184   1.421   6.343
 6512SOL     OW20434   2.902   0.599   1.964
 6512SOL    HW120435   2.952   0.514   1.948
 6512SOL    HW220436   2.949   0.674   1.918
 6513SOL     OW20437   2.690   5.490   5.045
 6513SOL    HW120438   2.679   5.512   4.947
 6513SOL    HW220439   2.631   5.413   5.068
 6514SOL     OW20440   5.860   0.291   5.010
 6514SOL    HW120441   5.823   0.335   4.929
 6514SOL    HW220442   5.957   0.314   5.021
 6515SOL     OW20443   2.218   4.971   2.172
 6515SOL    HW120444   2.210   5.024   2.087
 6515SOL    HW220445   2.130   4.970   2.219
 6516SOL     OW20446   0.217   3.183   1.790
 6516SOL    HW120447   0.244   3.166   1.696
 6516SOL    HW220448   0.173   3.101   1.828
 6517SOL     OW20449   6.686   2.319   6.792
 6517SOL    HW120450   6.608   2.358   6.840
 6517SOL    HW220451   6.715   2.235   6.837
 6518SOL     OW20452   0.282   0.687   2.495
 6518SOL    HW120453   0.224   0.744   2.553
 6518SOL    HW220454   0.237   0.674   2.406
 6519SOL     OW20455   0.731   1.184   3.237
 6519SOL    HW120456   0.659   1.114   3.229
 6519SOL    HW220457   0.735   1.217   3.331
 6520SOL     OW20458   6.724   5.644   6.938
 6520SOL    HW120459   6.773   5.628   6.852
 6520SOL    HW220460   6.687   5.737   6.938
 6521SOL     OW20461   1.608   3.216   3.805
 6521SOL    HW120462   1.616   3.310   3.839
 6521SOL    HW220463   1.519   3.178   3.831
 6522SOL     OW20464   2.995   4.011   5.805
 6522SOL    HW120465   2.996   4.044   5.899
 6522SOL    HW220466   2.908   4.034   5.762
 6523SOL     OW20467   6.058   0.718   0.530
 6523SOL    HW120468   6.128   0.789   0.539
 6523SOL    HW220469   5.973   0.760   0.499
 6524SOL     OW20470   2.936   2.170   1.766
 6524SOL    HW120471   2.924   2.217   1.854
 6524SOL    HW220472   2.949   2.238   1.694
 6525SOL     OW20473   1.755   5.044   3.936
 6525SOL    HW120474   1.742   4.950   3.968
 6525SOL    HW220475   1.738   5.049   3.837
 6526SOL     OW20476   6.933   0.101   1.023
 6526SOL    HW120477   6.866   0.165   1.063
 6526SOL    HW220478   6.916   0.009   1.058
 6527SOL     OW20479   0.366   2.819   0.596
 6527SOL    HW120480   0.410   2.746   0.544
 6527SOL    HW220481   0.266   2.809   0.590
 6528SOL     OW20482   6.302   1.012   5.950
 6528SOL    HW120483   6.369   1.069   5.998
 6528SOL    HW220484   6.283   0.930   6.004
 6529SOL     OW20485   0.466   1.427   2.396
 6529SOL    HW120486   0.512   1.446   2.483
 6529SOL    HW220487   0.489   1.335   2.365
 6530SOL     OW20488   0.816   2.799   2.227
 6530SOL    HW120489   0.863   2.747   2.156
 6530SOL    HW220490   0.813   2.746   2.312
 6531SOL     OW20491   4.036   3.197   5.990
 6531SOL    HW120492   4.059   3.283   6.035
 6531SOL    HW220493   4.072   3.199   5.896
 6532SOL     OW20494   1.716   0.629   1.061
 6532SOL    HW120495   1.753   0.537   1.046
 6532SOL    HW220496   1.791   0.694   1.073
 6533SOL     OW20497   4.351   4.833   0.006
 6533SOL    HW120498   4.315   4.895   6.961
 6533SOL    HW220499   4.359   4.741   6.993
 6534SOL     OW20500   5.870   4.609   1.971
 6534SOL    HW120501   5.857   4.564   2.059
 6534SOL    HW220502   5.797   4.675   1.955
 6535SOL     OW20503   5.510   3.806   4.598
 6535SOL    HW120504   5.606   3.792   4.625
 6535SOL    HW220505   5.462   3.856   4.671
 6536SOL     OW20506   0.465   2.298   5.691
 6536SOL    HW120507   0.519   2.379   5.670
 6536SOL    HW220508   0.447   2.247   5.606
 6537SOL     OW20509   5.948   4.506   5.194
 6537SOL    HW120510   5.967   4.472   5.286
 6537SOL    HW220511   5.916   4.430   5.137
 6538SOL     OW20512   2.383   3.716   5.329
 6538SOL    HW120513   2.359   3.628   5.288
 6538SOL    HW220514   2.387   3.786   5.257
 6539SOL     OW20515   5.695   0.993   6.761
 6539SOL    HW120516   5.612   0.955   6.718
 6539SOL    HW220517   5.671   1.034   6.848
 6540SOL     OW20518   3.235   2.383   5.537
 6540SOL    HW120519   3.273   2.474   5.555
 6540SOL    HW220520   3.157   2.391   5.475
 6541SOL     OW20521   5.682   2.339   5.494
 6541SOL    HW120522   5.751   2.291   5.441
 6541SOL    HW220523   5.592   2.326   5.452
 6542SOL     OW20524   1.465   3.698   4.917
 6542SOL    HW120525   1.479   3.781   4.864
 6542SOL    HW220526   1.436   3.624   4.857
 6543SOL     OW20527   3.524   2.094   5.010
 6543SOL    HW120528   3.601   2.107   5.073
 6543SOL    HW220529   3.438   2.095   5.061
 6544SOL     OW20530   0.393   7.019   2.232
 6544SOL    HW120531   0.409   6.933   2.280
 6544SOL    HW220532   0.460   0.004   2.158
 6545SOL     OW20533   4.445   6.632   1.263
 6545SOL    HW120534   4.500   6.658   1.343
 6545SOL    HW220535   4.349   6.622   1.289
 6546SOL     OW20536   4.820   4.548   6.553
 6546SOL    HW120537   4.867   4.636   6.548
 6546SOL    HW220538   4.731   4.555   6.508
 6547SOL     OW20539   5.277   6.706   6.688
 6547SOL    HW120540   5.178   6.722   6.695
 6547SOL    HW220541   5.304   6.635   6.753
 6548SOL     OW20542   0.849   2.505   6.182
 6548SOL    HW120543   0.760   2.513   6.137
 6548SOL    HW220544   0.836   2.512   6.281
 6549SOL     OW20545   4.764   0.198   1.711
 6549SOL    HW120546   4.844   0.138   1.712
 6549SOL    HW220547   4.689   0.155   1.761
 6550SOL     OW20548   6.372   0.153   3.184
 6550SOL    HW120549   6.427   0.073   3.208
 6550SOL    HW220550   6.426   0.236   3.200
 6551SOL     OW20551   2.859   3.517   1.682
 6551SOL    HW120552   2.836   3.574   1.604
 6551SOL    HW220553   2.907   3.435   1.651
 6552SOL     OW20554   1.601   6.498   0.293
 6552SOL    HW120555   1.651   6.412   0.301
 6552SOL    HW220556   1.665   6.573   0.275
 6553SOL     OW20557   0.338   1.767   2.929
 6553SOL    HW120558   0.360   1.863   2.916
 6553SOL    HW220559   0.284   1.734   2.851
 6554SOL     OW20560   2.832   1.174   4.733
 6554SOL    HW120561   2.918   1.157   4.685
 6554SOL    HW220562   2.833   1.128   4.821
 6555SOL     OW20563   6.882   1.897   4.343
 6555SOL    HW120564   6.896   1.930   4.436
 6555SOL    HW220565   6.869   1.975   4.282
 6556SOL     OW20566   6.016   3.317   2.819
 6556SOL    HW120567   6.080   3.241   2.831
 6556SOL    HW220568   6.042   3.370   2.739
 6557SOL     OW20569   1.578   0.038   2.574
 6557SOL    HW120570   1.599   0.134   2.591
 6557SOL    HW220571   1.569   0.022   2.476
 6558SOL     OW20572   5.849   5.150   6.989
 6558SOL    HW120573   5.886   5.226   6.935
 6558SOL    HW220574   5.800   5.088   6.927
 6559SOL     OW20575   0.142   3.736   6.918
 6559SOL    HW120576   0.066   3.701   6.862
 6559SOL    HW220577   0.193   3.659   6.956
 6560SOL     OW20578   3.956   4.517   0.491
 6560SOL    HW120579   3.969   4.444   0.424
 6560SOL    HW220580   3.913   4.595   0.447
 6561SOL     OW20581   4.130   4.618   0.107
 6561SOL    HW120582   4.049   4.560   0.105
 6561SOL    HW220583   4.108   4.706   0.150
 6562SOL     OW20584   5.633   2.684   0.731
 6562SOL    HW120585   5.569   2.708   0.658
 6562SOL    HW220586   5.583   2.640   0.806
 6563SOL     OW20587   5.238   0.573   5.903
 6563SOL    HW120588   5.248   0.477   5.877
 6563SOL    HW220589   5.202   0.578   5.997
 6564SOL     OW20590   6.454   4.293   2.350
 6564SOL    HW120591   6.422   4.199   2.335
 6564SOL    HW220592   6.524   4.315   2.281
 6565SOL     OW20593   6.043   6.770   2.580
 6565SOL    HW120594   6.131   6.792   2.537
 6565SOL    HW220595   6.014   6.846   2.637
 6566SOL     OW20596   3.564   5.292   2.114
 6566SOL    HW120597   3.618   5.252   2.040
 6566SOL    HW220598   3.525   5.219   2.170
 6567SOL     OW20599   4.288   0.895   1.535
 6567SOL    HW120600   4.336   0.819   1.491
 6567SOL    HW220601   4.263   0.870   1.628
 6568SOL     OW20602   4.235   1.250   2.118
 6568SOL    HW120603   4.231   1.203   2.030
 6568SOL    HW220604   4.150   1.234   2.168
 6569SOL     OW20605   0.589   2.904   6.232
 6569SOL    HW120606   0.594   3.001   6.255
 6569SOL    HW220607   0.634   2.850   6.303
 6570SOL     OW20608   4.034   0.694   2.551
 6570SOL    HW120609   4.065   0.602   2.526
 6570SOL    HW220610   4.108   0.759   2.534
 6571SOL     OW20611   2.251   5.133   3.340
 6571SOL    HW120612   2.344   5.160   3.365
 6571SOL    HW220613   2.190   5.212   3.345
 6572SOL     OW20614   0.371   4.155   4.115
 6572SOL    HW120615   0.426   4.177   4.195
 6572SOL    HW220616   0.417   4.187   4.033
 6573SOL     OW20617   1.859   0.808   3.103
 6573SOL    HW120618   1.780   0.757   3.139
 6573SOL    HW220619   1.893   0.870   3.174
 6574SOL     OW20620   2.452   6.454   3.445
 6574SOL    HW120621   2.546   6.487   3.449
 6574SOL    HW220622   2.405   6.496   3.367
 6575SOL     OW20623   0.156   6.961   2.866
 6575SOL    HW120624   0.141   6.868   2.899
 6575SOL    HW220625   0.123   0.002   2.934
 6576SOL     OW20626   3.352   4.915   0.308
 6576SOL    HW120627   3.390   4.833   0.265
 6576SOL    HW220628   3.375   4.915   0.405
 6577SOL     OW20629   1.931   2.668   3.372
 6577SOL    HW120630   1.879   2.631   3.449
 6577SOL    HW220631   1.990   2.742   3.403
 6578SOL     OW20632   1.237   5.692   1.462
 6578SOL    HW120633   1.148   5.646   1.458
 6578SOL    HW220634   1.295   5.647   1.530
 6579SOL     OW20635   0.476   1.910   4.430
 6579SOL    HW120636   0.398   1.966   4.399
 6579SOL    HW220637   0.508   1.945   4.518
 6580SOL     OW20638   1.015   0.266   0.534
 6580SOL    HW120639   1.095   0.325   0.519
 6580SOL    HW220640   1.002   0.207   0.454
 6581SOL     OW20641   1.528   0.937   0.801
 6581SOL    HW120642   1.499   0.974   0.713
 6581SOL    HW220643   1.603   0.873   0.787
 6582SOL     OW20644   0.079   0.457   2.990
 6582SOL    HW120645   0.168   0.497   2.968
 6582SOL    HW220646   0.008   0.527   2.980
 6583SOL     OW20647   4.668   6.631   5.727
 6583SOL    HW120648   4.710   6.553   5.679
 6583SOL    HW220649   4.682   6.714   5.673
 6584SOL     OW20650   3.705   2.264   0.912
 6584SOL    HW120651   3.733   2.202   0.986
 6584SOL    HW220652   3.786   2.303   0.869
 6585SOL     OW20653   6.628   7.002   0.759
 6585SOL    HW120654   6.629   6.938   0.836
 6585SOL    HW220655   6.703   0.043   0.770
 6586SOL     OW20656   6.605   1.806   5.892
 6586SOL    HW120657   6.574   1.714   5.918
 6586SOL    HW220658   6.705   1.810   5.897
 6587SOL     OW20659   1.764   4.185   5.984
 6587SOL    HW120660   1.738   4.121   5.912
 6587SOL    HW220661   1.724   4.156   6.071
 6588SOL     OW20662   0.429   3.227   0.489
 6588SOL    HW120663   0.516   3.189   0.457
 6588SOL    HW220664   0.401   3.180   0.573
 6589SOL     OW20665   5.727   0.893   1.639
 6589SOL    HW120666   5.655   0.827   1.664
 6589SOL    HW220667   5.711   0.925   1.546
 6590SOL     OW20668   0.690   0.419   4.356
 6590SOL    HW120669   0.772   0.365   4.337
 6590SOL    HW220670   0.645   0.443   4.270
 6591SOL     OW20671   4.917   5.510   4.316
 6591SOL    HW120672   4.950   5.599   4.284
 6591SOL    HW220673   4.959   5.438   4.261
 6592SOL     OW20674   5.027   0.241   3.268
 6592SOL    HW120675   5.009   0.161   3.211
 6592SOL    HW220676   4.956   0.309   3.253
 6593SOL     OW20677   2.896   2.199   2.305
 6593SOL    HW120678   2.902   2.255   2.388
 6593SOL    HW220679   2.887   2.259   2.225
 6594SOL     OW20680   3.582   1.930   6.045
 6594SOL    HW120681   3.642   1.851   6.035
 6594SOL    HW220682   3.493   1.900   6.080
 6595SOL     OW20683   1.511   2.349   4.583
 6595SOL    HW120684   1.578   2.281   4.611
 6595SOL    HW220685   1.499   2.345   4.483
 6596SOL     OW20686   4.492   5.897   3.343
 6596SOL    HW120687   4.545   5.973   3.305
 6596SOL    HW220688   4.405   5.931   3.379
 6597SOL     OW20689   1.230   5.074   1.751
 6597SOL    HW120690   1.241   5.032   1.661
 6597SOL    HW220691   1.253   5.008   1.822
 6598SOL     OW20692   1.811   4.384   3.723
 6598SOL    HW120693   1.802   4.428   3.812
 6598SOL    HW220694   1.896   4.331   3.720
 6599SOL     OW20695   5.623   5.717   6.824
 6599SOL    HW120696   5.654   5.678   6.911
 6599SOL    HW220697   5.586   5.644   6.766
 6600SOL     OW20698   4.517   0.011   4.913
 6600SOL    HW120699   4.511   0.107   4.885
 6600SOL    HW220700   4.426   6.994   4.906
 6601SOL     OW20701   0.846   2.843   2.961
 6601SOL    HW120702   0.890   2.931   2.941
 6601SOL    HW220703   0.883   2.806   3.046
 6602SOL     OW20704   2.736   0.346   1.155
 6602SOL    HW120705   2.676   0.298   1.091
 6602SOL    HW220706   2.804   0.282   1.191
 6603SOL     OW20707   0.741   3.222   3.677
 6603SOL    HW120708   0.791   3.136   3.687
 6603SOL    HW220709   0.720   3.236   3.580
 6604SOL     OW20710   2.497   0.321   1.894
 6604SOL    HW120711   2.586   0.302   1.852
 6604SOL    HW220712   2.510   0.371   1.979
 6605SOL     OW20713   6.220   5.475   1.877
 6605SOL    HW120714   6.234   5.431   1.788
 6605SOL    HW220715   6.216   5.406   1.948
 6606SOL     OW20716   0.928   3.779   2.960
 6606SOL    HW120717   0.840   3.773   3.007
 6606SOL    HW220718   0.975   3.863   2.987
 6607SOL     OW20719   6.092   4.929   3.751
 6607SOL    HW120720   6.190   4.934   3.735
 6607SOL    HW220721   6.061   4.834   3.744
 6608SOL     OW20722   6.765   0.376   0.218
 6608SOL    HW120723   6.690   0.364   0.152
 6608SOL    HW220724   6.853   0.368   0.171
 6609SOL     OW20725   4.468   1.370   6.369
 6609SOL    HW120726   4.369   1.364   6.380
 6609SOL    HW220727   4.488   1.416   6.282
 6610SOL     OW20728   2.035   6.042   0.105
 6610SOL    HW120729   2.018   6.102   0.027
 6610SOL    HW220730   2.127   6.059   0.141
 6611SOL     OW20731   5.589   2.321   4.025
 6611SOL    HW120732   5.623   2.319   3.931
 6611SOL    HW220733   5.524   2.246   4.038
 6612SOL     OW20734   6.468   1.725   6.179
 6612SOL    HW120735   6.551   1.780   6.192
 6612SOL    HW220736   6.452   1.670   6.261
 6613SOL     OW20737   5.615   0.381   6.278
 6613SOL    HW120738   5.695   0.441   6.280
 6613SOL    HW220739   5.532   0.435   6.290
 6614SOL     OW20740   4.527   6.369   1.309
 6614SOL    HW120741   4.481   6.448   1.267
 6614SOL    HW220742   4.623   6.392   1.327
 6615SOL     OW20743   2.416   5.579   0.469
 6615SOL    HW120744   2.383   5.658   0.418
 6615SOL    HW220745   2.498   5.604   0.522
 6616SOL     OW20746   4.010   6.739   6.577
 6616SOL    HW120747   3.981   6.762   6.484
 6616SOL    HW220748   4.071   6.809   6.611
 6617SOL     OW20749   4.232   6.942   3.500
 6617SOL    HW120750   4.158   6.878   3.521
 6617SOL    HW220751   4.194   0.010   3.495
 6618SOL     OW20752   0.816   1.312   2.997
 6618SOL    HW120753   0.791   1.269   3.084
 6618SOL    HW220754   0.740   1.302   2.933
 6619SOL     OW20755   4.562   6.567   4.033
 6619SOL    HW120756   4.515   6.541   4.117
 6619SOL    HW220757   4.498   6.612   3.972
 6620SOL     OW20758   1.570   3.867   3.323
 6620SOL    HW120759   1.494   3.930   3.337
 6620SOL    HW220760   1.654   3.919   3.305
 6621SOL     OW20761   3.762   3.193   5.062
 6621SOL    HW120762   3.844   3.153   5.020
 6621SOL    HW220763   3.698   3.220   4.990
 6622SOL     OW20764   6.138   5.446   1.392
 6622SOL    HW120765   6.178   5.386   1.323
 6622SOL    HW220766   6.099   5.390   1.466
 6623SOL     OW20767   3.578   3.936   4.984
 6623SOL    HW120768   3.617   3.866   4.923
 6623SOL    HW220769   3.634   4.018   4.979
 6624SOL     OW20770   0.849   3.080   4.707
 6624SOL    HW120771   0.942   3.044   4.712
 6624SOL    HW220772   0.849   3.176   4.735
 6625SOL     OW20773   6.342   2.746   5.426
 6625SOL    HW120774   6.282   2.677   5.465
 6625SOL    HW220775   6.310   2.771   5.335
 6626SOL     OW20776   3.392   6.988   5.035
 6626SOL    HW120777   3.434   0.016   5.109
 6626SOL    HW220778   3.340   0.024   4.976
 6627SOL     OW20779   1.863   5.935   4.271
 6627SOL    HW120780   1.865   5.849   4.321
 6627SOL    HW220781   1.930   5.934   4.197
 6628SOL     OW20782   5.669   5.633   4.292
 6628SOL    HW120783   5.576   5.597   4.288
 6628SOL    HW220784   5.709   5.631   4.200
 6629SOL     OW20785   4.897   5.413   6.915
 6629SOL    HW120786   4.934   5.479   6.981
 6629SOL    HW220787   4.878   5.459   6.828
 6630SOL     OW20788   3.800   1.692   1.555
 6630SOL    HW120789   3.765   1.602   1.530
 6630SOL    HW220790   3.726   1.747   1.594
 6631SOL     OW20791   1.708   5.647   5.299
 6631SOL    HW120792   1.777   5.677   5.365
 6631SOL    HW220793   1.726   5.553   5.271
 6632SOL     OW20794   0.996   0.819   1.248
 6632SOL    HW120795   0.993   0.731   1.201
 6632SOL    HW220796   1.021   0.891   1.182
 6633SOL     OW20797   3.323   4.999   6.236
 6633SOL    HW120798   3.409   4.973   6.282
 6633SOL    HW220799   3.277   4.916   6.205
 6634SOL     OW20800   5.019   2.171   5.398
 6634SOL    HW120801   5.006   2.110   5.476
 6634SOL    HW220802   4.942   2.162   5.334
 6635SOL     OW20803   4.715   4.191   2.438
 6635SOL    HW120804   4.802   4.162   2.480
 6635SOL    HW220805   4.693   4.130   2.363
 6636SOL     OW20806   3.030   0.685   2.328
 6636SOL    HW120807   2.942   0.703   2.284
 6636SOL    HW220808   3.067   0.770   2.365
 6637SOL     OW20809   2.354   0.349   0.458
 6637SOL    HW120810   2.436   0.292   0.452
 6637SOL    HW220811   2.282   0.310   0.400
 6638SOL     OW20812   3.114   3.415   3.436
 6638SOL    HW120813   3.054   3.399   3.357
 6638SOL    HW220814   3.082   3.361   3.514
 6639SOL     OW20815   3.978   3.247   0.053
 6639SOL    HW120816   3.923   3.327   0.030
 6639SOL    HW220817   4.024   3.213   6.995
 6640SOL     OW20818   0.141   2.245   5.445
 6640SOL    HW120819   0.172   2.168   5.389
 6640SOL    HW220820   0.217   2.306   5.464
 6641SOL     OW20821   3.578   1.899   1.171
 6641SOL    HW120822   3.519   1.878   1.093
 6641SOL    HW220823   3.634   1.819   1.192
 6642SOL     OW20824   1.793   5.284   6.989
 6642SOL    HW120825   1.821   5.361   6.931
 6642SOL    HW220826   1.827   5.199   6.948
 6643SOL     OW20827   6.031   6.540   0.506
 6643SOL    HW120828   6.001   6.596   0.428
 6643SOL    HW220829   6.013   6.589   0.591
 6644SOL     OW20830   1.767   6.293   2.856
 6644SOL    HW120831   1.676   6.335   2.848
 6644SOL    HW220832   1.825   6.326   2.782
 6645SOL     OW20833   5.935   2.740   1.246
 6645SOL    HW120834   5.901   2.732   1.339
 6645SOL    HW220835   5.862   2.715   1.182
 6646SOL     OW20836   4.096   0.835   6.441
 6646SOL    HW120837   4.157   0.797   6.371
 6646SOL    HW220838   4.001   0.822   6.413
 6647SOL     OW20839   4.327   5.841   1.338
 6647SOL    HW120840   4.408   5.795   1.303
 6647SOL    HW220841   4.346   5.939   1.346
 6648SOL     OW20842   3.801   5.674   4.696
 6648SOL    HW120843   3.830   5.589   4.739
 6648SOL    HW220844   3.875   5.709   4.639
 6649SOL     OW20845   5.769   2.958   6.398
 6649SOL    HW120846   5.790   3.056   6.405
 6649SOL    HW220847   5.684   2.946   6.347
 6650SOL     OW20848   3.963   0.901   4.713
 6650SOL    HW120849   3.917   0.835   4.653
 6650SOL    HW220850   3.983   0.985   4.662
 6651SOL     OW20851   1.454   1.869   6.911
 6651SOL    HW120852   1.466   1.910   7.001
 6651SOL    HW220853   1.412   1.778   6.921
 6652SOL     OW20854   0.920   4.375   0.088
 6652SOL    HW120855   0.923   4.444   0.015
 6652SOL    HW220856   0.840   4.392   0.147
 6653SOL     OW20857   5.188   2.782   0.598
 6653SOL    HW120858   5.144   2.773   0.509
 6653SOL    HW220859   5.179   2.697   0.649
 6654SOL     OW20860   0.151   5.193   2.783
 6654SOL    HW120861   0.076   5.134   2.814
 6654SOL    HW220862   0.219   5.201   2.856
 6655SOL     OW20863   0.139   6.238   2.089
 6655SOL    HW120864   0.075   6.163   2.073
 6655SOL    HW220865   0.192   6.255   2.006
 6656SOL     OW20866   4.571   1.972   2.980
 6656SOL    HW120867   4.553   1.938   2.887
 6656SOL    HW220868   4.634   2.050   2.974
 6657SOL     OW20869   5.462   2.272   4.943
 6657SOL    HW120870   5.472   2.299   5.039
 6657SOL    HW220871   5.368   2.288   4.913
 6658SOL     OW20872   6.727   0.448   5.501
 6658SOL    HW120873   6.776   0.535   5.497
 6658SOL    HW220874   6.635   0.461   5.465
 6659SOL     OW20875   1.194   4.582   1.401
 6659SOL    HW120876   1.166   4.642   1.326
 6659SOL    HW220877   1.114   4.540   1.442
 6660SOL     OW20878   1.549   5.230   2.123
 6660SOL    HW120879   1.504   5.233   2.034
 6660SOL    HW220880   1.646   5.253   2.111
 6661SOL     OW20881   2.450   0.322   4.520
 6661SOL    HW120882   2.386   0.335   4.595
 6661SOL    HW220883   2.536   0.284   4.556
 6662SOL     OW20884   2.111   0.438   1.458
 6662SOL    HW120885   2.182   0.457   1.390
 6662SOL    HW220886   2.111   0.510   1.527
 6663SOL     OW20887   1.120   6.189   5.396
 6663SOL    HW120888   1.104   6.090   5.396
 6663SOL    HW220889   1.181   6.214   5.472
 6664SOL     OW20890   2.642   0.575   1.798
 6664SOL    HW120891   2.587   0.655   1.824
 6664SOL    HW220892   2.715   0.562   1.866
 6665SOL     OW20893   2.107   6.157   5.950
 6665SOL    HW120894   2.098   6.093   5.874
 6665SOL    HW220895   2.200   6.196   5.950
 6666SOL     OW20896   6.909   5.792   5.007
 6666SOL    HW120897   6.936   5.715   4.949
 6666SOL    HW220898   6.809   5.795   5.015
 6667SOL     OW20899   6.788   6.530   5.983
 6667SOL    HW120900   6.750   6.498   5.896
 6667SOL    HW220901   6.713   6.545   6.047
 6668SOL     OW20902   6.753   6.209   1.103
 6668SOL    HW120903   6.841   6.249   1.129
 6668SOL    HW220904   6.754   6.187   1.006
 6669SOL     OW20905   3.565   1.858   1.632
 6669SOL    HW120906   3.567   1.907   1.545
 6669SOL    HW220907   3.579   1.922   1.707
 6670SOL     OW20908   3.054   1.443   6.851
 6670SOL    HW120909   3.093   1.370   6.796
 6670SOL    HW220910   3.085   1.532   6.816
 6671SOL     OW20911   4.786   6.711   1.007
 6671SOL    HW120912   4.688   6.703   0.992
 6671SOL    HW220913   4.824   6.621   1.029
 6672SOL     OW20914   1.705   2.389   0.252
 6672SOL    HW120915   1.676   2.484   0.242
 6672SOL    HW220916   1.624   2.329   0.248
 6673SOL     OW20917   5.057   3.937   4.039
 6673SOL    HW120918   4.990   3.885   4.092
 6673SOL    HW220919   5.147   3.926   4.080
 6674SOL     OW20920   0.332   2.950   6.559
 6674SOL    HW120921   0.314   3.048   6.573
 6674SOL    HW220922   0.263   2.913   6.496
 6675SOL     OW20923   4.559   2.299   6.793
 6675SOL    HW120924   4.478   2.267   6.746
 6675SOL    HW220925   4.626   2.225   6.798
 6676SOL     OW20926   1.526   4.204   2.907
 6676SOL    HW120927   1.482   4.185   2.819
 6676SOL    HW220928   1.507   4.130   2.971
 6677SOL     OW20929   0.759   0.670   6.837
 6677SOL    HW120930   0.833   0.728   6.871
 6677SOL    HW220931   0.723   0.707   6.751
 6678SOL     OW20932   1.692   3.999   0.773
 6678SOL    HW120933   1.742   3.930   0.722
 6678SOL    HW220934   1.594   3.990   0.756
 6679SOL     OW20935   3.465   0.771   4.234
 6679SOL    HW120936   3.443   0.807   4.143
 6679SOL    HW220937   3.545   0.819   4.270
 6680SOL     OW20938   4.686   6.417   0.074
 6680SOL    HW120939   4.702   6.323   0.041
 6680SOL    HW220940   4.624   6.414   0.153
 6681SOL     OW20941   4.962   5.653   2.167
 6681SOL    HW120942   4.900   5.638   2.090
 6681SOL    HW220943   4.945   5.743   2.207
 6682SOL     OW20944   2.518   4.887   6.685
 6682SOL    HW120945   2.587   4.823   6.719
 6682SOL    HW220946   2.560   4.947   6.618
 6683SOL     OW20947   6.156   3.324   5.684
 6683SOL    HW120948   6.075   3.285   5.729
 6683SOL    HW220949   6.238   3.279   5.720
 6684SOL     OW20950   3.526   6.659   2.379
 6684SOL    HW120951   3.525   6.708   2.292
 6684SOL    HW220952   3.620   6.653   2.413
 6685SOL     OW20953   4.570   2.975   6.245
 6685SOL    HW120954   4.590   2.997   6.340
 6685SOL    HW220955   4.541   3.057   6.196
 6686SOL     OW20956   6.215   5.749   3.372
 6686SOL    HW120957   6.190   5.652   3.370
 6686SOL    HW220958   6.174   5.795   3.294
 6687SOL     OW20959   0.575   2.206   1.339
 6687SOL    HW120960   0.568   2.225   1.437
 6687SOL    HW220961   0.671   2.203   1.312
 6688SOL     OW20962   3.952   4.018   0.665
 6688SOL    HW120963   3.921   4.112   0.651
 6688SOL    HW220964   4.034   4.018   0.723
 6689SOL     OW20965   4.284   4.022   5.915
 6689SOL    HW120966   4.334   3.945   5.954
 6689SOL    HW220967   4.264   4.089   5.987
 6690SOL     OW20968   1.322   6.685   6.606
 6690SOL    HW120969   1.373   6.609   6.647
 6690SOL    HW220970   1.294   6.659   6.513
 6691SOL     OW20971   1.501   0.421   2.664
 6691SOL    HW120972   1.532   0.433   2.570
 6691SOL    HW220973   1.558   0.476   2.725
 6692SOL     OW20974   4.163   3.890   1.831
 6692SOL    HW120975   4.147   3.799   1.870
 6692SOL    HW220976   4.203   3.949   1.901
 6693SOL     OW20977   4.490   1.673   4.662
 6693SOL    HW120978   4.480   1.583   4.619
 6693SOL    HW220979   4.451   1.743   4.602
 6694SOL     OW20980   4.069   5.525   1.408
 6694SOL    HW120981   4.130   5.584   1.460
 6694SOL    HW220982   3.982   5.516   1.456
 6695SOL     OW20983   2.660   1.823   0.004
 6695SOL    HW120984   2.602   1.812   0.084
 6695SOL    HW220985   2.653   1.743   6.970
 6696SOL     OW20986   3.988   3.899   3.993
 6696SOL    HW120987   4.067   3.839   4.003
 6696SOL    HW220988   3.973   3.950   4.078
 6697SOL     OW20989   5.010   2.786   2.442
 6697SOL    HW120990   5.064   2.869   2.428
 6697SOL    HW220991   4.925   2.792   2.390
 6698SOL     OW20992   2.972   3.505   1.337
 6698SOL    HW120993   2.978   3.587   1.279
 6698SOL    HW220994   3.063   3.483   1.373
 6699SOL     OW20995   1.908   5.743   5.928
 6699SOL    HW120996   1.871   5.678   5.861
 6699SOL    HW220997   1.996   5.709   5.961
 6700SOL     OW20998   5.850   0.675   0.854
 6700SOL    HW120999   5.856   0.592   0.909
 6700SOL    HW221000   5.933   0.685   0.799
 6701SOL     OW21001   5.632   6.731   1.747
 6701SOL    HW121002   5.693   6.810   1.747
 6701SOL    HW221003   5.551   6.752   1.691
 6702SOL     OW21004   2.294   2.208   1.897
 6702SOL    HW121005   2.203   2.200   1.939
 6702SOL    HW221006   2.315   2.304   1.881
 6703SOL     OW21007   0.987   0.994   6.661
 6703SOL    HW121008   1.043   1.055   6.606
 6703SOL    HW221009   0.961   1.040   6.746
 6704SOL     OW21010   3.929   1.323   4.299
 6704SOL    HW121011   3.887   1.390   4.237
 6704SOL    HW221012   4.023   1.306   4.270
 6705SOL     OW21013   5.717   2.900   0.903
 6705SOL    HW121014   5.695   2.842   0.824
 6705SOL    HW221015   5.707   2.846   0.987
 6706SOL     OW21016   1.137   5.978   0.525
 6706SOL    HW121017   1.150   6.040   0.603
 6706SOL    HW221018   1.227   5.956   0.485
 6707SOL     OW21019   5.208   0.056   2.591
 6707SOL    HW121020   5.161   0.060   2.503
 6707SOL    HW221021   5.306   0.065   2.577
 6708SOL     OW21022   6.120   4.997   1.658
 6708SOL    HW121023   6.023   5.017   1.649
 6708SOL    HW221024   6.150   4.940   1.582
 6709SOL     OW21025   0.879   4.369   2.711
 6709SOL    HW121026   0.921   4.363   2.620
 6709SOL    HW221027   0.865   4.277   2.747
 6710SOL     OW21028   4.729   1.413   1.834
 6710SOL    HW121029   4.685   1.486   1.782
 6710SOL    HW221030   4.660   1.363   1.886
 6711SOL     OW21031   4.510   6.476   5.899
 6711SOL    HW121032   4.525   6.378   5.892
 6711SOL    HW221033   4.583   6.525   5.851
 6712SOL     OW21034   6.099   3.515   0.930
 6712SOL    HW121035   6.153   3.597   0.910
 6712SOL    HW221036   6.077   3.468   0.845
 6713SOL     OW21037   1.174   1.733   3.451
 6713SOL    HW121038   1.119   1.811   3.421
 6713SOL    HW221039   1.117   1.651   3.453
 6714SOL     OW21040   5.600   1.130   0.944
 6714SOL    HW121041   5.686   1.082   0.924
 6714SOL    HW221042   5.533   1.111   0.873
 6715SOL     OW21043   1.531   1.251   1.598
 6715SOL    HW121044   1.556   1.323   1.662
 6715SOL    HW221045   1.613   1.202   1.569
 6716SOL     OW21046   6.490   6.200   2.429
 6716SOL    HW121047   6.582   6.198   2.468
 6716SOL    HW221048   6.423   6.208   2.503
 6717SOL     OW21049   2.730   2.108   6.332
 6717SOL    HW121050   2.760   2.013   6.319
 6717SOL    HW221051   2.791   2.170   6.283
 6718SOL     OW21052   4.394   1.366   0.917
 6718SOL    HW121053   4.389   1.317   1.004
 6718SOL    HW221054   4.333   1.445   0.919
 6719SOL     OW21055   1.795   6.697   0.323
 6719SOL    HW121056   1.791   6.783   0.272
 6719SOL    HW221057   1.876   6.697   0.382
 6720SOL     OW21058   2.848   0.857   4.899
 6720SOL    HW121059   2.806   0.857   4.990
 6720SOL    HW221060   2.926   0.919   4.899
 6721SOL     OW21061   6.872   0.095   0.782
 6721SOL    HW121062   6.937   0.037   0.733
 6721SOL    HW221063   6.907   0.114   0.874
 6722SOL     OW21064   0.461   2.597   0.482
 6722SOL    HW121065   0.375   2.555   0.454
 6722SOL    HW221066   0.534   2.568   0.420
 6723SOL     OW21067   1.939   0.187   6.910
 6723SOL    HW121068   1.985   0.125   6.846
 6723SOL    HW221069   1.989   0.189   6.997
 6724SOL     OW21070   2.631   2.697   6.416
 6724SOL    HW121071   2.535   2.681   6.438
 6724SOL    HW221072   2.638   2.767   6.345
 6725SOL     OW21073   6.203   3.144   2.623
 6725SOL    HW121074   6.174   3.049   2.609
 6725SOL    HW221075   6.181   3.197   2.541
 6726SOL     OW21076   0.426   2.063   4.707
 6726SOL    HW121077   0.392   2.157   4.698
 6726SOL    HW221078   0.349   2.000   4.710
 6727SOL     OW21079   0.887   4.153   5.770
 6727SOL    HW121080   0.942   4.086   5.820
 6727SOL    HW221081   0.798   4.113   5.747
 6728SOL     OW21082   3.709   1.640   3.573
 6728SOL    HW121083   3.661   1.570   3.520
 6728SOL    HW221084   3.724   1.720   3.517
 6729SOL     OW21085   6.732   2.136   6.983
 6729SOL    HW121086   6.782   2.190   0.026
 6729SOL    HW221087   6.682   2.063   0.004
 6730SOL     OW21088   1.816   0.545   1.442
 6730SOL    HW121089   1.772   0.632   1.419
 6730SOL    HW221090   1.879   0.559   1.519
 6731SOL     OW21091   1.493   6.518   1.201
 6731SOL    HW121092   1.565   6.486   1.139
 6731SOL    HW221093   1.477   6.449   1.271
 6732SOL     OW21094   5.200   4.385   4.399
 6732SOL    HW121095   5.251   4.326   4.462
 6732SOL    HW221096   5.235   4.373   4.306
 6733SOL     OW21097   4.005   5.417   6.529
 6733SOL    HW121098   3.948   5.424   6.611
 6733SOL    HW221099   4.089   5.469   6.542
 6734SOL     OW21100   5.455   2.272   5.775
 6734SOL    HW121101   5.443   2.370   5.793
 6734SOL    HW221102   5.401   2.246   5.696
 6735SOL     OW21103   6.010   3.917   3.975
 6735SOL    HW121104   6.005   3.908   3.876
 6735SOL    HW221105   6.017   4.014   4.000
 6736SOL     OW21106   3.194   4.068   6.789
 6736SOL    HW121107   3.153   4.135   6.727
 6736SOL    HW221108   3.126   3.999   6.813
 6737SOL     OW21109   0.738   2.845   1.349
 6737SOL    HW121110   0.811   2.904   1.313
 6737SOL    HW221111   0.659   2.901   1.375
 6738SOL     OW21112   1.676   5.762   3.900
 6738SOL    HW121113   1.751   5.827   3.890
 6738SOL    HW221114   1.596   5.809   3.937
 6739SOL     OW21115   6.633   6.152   3.938
 6739SOL    HW121116   6.542   6.177   3.971
 6739SOL    HW221117   6.646   6.053   3.944
 6740SOL     OW21118   6.392   6.968   4.527
 6740SOL    HW121119   6.357   0.010   4.592
 6740SOL    HW221120   6.482   6.998   4.495
 6741SOL     OW21121   3.872   2.052   6.075
 6741SOL    HW121122   3.840   1.984   6.141
 6741SOL    HW221123   3.814   2.049   5.993
 6742SOL     OW21124   5.936   5.465   4.062
 6742SOL    HW121125   5.993   5.499   4.136
 6742SOL    HW221126   5.850   5.430   4.098
 6743SOL     OW21127   3.954   4.026   6.588
 6743SOL    HW121128   3.957   3.926   6.593
 6743SOL    HW221129   3.960   4.064   6.680
 6744SOL     OW21130   0.012   6.594   6.122
 6744SOL    HW121131   7.000   6.604   6.214
 6744SOL    HW221132   6.962   6.596   6.055
 6745SOL     OW21133   6.991   6.038   3.476
 6745SOL    HW121134   6.968   5.994   3.389
 6745SOL    HW221135   0.055   6.005   3.508
 6746SOL     OW21136   1.781   0.932   2.725
 6746SOL    HW121137   1.722   0.934   2.806
 6746SOL    HW221138   1.870   0.973   2.748
 6747SOL     OW21139   5.985   6.892   6.542
 6747SOL    HW121140   5.938   6.809   6.571
 6747SOL    HW221141   5.934   6.972   6.574
 6748SOL     OW21142   2.758   2.156   3.565
 6748SOL    HW121143   2.813   2.084   3.521
 6748SOL    HW221144   2.819   2.216   3.616
 6749SOL     OW21145   3.748   4.265   0.920
 6749SOL    HW121146   3.837   4.255   0.964
 6749SOL    HW221147   3.698   4.341   0.961
 6750SOL     OW21148   3.139   1.899   4.084
 6750SOL    HW121149   3.192   1.977   4.050
 6750SOL    HW221150   3.049   1.930   4.113
 6751SOL     OW21151   4.792   0.391   3.249
 6751SOL    HW121152   4.750   0.462   3.307
 6751SOL    HW221153   4.738   0.378   3.167
 6752SOL     OW21154   1.911   0.272   3.797
 6752SOL    HW121155   1.968   0.227   3.728
 6752SOL    HW221156   1.835   0.212   3.821
 6753SOL     OW21157   3.441   1.729   5.756
 6753SOL    HW121158   3.400   1.649   5.801
 6753SOL    HW221159   3.457   1.801   5.824
 6754SOL     OW21160   6.234   1.218   1.461
 6754SOL    HW121161   6.257   1.315   1.465
 6754SOL    HW221162   6.293   1.173   1.393
 6755SOL     OW21163   3.678   4.099   1.190
 6755SOL    HW121164   3.747   4.142   1.249
 6755SOL    HW221165   3.608   4.167   1.166
 6756SOL     OW21166   3.697   0.508   5.519
 6756SOL    HW121167   3.722   0.426   5.467
 6756SOL    HW221168   3.721   0.590   5.467
 6757SOL     OW21169   4.033   1.753   1.397
 6757SOL    HW121170   4.074   1.807   1.470
 6757SOL    HW221171   3.936   1.740   1.416
 6758SOL     OW21172   6.081   3.195   1.561
 6758SOL    HW121173   6.146   3.184   1.486
 6758SOL    HW221174   6.032   3.109   1.576
 6759SOL     OW21175   6.943   3.266   2.905
 6759SOL    HW121176   6.916   3.175   2.876
 6759SOL    HW221177   7.025   3.260   2.963
 6760SOL     OW21178   6.038   4.122   2.266
 6760SOL    HW121179   5.997   4.032   2.258
 6760SOL    HW221180   6.137   4.115   2.259
 6761SOL     OW21181   5.468   3.030   4.770
 6761SOL    HW121182   5.515   3.088   4.704
 6761SOL    HW221183   5.479   3.068   4.862
 6762SOL     OW21184   0.128   4.653   4.444
 6762SOL    HW121185   0.038   4.669   4.486
 6762SOL    HW221186   0.186   4.734   4.459
 6763SOL     OW21187   5.182   5.091   4.519
 6763SOL    HW121188   5.239   5.047   4.449
 6763SOL    HW221189   5.105   5.031   4.541
 6764SOL     OW21190   1.700   5.540   2.237
 6764SOL    HW121191   1.653   5.512   2.320
 6764SOL    HW221192   1.721   5.638   2.242
 6765SOL     OW21193   6.284   4.582   2.843
 6765SOL    HW121194   6.285   4.518   2.919
 6765SOL    HW221195   6.191   4.616   2.828
 6766SOL     OW21196   4.894   6.410   5.678
 6766SOL    HW121197   4.933   6.385   5.766
 6766SOL    HW221198   4.824   6.343   5.653
 6767SOL     OW21199   3.271   0.172   1.362
 6767SOL    HW121200   3.226   0.160   1.273
 6767SOL    HW221201   3.329   0.254   1.359
 6768SOL     OW21202   2.119   0.335   5.570
 6768SOL    HW121203   2.034   0.360   5.524
 6768SOL    HW221204   2.187   0.406   5.554
 6769SOL     OW21205   3.049   1.784   1.089
 6769SOL    HW121206   3.070   1.820   0.998
 6769SOL    HW221207   3.124   1.804   1.152
 6770SOL     OW21208   6.828   0.825   1.948
 6770SOL    HW121209   6.810   0.898   2.013
 6770SOL    HW221210   6.793   0.851   1.858
 6771SOL     OW21211   4.714   2.808   3.731
 6771SOL    HW121212   4.751   2.890   3.775
 6771SOL    HW221213   4.672   2.749   3.800
 6772SOL     OW21214   3.275   0.963   3.424
 6772SOL    HW121215   3.181   0.944   3.397
 6772SOL    HW221216   3.336   0.895   3.383
 6773SOL     OW21217   6.937   5.363   1.735
 6773SOL    HW121218   6.851   5.322   1.765
 6773SOL    HW221219   7.013   5.316   1.781
 6774SOL     OW21220   0.244   2.332   5.877
 6774SOL    HW121221   0.166   2.295   5.828
 6774SOL    HW221222   0.326   2.323   5.820
 6775SOL     OW21223   2.645   3.097   1.758
 6775SOL    HW121224   2.736   3.057   1.749
 6775SOL    HW221225   2.652   3.197   1.761
 6776SOL     OW21226   4.229   4.580   6.758
 6776SOL    HW121227   4.326   4.586   6.783
 6776SOL    HW221228   4.217   4.615   6.665
 6777SOL     OW21229   4.368   4.190   6.852
 6777SOL    HW121230   4.340   4.260   6.918
 6777SOL    HW221231   4.440   4.227   6.793
 6778SOL     OW21232   6.188   4.671   2.252
 6778SOL    HW121233   6.205   4.630   2.162
 6778SOL    HW221234   6.228   4.614   2.323
 6779SOL     OW21235   6.430   4.961   5.998
 6779SOL    HW121236   6.422   4.916   6.087
 6779SOL    HW221237   6.521   4.944   5.961
 6780SOL     OW21238   1.189   2.356   2.217
 6780SOL    HW121239   1.126   2.428   2.246
 6780SOL    HW221240   1.282   2.393   2.213
 6781SOL     OW21241   5.859   0.257   4.596
 6781SOL    HW121242   5.856   0.350   4.635
 6781SOL    HW221243   5.812   0.194   4.658
 6782SOL     OW21244   0.247   6.831   3.571
 6782SOL    HW121245   0.336   6.831   3.616
 6782SOL    HW221246   0.208   6.923   3.574
 6783SOL     OW21247   6.492   0.696   6.556
 6783SOL    HW121248   6.510   0.601   6.527
 6783SOL    HW221249   6.455   0.696   6.649
 6784SOL     OW21250   3.030   3.256   0.592
 6784SOL    HW121251   3.059   3.310   0.671
 6784SOL    HW221252   2.970   3.181   0.623
 6785SOL     OW21253   5.352   4.703   2.783
 6785SOL    HW121254   5.431   4.651   2.814
 6785SOL    HW221255   5.270   4.670   2.829
 6786SOL     OW21256   1.530   2.070   0.430
 6786SOL    HW121257   1.482   2.145   0.383
 6786SOL    HW221258   1.465   2.019   0.485
 6787SOL     OW21259   1.418   3.142   0.955
 6787SOL    HW121260   1.507   3.187   0.942
 6787SOL    HW221261   1.384   3.161   1.047
 6788SOL     OW21262   2.390   3.351   1.603
 6788SOL    HW121263   2.422   3.258   1.621
 6788SOL    HW221264   2.365   3.395   1.689
 6789SOL     OW21265   6.685   6.153   2.969
 6789SOL    HW121266   6.643   6.064   2.983
 6789SOL    HW221267   6.618   6.225   2.984
 6790SOL     OW21268   1.346   3.719   1.151
 6790SOL    HW121269   1.373   3.814   1.167
 6790SOL    HW221270   1.300   3.711   1.063
 6791SOL     OW21271   4.393   2.673   1.409
 6791SOL    HW121272   4.444   2.590   1.387
 6791SOL    HW221273   4.409   2.698   1.505
 6792SOL     OW21274   6.590   6.175   6.005
 6792SOL    HW121275   6.660   6.223   6.058
 6792SOL    HW221276   6.514   6.149   6.065
 6793SOL     OW21277   1.100   1.863   0.391
 6793SOL    HW121278   1.096   1.774   0.345
 6793SOL    HW221279   1.131   1.933   0.327
 6794SOL     OW21280   5.136   1.701   6.082
 6794SOL    HW121281   5.233   1.692   6.056
 6794SOL    HW221282   5.107   1.619   6.131
 6795SOL     OW21283   2.629   6.266   0.947
 6795SOL    HW121284   2.681   6.193   0.901
 6795SOL    HW221285   2.532   6.256   0.925
 6796SOL     OW21286   6.169   0.894   2.306
 6796SOL    HW121287   6.086   0.949   2.321
 6796SOL    HW221288   6.241   0.953   2.269
 6797SOL     OW21289   5.721   3.859   1.494
 6797SOL    HW121290   5.651   3.788   1.490
 6797SOL    HW221291   5.770   3.853   1.581
 6798SOL     OW21292   5.328   6.374   2.531
 6798SOL    HW121293   5.331   6.396   2.629
 6798SOL    HW221294   5.405   6.315   2.508
 6799SOL     OW21295   6.488   6.257   0.221
 6799SOL    HW121296   6.450   6.340   0.182
 6799SOL    HW221297   6.540   6.207   0.152
 6800SOL     OW21298   2.251   3.841   1.030
 6800SOL    HW121299   2.289   3.790   0.953
 6800SOL    HW221300   2.315   3.839   1.107
 6801SOL     OW21301   0.998   0.602   2.925
 6801SOL    HW121302   0.963   0.684   2.880
 6801SOL    HW221303   1.082   0.572   2.880
 6802SOL     OW21304   3.220   5.711   0.193
 6802SOL    HW121305   3.271   5.783   0.240
 6802SOL    HW221306   3.159   5.751   0.125
 6803SOL     OW21307   5.161   2.740   6.366
 6803SOL    HW121308   5.197   2.647   6.374
 6803SOL    HW221309   5.238   2.805   6.363
 6804SOL     OW21310   2.971   5.309   3.234
 6804SOL    HW121311   2.948   5.404   3.212
 6804SOL    HW221312   3.010   5.264   3.153
 6805SOL     OW21313   5.751   5.614   5.662
 6805SOL    HW121314   5.651   5.614   5.667
 6805SOL    HW221315   5.785   5.704   5.688
 6806SOL     OW21316   6.006   0.938   3.371
 6806SOL    HW121317   5.966   0.881   3.442
 6806SOL    HW221318   5.933   0.977   3.315
 6807SOL     OW21319   3.231   2.745   0.523
 6807SOL    HW121320   3.136   2.774   0.507
 6807SOL    HW221321   3.245   2.654   0.483
 6808SOL     OW21322   0.184   1.995   5.342
 6808SOL    HW121323   0.110   1.973   5.406
 6808SOL    HW221324   0.232   1.911   5.316
 6809SOL     OW21325   1.316   3.285   1.701
 6809SOL    HW121326   1.340   3.269   1.796
 6809SOL    HW221327   1.217   3.299   1.694
 6810SOL     OW21328   2.125   0.438   1.885
 6810SOL    HW121329   2.083   0.488   1.960
 6810SOL    HW221330   2.093   0.343   1.886
 6811SOL     OW21331   5.128   4.276   0.422
 6811SOL    HW121332   5.083   4.366   0.425
 6811SOL    HW221333   5.060   4.205   0.443
 6812SOL     OW21334   3.653   3.078   3.444
 6812SOL    HW121335   3.604   3.029   3.372
 6812SOL    HW221336   3.635   3.035   3.532
 6813SOL     OW21337   4.733   2.233   2.342
 6813SOL    HW121338   4.751   2.190   2.253
 6813SOL    HW221339   4.636   2.251   2.352
 6814SOL     OW21340   3.279   1.811   0.273
 6814SOL    HW121341   3.225   1.739   0.230
 6814SOL    HW221342   3.259   1.812   0.371
 6815SOL     OW21343   2.917   0.173   1.243
 6815SOL    HW121344   3.010   0.190   1.210
 6815SOL    HW221345   2.914   0.087   1.293
 6816SOL     OW21346   0.364   6.974   6.658
 6816SOL    HW121347   0.377   6.907   6.732
 6816SOL    HW221348   0.360   0.041   6.697
 6817SOL     OW21349   1.126   1.954   4.586
 6817SOL    HW121350   1.157   1.954   4.682
 6817SOL    HW221351   1.117   2.049   4.555
 6818SOL     OW21352   2.985   5.046   1.853
 6818SOL    HW121353   3.014   4.951   1.842
 6818SOL    HW221354   2.891   5.055   1.821
 6819SOL     OW21355   5.000   1.013   4.420
 6819SOL    HW121356   5.001   1.060   4.509
 6819SOL    HW221357   5.024   0.917   4.433
 6820SOL     OW21358   0.829   5.589   2.760
 6820SOL    HW121359   0.909   5.647   2.777
 6820SOL    HW221360   0.837   5.505   2.814
 6821SOL     OW21361   3.037   0.770   5.279
 6821SOL    HW121362   3.095   0.724   5.212
 6821SOL    HW221363   3.064   0.866   5.286
 6822SOL     OW21364   6.100   2.128   5.935
 6822SOL    HW121365   6.066   2.044   5.978
 6822SOL    HW221366   6.199   2.122   5.922
 6823SOL     OW21367   3.372   3.179   4.457
 6823SOL    HW121368   3.400   3.094   4.414
 6823SOL    HW221369   3.411   3.183   4.549
 6824SOL     OW21370   0.968   2.949   6.192
 6824SOL    HW121371   1.057   2.993   6.205
 6824SOL    HW221372   0.980   2.849   6.188
 6825SOL     OW21373   5.128   6.591   2.081
 6825SOL    HW121374   5.077   6.677   2.084
 6825SOL    HW221375   5.087   6.525   2.144
 6826SOL     OW21376   2.146   4.287   2.693
 6826SOL    HW121377   2.133   4.272   2.791
 6826SOL    HW221378   2.124   4.204   2.643
 6827SOL     OW21379   4.444   5.505   0.096
 6827SOL    HW121380   4.378   5.483   0.024
 6827SOL    HW221381   4.537   5.486   0.063
 6828SOL     OW21382   2.768   1.721   1.838
 6828SOL    HW121383   2.789   1.728   1.740
 6828SOL    HW221384   2.838   1.666   1.883
 6829SOL     OW21385   4.821   6.880   4.311
 6829SOL    HW121386   4.793   6.839   4.224
 6829SOL    HW221387   4.920   6.888   4.314
 6830SOL     OW21388   5.370   1.445   3.987
 6830SOL    HW121389   5.415   1.522   4.032
 6830SOL    HW221390   5.432   1.404   3.921
 6831SOL     OW21391   1.351   0.357   6.567
 6831SOL    HW121392   1.350   0.405   6.480
 6831SOL    HW221393   1.425   0.393   6.624
 6832SOL     OW21394   2.718   3.714   0.913
 6832SOL    HW121395   2.748   3.659   0.992
 6832SOL    HW221396   2.622   3.693   0.894
 6833SOL     OW21397   4.564   4.584   6.421
 6833SOL    HW121398   4.534   4.506   6.476
 6833SOL    HW221399   4.504   4.662   6.438
 6834SOL     OW21400   5.307   6.745   1.326
 6834SOL    HW121401   5.313   6.832   1.278
 6834SOL    HW221402   5.215   6.734   1.363
 6835SOL     OW21403   3.768   0.112   4.957
 6835SOL    HW121404   3.842   0.113   4.889
 6835SOL    HW221405   3.795   0.166   5.036
 6836SOL     OW21406   2.824   5.647   0.433
 6836SOL    HW121407   2.753   5.683   0.372
 6836SOL    HW221408   2.841   5.551   0.410
 6837SOL     OW21409   1.610   1.848   1.891
 6837SOL    HW121410   1.611   1.948   1.891
 6837SOL    HW221411   1.678   1.814   1.956
 6838SOL     OW21412   2.773   5.842   0.907
 6838SOL    HW121413   2.814   5.775   0.845
 6838SOL    HW221414   2.756   5.927   0.857
 6839SOL     OW21415   5.060   0.734   6.611
 6839SOL    HW121416   5.131   0.714   6.543
 6839SOL    HW221417   4.988   0.790   6.569
 6840SOL     OW21418   3.157   2.005   4.854
 6840SOL    HW121419   3.184   2.076   4.788
 6840SOL    HW221420   3.171   2.038   4.947
 6841SOL     OW21421   5.386   4.175   6.197
 6841SOL    HW121422   5.382   4.166   6.098
 6841SOL    HW221423   5.470   4.222   6.223
 6842SOL     OW21424   2.850   4.393   1.169
 6842SOL    HW121425   2.841   4.305   1.216
 6842SOL    HW221426   2.944   4.426   1.177
 6843SOL     OW21427   5.258   6.283   0.377
 6843SOL    HW121428   5.309   6.269   0.463
 6843SOL    HW221429   5.313   6.339   0.315
 6844SOL     OW21430   5.753   0.927   4.366
 6844SOL    HW121431   5.787   0.949   4.275
 6844SOL    HW221432   5.656   0.904   4.361
 6845SOL     OW21433   6.251   3.439   3.285
 6845SOL    HW121434   6.258   3.388   3.370
 6845SOL    HW221435   6.336   3.487   3.267
 6846SOL     OW21436   3.811   3.822   0.257
 6846SOL    HW121437   3.811   3.921   0.267
 6846SOL    HW221438   3.905   3.788   0.262
 6847SOL     OW21439   0.050   3.828   5.520
 6847SOL    HW121440   0.027   3.734   5.546
 6847SOL    HW221441   0.024   3.843   5.424
 6848SOL     OW21442   5.175   4.424   3.432
 6848SOL    HW121443   5.141   4.463   3.518
 6848SOL    HW221444   5.220   4.496   3.378
 6849SOL     OW21445   4.326   3.939   5.611
 6849SOL    HW121446   4.422   3.932   5.582
 6849SOL    HW221447   4.322   3.979   5.703
 6850SOL     OW21448   5.229   2.836   2.775
 6850SOL    HW121449   5.245   2.934   2.789
 6850SOL    HW221450   5.177   2.822   2.690
 6851SOL     OW21451   1.079   2.311   2.801
 6851SOL    HW121452   1.031   2.303   2.888
 6851SOL    HW221453   1.155   2.375   2.810
 6852SOL     OW21454   2.889   4.651   0.937
 6852SOL    HW121455   2.820   4.618   0.872
 6852SOL    HW221456   2.862   4.741   0.972
 6853SOL     OW21457   5.531   4.189   6.490
 6853SOL    HW121458   5.559   4.112   6.433
 6853SOL    HW221459   5.611   4.236   6.525
 6854SOL     OW21460   5.363   0.164   5.927
 6854SOL    HW121461   5.324   0.072   5.939
 6854SOL    HW221462   5.461   0.156   5.910
 6855SOL     OW21463   3.996   5.356   3.725
 6855SOL    HW121464   3.903   5.359   3.688
 6855SOL    HW221465   4.059   5.400   3.661
 6856SOL     OW21466   0.528   2.282   5.122
 6856SOL    HW121467   0.620   2.263   5.086
 6856SOL    HW221468   0.463   2.220   5.079
 6857SOL     OW21469   0.923   3.220   6.581
 6857SOL    HW121470   0.883   3.139   6.623
 6857SOL    HW221471   0.996   3.255   6.640
 6858SOL     OW21472   3.817   4.117   1.804
 6858SOL    HW121473   3.805   4.216   1.798
 6858SOL    HW221474   3.795   4.087   1.897
 6859SOL     OW21475   0.569   0.758   1.325
 6859SOL    HW121476   0.500   0.703   1.278
 6859SOL    HW221477   0.643   0.699   1.357
 6860SOL     OW21478   7.000   4.577   1.380
 6860SOL    HW121479   6.906   4.597   1.352
 6860SOL    HW221480   0.037   4.600   1.304
 6861SOL     OW21481   5.318   3.902   6.081
 6861SOL    HW121482   5.367   3.969   6.137
 6861SOL    HW221483   5.351   3.906   5.987
 6862SOL     OW21484   6.782   5.192   5.652
 6862SOL    HW121485   6.705   5.249   5.623
 6862SOL    HW221486   6.826   5.234   5.732
 6863SOL     OW21487   6.432   6.313   5.798
 6863SOL    HW121488   6.471   6.234   5.846
 6863SOL    HW221489   6.371   6.363   5.861
 6864SOL     OW21490   2.044   4.796   5.276
 6864SOL    HW121491   2.050   4.875   5.216
 6864SOL    HW221492   2.019   4.715   5.223
 6865SOL     OW21493   1.186   0.199   5.245
 6865SOL    HW121494   1.173   0.111   5.200
 6865SOL    HW221495   1.205   0.269   5.176
 6866SOL     OW21496   5.728   4.566   2.654
 6866SOL    HW121497   5.772   4.524   2.574
 6866SOL    HW221498   5.743   4.665   2.651
 6867SOL     OW21499   1.927   3.632   1.564
 6867SOL    HW121500   1.988   3.710   1.549
 6867SOL    HW221501   1.978   3.547   1.552
 6868SOL     OW21502   2.384   6.771   4.902
 6868SOL    HW121503   2.394   6.798   4.997
 6868SOL    HW221504   2.470   6.786   4.853
 6869SOL     OW21505   4.910   1.089   5.864
 6869SOL    HW121506   4.953   1.173   5.898
 6869SOL    HW221507   4.814   1.108   5.840
 6870SOL     OW21508   0.347   3.881   1.035
 6870SOL    HW121509   0.363   3.965   0.982
 6870SOL    HW221510   0.434   3.836   1.052
 6871SOL     OW21511   6.285   4.015   2.300
 6871SOL    HW121512   6.266   4.043   2.394
 6871SOL    HW221513   6.369   3.961   2.298
 6872SOL     OW21514   0.440   2.867   1.962
 6872SOL    HW121515   0.477   2.942   1.906
 6872SOL    HW221516   0.508   2.795   1.970
 6873SOL     OW21517   1.081   3.731   3.991
 6873SOL    HW121518   0.982   3.723   3.978
 6873SOL    HW221519   1.113   3.652   4.043
 6874SOL     OW21520   6.510   5.653   3.757
 6874SOL    HW121521   6.554   5.719   3.696
 6874SOL    HW221522   6.424   5.691   3.790
 6875SOL     OW21523   2.516   1.689   2.182
 6875SOL    HW121524   2.531   1.657   2.089
 6875SOL    HW221525   2.505   1.789   2.182
 6876SOL     OW21526   3.015   6.889   3.845
 6876SOL    HW121527   3.066   6.946   3.909
 6876SOL    HW221528   3.050   6.795   3.849
 6877SOL     OW21529   3.380   4.101   1.578
 6877SOL    HW121530   3.301   4.159   1.594
 6877SOL    HW221531   3.393   4.039   1.656
 6878SOL     OW21532   2.441   1.914   3.450
 6878SOL    HW121533   2.492   1.940   3.369
 6878SOL    HW221534   2.504   1.875   3.518
 6879SOL     OW21535   2.320   2.619   0.258
 6879SOL    HW121536   2.251   2.692   0.260
 6879SOL    HW221537   2.276   2.532   0.234
 6880SOL     OW21538   0.824   6.140   5.608
 6880SOL    HW121539   0.906   6.142   5.550
 6880SOL    HW221540   0.847   6.171   5.700
 6881SOL     OW21541   1.577   2.949   1.491
 6881SOL    HW121542   1.542   2.912   1.577
 6881SOL    HW221543   1.676   2.934   1.486
 6882SOL     OW21544   2.688   0.836   0.544
 6882SOL    HW121545   2.757   0.892   0.590
 6882SOL    HW221546   2.687   0.745   0.585
 6883SOL     OW21547   5.102   1.459   6.214
 6883SOL    HW121548   5.159   1.465   6.295
 6883SOL    HW221549   5.010   1.430   6.240
 6884SOL     OW21550   1.345   4.369   3.377
 6884SOL    HW121551   1.284   4.333   3.447
 6884SOL    HW221552   1.300   4.444   3.328
 6885SOL     OW21553   4.614   5.010   3.913
 6885SOL    HW121554   4.687   4.960   3.960
 6885SOL    HW221555   4.551   4.945   3.871
 6886SOL     OW21556   0.203   1.576   4.904
 6886SOL    HW121557   0.210   1.497   4.843
 6886SOL    HW221558   0.110   1.584   4.938
 6887SOL     OW21559   4.501   5.760   0.132
 6887SOL    HW121560   4.556   5.767   0.215
 6887SOL    HW221561   4.452   5.673   0.132
 6888SOL     OW21562   5.447   4.567   6.194
 6888SOL    HW121563   5.417   4.651   6.150
 6888SOL    HW221564   5.473   4.586   6.289
 6889SOL     OW21565   1.777   2.639   5.940
 6889SOL    HW121566   1.872   2.666   5.925
 6889SOL    HW221567   1.761   2.627   6.038
 6890SOL     OW21568   3.636   5.775   2.874
 6890SOL    HW121569   3.620   5.865   2.834
 6890SOL    HW221570   3.644   5.707   2.801
 6891SOL     OW21571   1.971   3.094   1.316
 6891SOL    HW121572   1.874   3.114   1.304
 6891SOL    HW221573   1.982   3.018   1.381
 6892SOL     OW21574   3.095   1.354   3.588
 6892SOL    HW121575   3.107   1.449   3.615
 6892SOL    HW221576   3.185   1.309   3.585
 6893SOL     OW21577   5.485   3.500   0.498
 6893SOL    HW121578   5.582   3.515   0.483
 6893SOL    HW221579   5.468   3.487   0.596
 6894SOL     OW21580   6.102   5.021   1.152
 6894SOL    HW121581   6.144   5.055   1.068
 6894SOL    HW221582   6.004   5.004   1.136
 6895SOL     OW21583   2.009   5.306   1.214
 6895SOL    HW121584   2.040   5.219   1.174
 6895SOL    HW221585   2.037   5.310   1.310
 6896SOL     OW21586   2.566   2.013   3.715
 6896SOL    HW121587   2.623   2.065   3.651
 6896SOL    HW221588   2.622   1.943   3.759
 6897SOL     OW21589   5.093   3.689   5.089
 6897SOL    HW121590   4.996   3.673   5.104
 6897SOL    HW221591   5.106   3.773   5.036
 6898SOL     OW21592   3.460   1.402   1.516
 6898SOL    HW121593   3.509   1.318   1.540
 6898SOL    HW221594   3.385   1.380   1.453
 6899SOL     OW21595   4.653   6.348   2.653
 6899SOL    HW121596   4.697   6.274   2.603
 6899SOL    HW221597   4.687   6.351   2.747
 6900SOL     OW21598   6.857   4.322   5.384
 6900SOL    HW121599   6.952   4.348   5.399
 6900SOL    HW221600   6.852   4.246   5.320
 6901SOL     OW21601   5.471   5.933   6.124
 6901SOL    HW121602   5.440   6.028   6.123
 6901SOL    HW221603   5.522   5.916   6.208
 6902SOL     OW21604   6.521   5.832   5.330
 6902SOL    HW121605   6.534   5.892   5.410
 6902SOL    HW221606   6.563   5.875   5.250
 6903SOL     OW21607   3.120   4.927   4.980
 6903SOL    HW121608   3.210   4.904   5.018
 6903SOL    HW221609   3.072   4.987   5.044
 6904SOL     OW21610   6.465   6.957   6.247
 6904SOL    HW121611   6.445   6.878   6.189
 6904SOL    HW221612   6.385   6.980   6.302
 6905SOL     OW21613   4.956   5.172   6.661
 6905SOL    HW121614   4.991   5.082   6.686
 6905SOL    HW221615   5.022   5.218   6.600
 6906SOL     OW21616   3.344   1.191   3.563
 6906SOL    HW121617   3.439   1.223   3.560
 6906SOL    HW221618   3.331   1.117   3.497
 6907SOL     OW21619   6.370   2.490   1.810
 6907SOL    HW121620   6.455   2.500   1.860
 6907SOL    HW221621   6.344   2.578   1.770
 6908SOL     OW21622   2.061   4.838   6.779
 6908SOL    HW121623   2.147   4.802   6.814
 6908SOL    HW221624   2.079   4.903   6.705
 6909SOL     OW21625   5.180   4.805   1.402
 6909SOL    HW121626   5.258   4.777   1.457
 6909SOL    HW221627   5.130   4.724   1.371
 6910SOL     OW21628   1.421   2.546   2.791
 6910SOL    HW121629   1.440   2.619   2.856
 6910SOL    HW221630   1.322   2.533   2.783
 6911SOL     OW21631   4.324   6.991   4.228
 6911SOL    HW121632   4.372   7.015   4.313
 6911SOL    HW221633   4.303   6.893   4.229
 6912SOL     OW21634   2.570   3.293   6.587
 6912SOL    HW121635   2.553   3.357   6.663
 6912SOL    HW221636   2.504   3.219   6.591
 6913SOL     OW21637   5.100   6.628   5.034
 6913SOL    HW121638   5.048   6.605   5.116
 6913SOL    HW221639   5.188   6.580   5.035
 6914SOL     OW21640   5.832   3.891   3.538
 6914SOL    HW121641   5.799   3.964   3.478
 6914SOL    HW221642   5.786   3.806   3.515
 6915SOL     OW21643   0.762   2.222   2.795
 6915SOL    HW121644   0.859   2.245   2.786
 6915SOL    HW221645   0.711   2.302   2.828
 6916SOL     OW21646   5.542   0.970   6.152
 6916SOL    HW121647   5.550   0.877   6.116
 6916SOL    HW221648   5.446   0.993   6.164
 6917SOL     OW21649   3.885   6.148   2.123
 6917SOL    HW121650   3.878   6.057   2.164
 6917SOL    HW221651   3.929   6.141   2.033
 6918SOL     OW21652   6.936   2.796   4.038
 6918SOL    HW121653   6.854   2.745   4.064
 6918SOL    HW221654   7.006   2.732   4.004
 6919SOL     OW21655   6.269   5.859   3.658
 6919SOL    HW121656   6.256   5.775   3.711
 6919SOL    HW221657   6.273   5.837   3.560
 6920SOL     OW21658   4.687   0.214   5.463
 6920SOL    HW121659   4.667   0.311   5.453
 6920SOL    HW221660   4.745   0.184   5.387
 6921SOL     OW21661   4.404   6.725   3.832
 6921SOL    HW121662   4.418   6.804   3.773
 6921SOL    HW221663   4.330   6.743   3.896
 6922SOL     OW21664   1.625   6.433   5.156
 6922SOL    HW121665   1.583   6.478   5.077
 6922SOL    HW221666   1.651   6.502   5.224
 6923SOL     OW21667   5.860   6.556   2.680
 6923SOL    HW121668   5.769   6.583   2.649
 6923SOL    HW221669   5.929   6.613   2.636
 6924SOL     OW21670   2.803   4.958   6.981
 6924SOL    HW121671   2.865   5.031   7.011
 6924SOL    HW221672   2.832   4.872   7.023
 6925SOL     OW21673   4.622   5.556   5.046
 6925SOL    HW121674   4.538   5.542   5.098
 6925SOL    HW221675   4.600   5.602   4.960
 6926SOL     OW21676   1.974   1.849   0.832
 6926SOL    HW121677   2.049   1.808   0.882
 6926SOL    HW221678   1.921   1.908   0.893
 6927SOL     OW21679   3.683   1.642   6.676
 6927SOL    HW121680   3.634   1.581   6.739
 6927SOL    HW221681   3.629   1.654   6.593
 6928SOL     OW21682   4.909   6.074   0.868
 6928SOL    HW121683   5.005   6.046   0.865
 6928SOL    HW221684   4.896   6.152   0.806
 6929SOL     OW21685   5.053   5.900   1.934
 6929SOL    HW121686   5.035   5.802   1.945
 6929SOL    HW221687   5.028   5.948   2.019
 6930SOL     OW21688   0.771   0.581   1.330
 6930SOL    HW121689   0.803   0.487   1.345
 6930SOL    HW221690   0.833   0.627   1.266
 6931SOL     OW21691   1.785   1.730   1.644
 6931SOL    HW121692   1.718   1.729   1.570
 6931SOL    HW221693   1.749   1.784   1.721
 6932SOL     OW21694   4.316   6.219   1.093
 6932SOL    HW121695   4.325   6.223   1.192
 6932SOL    HW221696   4.370   6.293   1.051
 6933SOL     OW21697   3.546   6.952   5.675
 6933SOL    HW121698   3.551   6.869   5.619
 6933SOL    HW221699   3.450   6.975   5.692
 6934SOL     OW21700   4.658   3.375   5.866
 6934SOL    HW121701   4.662   3.281   5.833
 6934SOL    HW221702   4.645   3.375   5.965
 6935SOL     OW21703   3.969   5.811   2.942
 6935SOL    HW121704   3.893   5.875   2.927
 6935SOL    HW221705   4.054   5.863   2.955
 6936SOL     OW21706   0.059   2.470   4.333
 6936SOL    HW121707   0.132   2.520   4.286
 6936SOL    HW221708   0.019   2.527   4.404
 6937SOL     OW21709   5.618   6.267   0.850
 6937SOL    HW121710   5.576   6.284   0.761
 6937SOL    HW221711   5.548   6.265   0.921
 6938SOL     OW21712   0.507   2.377   4.348
 6938SOL    HW121713   0.518   2.288   4.303
 6938SOL    HW221714   0.431   2.373   4.412
 6939SOL     OW21715   6.982   5.367   2.644
 6939SOL    HW121716   0.039   5.328   2.689
 6939SOL    HW221717   6.900   5.323   2.681
 6940SOL     OW21718   4.171   6.816   0.212
 6940SOL    HW121719   4.098   6.841   0.275
 6940SOL    HW221720   4.131   6.793   0.123
 6941SOL     OW21721   2.993   3.809   2.161
 6941SOL    HW121722   3.028   3.715   2.153
 6941SOL    HW221723   2.912   3.810   2.219
 6942SOL     OW21724   5.622   0.192   2.085
 6942SOL    HW121725   5.570   0.275   2.107
 6942SOL    HW221726   5.717   0.216   2.065
 6943SOL     OW21727   3.733   4.881   0.610
 6943SOL    HW121728   3.754   4.931   0.694
 6943SOL    HW221729   3.668   4.934   0.556
 6944SOL     OW21730   1.023   5.133   6.436
 6944SOL    HW121731   1.099   5.198   6.437
 6944SOL    HW221732   0.971   5.142   6.352
 6945SOL     OW21733   6.915   2.512   1.356
 6945SOL    HW121734   7.002   2.477   1.324
 6945SOL    HW221735   6.869   2.443   1.412
 6946SOL     OW21736   3.948   6.511   1.483
 6946SOL    HW121737   4.048   6.512   1.484
 6946SOL    HW221738   3.913   6.605   1.486
 6947SOL     OW21739   4.569   5.008   6.327
 6947SOL    HW121740   4.595   4.914   6.307
 6947SOL    HW221741   4.645   5.055   6.372
 6948SOL     OW21742   0.358   5.643   1.080
 6948SOL    HW121743   0.363   5.572   1.150
 6948SOL    HW221744   0.286   5.621   1.014
 6949SOL     OW21745   2.277   2.126   3.423
 6949SOL    HW121746   2.319   2.051   3.475
 6949SOL    HW221747   2.296   2.112   3.326
 6950SOL     OW21748   1.578   0.502   4.430
 6950SOL    HW121749   1.504   0.567   4.417
 6950SOL    HW221750   1.552   0.434   4.499
 6951SOL     OW21751   6.869   5.913   6.822
 6951SOL    HW121752   6.890   5.966   6.904
 6951SOL    HW221753   6.947   5.855   6.799
 6952SOL     OW21754   1.814   5.344   2.948
 6952SOL    HW121755   1.864   5.257   2.941
 6952SOL    HW221756   1.851   5.398   3.023
 6953SOL     OW21757   5.430   0.378   6.988
 6953SOL    HW121758   5.456   0.311   6.918
 6953SOL    HW221759   5.337   0.410   6.970
 6954SOL     OW21760   0.589   4.177   1.669
 6954SOL    HW121761   0.507   4.235   1.660
 6954SOL    HW221762   0.619   4.177   1.764
 6955SOL     OW21763   4.926   0.848   2.881
 6955SOL    HW121764   4.985   0.894   2.815
 6955SOL    HW221765   4.863   0.787   2.833
 6956SOL     OW21766   5.147   5.506   3.111
 6956SOL    HW121767   5.128   5.504   3.210
 6956SOL    HW221768   5.115   5.421   3.069
 6957SOL     OW21769   6.080   6.000   0.400
 6957SOL    HW121770   6.140   6.041   0.332
 6957SOL    HW221771   6.007   5.949   0.354
 6958SOL     OW21772   3.975   3.111   4.905
 6958SOL    HW121773   4.020   3.161   4.831
 6958SOL    HW221774   3.913   3.043   4.867
 6959SOL     OW21775   1.742   4.122   3.508
 6959SOL    HW121776   1.770   4.212   3.476
 6959SOL    HW221777   1.785   4.051   3.453
 6960SOL     OW21778   2.470   3.992   0.814
 6960SOL    HW121779   2.500   4.002   0.909
 6960SOL    HW221780   2.548   3.966   0.757
 6961SOL     OW21781   5.484   1.274   4.620
 6961SOL    HW121782   5.534   1.198   4.661
 6961SOL    HW221783   5.393   1.280   4.660
 6962SOL     OW21784   4.225   5.617   1.144
 6962SOL    HW121785   4.151   5.669   1.186
 6962SOL    HW221786   4.204   5.519   1.148
 6963SOL     OW21787   5.121   4.899   0.461
 6963SOL    HW121788   5.029   4.935   0.443
 6963SOL    HW221789   5.128   4.873   0.557
 6964SOL     OW21790   3.346   0.286   5.857
 6964SOL    HW121791   3.350   0.270   5.759
 6964SOL    HW221792   3.356   0.199   5.905
 6965SOL     OW21793   1.712   1.408   6.866
 6965SOL    HW121794   1.682   1.411   6.771
 6965SOL    HW221795   1.656   1.471   6.921
 6966SOL     OW21796   0.725   0.618   2.713
 6966SOL    HW121797   0.779   0.582   2.637
 6966SOL    HW221798   0.782   0.677   2.770
 6967SOL     OW21799   3.462   1.220   6.181
 6967SOL    HW121800   3.441   1.198   6.086
 6967SOL    HW221801   3.410   1.159   6.241
 6968SOL     OW21802   2.113   1.346   3.420
 6968SOL    HW121803   2.088   1.279   3.489
 6968SOL    HW221804   2.158   1.299   3.343
 6969SOL     OW21805   3.133   2.048   1.254
 6969SOL    HW121806   3.170   1.959   1.281
 6969SOL    HW221807   3.117   2.104   1.336
 6970SOL     OW21808   4.346   3.683   5.482
 6970SOL    HW121809   4.300   3.614   5.538
 6970SOL    HW221810   4.338   3.772   5.525
 6971SOL     OW21811   5.704   5.312   0.918
 6971SOL    HW121812   5.724   5.221   0.956
 6971SOL    HW221813   5.614   5.342   0.949
 6972SOL     OW21814   5.497   4.040   1.857
 6972SOL    HW121815   5.578   4.081   1.816
 6972SOL    HW221816   5.492   4.065   1.954
 6973SOL     OW21817   0.815   2.680   3.459
 6973SOL    HW121818   0.895   2.633   3.496
 6973SOL    HW221819   0.841   2.728   3.375
 6974SOL     OW21820   2.894   3.686   2.916
 6974SOL    HW121821   2.952   3.741   2.977
 6974SOL    HW221822   2.906   3.717   2.822
 6975SOL     OW21823   2.025   6.668   4.688
 6975SOL    HW121824   1.997   6.611   4.766
 6975SOL    HW221825   2.105   6.628   4.645
 6976SOL     OW21826   6.555   3.913   5.964
 6976SOL    HW121827   6.545   3.998   5.913
 6976SOL    HW221828   6.485   3.907   6.035
 6977SOL     OW21829   3.617   3.411   1.133
 6977SOL    HW121830   3.581   3.505   1.131
 6977SOL    HW221831   3.541   3.347   1.136
 6978SOL     OW21832   5.559   2.559   1.417
 6978SOL    HW121833   5.616   2.641   1.415
 6978SOL    HW221834   5.495   2.561   1.340
 6979SOL     OW21835   1.123   3.272   1.061
 6979SOL    HW121836   1.052   3.231   1.004
 6979SOL    HW221837   1.133   3.220   1.146
 6980SOL     OW21838   1.812   1.437   3.475
 6980SOL    HW121839   1.902   1.411   3.511
 6980SOL    HW221840   1.824   1.505   3.404
 6981SOL     OW21841   3.791   3.076   5.966
 6981SOL    HW121842   3.804   3.064   5.868
 6981SOL    HW221843   3.864   3.133   6.003
 6982SOL     OW21844   1.031   0.973   3.956
 6982SOL    HW121845   1.022   0.896   3.893
 6982SOL    HW221846   1.079   1.048   3.910
 6983SOL     OW21847   5.079   1.093   4.835
 6983SOL    HW121848   5.068   1.069   4.932
 6983SOL    HW221849   5.154   1.039   4.796
 6984SOL     OW21850   1.456   1.345   2.503
 6984SOL    HW121851   1.543   1.337   2.550
 6984SOL    HW221852   1.397   1.409   2.553
 6985SOL     OW21853   6.975   5.388   0.403
 6985SOL    HW121854   0.026   5.413   0.342
 6985SOL    HW221855   6.961   5.289   0.400
 6986SOL     OW21856   3.503   6.747   6.460
 6986SOL    HW121857   3.585   6.721   6.411
 6986SOL    HW221858   3.527   6.802   6.540
 6987SOL     OW21859   0.008   1.476   6.202
 6987SOL    HW121860   6.965   1.406   6.227
 6987SOL    HW221861   6.986   1.557   6.168
 6988SOL     OW21862   1.957   6.650   6.303
 6988SOL    HW121863   1.890   6.593   6.351
 6988SOL    HW221864   1.988   6.602   6.221
 6989SOL     OW21865   6.870   4.700   3.183
 6989SOL    HW121866   6.883   4.797   3.162
 6989SOL    HW221867   6.811   4.658   3.113
 6990SOL     OW21868   4.061   2.482   1.198
 6990SOL    HW121869   3.971   2.521   1.217
 6990SOL    HW221870   4.065   2.389   1.236
 6991SOL     OW21871   5.525   4.465   3.115
 6991SOL    HW121872   5.527   4.521   3.033
 6991SOL    HW221873   5.603   4.402   3.114
 6992SOL     OW21874   6.224   6.128   0.215
 6992SOL    HW121875   6.228   6.071   0.133
 6992SOL    HW221876   6.307   6.183   0.221
 6993SOL     OW21877   6.551   0.471   1.297
 6993SOL    HW121878   6.609   0.526   1.357
 6993SOL    HW221879   6.456   0.477   1.328
 6994SOL     OW21880   1.440   1.175   4.444
 6994SOL    HW121881   1.371   1.107   4.418
 6994SOL    HW221882   1.524   1.158   4.393
 6995SOL     OW21883   0.097   3.894   0.187
 6995SOL    HW121884   0.132   3.821   0.245
 6995SOL    HW221885   0.171   3.957   0.164
 6996SOL     OW21886   1.257   0.205   0.384
 6996SOL    HW121887   1.355   0.190   0.397
 6996SOL    HW221888   1.238   0.303   0.380
 6997SOL     OW21889   6.997   4.751   5.018
 6997SOL    HW121890   6.954   4.661   5.022
 6997SOL    HW221891   6.985   4.790   4.927
 6998SOL     OW21892   0.836   1.287   1.688
 6998SOL    HW121893   0.737   1.274   1.689
 6998SOL    HW221894   0.860   1.364   1.747
 6999SOL     OW21895   1.660   2.298   6.721
 6999SOL    HW121896   1.595   2.225   6.700
 6999SOL    HW221897   1.629   2.347   6.803
 7000SOL     OW21898   5.768   0.714   2.120
 7000SOL    HW121899   5.827   0.637   2.144
 7000SOL    HW221900   5.685   0.712   2.175
 7001SOL     OW21901   0.789   2.188   5.006
 7001SOL    HW121902   0.753   2.161   4.917
 7001SOL    HW221903   0.827   2.108   5.053
 7002SOL     OW21904   1.847   4.726   4.258
 7002SOL    HW121905   1.753   4.743   4.228
 7002SOL    HW221906   1.847   4.663   4.336
 7003SOL     OW21907   4.760   5.588   2.017
 7003SOL    HW121908   4.743   5.646   1.937
 7003SOL    HW221909   4.676   5.542   2.044
 7004SOL     OW21910   1.045   5.903   0.291
 7004SOL    HW121911   1.003   5.819   0.326
 7004SOL    HW221912   1.068   5.963   0.367
 7005SOL     OW21913   1.072   0.103   0.753
 7005SOL    HW121914   1.001   0.048   0.798
 7005SOL    HW221915   1.030   0.162   0.684
 7006SOL     OW21916   5.862   6.568   3.311
 7006SOL    HW121917   5.856   6.638   3.240
 7006SOL    HW221918   5.957   6.558   3.341
 7007SOL     OW21919   4.282   0.448   4.690
 7007SOL    HW121920   4.307   0.429   4.785
 7007SOL    HW221921   4.322   0.378   4.630
 7008SOL     OW21922   0.279   4.537   3.965
 7008SOL    HW121923   0.329   4.563   4.047
 7008SOL    HW221924   0.344   4.529   3.888
 7009SOL     OW21925   4.548   6.800   2.033
 7009SOL    HW121926   4.628   6.740   2.037
 7009SOL    HW221927   4.494   6.789   2.117
 7010SOL     OW21928   5.799   4.616   3.368
 7010SOL    HW121929   5.881   4.565   3.339
 7010SOL    HW221930   5.758   4.571   3.447
 7011SOL     OW21931   4.183   6.766   0.785
 7011SOL    HW121932   4.211   6.828   0.711
 7011SOL    HW221933   4.167   6.675   0.748
 7012SOL     OW21934   0.829   2.300   1.298
 7012SOL    HW121935   0.898   2.237   1.334
 7012SOL    HW221936   0.873   2.379   1.256
 7013SOL     OW21937   1.896   7.024   6.631
 7013SOL    HW121938   1.891   0.031   6.537
 7013SOL    HW221939   1.808   6.984   6.658
 7014SOL     OW21940   5.379   3.539   0.745
 7014SOL    HW121941   5.392   3.496   0.834
 7014SOL    HW221942   5.285   3.523   0.714
 7015SOL     OW21943   5.824   4.490   2.219
 7015SOL    HW121944   5.891   4.521   2.286
 7015SOL    HW221945   5.733   4.493   2.261
 7016SOL     OW21946   3.913   5.066   1.290
 7016SOL    HW121947   3.891   5.120   1.210
 7016SOL    HW221948   3.943   4.975   1.262
 7017SOL     OW21949   2.371   5.284   2.797
 7017SOL    HW121950   2.409   5.195   2.774
 7017SOL    HW221951   2.275   5.288   2.771
 7018SOL     OW21952   5.118   4.143   4.255
 7018SOL    HW121953   5.041   4.109   4.309
 7018SOL    HW221954   5.191   4.074   4.254
 7019SOL     OW21955   4.134   5.227   2.249
 7019SOL    HW121956   4.145   5.188   2.157
 7019SOL    HW221957   4.090   5.316   2.242
 7020SOL     OW21958   0.877   3.946   6.705
 7020SOL    HW121959   0.885   3.870   6.640
 7020SOL    HW221960   0.949   4.012   6.688
 7021SOL     OW21961   2.027   3.365   4.165
 7021SOL    HW121962   1.958   3.321   4.224
 7021SOL    HW221963   2.088   3.295   4.128
 7022SOL     OW21964   4.672   0.471   0.102
 7022SOL    HW121965   4.744   0.519   0.153
 7022SOL    HW221966   4.715   0.404   0.040
 7023SOL     OW21967   0.762   2.468   1.524
 7023SOL    HW121968   0.796   2.402   1.456
 7023SOL    HW221969   0.828   2.475   1.599
 7024SOL     OW21970   3.615   3.746   3.967
 7024SOL    HW121971   3.697   3.701   3.931
 7024SOL    HW221972   3.551   3.763   3.893
 7025SOL     OW21973   3.264   0.289   0.458
 7025SOL    HW121974   3.205   0.336   0.393
 7025SOL    HW221975   3.296   0.354   0.527
 7026SOL     OW21976   3.949   2.159   2.150
 7026SOL    HW121977   3.914   2.123   2.236
 7026SOL    HW221978   3.872   2.192   2.094
 7027SOL     OW21979   2.490   6.305   3.879
 7027SOL    HW121980   2.548   6.308   3.961
 7027SOL    HW221981   2.394   6.312   3.906
 7028SOL     OW21982   2.807   0.238   4.278
 7028SOL    HW121983   2.904   0.261   4.284
 7028SOL    HW221984   2.777   0.198   4.364
 7029SOL     OW21985   3.976   4.067   5.691
 7029SOL    HW121986   4.008   3.973   5.683
 7029SOL    HW221987   3.931   4.080   5.779
 7030SOL     OW21988   0.661   1.703   4.689
 7030SOL    HW121989   0.578   1.714   4.744
 7030SOL    HW221990   0.736   1.672   4.748
 7031SOL     OW21991   3.502   6.311   0.325
 7031SOL    HW121992   3.421   6.263   0.291
 7031SOL    HW221993   3.482   6.350   0.415
 7032SOL     OW21994   4.195   1.153   3.280
 7032SOL    HW121995   4.190   1.138   3.378
 7032SOL    HW221996   4.133   1.090   3.233
 7033SOL     OW21997   1.620   2.716   3.830
 7033SOL    HW121998   1.614   2.737   3.927
 7033SOL    HW221999   1.630   2.801   3.778
 7034SOL     OW22000   6.457   2.931   3.114
 7034SOL    HW122001   6.415   2.985   3.187
 7034SOL    HW222002   6.501   2.851   3.153
 7035SOL     OW22003   2.359   7.016   1.355
 7035SOL    HW122004   2.287   6.979   1.413
 7035SOL    HW222005   2.384   0.082   1.386
 7036SOL     OW22006   6.995   2.481   2.422
 7036SOL    HW122007   0.005   2.395   2.385
 7036SOL    HW222008   6.896   2.476   2.433
 7037SOL     OW22009   0.489   1.181   5.842
 7037SOL    HW122010   0.562   1.202   5.907
 7037SOL    HW222011   0.415   1.134   5.889
 7038SOL     OW22012   2.105   4.354   5.226
 7038SOL    HW122013   2.163   4.422   5.271
 7038SOL    HW222014   2.146   4.264   5.236
 7039SOL     OW22015   0.324   6.027   3.930
 7039SOL    HW122016   0.398   5.973   3.890
 7039SOL    HW222017   0.285   6.087   3.861
 7040SOL     OW22018   5.489   2.243   5.247
 7040SOL    HW122019   5.466   2.270   5.341
 7040SOL    HW222020   5.459   2.149   5.232
 7041SOL     OW22021   0.565   2.014   3.839
 7041SOL    HW122022   0.633   1.986   3.771
 7041SOL    HW222023   0.561   1.945   3.911
 7042SOL     OW22024   4.463   5.700   4.824
 7042SOL    HW122025   4.394   5.652   4.769
 7042SOL    HW222026   4.539   5.728   4.766
 7043SOL     OW22027   2.946   4.824   3.283
 7043SOL    HW122028   3.016   4.848   3.215
 7043SOL    HW222029   2.894   4.745   3.250
 7044SOL     OW22030   4.938   0.069   4.749
 7044SOL    HW122031   4.988   0.093   4.832
 7044SOL    HW222032   4.857   0.128   4.741
 7045SOL     OW22033   5.811   5.575   1.969
 7045SOL    HW122034   5.857   5.565   1.881
 7045SOL    HW222035   5.867   5.534   2.041
 7046SOL     OW22036   2.851   1.971   4.129
 7046SOL    HW122037   2.795   1.930   4.201
 7046SOL    HW222038   2.818   2.063   4.108
 7047SOL     OW22039   0.132   1.172   1.557
 7047SOL    HW122040   0.131   1.104   1.631
 7047SOL    HW222041   0.129   1.125   1.469
 7048SOL     OW22042   6.080   6.205   4.928
 7048SOL    HW122043   6.106   6.111   4.909
 7048SOL    HW222044   6.034   6.210   5.017
 7049SOL     OW22045   3.585   1.273   2.190
 7049SOL    HW122046   3.607   1.318   2.103
 7049SOL    HW222047   3.542   1.184   2.171
 7050SOL     OW22048   4.203   4.293   0.793
 7050SOL    HW122049   4.123   4.342   0.828
 7050SOL    HW222050   4.274   4.292   0.863
 7051SOL     OW22051   6.338   6.281   1.001
 7051SOL    HW122052   6.361   6.322   0.913
 7051SOL    HW222053   6.414   6.295   1.065
 7052SOL     OW22054   5.655   0.450   3.610
 7052SOL    HW122055   5.564   0.473   3.645
 7052SOL    HW222056   5.646   0.392   3.529
 7053SOL     OW22057   2.170   3.814   3.886
 7053SOL    HW122058   2.138   3.759   3.963
 7053SOL    HW222059   2.115   3.793   3.805
 7054SOL     OW22060   6.880   6.935   1.460
 7054SOL    HW122061   6.834   6.900   1.542
 7054SOL    HW222062   6.877   0.010   1.460
 7055SOL     OW22063   2.977   0.559   0.469
 7055SOL    HW122064   2.951   0.649   0.434
 7055SOL    HW222065   3.012   0.503   0.394
 7056SOL     OW22066   6.835   5.819   1.228
 7056SOL    HW122067   6.882   5.789   1.145
 7056SOL    HW222068   6.739   5.789   1.224
 7057SOL     OW22069   3.324   5.911   4.637
 7057SOL    HW122070   3.285   5.951   4.554
 7057SOL    HW222071   3.349   5.815   4.620
 7058SOL     OW22072   5.401   1.759   5.989
 7058SOL    HW122073   5.403   1.854   5.958
 7058SOL    HW222074   5.392   1.698   5.910
 7059SOL     OW22075   1.371   0.909   4.712
 7059SOL    HW122076   1.326   0.838   4.766
 7059SOL    HW222077   1.322   0.920   4.625
 7060SOL     OW22078   3.841   6.275   1.552
 7060SOL    HW122079   3.908   6.348   1.538
 7060SOL    HW222080   3.749   6.311   1.538
 7061SOL     OW22081   0.576   2.413   2.877
 7061SOL    HW122082   0.545   2.508   2.871
 7061SOL    HW222083   0.499   2.351   2.863
 7062SOL     OW22084   4.201   2.200   4.440
 7062SOL    HW122085   4.244   2.121   4.398
 7062SOL    HW222086   4.270   2.269   4.460
 7063SOL     OW22087   0.371   6.480   1.852
 7063SOL    HW122088   0.315   6.563   1.859
 7063SOL    HW222089   0.314   6.400   1.865
 7064SOL     OW22090   4.576   2.033   6.483
 7064SOL    HW122091   4.509   2.021   6.410
 7064SOL    HW222092   4.665   2.056   6.444
 7065SOL     OW22093   3.461   4.345   5.299
 7065SOL    HW122094   3.450   4.257   5.252
 7065SOL    HW222095   3.371   4.388   5.309
 7066SOL     OW22096   4.470   0.899   6.142
 7066SOL    HW122097   4.533   0.877   6.216
 7066SOL    HW222098   4.432   0.990   6.156
 7067SOL     OW22099   1.395   3.572   6.581
 7067SOL    HW122100   1.486   3.533   6.594
 7067SOL    HW222101   1.389   3.612   6.489
 7068SOL     OW22102   6.360   3.944   4.457
 7068SOL    HW122103   6.353   4.018   4.524
 7068SOL    HW222104   6.439   3.960   4.398
 7069SOL     OW22105   6.244   2.222   5.476
 7069SOL    HW122106   6.162   2.228   5.534
 7069SOL    HW222107   6.216   2.220   5.380
 7070SOL     OW22108   1.269   6.446   4.542
 7070SOL    HW122109   1.226   6.468   4.455
 7070SOL    HW222110   1.353   6.501   4.552
 7071SOL     OW22111   4.981   6.394   6.973
 7071SOL    HW122112   4.893   6.436   6.951
 7071SOL    HW222113   5.050   6.466   6.988
 7072SOL     OW22114   1.872   4.624   0.030
 7072SOL    HW122115   1.847   4.685   0.105
 7072SOL    HW222116   1.834   4.660   6.969
 7073SOL     OW22117   3.692   6.937   3.143
 7073SOL    HW122118   3.616   6.974   3.197
 7073SOL    HW222119   3.759   7.009   3.126
 7074SOL     OW22120   6.532   3.493   3.667
 7074SOL    HW122121   6.463   3.533   3.606
 7074SOL    HW222122   6.618   3.543   3.657
 7075SOL     OW22123   2.877   4.799   4.882
 7075SOL    HW122124   2.971   4.831   4.891
 7075SOL    HW222125   2.849   4.751   4.965
 7076SOL     OW22126   5.935   3.041   1.255
 7076SOL    HW122127   5.977   2.957   1.222
 7076SOL    HW222128   5.888   3.087   1.180
 7077SOL     OW22129   2.245   4.820   2.564
 7077SOL    HW122130   2.273   4.739   2.616
 7077SOL    HW222131   2.323   4.882   2.555
 7078SOL     OW22132   5.324   6.172   0.618
 7078SOL    HW122133   5.255   6.126   0.674
 7078SOL    HW222134   5.388   6.104   0.583
 7079SOL     OW22135   1.125   6.867   4.282
 7079SOL    HW122136   1.211   6.840   4.239
 7079SOL    HW222137   1.061   6.790   4.280
 7080SOL     OW22138   3.989   2.222   3.858
 7080SOL    HW122139   4.069   2.176   3.820
 7080SOL    HW222140   4.019   2.295   3.919
 7081SOL     OW22141   1.690   6.241   7.011
 7081SOL    HW122142   1.648   6.150   7.013
 7081SOL    HW222143   1.624   6.309   0.019
 7082SOL     OW22144   6.920   3.739   1.511
 7082SOL    HW122145   6.903   3.641   1.524
 7082SOL    HW222146   6.964   3.776   1.593
 7083SOL     OW22147   6.871   1.674   2.608
 7083SOL    HW122148   6.907   1.652   2.518
 7083SOL    HW222149   6.775   1.646   2.614
 7084SOL     OW22150   0.377   5.947   5.553
 7084SOL    HW122151   0.344   5.868   5.500
 7084SOL    HW222152   0.461   5.982   5.511
 7085SOL     OW22153   6.579   2.472   2.844
 7085SOL    HW122154   6.653   2.516   2.895
 7085SOL    HW222155   6.497   2.529   2.846
 7086SOL     OW22156   5.874   0.379   6.941
 7086SOL    HW122157   5.894   0.321   7.020
 7086SOL    HW222158   5.913   0.338   6.859
 7087SOL     OW22159   5.285   3.696   2.131
 7087SOL    HW122160   5.192   3.728   2.114
 7087SOL    HW222161   5.346   3.733   2.062
 7088SOL     OW22162   5.367   2.258   5.510
 7088SOL    HW122163   5.326   2.167   5.512
 7088SOL    HW222164   5.299   2.326   5.484
 7089SOL     OW22165   2.773   4.846   2.437
 7089SOL    HW122166   2.792   4.807   2.347
 7089SOL    HW222167   2.821   4.934   2.446
 7090SOL     OW22168   2.248   1.416   0.950
 7090SOL    HW122169   2.327   1.366   0.916
 7090SOL    HW222170   2.197   1.359   1.014
 7091SOL     OW22171   0.877   0.882   1.482
 7091SOL    HW122172   0.909   0.815   1.415
 7091SOL    HW222173   0.940   0.960   1.484
 7092SOL     OW22174   3.636   2.806   6.294
 7092SOL    HW122175   3.652   2.900   6.263
 7092SOL    HW222176   3.578   2.759   6.228
 7093SOL     OW22177   3.293   3.527   1.104
 7093SOL    HW122178   3.309   3.430   1.121
 7093SOL    HW222179   3.345   3.556   1.024
 7094SOL     OW22180   1.530   6.735   5.713
 7094SOL    HW122181   1.536   6.635   5.707
 7094SOL    HW222182   1.442   6.761   5.753
 7095SOL     OW22183   3.753   4.978   5.869
 7095SOL    HW122184   3.722   4.944   5.781
 7095SOL    HW222185   3.680   5.032   5.912
 7096SOL     OW22186   6.669   0.584   1.959
 7096SOL    HW122187   6.726   0.508   1.929
 7096SOL    HW222188   6.726   0.666   1.968
 7097SOL     OW22189   4.871   1.089   2.062
 7097SOL    HW122190   4.923   1.145   2.127
 7097SOL    HW222191   4.788   1.056   2.106
 7098SOL     OW22192   1.858   5.985   5.578
 7098SOL    HW122193   1.807   5.954   5.498
 7098SOL    HW222194   1.799   6.042   5.635
 7099SOL     OW22195   3.782   2.179   4.134
 7099SOL    HW122196   3.850   2.251   4.146
 7099SOL    HW222197   3.733   2.166   4.220
 7100SOL     OW22198   0.151   3.713   0.388
 7100SOL    HW122199   0.093   3.779   0.437
 7100SOL    HW222200   0.218   3.674   0.450
 7101SOL     OW22201   2.422   0.091   5.451
 7101SOL    HW122202   2.380   0.158   5.391
 7101SOL    HW222203   2.351   0.050   5.510
 7102SOL     OW22204   5.286   0.779   1.261
 7102SOL    HW122205   5.330   0.859   1.221
 7102SOL    HW222206   5.323   0.764   1.353
 7103SOL     OW22207   5.297   5.292   1.965
 7103SOL    HW122208   5.271   5.223   1.898
 7103SOL    HW222209   5.393   5.280   1.990
 7104SOL     OW22210   5.384   3.654   2.381
 7104SOL    HW122211   5.464   3.594   2.379
 7104SOL    HW222212   5.352   3.669   2.287
 7105SOL     OW22213   3.912   4.040   4.485
 7105SOL    HW122214   3.825   4.034   4.535
 7105SOL    HW222215   3.986   4.059   4.549
 7106SOL     OW22216   2.944   2.708   1.080
 7106SOL    HW122217   2.920   2.751   0.993
 7106SOL    HW222218   2.948   2.608   1.067
 7107SOL     OW22219   3.834   0.371   0.095
 7107SOL    HW122220   3.857   0.286   0.047
 7107SOL    HW222221   3.862   0.449   0.041
 7108SOL     OW22222   2.843   6.460   2.206
 7108SOL    HW122223   2.907   6.502   2.271
 7108SOL    HW222224   2.751   6.461   2.245
 7109SOL     OW22225   1.297   0.975   6.962
 7109SOL    HW122226   1.382   0.960   6.911
 7109SOL    HW222227   1.224   0.922   6.919
 7110SOL     OW22228   3.330   6.392   4.239
 7110SOL    HW122229   3.405   6.455   4.220
 7110SOL    HW222230   3.244   6.431   4.205
 7111SOL     OW22231   1.350   1.699   3.676
 7111SOL    HW122232   1.428   1.637   3.680
 7111SOL    HW222233   1.329   1.721   3.580
 7112SOL     OW22234   2.226   4.252   4.891
 7112SOL    HW122235   2.248   4.336   4.940
 7112SOL    HW222236   2.260   4.173   4.943
 7113SOL     OW22237   3.232   5.283   5.049
 7113SOL    HW122238   3.239   5.240   4.960
 7113SOL    HW222239   3.316   5.264   5.101
 7114SOL     OW22240   4.284   5.420   1.673
 7114SOL    HW122241   4.252   5.513   1.654
 7114SOL    HW222242   4.216   5.372   1.729
 7115SOL     OW22243   5.423   4.631   6.629
 7115SOL    HW122244   5.404   4.551   6.686
 7115SOL    HW222245   5.344   4.692   6.630
 7116SOL     OW22246   5.763   4.339   3.152
 7116SOL    HW122247   5.812   4.317   3.237
 7116SOL    HW222248   5.750   4.256   3.098
 7117SOL     OW22249   6.288   0.031   3.792
 7117SOL    HW122250   6.297   0.069   3.700
 7117SOL    HW222251   6.217   0.080   3.841
 7118SOL     OW22252   3.964   4.518   5.297
 7118SOL    HW122253   3.881   4.463   5.293
 7118SOL    HW222254   4.042   4.460   5.321
 7119SOL     OW22255   5.063   0.785   4.838
 7119SOL    HW122256   5.094   0.782   4.934
 7119SOL    HW222257   5.143   0.777   4.778
 7120SOL     OW22258   5.808   1.525   1.164
 7120SOL    HW122259   5.730   1.563   1.214
 7120SOL    HW222260   5.843   1.594   1.101
 7121SOL     OW22261   0.691   6.346   3.027
 7121SOL    HW122262   0.660   6.254   3.000
 7121SOL    HW222263   0.791   6.348   3.029
 7122SOL     OW22264   2.256   6.977   5.871
 7122SOL    HW122265   2.241   6.940   5.963
 7122SOL    HW222266   2.288   0.046   5.879
 7123SOL     OW22267   6.258   4.869   4.174
 7123SOL    HW122268   6.252   4.930   4.253
 7123SOL    HW222269   6.186   4.892   4.108
 7124SOL     OW22270   1.186   2.264   1.674
 7124SOL    HW122271   1.265   2.286   1.732
 7124SOL    HW222272   1.102   2.280   1.725
 7125SOL     OW22273   1.261   0.571   1.910
 7125SOL    HW122274   1.251   0.501   1.839
 7125SOL    HW222275   1.265   0.661   1.867
 7126SOL     OW22276   3.835   6.147   0.773
 7126SOL    HW122277   3.880   6.058   0.758
 7126SOL    HW222278   3.877   6.192   0.852
 7127SOL     OW22279   2.825   6.002   5.684
 7127SOL    HW122280   2.834   6.053   5.770
 7127SOL    HW222281   2.894   6.034   5.619
 7128SOL     OW22282   4.146   4.209   0.119
 7128SOL    HW122283   4.133   4.251   0.029
 7128SOL    HW222284   4.209   4.132   0.112
 7129SOL     OW22285   0.369   1.380   0.896
 7129SOL    HW122286   0.336   1.472   0.919
 7129SOL    HW222287   0.383   1.328   0.980
 7130SOL     OW22288   3.939   0.095   4.727
 7130SOL    HW122289   3.886   0.161   4.673
 7130SOL    HW222290   3.985   0.031   4.665
 7131SOL     OW22291   3.380   0.906   2.403
 7131SOL    HW122292   3.411   0.843   2.332
 7131SOL    HW222293   3.281   0.894   2.417
 7132SOL     OW22294   4.929   3.992   6.901
 7132SOL    HW122295   4.858   3.961   6.838
 7132SOL    HW222296   4.890   4.001   6.993
 7133SOL     OW22297   4.307   5.070   3.726
 7133SOL    HW122298   4.343   4.978   3.739
 7133SOL    HW222299   4.373   5.138   3.759
 7134SOL     OW22300   5.303   5.916   1.870
 7134SOL    HW122301   5.209   5.911   1.904
 7134SOL    HW222302   5.365   5.874   1.937
 7135SOL     OW22303   2.054   2.784   1.951
 7135SOL    HW122304   2.017   2.807   1.861
 7135SOL    HW222305   2.047   2.863   2.011
 7136SOL     OW22306   2.238   1.735   1.286
 7136SOL    HW122307   2.270   1.813   1.340
 7136SOL    HW222308   2.298   1.656   1.304
 7137SOL     OW22309   2.813   1.287   0.793
 7137SOL    HW122310   2.801   1.381   0.825
 7137SOL    HW222311   2.768   1.277   0.704
 7138SOL     OW22312   2.557   1.145   1.438
 7138SOL    HW122313   2.554   1.045   1.434
 7138SOL    HW222314   2.495   1.183   1.369
 7139SOL     OW22315   5.027   5.203   2.079
 7139SOL    HW122316   5.069   5.116   2.054
 7139SOL    HW222317   5.092   5.258   2.131
 7140SOL     OW22318   6.064   4.260   0.908
 7140SOL    HW122319   6.024   4.238   0.997
 7140SOL    HW222320   6.103   4.352   0.911
 7141SOL     OW22321   4.025   6.578   1.152
 7141SOL    HW122322   3.937   6.620   1.176
 7141SOL    HW222323   4.010   6.509   1.082
 7142SOL     OW22324   3.139   0.413   4.376
 7142SOL    HW122325   3.137   0.424   4.277
 7142SOL    HW222326   3.047   0.426   4.413
 7143SOL     OW22327   1.974   4.200   6.754
 7143SOL    HW122328   1.905   4.162   6.692
 7143SOL    HW222329   1.981   4.299   6.739
 7144SOL     OW22330   0.422   1.118   4.359
 7144SOL    HW122331   0.512   1.075   4.351
 7144SOL    HW222332   0.404   1.172   4.277
 7145SOL     OW22333   4.275   1.468   7.019
 7145SOL    HW122334   4.226   1.381   7.013
 7145SOL    HW222335   4.314   1.478   0.086
 7146SOL     OW22336   2.127   1.226   4.990
 7146SOL    HW122337   2.077   1.188   4.912
 7146SOL    HW222338   2.097   1.181   5.074
 7147SOL     OW22339   5.928   5.561   3.264
 7147SOL    HW122340   5.840   5.609   3.257
 7147SOL    HW222341   5.947   5.515   3.177
 7148SOL     OW22342   6.082   6.150   0.856
 7148SOL    HW122343   6.010   6.219   0.846
 7148SOL    HW222344   6.158   6.189   0.909
 7149SOL     OW22345   6.671   4.892   3.331
 7149SOL    HW122346   6.734   4.815   3.318
 7149SOL    HW222347   6.704   4.950   3.406
 7150SOL     OW22348   4.590   3.123   0.033
 7150SOL    HW122349   4.495   3.097   0.020
 7150SOL    HW222350   4.595   3.206   0.087
 7151SOL     OW22351   3.356   6.759   1.049
 7151SOL    HW122352   3.446   6.753   1.007
 7151SOL    HW222353   3.309   6.840   1.017
 7152SOL     OW22354   6.361   1.006   6.697
 7152SOL    HW122355   6.291   0.937   6.680
 7152SOL    HW222356   6.333   1.063   6.775
 7153SOL     OW22357   4.050   5.276   1.679
 7153SOL    HW122358   4.118   5.231   1.622
 7153SOL    HW222359   3.975   5.308   1.621
 7154SOL     OW22360   3.985   1.250   3.095
 7154SOL    HW122361   4.030   1.331   3.132
 7154SOL    HW222362   4.052   1.175   3.089
 7155SOL     OW22363   2.966   2.205   1.100
 7155SOL    HW122364   3.042   2.167   1.152
 7155SOL    HW222365   2.934   2.137   1.033
 7156SOL     OW22366   5.412   3.766   1.905
 7156SOL    HW122367   5.475   3.843   1.895
 7156SOL    HW222368   5.360   3.753   1.821
 7157SOL     OW22369   6.041   4.040   0.705
 7157SOL    HW122370   6.069   4.100   0.780
 7157SOL    HW222371   6.113   4.037   0.636
 7158SOL     OW22372   6.048   0.631   3.738
 7158SOL    HW122373   6.108   0.680   3.802
 7158SOL    HW222374   6.102   0.568   3.682
 7159SOL     OW22375   0.326   4.655   4.236
 7159SOL    HW122376   0.260   4.648   4.311
 7159SOL    HW222377   0.383   4.574   4.233
 7160SOL     OW22378   6.075   6.496   2.864
 7160SOL    HW122379   6.115   6.587   2.852
 7160SOL    HW222380   5.984   6.494   2.823
 7161SOL     OW22381   3.570   3.680   3.164
 7161SOL    HW122382   3.478   3.657   3.196
 7161SOL    HW222383   3.637   3.625   3.215
 7162SOL     OW22384   0.116   4.802   0.777
 7162SOL    HW122385   0.100   4.705   0.799
 7162SOL    HW222386   0.057   4.859   0.833
 7163SOL     OW22387   1.584   1.527   2.990
 7163SOL    HW122388   1.540   1.451   3.038
 7163SOL    HW222389   1.652   1.569   3.049
 7164SOL     OW22390   1.849   1.025   5.655
 7164SOL    HW122391   1.819   1.112   5.615
 7164SOL    HW222392   1.937   1.038   5.700
 7165SOL     OW22393   5.435   6.662   0.911
 7165SOL    HW122394   5.480   6.673   0.822
 7165SOL    HW222395   5.375   6.581   0.908
 7166SOL     OW22396   5.205   0.867   5.893
 7166SOL    HW122397   5.247   0.777   5.899
 7166SOL    HW222398   5.171   0.882   5.800
 7167SOL     OW22399   6.035   2.281   5.676
 7167SOL    HW122400   5.937   2.281   5.657
 7167SOL    HW222401   6.050   2.295   5.774
 7168SOL     OW22402   3.091   0.746   3.053
 7168SOL    HW122403   3.031   0.719   2.978
 7168SOL    HW222404   3.162   0.808   3.017
 7169SOL     OW22405   1.684   3.986   5.296
 7169SOL    HW122406   1.627   3.926   5.351
 7169SOL    HW222407   1.708   3.940   5.211
 7170SOL     OW22408   4.619   0.180   2.322
 7170SOL    HW122409   4.634   0.153   2.418
 7170SOL    HW222410   4.696   0.235   2.290
 7171SOL     OW22411   5.967   4.922   0.901
 7171SOL    HW122412   6.066   4.907   0.898
 7171SOL    HW222413   5.942   4.994   0.837
 7172SOL     OW22414   1.728   1.484   4.904
 7172SOL    HW122415   1.766   1.485   4.996
 7172SOL    HW222416   1.762   1.563   4.853
 7173SOL     OW22417   5.877   5.793   6.693
 7173SOL    HW122418   5.923   5.728   6.632
 7173SOL    HW222419   5.796   5.749   6.732
 7174SOL     OW22420   6.502   4.417   1.327
 7174SOL    HW122421   6.488   4.355   1.249
 7174SOL    HW222422   6.479   4.510   1.301
 7175SOL     OW22423   6.453   4.135   5.174
 7175SOL    HW122424   6.397   4.141   5.257
 7175SOL    HW222425   6.485   4.041   5.162
 7176SOL     OW22426   0.690   1.247   3.978
 7176SOL    HW122427   0.698   1.164   3.923
 7176SOL    HW222428   0.716   1.226   4.073
 7177SOL     OW22429   1.940   5.465   5.621
 7177SOL    HW122430   1.985   5.489   5.707
 7177SOL    HW222431   1.870   5.534   5.600
 7178SOL     OW22432   0.310   0.446   5.392
 7178SOL    HW122433   0.334   0.349   5.384
 7178SOL    HW222434   0.366   0.489   5.462
 7179SOL     OW22435   2.214   4.527   5.437
 7179SOL    HW122436   2.260   4.615   5.450
 7179SOL    HW222437   2.151   4.510   5.513
 7180SOL     OW22438   2.669   4.434   0.448
 7180SOL    HW122439   2.760   4.393   0.450
 7180SOL    HW222440   2.600   4.364   0.466
 7181SOL     OW22441   2.396   1.102   6.194
 7181SOL    HW122442   2.311   1.075   6.148
 7181SOL    HW222443   2.443   1.020   6.226
 7182SOL     OW22444   0.819   3.708   4.043
 7182SOL    HW122445   0.763   3.695   4.125
 7182SOL    HW222446   0.764   3.692   3.962
 7183SOL     OW22447   1.784   6.218   1.649
 7183SOL    HW122448   1.867   6.269   1.627
 7183SOL    HW222449   1.780   6.136   1.592
 7184SOL     OW22450   5.626   1.474   3.147
 7184SOL    HW122451   5.712   1.450   3.101
 7184SOL    HW222452   5.575   1.539   3.090
 7185SOL     OW22453   5.462   1.152   5.305
 7185SOL    HW122454   5.544   1.209   5.315
 7185SOL    HW222455   5.489   1.055   5.303
 7186SOL     OW22456   0.328   0.451   0.764
 7186SOL    HW122457   0.288   0.445   0.672
 7186SOL    HW222458   0.383   0.370   0.782
 7187SOL     OW22459   2.870   3.608   4.756
 7187SOL    HW122460   2.791   3.549   4.740
 7187SOL    HW222461   2.868   3.643   4.849
 7188SOL     OW22462   4.695   3.967   6.766
 7188SOL    HW122463   4.717   4.062   6.744
 7188SOL    HW222464   4.733   3.907   6.695
 7189SOL     OW22465   6.143   3.388   5.266
 7189SOL    HW122466   6.203   3.308   5.261
 7189SOL    HW222467   6.158   3.435   5.352
 7190SOL     OW22468   5.849   5.533   0.793
 7190SOL    HW122469   5.810   5.450   0.834
 7190SOL    HW222470   5.850   5.606   0.861
 7191SOL     OW22471   1.073   4.077   3.320
 7191SOL    HW122472   1.016   4.007   3.364
 7191SOL    HW222473   1.058   4.165   3.365
 7192SOL     OW22474   2.237   3.669   6.112
 7192SOL    HW122475   2.267   3.727   6.188
 7192SOL    HW222476   2.222   3.725   6.031
 7193SOL     OW22477   2.466   2.154   2.775
 7193SOL    HW122478   2.506   2.150   2.867
 7193SOL    HW222479   2.538   2.145   2.707
 7194SOL     OW22480   2.110   1.945   0.062
 7194SOL    HW122481   2.155   1.887   7.019
 7194SOL    HW222482   2.117   1.902   0.152
 7195SOL     OW22483   6.581   4.001   6.665
 7195SOL    HW122484   6.619   3.924   6.615
 7195SOL    HW222485   6.635   4.017   6.748
 7196SOL     OW22486   3.234   3.720   2.512
 7196SOL    HW122487   3.257   3.780   2.435
 7196SOL    HW222488   3.162   3.761   2.566
 7197SOL     OW22489   1.020   3.716   5.441
 7197SOL    HW122490   1.002   3.748   5.534
 7197SOL    HW222491   1.116   3.691   5.432
 7198SOL     OW22492   0.405   0.874   0.446
 7198SOL    HW122493   0.328   0.935   0.426
 7198SOL    HW222494   0.488   0.908   0.402
 7199SOL     OW22495   0.985   0.101   2.528
 7199SOL    HW122496   1.026   0.051   2.604
 7199SOL    HW222497   1.012   0.197   2.532
 7200SOL     OW22498   1.855   2.990   1.075
 7200SOL    HW122499   1.870   3.036   1.162
 7200SOL    HW222500   1.838   2.892   1.091
 7201SOL     OW22501   0.285   5.441   4.321
 7201SOL    HW122502   0.273   5.512   4.391
 7201SOL    HW222503   0.214   5.371   4.332
 7202SOL     OW22504   5.044   0.037   5.946
 7202SOL    HW122505   5.066   7.018   6.033
 7202SOL    HW222506   4.971   7.011   5.900
 7203SOL     OW22507   0.555   0.719   1.835
 7203SOL    HW122508   0.608   0.652   1.888
 7203SOL    HW222509   0.617   0.770   1.776
 7204SOL     OW22510   6.421   1.795   0.755
 7204SOL    HW122511   6.352   1.790   0.827
 7204SOL    HW222512   6.508   1.759   0.790
 7205SOL     OW22513   1.115   3.031   4.659
 7205SOL    HW122514   1.177   3.108   4.648
 7205SOL    HW222515   1.122   2.971   4.579
 7206SOL     OW22516   1.372   1.562   1.181
 7206SOL    HW122517   1.354   1.504   1.260
 7206SOL    HW222518   1.406   1.651   1.212
 7207SOL     OW22519   2.614   1.536   4.042
 7207SOL    HW122520   2.574   1.507   3.955
 7207SOL    HW222521   2.683   1.469   4.071
 7208SOL     OW22522   4.286   0.338   3.967
 7208SOL    HW122523   4.385   0.343   3.978
 7208SOL    HW222524   4.245   0.291   4.045
 7209SOL     OW22525   2.169   2.325   2.398
 7209SOL    HW122526   2.125   2.256   2.456
 7209SOL    HW222527   2.119   2.332   2.312
 7210SOL     OW22528   3.384   1.739   3.098
 7210SOL    HW122529   3.352   1.819   3.048
 7210SOL    HW222530   3.476   1.757   3.134
 7211SOL     OW22531   2.786   6.305   5.459
 7211SOL    HW122532   2.792   6.354   5.372
 7211SOL    HW222533   2.845   6.223   5.455
 7212SOL     OW22534   5.851   6.695   6.701
 7212SOL    HW122535   5.754   6.720   6.694
 7212SOL    HW222536   5.861   6.597   6.681
 7213SOL     OW22537   3.614   6.448   6.669
 7213SOL    HW122538   3.674   6.391   6.613
 7213SOL    HW222539   3.638   6.437   6.766
 7214SOL     OW22540   0.007   0.466   6.041
 7214SOL    HW122541   6.961   0.460   6.111
 7214SOL    HW222542   0.060   0.381   6.039
 7215SOL     OW22543   6.476   2.628   3.848
 7215SOL    HW122544   6.426   2.561   3.795
 7215SOL    HW222545   6.570   2.635   3.813
 7216SOL     OW22546   3.162   6.362   1.936
 7216SOL    HW122547   3.161   6.399   1.843
 7216SOL    HW222548   3.096   6.411   1.992
 7217SOL     OW22549   2.034   4.092   3.966
 7217SOL    HW122550   2.051   4.010   4.022
 7217SOL    HW222551   2.023   4.171   4.027
 7218SOL     OW22552   6.882   3.442   3.668
 7218SOL    HW122553   6.964   3.482   3.628
 7218SOL    HW222554   6.908   3.380   3.742
 7219SOL     OW22555   2.960   6.833   1.057
 7219SOL    HW122556   2.948   6.904   0.988
 7219SOL    HW222557   2.964   6.875   1.148
 7220SOL     OW22558   6.719   4.424   4.196
 7220SOL    HW122559   6.719   4.469   4.285
 7220SOL    HW222560   6.748   4.329   4.207
 7221SOL     OW22561   3.430   5.965   4.896
 7221SOL    HW122562   3.397   5.930   4.809
 7221SOL    HW222563   3.416   6.064   4.900
 7222SOL     OW22564   5.337   0.082   2.966
 7222SOL    HW122565   5.423   0.048   2.927
 7222SOL    HW222566   5.289   0.007   3.010
 7223SOL     OW22567   2.728   1.329   0.529
 7223SOL    HW122568   2.706   1.280   0.444
 7223SOL    HW222569   2.655   1.395   0.548
 7224SOL     OW22570   4.722   2.739   4.496
 7224SOL    HW122571   4.786   2.674   4.537
 7224SOL    HW222572   4.755   2.832   4.512
 7225SOL     OW22573   1.447   6.146   0.973
 7225SOL    HW122574   1.511   6.197   1.030
 7225SOL    HW222575   1.498   6.091   0.907
 7226SOL     OW22576   6.202   0.904   1.031
 7226SOL    HW122577   6.252   0.858   0.958
 7226SOL    HW222578   6.185   0.839   1.106
 7227SOL     OW22579   2.951   1.096   1.912
 7227SOL    HW122580   2.893   1.017   1.891
 7227SOL    HW222581   2.904   1.179   1.882
 7228SOL     OW22582   0.669   1.587   3.171
 7228SOL    HW122583   0.766   1.562   3.169
 7228SOL    HW222584   0.620   1.540   3.097
 7229SOL     OW22585   0.115   6.726   4.482
 7229SOL    HW122586   0.147   6.821   4.485
 7229SOL    HW222587   0.080   6.705   4.391
 7230SOL     OW22588   2.465   5.246   3.459
 7230SOL    HW122589   2.495   5.257   3.554
 7230SOL    HW222590   2.489   5.328   3.407
 7231SOL     OW22591   3.834   0.288   1.078
 7231SOL    HW122592   3.837   0.227   0.999
 7231SOL    HW222593   3.920   0.337   1.087
 7232SOL     OW22594   5.008   6.705   2.458
 7232SOL    HW122595   4.963   6.769   2.396
 7232SOL    HW222596   5.008   6.742   2.550
 7233SOL     OW22597   0.717   1.332   5.313
 7233SOL    HW122598   0.756   1.243   5.333
 7233SOL    HW222599   0.660   1.326   5.231
 7234SOL     OW22600   5.251   3.499   2.876
 7234SOL    HW122601   5.320   3.442   2.831
 7234SOL    HW222602   5.208   3.559   2.809
 7235SOL     OW22603   6.493   5.007   1.380
 7235SOL    HW122604   6.475   5.056   1.294
 7235SOL    HW222605   6.548   5.065   1.440
 7236SOL     OW22606   1.735   2.139   2.516
 7236SOL    HW122607   1.695   2.230   2.506
 7236SOL    HW222608   1.715   2.104   2.608
 7237SOL     OW22609   4.746   6.867   6.534
 7237SOL    HW122610   4.697   6.780   6.538
 7237SOL    HW222611   4.745   6.901   6.440
 7238SOL     OW22612   4.536   2.664   6.467
 7238SOL    HW122613   4.521   2.619   6.555
 7238SOL    HW222614   4.448   2.691   6.427
 7239SOL     OW22615   0.928   2.841   2.595
 7239SOL    HW122616   1.028   2.842   2.601
 7239SOL    HW222617   0.895   2.934   2.581
 7240SOL     OW22618   6.636   1.575   0.433
 7240SOL    HW122619   6.635   1.649   0.367
 7240SOL    HW222620   6.572   1.503   0.404
 7241SOL     OW22621   2.035   6.754   0.420
 7241SOL    HW122622   2.003   6.848   0.422
 7241SOL    HW222623   2.099   6.742   0.344
 7242SOL     OW22624   0.101   5.800   5.222
 7242SOL    HW122625   0.021   5.821   5.167
 7242SOL    HW222626   0.125   5.879   5.278
 7243SOL     OW22627   6.759   4.246   6.644
 7243SOL    HW122628   6.825   4.282   6.578
 7243SOL    HW222629   6.718   4.163   6.608
 7244SOL     OW22630   0.338   0.134   0.786
 7244SOL    HW122631   0.293   0.126   0.875
 7244SOL    HW222632   0.275   0.106   0.714
 7245SOL     OW22633   1.608   2.263   5.583
 7245SOL    HW122634   1.707   2.251   5.573
 7245SOL    HW222635   1.586   2.274   5.680
 7246SOL     OW22636   1.858   0.943   3.908
 7246SOL    HW122637   1.761   0.965   3.901
 7246SOL    HW222638   1.872   0.874   3.980
 7247SOL     OW22639   3.014   2.031   5.710
 7247SOL    HW122640   2.965   2.087   5.777
 7247SOL    HW222641   2.989   2.060   5.618
 7248SOL     OW22642   3.435   0.293   3.691
 7248SOL    HW122643   3.471   0.375   3.736
 7248SOL    HW222644   3.337   0.285   3.709
 7249SOL     OW22645   4.699   5.111   1.913
 7249SOL    HW122646   4.773   5.064   1.865
 7249SOL    HW222647   4.611   5.080   1.879
 7250SOL     OW22648   5.146   5.135   5.558
 7250SOL    HW122649   5.213   5.133   5.483
 7250SOL    HW222650   5.151   5.224   5.603
 7251SOL     OW22651   0.766   0.400   5.471
 7251SOL    HW122652   0.712   0.482   5.494
 7251SOL    HW222653   0.766   0.388   5.372
 7252SOL     OW22654   2.851   3.809   1.724
 7252SOL    HW122655   2.753   3.816   1.742
 7252SOL    HW222656   2.874   3.714   1.702
 7253SOL     OW22657   1.562   5.906   6.468
 7253SOL    HW122658   1.651   5.918   6.423
 7253SOL    HW222659   1.520   5.996   6.483
 7254SOL     OW22660   5.940   5.129   4.485
 7254SOL    HW122661   6.032   5.161   4.508
 7254SOL    HW222662   5.878   5.207   4.482
 7255SOL     OW22663   4.557   3.799   6.932
 7255SOL    HW122664   4.578   3.785   0.004
 7255SOL    HW222665   4.628   3.855   6.890
 7256SOL     OW22666   3.932   6.589   5.475
 7256SOL    HW122667   3.924   6.689   5.475
 7256SOL    HW222668   3.971   6.559   5.562
 7257SOL     OW22669   0.583   2.117   4.235
 7257SOL    HW122670   0.536   2.040   4.279
 7257SOL    HW222671   0.679   2.118   4.262
 7258SOL     OW22672   5.871   1.885   2.679
 7258SOL    HW122673   5.819   1.813   2.634
 7258SOL    HW222674   5.877   1.965   2.618
 7259SOL     OW22675   1.248   3.082   2.347
 7259SOL    HW122676   1.259   2.990   2.386
 7259SOL    HW222677   1.157   3.090   2.307
 7260SOL     OW22678   5.225   1.935   1.386
 7260SOL    HW122679   5.299   1.997   1.359
 7260SOL    HW222680   5.138   1.985   1.385
 7261SOL     OW22681   0.675   4.689   1.042
 7261SOL    HW122682   0.601   4.705   1.108
 7261SOL    HW222683   0.676   4.592   1.017
 7262SOL     OW22684   5.591   1.390   6.967
 7262SOL    HW122685   5.640   1.389   6.879
 7262SOL    HW222686   5.531   1.470   6.971
 7263SOL     OW22687   0.473   6.110   6.981
 7263SOL    HW122688   0.375   6.131   6.975
 7263SOL    HW222689   0.523   6.166   6.915
 7264SOL     OW22690   5.382   0.925   0.928
 7264SOL    HW122691   5.460   0.895   0.874
 7264SOL    HW222692   5.318   0.849   0.940
 7265SOL     OW22693   5.874   4.973   5.324
 7265SOL    HW122694   5.861   4.982   5.225
 7265SOL    HW222695   5.866   5.063   5.367
 7266SOL     OW22696   6.534   1.197   3.361
 7266SOL    HW122697   6.489   1.129   3.303
 7266SOL    HW222698   6.514   1.178   3.457
 7267SOL     OW22699   6.563   6.701   4.402
 7267SOL    HW122700   6.553   6.746   4.313
 7267SOL    HW222701   6.517   6.756   4.472
 7268SOL     OW22702   6.899   6.142   4.219
 7268SOL    HW122703   6.961   6.177   4.289
 7268SOL    HW222704   6.808   6.130   4.258
 7269SOL     OW22705   1.701   5.956   5.933
 7269SOL    HW122706   1.743   6.032   5.983
 7269SOL    HW222707   1.757   5.874   5.943
 7270SOL     OW22708   0.320   2.654   4.521
 7270SOL    HW122709   0.272   2.652   4.433
 7270SOL    HW222710   0.286   2.729   4.577
 7271SOL     OW22711   0.947   4.582   4.320
 7271SOL    HW122712   1.039   4.604   4.351
 7271SOL    HW222713   0.880   4.622   4.383
 7272SOL     OW22714   6.223   5.724   2.127
 7272SOL    HW122715   6.245   5.808   2.076
 7272SOL    HW222716   6.307   5.684   2.164
 7273SOL     OW22717   5.461   3.855   0.484
 7273SOL    HW122718   5.390   3.788   0.466
 7273SOL    HW222719   5.490   3.849   0.580
 7274SOL     OW22720   0.343   4.900   6.884
 7274SOL    HW122721   0.378   4.879   6.792
 7274SOL    HW222722   0.332   4.815   6.935
 7275SOL     OW22723   0.415   6.173   2.501
 7275SOL    HW122724   0.432   6.246   2.435
 7275SOL    HW222725   0.324   6.184   2.540
 7276SOL     OW22726   5.488   0.775   3.314
 7276SOL    HW122727   5.425   0.698   3.307
 7276SOL    HW222728   5.571   0.747   3.364
 7277SOL     OW22729   5.031   0.504   4.291
 7277SOL    HW122730   5.101   0.446   4.332
 7277SOL    HW222731   5.045   0.509   4.193
 7278SOL     OW22732   3.771   3.263   1.372
 7278SOL    HW122733   3.830   3.216   1.306
 7278SOL    HW222734   3.675   3.245   1.348
 7279SOL     OW22735   4.548   5.370   6.454
 7279SOL    HW122736   4.512   5.340   6.366
 7279SOL    HW222737   4.645   5.391   6.445
 7280SOL     OW22738   0.466   0.776   3.603
 7280SOL    HW122739   0.517   0.819   3.529
 7280SOL    HW222740   0.408   0.845   3.648
 7281SOL     OW22741   2.866   1.710   0.175
 7281SOL    HW122742   2.806   1.689   0.252
 7281SOL    HW222743   2.817   1.770   0.112
 7282SOL     OW22744   5.853   5.188   2.469
 7282SOL    HW122745   5.801   5.220   2.548
 7282SOL    HW222746   5.796   5.128   2.414
 7283SOL     OW22747   3.437   1.428   3.212
 7283SOL    HW122748   3.451   1.444   3.114
 7283SOL    HW222749   3.340   1.442   3.234
 7284SOL     OW22750   0.801   3.388   6.413
 7284SOL    HW122751   0.853   3.374   6.328
 7284SOL    HW222752   0.838   3.328   6.484
 7285SOL     OW22753   4.928   3.872   2.435
 7285SOL    HW122754   5.027   3.856   2.437
 7285SOL    HW222755   4.898   3.880   2.340
 7286SOL     OW22756   2.523   1.047   0.453
 7286SOL    HW122757   2.564   1.127   0.410
 7286SOL    HW222758   2.594   0.977   0.466
 7287SOL     OW22759   6.642   2.142   6.372
 7287SOL    HW122760   6.559   2.112   6.419
 7287SOL    HW222761   6.620   2.171   6.279
 7288SOL     OW22762   2.575   0.773   0.291
 7288SOL    HW122763   2.522   0.853   0.264
 7288SOL    HW222764   2.611   0.785   0.384
 7289SOL     OW22765   5.427   1.667   4.427
 7289SOL    HW122766   5.499   1.667   4.358
 7289SOL    HW222767   5.348   1.617   4.392
 7290SOL     OW22768   3.525   0.190   5.474
 7290SOL    HW122769   3.543   0.109   5.530
 7290SOL    HW222770   3.610   0.240   5.458
 7291SOL     OW22771   1.355   6.791   0.799
 7291SOL    HW122772   1.363   6.803   0.700
 7291SOL    HW222773   1.444   6.808   0.841
 7292SOL     OW22774   2.857   1.482   3.482
 7292SOL    HW122775   2.949   1.470   3.518
 7292SOL    HW222776   2.805   1.397   3.492
 7293SOL     OW22777   1.717   1.945   5.502
 7293SOL    HW122778   1.774   1.868   5.476
 7293SOL    HW222779   1.764   1.999   5.572
 7294SOL     OW22780   2.162   5.202   6.925
 7294SOL    HW122781   2.206   5.291   6.930
 7294SOL    HW222782   2.113   5.184   7.010
 7295SOL     OW22783   0.800   2.148   0.729
 7295SOL    HW122784   0.766   2.061   0.692
 7295SOL    HW222785   0.830   2.135   0.823
 7296SOL     OW22786   2.743   4.902   1.063
 7296SOL    HW122787   2.772   4.932   1.154
 7296SOL    HW222788   2.687   4.820   1.071
 7297SOL     OW22789   3.587   6.027   0.694
 7297SOL    HW122790   3.670   6.069   0.730
 7297SOL    HW222791   3.582   5.932   0.724
 7298SOL     OW22792   4.589   3.937   5.499
 7298SOL    HW122793   4.637   3.994   5.433
 7298SOL    HW222794   4.607   3.841   5.480
 7299SOL     OW22795   0.741   1.747   0.403
 7299SOL    HW122796   0.780   1.758   0.312
 7299SOL    HW222797   0.783   1.668   0.448
 7300SOL     OW22798   6.246   6.120   2.221
 7300SOL    HW122799   6.170   6.166   2.267
 7300SOL    HW222800   6.328   6.126   2.278
 7301SOL     OW22801   6.487   1.273   4.830
 7301SOL    HW122802   6.487   1.371   4.849
 7301SOL    HW222803   6.551   1.253   4.756
 7302SOL     OW22804   0.943   2.333   5.980
 7302SOL    HW122805   0.957   2.393   6.059
 7302SOL    HW222806   0.865   2.272   5.998
 7303SOL     OW22807   4.915   0.248   6.744
 7303SOL    HW122808   5.009   0.234   6.775
 7303SOL    HW222809   4.907   0.339   6.702
 7304SOL     OW22810   4.235   5.095   6.819
 7304SOL    HW122811   4.302   5.131   6.754
 7304SOL    HW222812   4.186   5.172   6.861
 7305SOL     OW22813   4.554   1.400   6.885
 7305SOL    HW122814   4.624   1.433   6.949
 7305SOL    HW222815   4.474   1.460   6.890
 7306SOL     OW22816   5.226   2.662   1.523
 7306SOL    HW122817   5.136   2.673   1.566
 7306SOL    HW222818   5.247   2.744   1.470
 7307SOL     OW22819   2.212   0.077   2.682
 7307SOL    HW122820   2.126   0.032   2.708
 7307SOL    HW222821   2.279   0.009   2.655
 7308SOL     OW22822   6.505   4.147   5.754
 7308SOL    HW122823   6.556   4.211   5.697
 7308SOL    HW222824   6.433   4.195   5.803
 7309SOL     OW22825   4.661   5.665   0.972
 7309SOL    HW122826   4.691   5.582   1.020
 7309SOL    HW222827   4.627   5.640   0.881
 7310SOL     OW22828   2.284   3.677   1.417
 7310SOL    HW122829   2.353   3.745   1.394
 7310SOL    HW222830   2.295   3.650   1.513
 7311SOL     OW22831   3.608   1.977   1.893
 7311SOL    HW122832   3.650   2.058   1.933
 7311SOL    HW222833   3.647   1.895   1.934
 7312SOL     OW22834   0.242   3.607   6.137
 7312SOL    HW122835   0.207   3.636   6.048
 7312SOL    HW222836   0.339   3.585   6.129
 7313SOL     OW22837   3.182   1.994   6.371
 7313SOL    HW122838   3.241   1.916   6.395
 7313SOL    HW222839   3.152   2.040   6.454
 7314SOL     OW22840   6.805   4.556   5.178
 7314SOL    HW122841   6.834   4.589   5.268
 7314SOL    HW222842   6.743   4.478   5.191
 7315SOL     OW22843   6.637   0.620   3.029
 7315SOL    HW122844   6.617   0.701   2.975
 7315SOL    HW222845   6.609   0.636   3.124
 7316SOL     OW22846   3.206   4.176   6.291
 7316SOL    HW122847   3.304   4.182   6.311
 7316SOL    HW222848   3.184   4.235   6.214
 7317SOL     OW22849   4.309   1.378   2.636
 7317SOL    HW122850   4.323   1.459   2.579
 7317SOL    HW222851   4.365   1.303   2.601
 7318SOL     OW22852   1.306   0.854   1.000
 7318SOL    HW122853   1.358   0.810   1.073
 7318SOL    HW222854   1.367   0.908   0.942
 7319SOL     OW22855   6.651   4.025   6.308
 7319SOL    HW122856   6.744   4.029   6.272
 7319SOL    HW222857   6.634   3.935   6.347
 7320SOL     OW22858   6.705   3.977   1.742
 7320SOL    HW122859   6.716   3.890   1.791
 7320SOL    HW222860   6.685   3.958   1.646
 7321SOL     OW22861   2.476   6.679   5.337
 7321SOL    HW122862   2.541   6.634   5.275
 7321SOL    HW222863   2.444   6.764   5.296
 7322SOL     OW22864   6.102   2.308   3.549
 7322SOL    HW122865   6.113   2.386   3.487
 7322SOL    HW222866   6.175   2.242   3.533
 7323SOL     OW22867   2.119   1.778   1.879
 7323SOL    HW122868   2.167   1.795   1.964
 7323SOL    HW222869   2.033   1.829   1.878
 7324SOL     OW22870   5.076   5.984   2.199
 7324SOL    HW122871   5.111   5.960   2.289
 7324SOL    HW222872   5.130   6.058   2.160
 7325SOL     OW22873   3.435   6.567   0.775
 7325SOL    HW122874   3.370   6.568   0.850
 7325SOL    HW222875   3.405   6.502   0.705
 7326SOL     OW22876   3.124   6.470   5.657
 7326SOL    HW122877   3.201   6.533   5.653
 7326SOL    HW222878   3.147   6.386   5.607
 7327SOL     OW22879   6.137   2.704   6.423
 7327SOL    HW122880   6.176   2.796   6.433
 7327SOL    HW222881   6.054   2.709   6.369
 7328SOL     OW22882   3.372   0.431   6.078
 7328SOL    HW122883   3.368   0.377   5.994
 7328SOL    HW222884   3.419   0.517   6.060
 7329SOL     OW22885   5.377   4.573   1.405
 7329SOL    HW122886   5.443   4.625   1.458
 7329SOL    HW222887   5.416   4.553   1.315
 7330SOL     OW22888   2.293   2.128   0.144
 7330SOL    HW122889   2.228   2.052   0.135
 7330SOL    HW222890   2.328   2.153   0.054
 7331SOL     OW22891   5.895   6.884   2.096
 7331SOL    HW122892   5.802   6.888   2.060
 7331SOL    HW222893   5.945   6.966   2.070
 7332SOL     OW22894   2.072   5.802   0.620
 7332SOL    HW122895   2.077   5.715   0.669
 7332SOL    HW222896   1.979   5.838   0.626
 7333SOL     OW22897   0.368   3.064   2.790
 7333SOL    HW122898   0.400   3.143   2.842
 7333SOL    HW222899   0.445   3.021   2.744
 7334SOL     OW22900   3.336   6.230   7.008
 7334SOL    HW122901   3.378   6.265   6.925
 7334SOL    HW222902   3.314   6.133   6.996
 7335SOL     OW22903   1.605   2.368   2.583
 7335SOL    HW122904   1.685   2.399   2.635
 7335SOL    HW222905   1.532   2.435   2.593
 7336SOL     OW22906   1.391   6.541   3.409
 7336SOL    HW122907   1.452   6.600   3.356
 7336SOL    HW222908   1.300   6.583   3.413
 7337SOL     OW22909   0.220   3.521   1.732
 7337SOL    HW122910   0.179   3.430   1.742
 7337SOL    HW222911   0.148   3.590   1.735
 7338SOL     OW22912   6.481   2.639   1.203
 7338SOL    HW122913   6.464   2.628   1.105
 7338SOL    HW222914   6.575   2.612   1.224
 7339SOL     OW22915   5.088   6.032   3.669
 7339SOL    HW122916   5.027   6.092   3.722
 7339SOL    HW222917   5.093   5.942   3.713
 7340SOL     OW22918   1.947   0.772   1.156
 7340SOL    HW122919   1.931   0.843   1.225
 7340SOL    HW222920   1.964   0.685   1.202
 7341SOL     OW22921   6.563   3.125   0.010
 7341SOL    HW122922   6.503   3.158   0.082
 7341SOL    HW222923   6.635   3.067   0.050
 7342SOL     OW22924   6.867   1.117   1.805
 7342SOL    HW122925   6.935   1.047   1.779
 7342SOL    HW222926   6.915   1.198   1.839
 7343SOL     OW22927   5.135   3.416   6.967
 7343SOL    HW122928   5.096   3.344   0.001
 7343SOL    HW222929   5.199   3.375   6.902
 7344SOL     OW22930   0.602   0.792   6.641
 7344SOL    HW122931   0.601   0.809   6.542
 7344SOL    HW222932   0.521   0.834   6.682
 7345SOL     OW22933   4.500   3.371   5.532
 7345SOL    HW122934   4.599   3.379   5.517
 7345SOL    HW222935   4.450   3.408   5.454
 7346SOL     OW22936   3.920   6.101   2.474
 7346SOL    HW122937   3.978   6.133   2.549
 7346SOL    HW222938   3.861   6.176   2.444
 7347SOL     OW22939   0.829   1.950   1.157
 7347SOL    HW122940   0.881   1.907   1.083
 7347SOL    HW222941   0.839   2.049   1.150
 7348SOL     OW22942   1.172   4.162   3.577
 7348SOL    HW122943   1.174   4.229   3.650
 7348SOL    HW222944   1.216   4.077   3.607
 7349SOL     OW22945   4.325   0.268   1.970
 7349SOL    HW122946   4.358   0.212   2.046
 7349SOL    HW222947   4.271   0.344   2.006
 7350SOL     OW22948   2.877   2.155   5.487
 7350SOL    HW122949   2.792   2.115   5.450
 7350SOL    HW222950   2.856   2.243   5.529
 7351SOL     OW22951   5.775   5.537   3.729
 7351SOL    HW122952   5.742   5.507   3.639
 7351SOL    HW222953   5.809   5.458   3.780
 7352SOL     OW22954   0.942   1.773   2.405
 7352SOL    HW122955   0.845   1.795   2.418
 7352SOL    HW222956   0.951   1.676   2.384
 7353SOL     OW22957   6.777   0.464   6.666
 7353SOL    HW122958   6.852   0.493   6.606
 7353SOL    HW222959   6.814   0.412   6.743
 7354SOL     OW22960   1.313   1.784   5.395
 7354SOL    HW122961   1.381   1.854   5.417
 7354SOL    HW222962   1.358   1.695   5.387
 7355SOL     OW22963   1.137   1.162   0.137
 7355SOL    HW122964   1.197   1.106   0.080
 7355SOL    HW222965   1.192   1.211   0.205
 7356SOL     OW22966   3.568   3.623   6.354
 7356SOL    HW122967   3.526   3.537   6.384
 7356SOL    HW222968   3.567   3.688   6.430
 7357SOL     OW22969   2.935   5.655   2.054
 7357SOL    HW122970   2.856   5.716   2.045
 7357SOL    HW222971   2.922   5.575   1.996
 7358SOL     OW22972   6.111   3.571   2.061
 7358SOL    HW122973   6.159   3.657   2.074
 7358SOL    HW222974   6.131   3.535   1.970
 7359SOL     OW22975   4.307   2.226   5.447
 7359SOL    HW122976   4.377   2.159   5.472
 7359SOL    HW222977   4.250   2.246   5.527
 7360SOL     OW22978   2.399   3.089   5.562
 7360SOL    HW122979   2.445   3.172   5.594
 7360SOL    HW222980   2.370   3.101   5.467
 7361SOL     OW22981   5.724   0.600   2.484
 7361SOL    HW122982   5.762   0.689   2.507
 7361SOL    HW222983   5.647   0.611   2.422
 7362SOL     OW22984   2.061   5.894   6.186
 7362SOL    HW122985   2.106   5.814   6.226
 7362SOL    HW222986   2.095   5.908   6.093
 7363SOL     OW22987   4.763   1.537   1.508
 7363SOL    HW122988   4.685   1.534   1.570
 7363SOL    HW222989   4.794   1.444   1.488
 7364SOL     OW22990   4.011   0.662   2.166
 7364SOL    HW122991   4.041   0.592   2.232
 7364SOL    HW222992   4.048   0.751   2.193
 7365SOL     OW22993   0.719   6.058   2.158
 7365SOL    HW122994   0.656   5.981   2.152
 7365SOL    HW222995   0.729   6.100   2.067
 7366SOL     OW22996   2.224   6.664   5.481
 7366SOL    HW122997   2.321   6.660   5.457
 7366SOL    HW222998   2.182   6.576   5.461
 7367SOL     OW22999   4.164   2.567   0.210
 7367SOL    HW123000   4.218   2.651   0.216
 7367SOL    HW223001   4.132   2.541   0.301
 7368SOL     OW23002   3.666   2.964   2.250
 7368SOL    HW123003   3.765   2.977   2.257
 7368SOL    HW223004   3.621   3.017   2.322
 7369SOL     OW23005   3.275   2.532   0.930
 7369SOL    HW123006   3.269   2.573   1.021
 7369SOL    HW223007   3.185   2.539   0.886
 7370SOL     OW23008   2.633   1.813   6.189
 7370SOL    HW123009   2.622   1.719   6.156
 7370SOL    HW223010   2.716   1.820   6.244
 7371SOL     OW23011   3.222   6.263   3.803
 7371SOL    HW123012   3.224   6.201   3.881
 7371SOL    HW223013   3.309   6.313   3.798
 7372SOL     OW23014   4.707   6.816   4.788
 7372SOL    HW123015   4.722   6.874   4.707
 7372SOL    HW223016   4.706   6.873   4.870
 7373SOL     OW23017   6.141   2.169   5.233
 7373SOL    HW123018   6.167   2.091   5.176
 7373SOL    HW223019   6.130   2.250   5.175
 7374SOL     OW23020   2.329   2.113   4.650
 7374SOL    HW123021   2.253   2.048   4.649
 7374SOL    HW223022   2.403   2.079   4.708
 7375SOL     OW23023   2.525   2.494   2.140
 7375SOL    HW123024   2.559   2.431   2.070
 7375SOL    HW223025   2.529   2.588   2.105
 7376SOL     OW23026   1.407   2.596   1.651
 7376SOL    HW123027   1.371   2.566   1.740
 7376SOL    HW223028   1.347   2.562   1.578
 7377SOL     OW23029   4.706   4.915   0.191
 7377SOL    HW123030   4.734   4.837   0.136
 7377SOL    HW223031   4.732   4.901   0.286
 7378SOL     OW23032   1.855   0.390   4.617
 7378SOL    HW123033   1.879   0.325   4.689
 7378SOL    HW223034   1.849   0.482   4.655
 7379SOL     OW23035   2.814   0.765   2.161
 7379SOL    HW123036   2.833   0.733   2.068
 7379SOL    HW223037   2.719   0.794   2.168
 7380SOL     OW23038   6.898   4.386   3.765
 7380SOL    HW123039   6.899   4.372   3.666
 7380SOL    HW223040   6.981   4.346   3.804
 7381SOL     OW23041   4.118   3.130   0.696
 7381SOL    HW123042   4.064   3.189   0.756
 7381SOL    HW223043   4.082   3.136   0.602
 7382SOL     OW23044   6.822   1.358   5.687
 7382SOL    HW123045   6.899   1.410   5.652
 7382SOL    HW223046   6.767   1.324   5.610
 7383SOL     OW23047   2.539   5.679   1.378
 7383SOL    HW123048   2.568   5.716   1.290
 7383SOL    HW223049   2.504   5.753   1.435
 7384SOL     OW23050   6.449   0.117   1.888
 7384SOL    HW123051   6.412   0.051   1.953
 7384SOL    HW223052   6.549   0.120   1.896
 7385SOL     OW23053   2.463   5.685   2.300
 7385SOL    HW123054   2.421   5.690   2.391
 7385SOL    HW223055   2.426   5.606   2.250
 7386SOL     OW23056   6.948   3.140   6.848
 7386SOL    HW123057   6.859   3.096   6.836
 7386SOL    HW223058   6.963   3.206   6.776
 7387SOL     OW23059   6.858   5.138   4.729
 7387SOL    HW123060   6.865   5.209   4.799
 7387SOL    HW223061   6.764   5.107   4.721
 7388SOL     OW23062   1.186   4.978   2.124
 7388SOL    HW123063   1.256   4.978   2.053
 7388SOL    HW223064   1.097   4.954   2.085
 7389SOL     OW23065   6.871   3.519   7.021
 7389SOL    HW123066   6.928   3.528   6.939
 7389SOL    HW223067   6.894   3.591   0.062
 7390SOL     OW23068   2.587   2.099   2.384
 7390SOL    HW123069   2.643   2.094   2.467
 7390SOL    HW223070   2.641   2.137   2.309
 7391SOL     OW23071   3.565   2.848   2.829
 7391SOL    HW123072   3.485   2.797   2.797
 7391SOL    HW223073   3.615   2.886   2.750
 7392SOL     OW23074   3.581   5.449   6.595
 7392SOL    HW123075   3.547   5.440   6.688
 7392SOL    HW223076   3.556   5.368   6.542
 7393SOL     OW23077   6.457   4.696   3.300
 7393SOL    HW123078   6.540   4.752   3.306
 7393SOL    HW223079   6.425   4.694   3.206
 7394SOL     OW23080   1.681   3.046   5.958
 7394SOL    HW123081   1.656   2.950   5.945
 7394SOL    HW223082   1.617   3.105   5.908
 7395SOL     OW23083   2.011   3.215   1.061
 7395SOL    HW123084   1.954   3.137   1.035
 7395SOL    HW223085   1.962   3.273   1.125
 7396SOL     OW23086   1.970   6.721   0.949
 7396SOL    HW123087   2.064   6.695   0.974
 7396SOL    HW223088   1.973   6.792   0.878
 7397SOL     OW23089   6.001   4.647   4.107
 7397SOL    HW123090   6.079   4.603   4.062
 7397SOL    HW223091   5.926   4.582   4.115
 7398SOL     OW23092   0.811   6.023   2.859
 7398SOL    HW123093   0.717   5.991   2.842
 7398SOL    HW223094   0.838   6.087   2.787
 7399SOL     OW23095   6.993   3.055   4.786
 7399SOL    HW123096   0.035   3.085   4.854
 7399SOL    HW223097   6.906   3.101   4.801
 7400SOL     OW23098   4.366   2.638   5.793
 7400SOL    HW123099   4.462   2.640   5.821
 7400SOL    HW223100   4.360   2.624   5.694
 7401SOL     OW23101   1.450   2.734   3.027
 7401SOL    HW123102   1.378   2.797   3.000
 7401SOL    HW223103   1.457   2.731   3.126
 7402SOL     OW23104   3.209   4.333   6.097
 7402SOL    HW123105   3.220   4.430   6.078
 7402SOL    HW223106   3.218   4.281   6.012
 7403SOL     OW23107   1.388   2.966   2.722
 7403SOL    HW123108   1.476   2.930   2.691
 7403SOL    HW223109   1.400   3.015   2.809
 7404SOL     OW23110   2.707   4.358   1.678
 7404SOL    HW123111   2.776   4.406   1.731
 7404SOL    HW223112   2.736   4.351   1.582
 7405SOL     OW23113   2.983   5.191   4.314
 7405SOL    HW123114   2.883   5.182   4.317
 7405SOL    HW223115   3.024   5.105   4.344
 7406SOL     OW23116   1.084   1.233   4.626
 7406SOL    HW123117   1.106   1.216   4.722
 7406SOL    HW223118   1.132   1.314   4.594
 7407SOL     OW23119   1.052   5.914   5.397
 7407SOL    HW123120   1.102   5.883   5.316
 7407SOL    HW223121   1.016   5.835   5.447
 7408SOL     OW23122   3.853   4.130   5.464
 7408SOL    HW123123   3.863   4.088   5.554
 7408SOL    HW223124   3.929   4.102   5.405
 7409SOL     OW23125   5.113   4.352   0.769
 7409SOL    HW123126   5.210   4.338   0.790
 7409SOL    HW223127   5.058   4.285   0.819
 7410SOL     OW23128   0.700   0.787   0.752
 7410SOL    HW123129   0.603   0.777   0.732
 7410SOL    HW223130   0.724   0.733   0.832
 7411SOL     OW23131   1.691   0.225   6.825
 7411SOL    HW123132   1.783   0.213   6.863
 7411SOL    HW223133   1.635   0.277   6.888
 7412SOL     OW23134   3.756   6.684   1.172
 7412SOL    HW123135   3.709   6.632   1.101
 7412SOL    HW223136   3.689   6.733   1.228
 7413SOL     OW23137   4.788   4.808   4.034
 7413SOL    HW123138   4.754   4.795   4.127
 7413SOL    HW223139   4.846   4.730   4.008
 7414SOL     OW23140   1.987   1.584   3.298
 7414SOL    HW123141   2.020   1.493   3.321
 7414SOL    HW223142   2.050   1.653   3.333
 7415SOL     OW23143   2.270   5.065   5.275
 7415SOL    HW123144   2.198   5.084   5.209
 7415SOL    HW223145   2.229   5.045   5.364
 7416SOL     OW23146   2.051   0.988   2.458
 7416SOL    HW123147   2.059   0.925   2.536
 7416SOL    HW223148   2.120   0.965   2.389
 7417SOL     OW23149   1.817   1.747   2.026
 7417SOL    HW123150   1.881   1.722   2.099
 7417SOL    HW223151   1.855   1.824   1.974
 7418SOL     OW23152   1.821   5.102   6.583
 7418SOL    HW123153   1.835   5.037   6.509
 7418SOL    HW223154   1.908   5.124   6.626
 7419SOL     OW23155   6.542   4.190   3.748
 7419SOL    HW123156   6.531   4.139   3.834
 7419SOL    HW223157   6.523   4.129   3.671
 7420SOL     OW23158   0.225   6.701   1.359
 7420SOL    HW123159   0.182   6.730   1.444
 7420SOL    HW223160   0.319   6.671   1.378
 7421SOL     OW23161   4.057   3.509   1.418
 7421SOL    HW123162   4.002   3.517   1.501
 7421SOL    HW223163   3.997   3.509   1.338
 7422SOL     OW23164   6.524   3.932   2.373
 7422SOL    HW123165   6.548   3.847   2.419
 7422SOL    HW223166   6.605   3.971   2.330
 7423SOL     OW23167   6.171   2.990   5.733
 7423SOL    HW123168   6.140   2.979   5.828
 7423SOL    HW223169   6.092   3.008   5.675
 7424SOL     OW23170   0.206   1.515   5.360
 7424SOL    HW123171   0.294   1.484   5.396
 7424SOL    HW223172   0.205   1.615   5.357
 7425SOL     OW23173   5.266   0.106   0.371
 7425SOL    HW123174   5.347   0.155   0.338
 7425SOL    HW223175   5.193   0.171   0.391
 7426SOL     OW23176   3.345   1.987   5.392
 7426SOL    HW123177   3.250   1.968   5.367
 7426SOL    HW223178   3.360   2.086   5.392
 7427SOL     OW23179   4.402   1.092   3.911
 7427SOL    HW123180   4.324   1.072   3.851
 7427SOL    HW223181   4.368   1.117   4.002
 7428SOL     OW23182   3.908   0.229   5.150
 7428SOL    HW123183   3.974   0.158   5.125
 7428SOL    HW223184   3.932   0.314   5.104
 7429SOL     OW23185   0.761   6.186   3.446
 7429SOL    HW123186   0.783   6.276   3.407
 7429SOL    HW223187   0.842   6.127   3.440
 7430SOL     OW23188   6.591   3.777   1.221
 7430SOL    HW123189   6.614   3.684   1.193
 7430SOL    HW223190   6.589   3.836   1.140
 7431SOL     OW23191   1.244   2.209   3.597
 7431SOL    HW123192   1.265   2.129   3.540
 7431SOL    HW223193   1.257   2.185   3.693
 7432SOL     OW23194   2.127   1.006   3.193
 7432SOL    HW123195   2.169   0.978   3.280
 7432SOL    HW223196   2.157   0.943   3.121
 7433SOL     OW23197   4.026   6.240   6.969
 7433SOL    HW123198   4.096   6.305   6.999
 7433SOL    HW223199   4.045   6.212   6.875
 7434SOL     OW23200   5.237   5.888   5.530
 7434SOL    HW123201   5.146   5.929   5.534
 7434SOL    HW223202   5.295   5.940   5.467
 7435SOL     OW23203   4.500   6.283   1.625
 7435SOL    HW123204   4.473   6.376   1.600
 7435SOL    HW223205   4.558   6.286   1.706
 7436SOL     OW23206   4.712   4.631   6.181
 7436SOL    HW123207   4.681   4.618   6.275
 7436SOL    HW223208   4.645   4.687   6.131
 7437SOL     OW23209   3.216   5.509   0.964
 7437SOL    HW123210   3.131   5.560   0.969
 7437SOL    HW223211   3.292   5.568   0.991
 7438SOL     OW23212   1.803   6.939   0.196
 7438SOL    HW123213   1.812   6.902   0.103
 7438SOL    HW223214   1.889   6.980   0.224
 7439SOL     OW23215   1.447   6.250   5.279
 7439SOL    HW123216   1.460   6.246   5.378
 7439SOL    HW223217   1.519   6.305   5.238
 7440SOL     OW23218   6.025   2.980   3.939
 7440SOL    HW123219   6.035   2.941   4.031
 7440SOL    HW223220   6.111   3.024   3.913
 7441SOL     OW23221   5.788   0.026   3.641
 7441SOL    HW123222   5.870   7.018   3.688
 7441SOL    HW223223   5.762   0.115   3.678
 7442SOL     OW23224   5.615   1.111   6.991
 7442SOL    HW123225   5.559   1.073   0.040
 7442SOL    HW223226   5.600   1.210   6.985
 7443SOL     OW23227   6.798   5.581   1.950
 7443SOL    HW123228   6.816   5.575   2.048
 7443SOL    HW223229   6.702   5.556   1.932
 7444SOL     OW23230   6.407   1.156   6.169
 7444SOL    HW123231   6.309   1.173   6.173
 7444SOL    HW223232   6.437   1.112   6.254
 7445SOL     OW23233   3.461   0.380   1.362
 7445SOL    HW123234   3.475   0.386   1.264
 7445SOL    HW223235   3.408   0.460   1.393
 7446SOL     OW23236   4.906   2.256   0.395
 7446SOL    HW123237   4.864   2.191   0.458
 7446SOL    HW223238   4.999   2.226   0.373
 7447SOL     OW23239   6.605   4.636   6.023
 7447SOL    HW123240   6.514   4.614   6.059
 7447SOL    HW223241   6.639   4.560   5.967
 7448SOL     OW23242   5.471   6.876   4.987
 7448SOL    HW123243   5.445   6.832   4.902
 7448SOL    HW223244   5.544   6.824   5.032
 7449SOL     OW23245   0.888   5.686   0.365
 7449SOL    HW123246   0.857   5.671   0.459
 7449SOL    HW223247   0.810   5.682   0.302
 7450SOL     OW23248   4.921   2.694   5.469
 7450SOL    HW123249   4.993   2.764   5.473
 7450SOL    HW223250   4.889   2.686   5.374
 7451SOL     OW23251   5.852   5.562   2.330
 7451SOL    HW123252   5.933   5.552   2.272
 7451SOL    HW223253   5.795   5.637   2.296
 7452SOL     OW23254   6.579   5.795   4.592
 7452SOL    HW123255   6.481   5.775   4.596
 7452SOL    HW223256   6.616   5.766   4.504
 7453SOL     OW23257   4.294   5.109   5.314
 7453SOL    HW123258   4.292   5.016   5.349
 7453SOL    HW223259   4.269   5.109   5.217
 7454SOL     OW23260   2.554   1.116   0.851
 7454SOL    HW123261   2.526   1.039   0.909
 7454SOL    HW223262   2.654   1.121   0.849
 7455SOL     OW23263   6.726   3.311   1.952
 7455SOL    HW123264   6.806   3.259   1.980
 7455SOL    HW223265   6.750   3.407   1.939
 7456SOL     OW23266   2.692   1.313   5.023
 7456SOL    HW123267   2.710   1.355   4.934
 7456SOL    HW223268   2.600   1.274   5.024
 7457SOL     OW23269   3.270   6.896   4.164
 7457SOL    HW123270   3.241   6.868   4.255
 7457SOL    HW223271   3.204   6.960   4.126
 7458SOL     OW23272   1.544   0.286   6.166
 7458SOL    HW123273   1.521   0.335   6.082
 7458SOL    HW223274   1.577   0.194   6.142
 7459SOL     OW23275   6.442   1.163   2.377
 7459SOL    HW123276   6.351   1.186   2.412
 7459SOL    HW223277   6.434   1.093   2.306
 7460SOL     OW23278   1.197   6.037   6.499
 7460SOL    HW123279   1.182   6.134   6.478
 7460SOL    HW223280   1.240   6.029   6.590
 7461SOL     OW23281   6.133   6.005   5.741
 7461SOL    HW123282   6.130   6.101   5.713
 7461SOL    HW223283   6.206   5.958   5.691
 7462SOL     OW23284   2.202   4.658   1.979
 7462SOL    HW123285   2.227   4.682   1.886
 7462SOL    HW223286   2.274   4.688   2.042
 7463SOL     OW23287   3.530   3.767   0.172
 7463SOL    HW123288   3.629   3.760   0.165
 7463SOL    HW223289   3.489   3.675   0.167
 7464SOL     OW23290   6.454   6.637   5.574
 7464SOL    HW123291   6.417   6.576   5.505
 7464SOL    HW223292   6.380   6.684   5.622
 7465SOL     OW23293   2.495   5.422   0.051
 7465SOL    HW123294   2.450   5.398   6.989
 7465SOL    HW223295   2.535   5.340   0.091
 7466SOL     OW23296   0.449   0.651   6.316
 7466SOL    HW123297   0.477   0.556   6.334
 7466SOL    HW223298   0.528   0.711   6.324
 7467SOL     OW23299   0.443   2.561   6.288
 7467SOL    HW123300   0.490   2.633   6.340
 7467SOL    HW223301   0.416   2.597   6.198
 7468SOL     OW23302   4.991   3.043   4.522
 7468SOL    HW123303   4.983   2.968   4.456
 7468SOL    HW223304   4.938   3.021   4.604
 7469SOL     OW23305   6.787   1.710   0.614
 7469SOL    HW123306   6.848   1.765   0.556
 7469SOL    HW223307   6.742   1.641   0.558
 7470SOL     OW23308   5.454   4.275   3.616
 7470SOL    HW123309   5.545   4.282   3.573
 7470SOL    HW223310   5.415   4.367   3.625
 7471SOL     OW23311   5.304   6.119   5.896
 7471SOL    HW123312   5.358   6.170   5.829
 7471SOL    HW223313   5.352   6.116   5.983
 7472SOL     OW23314   6.081   0.651   5.490
 7472SOL    HW123315   6.040   0.582   5.431
 7472SOL    HW223316   6.010   0.693   5.547
 7473SOL     OW23317   5.612   6.239   3.636
 7473SOL    HW123318   5.683   6.169   3.642
 7473SOL    HW223319   5.522   6.195   3.632
 7474SOL     OW23320   6.325   2.730   6.683
 7474SOL    HW123321   6.243   2.756   6.632
 7474SOL    HW223322   6.299   2.697   6.774
 7475SOL     OW23323   4.511   2.350   2.076
 7475SOL    HW123324   4.479   2.347   2.171
 7475SOL    HW223325   4.589   2.289   2.066
 7476SOL     OW23326   2.092   2.171   2.951
 7476SOL    HW123327   2.058   2.111   2.878
 7476SOL    HW223328   2.016   2.198   3.010
 7477SOL     OW23329   0.290   2.967   5.450
 7477SOL    HW123330   0.340   2.992   5.367
 7477SOL    HW223331   0.200   2.932   5.425
 7478SOL     OW23332   5.692   3.565   5.217
 7478SOL    HW123333   5.766   3.502   5.241
 7478SOL    HW223334   5.611   3.512   5.192
 7479SOL     OW23335   5.459   2.770   0.510
 7479SOL    HW123336   5.364   2.794   0.530
 7479SOL    HW223337   5.491   2.823   0.431
 7480SOL     OW23338   1.958   4.892   2.291
 7480SOL    HW123339   1.961   4.794   2.270
 7480SOL    HW223340   1.963   4.905   2.390
 7481SOL     OW23341   6.423   4.850   6.976
 7481SOL    HW123342   6.389   4.836   0.045
 7481SOL    HW223343   6.350   4.889   6.920
 7482SOL     OW23344   4.265   2.323   2.615
 7482SOL    HW123345   4.350   2.278   2.641
 7482SOL    HW223346   4.273   2.422   2.629
 7483SOL     OW23347   5.111   2.631   4.839
 7483SOL    HW123348   5.031   2.659   4.785
 7483SOL    HW223349   5.179   2.704   4.837
 7484SOL     OW23350   1.865   5.317   4.623
 7484SOL    HW123351   1.898   5.225   4.602
 7484SOL    HW223352   1.892   5.379   4.549
 7485SOL     OW23353   2.528   0.257   3.853
 7485SOL    HW123354   2.603   0.261   3.787
 7485SOL    HW223355   2.560   0.221   3.940
 7486SOL     OW23356   0.610   6.271   0.219
 7486SOL    HW123357   0.662   6.238   0.297
 7486SOL    HW223358   0.564   6.195   0.174
 7487SOL     OW23359   3.552   0.560   3.765
 7487SOL    HW123360   3.627   0.568   3.830
 7487SOL    HW223361   3.584   0.586   3.674
 7488SOL     OW23362   2.105   6.024   4.728
 7488SOL    HW123363   2.150   5.966   4.796
 7488SOL    HW223364   2.153   6.018   4.641
 7489SOL     OW23365   6.401   3.184   0.232
 7489SOL    HW123366   6.373   3.280   0.229
 7489SOL    HW223367   6.334   3.128   0.185
 7490SOL     OW23368   1.723   1.242   2.452
 7490SOL    HW123369   1.725   1.327   2.399
 7490SOL    HW223370   1.767   1.257   2.540
 7491SOL     OW23371   4.760   2.848   0.157
 7491SOL    HW123372   4.791   2.903   0.079
 7491SOL    HW223373   4.814   2.872   0.238
 7492SOL     OW23374   2.113   1.326   4.262
 7492SOL    HW123375   2.078   1.374   4.342
 7492SOL    HW223376   2.045   1.259   4.231
 7493SOL     OW23377   6.833   2.974   5.845
 7493SOL    HW123378   6.840   2.886   5.798
 7493SOL    HW223379   6.923   3.018   5.847
 7494SOL     OW23380   6.384   1.368   4.079
 7494SOL    HW123381   6.379   1.269   4.090
 7494SOL    HW223382   6.462   1.391   4.020
 7495SOL     OW23383   1.475   2.984   4.970
 7495SOL    HW123384   1.413   2.936   4.908
 7495SOL    HW223385   1.490   2.929   5.052
 7496SOL     OW23386   5.516   3.585   4.332
 7496SOL    HW123387   5.436   3.567   4.389
 7496SOL    HW223388   5.497   3.559   4.237
 7497SOL     OW23389   1.745   5.653   1.522
 7497SOL    HW123390   1.798   5.732   1.551
 7497SOL    HW223391   1.807   5.581   1.491
 7498SOL     OW23392   2.435   0.880   4.056
 7498SOL    HW123393   2.378   0.962   4.056
 7498SOL    HW223394   2.466   0.861   4.149
 7499SOL     OW23395   4.514   2.066   3.644
 7499SOL    HW123396   4.439   2.132   3.639
 7499SOL    HW223397   4.597   2.108   3.607
 7500SOL     OW23398   3.255   5.522   2.987
 7500SOL    HW123399   3.267   5.424   2.970
 7500SOL    HW223400   3.273   5.542   3.083
 7501SOL     OW23401   5.479   3.938   3.910
 7501SOL    HW123402   5.513   3.862   3.855
 7501SOL    HW223403   5.408   3.987   3.859
 7502SOL     OW23404   3.575   6.615   4.415
 7502SOL    HW123405   3.548   6.598   4.320
 7502SOL    HW223406   3.589   6.713   4.429
 7503SOL     OW23407   2.165   5.963   0.836
 7503SOL    HW123408   2.153   5.913   0.750
 7503SOL    HW223409   2.092   6.031   0.847
 7504SOL     OW23410   0.580   6.548   2.329
 7504SOL    HW123411   0.508   6.608   2.365
 7504SOL    HW223412   0.562   6.530   2.232
 7505SOL     OW23413   1.261   1.773   6.560
 7505SOL    HW123414   1.211   1.755   6.475
 7505SOL    HW223415   1.313   1.692   6.586
 7506SOL     OW23416   4.425   2.359   3.574
 7506SOL    HW123417   4.483   2.388   3.498
 7506SOL    HW223418   4.447   2.414   3.655
 7507SOL     OW23419   6.251   3.094   3.819
 7507SOL    HW123420   6.322   3.150   3.777
 7507SOL    HW223421   6.251   3.003   3.778
 7508SOL     OW23422   2.177   5.127   0.625
 7508SOL    HW123423   2.183   5.064   0.548
 7508SOL    HW223424   2.101   5.099   0.685
 7509SOL     OW23425   5.800   3.367   0.422
 7509SOL    HW123426   5.821   3.330   0.513
 7509SOL    HW223427   5.885   3.393   0.376
 7510SOL     OW23428   3.891   3.709   4.616
 7510SOL    HW123429   3.969   3.719   4.554
 7510SOL    HW223430   3.814   3.668   4.566
 7511SOL     OW23431   3.036   6.285   3.593
 7511SOL    HW123432   3.095   6.269   3.672
 7511SOL    HW223433   3.092   6.306   3.513
 7512SOL     OW23434   2.731   0.785   6.869
 7512SOL    HW123435   2.645   0.833   6.851
 7512SOL    HW223436   2.728   0.694   6.828
 7513SOL     OW23437   2.278   2.466   3.089
 7513SOL    HW123438   2.262   2.396   3.159
 7513SOL    HW223439   2.291   2.423   3.000
 7514SOL     OW23440   2.081   5.371   3.421
 7514SOL    HW123441   2.025   5.404   3.344
 7514SOL    HW223442   2.142   5.443   3.452
 7515SOL     OW23443   6.950   4.368   4.808
 7515SOL    HW123444   0.017   4.394   4.778
 7515SOL    HW223445   6.891   4.448   4.809
 7516SOL     OW23446   0.661   5.150   5.943
 7516SOL    HW123447   0.630   5.064   5.903
 7516SOL    HW223448   0.614   5.166   6.029
 7517SOL     OW23449   1.472   2.653   7.023
 7517SOL    HW123450   1.530   2.709   6.965
 7517SOL    HW223451   1.475   2.558   6.992
 7518SOL     OW23452   5.223   3.325   3.089
 7518SOL    HW123453   5.259   3.354   3.178
 7518SOL    HW223454   5.223   3.403   3.026
 7519SOL     OW23455   5.475   6.918   4.322
 7519SOL    HW123456   5.504   6.987   4.255
 7519SOL    HW223457   5.462   6.830   4.276
 7520SOL     OW23458   1.392   1.057   2.511
 7520SOL    HW123459   1.475   1.019   2.470
 7520SOL    HW223460   1.401   1.156   2.519
 7521SOL     OW23461   5.056   2.101   4.741
 7521SOL    HW123462   5.052   2.192   4.781
 7521SOL    HW223463   5.151   2.070   4.737
 7522SOL     OW23464   1.420   0.279   5.358
 7522SOL    HW123465   1.323   0.263   5.341
 7522SOL    HW223466   1.453   0.352   5.298
 7523SOL     OW23467   4.921   0.797   5.951
 7523SOL    HW123468   4.983   0.873   5.936
 7523SOL    HW223469   4.850   0.823   6.017
 7524SOL     OW23470   0.208   3.078   4.937
 7524SOL    HW123471   0.254   3.127   4.864
 7524SOL    HW223472   0.165   3.143   4.999
 7525SOL     OW23473   3.919   6.568   6.770
 7525SOL    HW123474   3.957   6.588   6.680
 7525SOL    HW223475   3.970   6.617   6.840
 7526SOL     OW23476   2.628   2.614   1.375
 7526SOL    HW123477   2.637   2.606   1.474
 7526SOL    HW223478   2.671   2.535   1.331
 7527SOL     OW23479   3.199   5.737   3.748
 7527SOL    HW123480   3.216   5.650   3.795
 7527SOL    HW223481   3.204   5.723   3.649
 7528SOL     OW23482   5.385   2.106   6.732
 7528SOL    HW123483   5.482   2.128   6.720
 7528SOL    HW223484   5.337   2.121   6.645
 7529SOL     OW23485   5.034   2.069   4.124
 7529SOL    HW123486   5.124   2.052   4.164
 7529SOL    HW223487   4.963   2.040   4.189
 7530SOL     OW23488   6.214   1.877   2.345
 7530SOL    HW123489   6.121   1.904   2.322
 7530SOL    HW223490   6.269   1.873   2.262
 7531SOL     OW23491   4.854   2.986   3.017
 7531SOL    HW123492   4.925   2.917   3.012
 7531SOL    HW223493   4.865   3.051   2.941
 7532SOL     OW23494   5.328   6.412   6.820
 7532SOL    HW123495   5.274   6.410   6.736
 7532SOL    HW223496   5.276   6.370   6.894
 7533SOL     OW23497   4.285   2.157   1.585
 7533SOL    HW123498   4.309   2.098   1.662
 7533SOL    HW223499   4.302   2.253   1.611
 7534SOL     OW23500   4.441   5.613   4.215
 7534SOL    HW123501   4.501   5.535   4.198
 7534SOL    HW223502   4.460   5.651   4.305
 7535SOL     OW23503   1.661   6.184   4.488
 7535SOL    HW123504   1.690   6.131   4.567
 7535SOL    HW223505   1.729   6.255   4.469
 7536SOL     OW23506   5.451   5.912   4.159
 7536SOL    HW123507   5.476   5.900   4.255
 7536SOL    HW223508   5.519   5.866   4.101
 7537SOL     OW23509   1.966   4.642   2.141
 7537SOL    HW123510   2.012   4.667   2.055
 7537SOL    HW223511   1.904   4.566   2.124
 7538SOL     OW23512   1.539   2.848   2.099
 7538SOL    HW123513   1.529   2.902   2.183
 7538SOL    HW223514   1.626   2.872   2.055
 7539SOL     OW23515   1.123   4.787   3.461
 7539SOL    HW123516   1.069   4.752   3.384
 7539SOL    HW223517   1.116   4.724   3.538
 7540SOL     OW23518   4.420   6.137   4.456
 7540SOL    HW123519   4.442   6.215   4.513
 7540SOL    HW223520   4.333   6.152   4.410
 7541SOL     OW23521   0.839   4.278   6.085
 7541SOL    HW123522   0.877   4.369   6.103
 7541SOL    HW223523   0.834   4.263   5.986
 7542SOL     OW23524   6.613   5.849   6.220
 7542SOL    HW123525   6.702   5.895   6.218
 7542SOL    HW223526   6.564   5.867   6.135
 7543SOL     OW23527   2.833   0.628   4.786
 7543SOL    HW123528   2.753   0.570   4.773
 7543SOL    HW223529   2.806   0.711   4.836
 7544SOL     OW23530   0.422   2.846   4.269
 7544SOL    HW123531   0.427   2.876   4.173
 7544SOL    HW223532   0.442   2.923   4.329
 7545SOL     OW23533   0.259   6.462   6.097
 7545SOL    HW123534   0.167   6.501   6.094
 7545SOL    HW223535   0.253   6.367   6.126
 7546SOL     OW23536   4.960   2.245   1.404
 7546SOL    HW123537   4.991   2.209   1.492
 7546SOL    HW223538   4.910   2.330   1.419
 7547SOL     OW23539   4.558   0.966   0.757
 7547SOL    HW123540   4.463   0.937   0.750
 7547SOL    HW223541   4.581   0.979   0.854
 7548SOL     OW23542   4.550   2.527   6.944
 7548SOL    HW123543   4.559   2.434   6.908
 7548SOL    HW223544   4.531   2.591   6.869
 7549SOL     OW23545   3.429   2.567   6.768
 7549SOL    HW123546   3.474   2.478   6.774
 7549SOL    HW223547   3.467   2.618   6.691
 7550SOL     OW23548   2.122   4.646   3.691
 7550SOL    HW123549   2.076   4.711   3.752
 7550SOL    HW223550   2.114   4.554   3.728
 7551SOL     OW23551   5.239   3.037   5.048
 7551SOL    HW123552   5.285   3.109   4.996
 7551SOL    HW223553   5.253   2.949   5.002
 7552SOL     OW23554   1.350   5.949   4.307
 7552SOL    HW123555   1.429   5.893   4.332
 7552SOL    HW223556   1.337   6.021   4.375
 7553SOL     OW23557   5.517   6.612   6.028
 7553SOL    HW123558   5.482   6.658   6.110
 7553SOL    HW223559   5.486   6.517   6.029
 7554SOL     OW23560   4.863   0.623   0.260
 7554SOL    HW123561   4.834   0.718   0.245
 7554SOL    HW223562   4.957   0.612   0.228
 7555SOL     OW23563   3.593   5.817   6.341
 7555SOL    HW123564   3.679   5.842   6.386
 7555SOL    HW223565   3.553   5.738   6.387
 7556SOL     OW23566   1.701   1.362   0.387
 7556SOL    HW123567   1.755   1.378   0.304
 7556SOL    HW223568   1.761   1.363   0.467
 7557SOL     OW23569   4.771   0.270   6.971
 7557SOL    HW123570   4.782   0.281   6.872
 7557SOL    HW223571   4.858   0.285   7.017
 7558SOL     OW23572   1.928   3.046   3.557
 7558SOL    HW123573   2.019   3.027   3.521
 7558SOL    HW223574   1.877   3.103   3.493
 7559SOL     OW23575   3.874   2.215   5.367
 7559SOL    HW123576   3.888   2.180   5.459
 7559SOL    HW223577   3.916   2.306   5.360
 7560SOL     OW23578   6.649   0.461   6.984
 7560SOL    HW123579   6.686   0.371   6.960
 7560SOL    HW223580   6.713   0.532   6.957
 7561SOL     OW23581   5.776   3.298   5.528
 7561SOL    HW123582   5.845   3.287   5.599
 7561SOL    HW223583   5.716   3.375   5.552
 7562SOL     OW23584   0.459   4.743   4.944
 7562SOL    HW123585   0.543   4.700   4.976
 7562SOL    HW223586   0.470   4.771   4.848
 7563SOL     OW23587   2.626   6.358   2.362
 7563SOL    HW123588   2.550   6.374   2.425
 7563SOL    HW223589   2.709   6.339   2.414
 7564SOL     OW23590   4.138   0.235   4.930
 7564SOL    HW123591   4.161   0.333   4.939
 7564SOL    HW223592   4.077   0.223   4.852
 7565SOL     OW23593   5.604   4.449   5.628
 7565SOL    HW123594   5.660   4.488   5.554
 7565SOL    HW223595   5.521   4.503   5.639
 7566SOL     OW23596   5.558   5.109   2.264
 7566SOL    HW123597   5.604   5.050   2.330
 7566SOL    HW223598   5.624   5.171   2.223
 7567SOL     OW23599   1.016   0.860   4.770
 7567SOL    HW123600   1.051   0.953   4.784
 7567SOL    HW223601   1.019   0.838   4.673
 7568SOL     OW23602   5.408   4.952   1.578
 7568SOL    HW123603   5.372   5.031   1.528
 7568SOL    HW223604   5.508   4.953   1.574
 7569SOL     OW23605   4.489   4.027   6.330
 7569SOL    HW123606   4.422   4.073   6.272
 7569SOL    HW223607   4.442   3.975   6.401
 7570SOL     OW23608   7.023   3.144   4.521
 7570SOL    HW123609   0.013   3.113   4.615
 7570SOL    HW223610   6.946   3.094   4.482
 7571SOL     OW23611   5.516   3.671   3.125
 7571SOL    HW123612   5.507   3.581   3.168
 7571SOL    HW223613   5.581   3.665   3.049
 7572SOL     OW23614   4.984   6.676   2.986
 7572SOL    HW123615   4.946   6.703   3.075
 7572SOL    HW223616   5.014   6.581   2.991
 7573SOL     OW23617   6.331   0.645   5.618
 7573SOL    HW123618   6.320   0.547   5.634
 7573SOL    HW223619   6.249   0.681   5.574
 7574SOL     OW23620   6.191   1.343   4.414
 7574SOL    HW123621   6.144   1.271   4.363
 7574SOL    HW223622   6.123   1.406   4.453
 7575SOL     OW23623   6.008   6.318   0.293
 7575SOL    HW123624   6.066   6.238   0.308
 7575SOL    HW223625   6.008   6.376   0.375
 7576SOL     OW23626   5.129   2.221   7.004
 7576SOL    HW123627   5.183   2.138   7.018
 7576SOL    HW223628   5.084   2.246   0.065
 7577SOL     OW23629   6.938   6.643   0.259
 7577SOL    HW123630   6.986   6.730   0.248
 7577SOL    HW223631   6.992   6.581   0.315
 7578SOL     OW23632   1.338   5.271   2.441
 7578SOL    HW123633   1.271   5.262   2.368
 7578SOL    HW223634   1.376   5.181   2.462
 7579SOL     OW23635   6.757   1.579   1.270
 7579SOL    HW123636   6.854   1.588   1.250
 7579SOL    HW223637   6.726   1.486   1.250
 7580SOL     OW23638   1.340   4.912   3.542
 7580SOL    HW123639   1.258   4.854   3.536
 7580SOL    HW223640   1.348   4.967   3.459
 7581SOL     OW23641   0.579   1.256   1.405
 7581SOL    HW123642   0.605   1.268   1.500
 7581SOL    HW223643   0.577   1.158   1.384
 7582SOL     OW23644   4.325   1.654   3.401
 7582SOL    HW123645   4.276   1.701   3.475
 7582SOL    HW223646   4.307   1.701   3.315
 7583SOL     OW23647   5.630   3.624   2.873
 7583SOL    HW123648   5.664   3.556   2.808
 7583SOL    HW223649   5.548   3.667   2.835
 7584SOL     OW23650   1.286   6.454   2.486
 7584SOL    HW123651   1.369   6.398   2.485
 7584SOL    HW223652   1.284   6.509   2.569
 7585SOL     OW23653   1.049   2.032   6.949
 7585SOL    HW123654   0.988   2.085   6.889
 7585SOL    HW223655   1.142   2.066   6.941
 7586SOL     OW23656   1.947   0.077   2.767
 7586SOL    HW123657   1.892   0.133   2.705
 7586SOL    HW223658   1.985   0.134   2.839
 7587SOL     OW23659   2.435   1.383   0.225
 7587SOL    HW123660   2.379   1.339   0.296
 7587SOL    HW223661   2.386   1.462   0.189
 7588SOL     OW23662   1.334   2.967   3.922
 7588SOL    HW123663   1.364   3.062   3.936
 7588SOL    HW223664   1.389   2.906   3.979
 7589SOL     OW23665   0.072   1.354   3.187
 7589SOL    HW123666   0.081   1.440   3.136
 7589SOL    HW223667   0.140   1.289   3.152
 7590SOL     OW23668   6.297   1.156   6.952
 7590SOL    HW123669   6.206   1.195   6.943
 7590SOL    HW223670   6.364   1.229   6.965
 7591SOL     OW23671   4.804   3.216   6.288
 7591SOL    HW123672   4.875   3.248   6.350
 7591SOL    HW223673   4.830   3.128   6.249
 7592SOL     OW23674   6.428   4.774   4.588
 7592SOL    HW123675   6.355   4.797   4.524
 7592SOL    HW223676   6.455   4.678   4.575
 7593SOL     OW23677   0.255   2.522   6.579
 7593SOL    HW123678   0.270   2.498   6.483
 7593SOL    HW223679   0.331   2.488   6.634
 7594SOL     OW23680   0.858   4.496   1.876
 7594SOL    HW123681   0.797   4.461   1.805
 7594SOL    HW223682   0.822   4.580   1.914
 7595SOL     OW23683   6.345   3.609   6.395
 7595SOL    HW123684   6.274   3.539   6.404
 7595SOL    HW223685   6.388   3.602   6.305
 7596SOL     OW23686   3.203   6.633   4.870
 7596SOL    HW123687   3.244   6.701   4.809
 7596SOL    HW223688   3.222   6.658   4.965
 7597SOL     OW23689   1.905   6.612   2.974
 7597SOL    HW123690   1.973   6.654   3.034
 7597SOL    HW223691   1.863   6.682   2.916
 7598SOL     OW23692   5.994   0.541   2.931
 7598SOL    HW123693   5.920   0.605   2.915
 7598SOL    HW223694   6.082   0.585   2.910
 7599SOL     OW23695   5.350   3.084   0.638
 7599SOL    HW123696   5.447   3.101   0.654
 7599SOL    HW223697   5.326   2.993   0.670
 7600SOL     OW23698   1.366   0.784   3.375
 7600SOL    HW123699   1.272   0.810   3.397
 7600SOL    HW223700   1.417   0.766   3.460
 7601SOL     OW23701   2.805   5.107   2.487
 7601SOL    HW123702   2.742   5.161   2.431
 7601SOL    HW223703   2.895   5.152   2.489
 7602SOL     OW23704   0.782   2.702   0.509
 7602SOL    HW123705   0.869   2.749   0.497
 7602SOL    HW223706   0.770   2.636   0.434
 7603SOL     OW23707   1.865   6.387   5.787
 7603SOL    HW123708   1.945   6.425   5.834
 7603SOL    HW223709   1.873   6.404   5.689
 7604SOL     OW23710   1.592   1.915   5.237
 7604SOL    HW123711   1.680   1.900   5.194
 7604SOL    HW223712   1.605   1.928   5.336
 7605SOL     OW23713   1.170   0.738   0.810
 7605SOL    HW123714   1.233   0.766   0.882
 7605SOL    HW223715   1.153   0.640   0.817
 7606SOL     OW23716   5.455   2.845   5.257
 7606SOL    HW123717   5.454   2.808   5.164
 7606SOL    HW223718   5.533   2.808   5.307
 7607SOL     OW23719   3.435   5.403   0.584
 7607SOL    HW123720   3.503   5.460   0.538
 7607SOL    HW223721   3.396   5.338   0.519
 7608SOL     OW23722   4.855   2.433   6.492
 7608SOL    HW123723   4.890   2.471   6.578
 7608SOL    HW223724   4.873   2.335   6.489
 7609SOL     OW23725   0.522   3.815   3.677
 7609SOL    HW123726   0.437   3.768   3.701
 7609SOL    HW223727   0.600   3.762   3.711
 7610SOL     OW23728   4.315   5.034   5.961
 7610SOL    HW123729   4.385   5.092   6.004
 7610SOL    HW223730   4.227   5.051   6.005
 7611SOL     OW23731   5.246   3.893   1.303
 7611SOL    HW123732   5.282   3.830   1.372
 7611SOL    HW223733   5.271   3.860   1.212
 7612SOL     OW23734   4.129   2.227   2.998
 7612SOL    HW123735   4.151   2.279   2.916
 7612SOL    HW223736   4.212   2.188   3.038
 7613SOL     OW23737   0.686   1.750   1.903
 7613SOL    HW123738   0.706   1.847   1.886
 7613SOL    HW223739   0.734   1.721   1.986
 7614SOL     OW23740   5.538   3.649   1.077
 7614SOL    HW123741   5.572   3.740   1.054
 7614SOL    HW223742   5.616   3.588   1.093
 7615SOL     OW23743   4.957   4.287   5.536
 7615SOL    HW123744   4.946   4.199   5.582
 7615SOL    HW223745   4.961   4.272   5.437
 7616SOL     OW23746   6.605   0.441   3.607
 7616SOL    HW123747   6.537   0.425   3.678
 7616SOL    HW223748   6.640   0.354   3.574
 7617SOL     OW23749   5.429   5.472   3.079
 7617SOL    HW123750   5.456   5.411   3.004
 7617SOL    HW223751   5.330   5.474   3.087
 7618SOL     OW23752   1.392   2.237   0.264
 7618SOL    HW123753   1.376   2.319   0.320
 7618SOL    HW223754   1.358   2.253   0.172
 7619SOL     OW23755   7.014   2.648   4.552
 7619SOL    HW123756   7.024   2.722   4.485
 7619SOL    HW223757   7.015   2.686   4.644
 7620SOL     OW23758   3.631   4.651   0.734
 7620SOL    HW123759   3.554   4.602   0.693
 7620SOL    HW223760   3.636   4.743   0.694
 7621SOL     OW23761   0.519   6.875   1.024
 7621SOL    HW123762   0.533   6.974   1.023
 7621SOL    HW223763   0.498   6.843   0.931
 7622SOL     OW23764   4.373   4.765   6.561
 7622SOL    HW123765   4.288   4.781   6.511
 7622SOL    HW223766   4.392   4.844   6.620
 7623SOL     OW23767   4.107   4.620   0.673
 7623SOL    HW123768   4.042   4.609   0.748
 7623SOL    HW223769   4.065   4.590   0.587
 7624SOL     OW23770   6.819   2.837   3.355
 7624SOL    HW123771   6.796   2.750   3.400
 7624SOL    HW223772   6.913   2.862   3.378
 7625SOL     OW23773   5.650   2.394   6.885
 7625SOL    HW123774   5.667   2.459   6.811
 7625SOL    HW223775   5.552   2.389   6.903
 7626SOL     OW23776   6.616   0.834   6.110
 7626SOL    HW123777   6.665   0.921   6.118
 7626SOL    HW223778   6.578   0.825   6.018
 7627SOL     OW23779   2.789   1.641   0.551
 7627SOL    HW123780   2.724   1.685   0.612
 7627SOL    HW223781   2.741   1.606   0.471
 7628SOL     OW23782   4.114   2.904   1.458
 7628SOL    HW123783   4.088   2.861   1.545
 7628SOL    HW223784   4.133   2.832   1.391
 7629SOL     OW23785   6.761   4.305   3.528
 7629SOL    HW123786   6.703   4.286   3.608
 7629SOL    HW223787   6.713   4.368   3.467
 7630SOL     OW23788   1.012   0.302   6.105
 7630SOL    HW123789   1.105   0.283   6.133
 7630SOL    HW223790   0.964   0.350   6.178
 7631SOL     OW23791   1.448   0.956   5.569
 7631SOL    HW123792   1.476   0.861   5.576
 7631SOL    HW223793   1.409   0.986   5.656
 7632SOL     OW23794   3.984   4.841   1.199
 7632SOL    HW123795   4.049   4.835   1.124
 7632SOL    HW223796   4.018   4.788   1.277
 7633SOL     OW23797   5.542   0.733   1.760
 7633SOL    HW123798   5.480   0.767   1.830
 7633SOL    HW223799   5.543   0.633   1.762
 7634SOL     OW23800   1.115   1.170   1.827
 7634SOL    HW123801   1.156   1.258   1.803
 7634SOL    HW223802   1.079   1.126   1.745
 7635SOL     OW23803   2.642   5.226   4.707
 7635SOL    HW123804   2.543   5.240   4.701
 7635SOL    HW223805   2.677   5.270   4.790
 7636SOL     OW23806   0.719   4.014   4.049
 7636SOL    HW123807   0.670   3.930   4.028
 7636SOL    HW223808   0.816   3.994   4.061
 7637SOL     OW23809   0.960   6.464   2.810
 7637SOL    HW123810   0.896   6.521   2.862
 7637SOL    HW223811   0.908   6.397   2.758
 7638SOL     OW23812   1.124   5.485   1.782
 7638SOL    HW123813   1.119   5.575   1.825
 7638SOL    HW223814   1.144   5.495   1.684
 7639SOL     OW23815   0.177   0.952   0.764
 7639SOL    HW123816   0.123   0.945   0.847
 7639SOL    HW223817   0.116   0.952   0.684
 7640SOL     OW23818   3.021   2.429   0.003
 7640SOL    HW123819   2.961   2.445   0.082
 7640SOL    HW223820   2.974   2.372   6.961
 7641SOL     OW23821   0.088   4.577   2.943
 7641SOL    HW123822   0.031   4.516   2.999
 7641SOL    HW223823   0.174   4.531   2.921
 7642SOL     OW23824   5.883   1.041   2.945
 7642SOL    HW123825   5.957   0.974   2.946
 7642SOL    HW223826   5.859   1.063   2.850
 7643SOL     OW23827   5.389   1.671   2.258
 7643SOL    HW123828   5.486   1.669   2.282
 7643SOL    HW223829   5.334   1.655   2.339
 7644SOL     OW23830   4.783   2.818   2.271
 7644SOL    HW123831   4.749   2.730   2.240
 7644SOL    HW223832   4.790   2.881   2.193
 7645SOL     OW23833   4.056   3.180   5.489
 7645SOL    HW123834   3.972   3.167   5.437
 7645SOL    HW223835   4.126   3.219   5.429
 7646SOL     OW23836   0.639   2.922   3.380
 7646SOL    HW123837   0.654   2.838   3.432
 7646SOL    HW223838   0.549   2.959   3.402
 7647SOL     OW23839   0.778   2.878   4.440
 7647SOL    HW123840   0.779   2.870   4.340
 7647SOL    HW223841   0.852   2.940   4.469
 7648SOL     OW23842   2.380   1.440   2.176
 7648SOL    HW123843   2.464   1.386   2.166
 7648SOL    HW223844   2.404   1.536   2.192
 7649SOL     OW23845   1.288   1.415   4.546
 7649SOL    HW123846   1.329   1.331   4.511
 7649SOL    HW223847   1.350   1.492   4.530
 7650SOL     OW23848   5.353   1.136   1.432
 7650SOL    HW123849   5.271   1.081   1.415
 7650SOL    HW223850   5.410   1.136   1.350
 7651SOL     OW23851   2.529   5.356   4.420
 7651SOL    HW123852   2.509   5.324   4.512
 7651SOL    HW223853   2.455   5.327   4.358
 7652SOL     OW23854   5.972   2.765   5.133
 7652SOL    HW123855   5.926   2.765   5.222
 7652SOL    HW223856   5.971   2.857   5.095
 7653SOL     OW23857   1.314   1.384   0.214
 7653SOL    HW123858   1.371   1.327   0.155
 7653SOL    HW223859   1.354   1.476   0.219
 7654SOL     OW23860   5.429   3.230   5.001
 7654SOL    HW123861   5.504   3.290   4.971
 7654SOL    HW223862   5.350   3.286   5.023
 7655SOL     OW23863   3.636   0.098   3.693
 7655SOL    HW123864   3.720   0.147   3.718
 7655SOL    HW223865   3.561   0.163   3.684
 7656SOL     OW23866   5.689   3.114   5.866
 7656SOL    HW123867   5.671   3.017   5.884
 7656SOL    HW223868   5.602   3.163   5.855
 7657SOL     OW23869   1.907   3.183   3.812
 7657SOL    HW123870   1.918   3.149   3.718
 7657SOL    HW223871   1.824   3.239   3.818
 7658SOL     OW23872   3.356   0.363   0.999
 7658SOL    HW123873   3.321   0.452   0.970
 7658SOL    HW223874   3.439   0.376   1.054
 7659SOL     OW23875   4.974   4.297   6.653
 7659SOL    HW123876   5.030   4.306   6.735
 7659SOL    HW223877   4.964   4.386   6.609
 7660SOL     OW23878   6.305   5.350   4.761
 7660SOL    HW123879   6.382   5.326   4.821
 7660SOL    HW223880   6.271   5.441   4.786
 7661SOL     OW23881   4.356   2.234   5.874
 7661SOL    HW123882   4.447   2.272   5.892
 7661SOL    HW223883   4.327   2.259   5.781
 7662SOL     OW23884   0.631   2.491   3.304
 7662SOL    HW123885   0.675   2.537   3.381
 7662SOL    HW223886   0.695   2.428   3.261
 7663SOL     OW23887   4.826   5.547   6.684
 7663SOL    HW123888   4.814   5.507   6.593
 7663SOL    HW223889   4.762   5.623   6.696
 7664SOL     OW23890   3.623   1.450   3.404
 7664SOL    HW123891   3.561   1.430   3.328
 7664SOL    HW223892   3.622   1.374   3.469
 7665SOL     OW23893   5.633   1.677   4.226
 7665SOL    HW123894   5.609   1.657   4.131
 7665SOL    HW223895   5.679   1.766   4.231
 7666SOL     OW23896   6.750   5.688   4.387
 7666SOL    HW123897   6.729   5.613   4.451
 7666SOL    HW223898   6.696   5.676   4.304
 7667SOL     OW23899   4.353   0.467   2.603
 7667SOL    HW123900   4.343   0.398   2.531
 7667SOL    HW223901   4.375   0.556   2.561
 7668SOL     OW23902   2.944   4.773   0.519
 7668SOL    HW123903   3.039   4.750   0.539
 7668SOL    HW223904   2.915   4.850   0.576
 7669SOL     OW23905   4.282   1.038   5.704
 7669SOL    HW123906   4.279   0.969   5.631
 7669SOL    HW223907   4.351   1.012   5.771
 7670SOL     OW23908   0.676   6.505   0.887
 7670SOL    HW123909   0.706   6.563   0.962
 7670SOL    HW223910   0.587   6.464   0.909
 7671SOL     OW23911   5.286   6.653   2.439
 7671SOL    HW123912   5.295   6.561   2.476
 7671SOL    HW223913   5.189   6.676   2.430
 7672SOL     OW23914   0.062   5.255   3.182
 7672SOL    HW123915   0.131   5.287   3.247
 7672SOL    HW223916   7.025   5.191   3.228
 7673SOL     OW23917   1.617   5.815   2.395
 7673SOL    HW123918   1.528   5.861   2.397
 7673SOL    HW223919   1.667   5.844   2.314
 7674SOL     OW23920   4.317   0.612   4.066
 7674SOL    HW123921   4.301   0.588   4.162
 7674SOL    HW223922   4.285   0.538   4.007
 7675SOL     OW23923   4.030   6.780   3.517
 7675SOL    HW123924   3.956   6.848   3.511
 7675SOL    HW223925   3.997   6.700   3.568
 7676SOL     OW23926   2.847   2.177   5.899
 7676SOL    HW123927   2.828   2.245   5.828
 7676SOL    HW223928   2.860   2.223   5.986
 7677SOL     OW23929   0.631   4.425   0.988
 7677SOL    HW123930   0.662   4.334   1.014
 7677SOL    HW223931   0.572   4.419   0.908
 7678SOL     OW23932   2.042   2.640   5.397
 7678SOL    HW123933   2.053   2.541   5.384
 7678SOL    HW223934   2.098   2.688   5.329
 7679SOL     OW23935   2.254   5.567   5.238
 7679SOL    HW123936   2.325   5.560   5.168
 7679SOL    HW223937   2.180   5.624   5.204
 7680SOL     OW23938   1.750   0.010   5.938
 7680SOL    HW123939   1.807   7.009   5.859
 7680SOL    HW223940   1.808   0.019   6.019
 7681SOL     OW23941   2.405   1.670   6.732
 7681SOL    HW123942   2.426   1.713   6.644
 7681SOL    HW223943   2.490   1.647   6.779
 7682SOL     OW23944   4.163   1.851   2.379
 7682SOL    HW123945   4.074   1.851   2.425
 7682SOL    HW223946   4.151   1.823   2.284
 7683SOL     OW23947   1.089   1.511   4.741
 7683SOL    HW123948   1.114   1.543   4.832
 7683SOL    HW223949   1.171   1.478   4.693
 7684SOL     OW23950   4.367   2.414   1.855
 7684SOL    HW123951   4.277   2.375   1.873
 7684SOL    HW223952   4.426   2.400   1.934
 7685SOL     OW23953   3.548   1.822   7.004
 7685SOL    HW123954   3.544   1.742   0.038
 7685SOL    HW223955   3.636   1.868   7.014
 7686SOL     OW23956   5.306   6.870   4.523
 7686SOL    HW123957   5.274   6.779   4.497
 7686SOL    HW223958   5.375   6.901   4.457
 7687SOL     OW23959   5.050   5.349   5.270
 7687SOL    HW123960   4.999   5.269   5.240
 7687SOL    HW223961   5.021   5.375   5.362
 7688SOL     OW23962   6.990   5.766   6.007
 7688SOL    HW123963   6.900   5.735   5.978
 7688SOL    HW223964   0.034   5.736   5.940
 7689SOL     OW23965   4.855   0.317   2.190
 7689SOL    HW123966   4.852   0.227   2.146
 7689SOL    HW223967   4.899   0.383   2.129
 7690SOL     OW23968   5.427   4.954   0.471
 7690SOL    HW123969   5.337   4.929   0.504
 7690SOL    HW223970   5.418   5.010   0.389
 7691SOL     OW23971   4.664   4.769   2.069
 7691SOL    HW123972   4.584   4.720   2.103
 7691SOL    HW223973   4.737   4.704   2.049
 7692SOL     OW23974   0.725   6.127   1.779
 7692SOL    HW123975   0.757   6.208   1.829
 7692SOL    HW223976   0.767   6.125   1.689
 7693SOL     OW23977   3.256   0.108   1.643
 7693SOL    HW123978   3.288   0.114   1.549
 7693SOL    HW223979   3.219   0.016   1.660
 7694SOL     OW23980   5.587   2.258   4.454
 7694SOL    HW123981   5.651   2.252   4.377
 7694SOL    HW223982   5.495   2.237   4.422
 7695SOL     OW23983   5.322   1.019   2.057
 7695SOL    HW123984   5.387   1.013   2.133
 7695SOL    HW223985   5.320   0.932   2.008
 7696SOL     OW23986   0.704   1.354   6.110
 7696SOL    HW123987   0.765   1.408   6.168
 7696SOL    HW223988   0.635   1.414   6.068
 7697SOL     OW23989   3.080   0.678   2.782
 7697SOL    HW123990   3.179   0.662   2.777
 7697SOL    HW223991   3.058   0.765   2.738
 7698SOL     OW23992   6.804   2.120   5.610
 7698SOL    HW123993   6.720   2.070   5.588
 7698SOL    HW223994   6.822   2.188   5.538
 7699SOL     OW23995   2.355   5.407   6.844
 7699SOL    HW123996   2.374   5.400   6.746
 7699SOL    HW223997   2.300   5.488   6.862
 7700SOL     OW23998   4.394   6.628   3.086
 7700SOL    HW123999   4.353   6.539   3.105
 7700SOL    HW224000   4.361   6.695   3.153
 7701SOL     OW24001   6.915   1.793   5.909
 7701SOL    HW124002   6.983   1.865   5.892
 7701SOL    HW224003   6.919   1.765   6.005
 7702SOL     OW24004   4.064   6.355   5.310
 7702SOL    HW124005   4.042   6.345   5.407
 7702SOL    HW224006   4.151   6.402   5.300
 7703SOL     OW24007   6.555   6.894   5.167
 7703SOL    HW124008   6.474   6.834   5.168
 7703SOL    HW224009   6.555   6.951   5.248
 7704SOL     OW24010   6.270   2.042   4.208
 7704SOL    HW124011   6.309   2.132   4.227
 7704SOL    HW224012   6.329   1.971   4.246
 7705SOL     OW24013   2.593   5.067   0.610
 7705SOL    HW124014   2.550   5.043   0.523
 7705SOL    HW224015   2.634   5.158   0.603
 7706SOL     OW24016   3.392   3.032   2.949
 7706SOL    HW124017   3.377   3.099   2.877
 7706SOL    HW224018   3.446   2.956   2.914
 7707SOL     OW24019   0.172   4.970   6.499
 7707SOL    HW124020   0.144   5.048   6.443
 7707SOL    HW224021   0.117   4.968   6.583
 7708SOL     OW24022   1.463   6.914   3.897
 7708SOL    HW124023   1.417   6.973   3.831
 7708SOL    HW224024   1.475   6.823   3.857
 7709SOL     OW24025   6.590   5.227   1.237
 7709SOL    HW124026   6.629   5.301   1.183
 7709SOL    HW224027   6.542   5.264   1.317
 7710SOL     OW24028   2.298   2.324   0.792
 7710SOL    HW124029   2.245   2.315   0.877
 7710SOL    HW224030   2.256   2.394   0.735
 7711SOL     OW24031   6.764   5.991   5.840
 7711SOL    HW124032   6.721   5.901   5.829
 7711SOL    HW224033   6.724   6.037   5.919
 7712SOL     OW24034   6.223   4.910   6.829
 7712SOL    HW124035   6.189   5.004   6.827
 7712SOL    HW224036   6.151   4.847   6.800
 7713SOL     OW24037   2.041   4.120   0.880
 7713SOL    HW124038   1.970   4.180   0.844
 7713SOL    HW224039   2.091   4.079   0.804
 7714SOL     OW24040   0.422   6.880   5.242
 7714SOL    HW124041   0.464   6.916   5.159
 7714SOL    HW224042   0.357   6.947   5.278
 7715SOL     OW24043   2.513   1.844   6.538
 7715SOL    HW124044   2.536   1.919   6.600
 7715SOL    HW224045   2.453   1.878   6.466
 7716SOL     OW24046   6.662   4.990   6.383
 7716SOL    HW124047   6.591   4.987   6.453
 7716SOL    HW224048   6.685   4.897   6.354
 7717SOL     OW24049   1.375   1.795   5.087
 7717SOL    HW124050   1.415   1.797   5.178
 7717SOL    HW224051   1.446   1.806   5.018
 7718SOL     OW24052   6.991   4.384   3.082
 7718SOL    HW124053   6.899   4.384   3.043
 7718SOL    HW224054   6.989   4.336   3.170
 7719SOL     OW24055   1.319   4.108   4.640
 7719SOL    HW124056   1.278   4.140   4.726
 7719SOL    HW224057   1.385   4.035   4.660
 7720SOL     OW24058   6.366   2.093   5.974
 7720SOL    HW124059   6.412   2.132   5.894
 7720SOL    HW224060   6.431   2.082   6.049
 7721SOL     OW24061   1.165   0.399   2.284
 7721SOL    HW124062   1.151   0.328   2.215
 7721SOL    HW224063   1.157   0.489   2.242
 7722SOL     OW24064   1.940   5.388   4.090
 7722SOL    HW124065   1.858   5.441   4.067
 7722SOL    HW224066   1.958   5.321   4.018
 7723SOL     OW24067   4.903   3.576   6.366
 7723SOL    HW124068   4.809   3.575   6.401
 7723SOL    HW224069   4.922   3.666   6.327
 7724SOL     OW24070   3.394   4.196   0.530
 7724SOL    HW124071   3.387   4.151   0.441
 7724SOL    HW224072   3.332   4.152   0.595
 7725SOL     OW24073   5.882   2.851   2.504
 7725SOL    HW124074   5.965   2.897   2.474
 7725SOL    HW224075   5.886   2.755   2.475
 7726SOL     OW24076   0.767   2.864   5.938
 7726SOL    HW124077   0.790   2.916   6.020
 7726SOL    HW224078   0.840   2.797   5.920
 7727SOL     OW24079   6.288   2.725   1.691
 7727SOL    HW124080   6.190   2.737   1.704
 7727SOL    HW224081   6.308   2.714   1.593
 7728SOL     OW24082   2.176   2.814   5.247
 7728SOL    HW124083   2.205   2.824   5.152
 7728SOL    HW224084   2.254   2.828   5.308
 7729SOL     OW24085   6.433   1.880   1.799
 7729SOL    HW124086   6.439   1.781   1.808
 7729SOL    HW224087   6.515   1.915   1.753
 7730SOL     OW24088   5.965   4.753   5.043
 7730SOL    HW124089   6.023   4.750   4.961
 7730SOL    HW224090   5.958   4.661   5.081
 7731SOL     OW24091   6.184   0.145   0.566
 7731SOL    HW124092   6.247   0.082   0.612
 7731SOL    HW224093   6.167   0.224   0.625
 7732SOL     OW24094   4.278   0.477   7.022
 7732SOL    HW124095   4.235   0.568   0.000
 7732SOL    HW224096   4.222   0.415   6.968
 7733SOL     OW24097   6.122   5.737   2.602
 7733SOL    HW124098   6.184   5.717   2.678
 7733SOL    HW224099   6.030   5.705   2.624
 7734SOL     OW24100   2.323   4.636   4.972
 7734SOL    HW124101   2.346   4.734   4.966
 7734SOL    HW224102   2.392   4.589   5.028
 7735SOL     OW24103   6.213   5.947   0.016
 7735SOL    HW124104   6.239   5.965   6.946
 7735SOL    HW224105   6.124   5.902   0.018
 7736SOL     OW24106   2.659   3.206   0.424
 7736SOL    HW124107   2.574   3.248   0.457
 7736SOL    HW224108   2.713   3.174   0.502
 7737SOL     OW24109   3.408   5.269   1.829
 7737SOL    HW124110   3.465   5.217   1.893
 7737SOL    HW224111   3.340   5.208   1.788
 7738SOL     OW24112   1.853   6.096   6.594
 7738SOL    HW124113   1.948   6.107   6.564
 7738SOL    HW224114   1.799   6.173   6.561
 7739SOL     OW24115   1.297   2.023   1.978
 7739SOL    HW124116   1.393   2.043   1.960
 7739SOL    HW224117   1.290   1.963   2.057
 7740SOL     OW24118   1.923   1.135   2.248
 7740SOL    HW124119   1.929   1.079   2.331
 7740SOL    HW224120   1.924   1.232   2.272
 7741SOL     OW24121   1.489   4.084   5.024
 7741SOL    HW124122   1.443   4.008   5.070
 7741SOL    HW224123   1.539   4.138   5.091
 7742SOL     OW24124   3.807   1.621   3.947
 7742SOL    HW124125   3.747   1.563   3.892
 7742SOL    HW224126   3.892   1.573   3.966
 7743SOL     OW24127   4.763   0.917   6.787
 7743SOL    HW124128   4.789   1.007   6.822
 7743SOL    HW224129   4.815   0.898   6.704
 7744SOL     OW24130   0.434   6.118   3.654
 7744SOL    HW124131   0.451   6.217   3.652
 7744SOL    HW224132   0.520   6.070   3.666
 7745SOL     OW24133   2.195   6.366   0.230
 7745SOL    HW124134   2.224   6.280   0.188
 7745SOL    HW224135   2.107   6.352   0.276
 7746SOL     OW24136   1.093   6.797   0.876
 7746SOL    HW124137   1.071   6.881   0.925
 7746SOL    HW224138   1.190   6.796   0.852
 7747SOL     OW24139   0.267   6.378   1.014
 7747SOL    HW124140   0.325   6.373   0.933
 7747SOL    HW224141   0.229   6.287   1.034
 7748SOL     OW24142   3.354   3.270   4.975
 7748SOL    HW124143   3.355   3.353   5.031
 7748SOL    HW224144   3.433   3.270   4.914
 7749SOL     OW24145   3.019   3.919   3.376
 7749SOL    HW124146   2.929   3.887   3.405
 7749SOL    HW224147   3.077   3.933   3.456
 7750SOL     OW24148   5.568   5.453   5.419
 7750SOL    HW124149   5.609   5.540   5.394
 7750SOL    HW224150   5.636   5.395   5.464
 7751SOL     OW24151   0.499   1.365   3.810
 7751SOL    HW124152   0.536   1.451   3.775
 7751SOL    HW224153   0.569   1.317   3.863
 7752SOL     OW24154   5.196   5.621   5.998
 7752SOL    HW124155   5.148   5.533   5.995
 7752SOL    HW224156   5.286   5.608   6.040
 7753SOL     OW24157   2.152   1.007   4.531
 7753SOL    HW124158   2.156   1.098   4.490
 7753SOL    HW224159   2.114   0.942   4.464
 7754SOL     OW24160   5.389   0.522   1.489
 7754SOL    HW124161   5.315   0.590   1.495
 7754SOL    HW224162   5.408   0.486   1.580
 7755SOL     OW24163   0.447   0.141   5.654
 7755SOL    HW124164   0.453   0.043   5.673
 7755SOL    HW224165   0.501   0.192   5.721
 7756SOL     OW24166   2.410   5.949   2.277
 7756SOL    HW124167   2.498   5.959   2.230
 7756SOL    HW224168   2.376   5.855   2.263
 7757SOL     OW24169   4.991   6.278   5.008
 7757SOL    HW124170   4.933   6.307   4.933
 7757SOL    HW224171   4.943   6.211   5.064
 7758SOL     OW24172   1.645   2.012   6.763
 7758SOL    HW124173   1.570   1.959   6.803
 7758SOL    HW224174   1.691   2.064   6.835
 7759SOL     OW24175   2.005   1.104   4.743
 7759SOL    HW124176   1.978   1.028   4.803
 7759SOL    HW224177   2.065   1.069   4.671
 7760SOL     OW24178   5.649   3.495   2.261
 7760SOL    HW124179   5.736   3.463   2.223
 7760SOL    HW224180   5.581   3.503   2.188
 7761SOL     OW24181   2.924   6.976   5.860
 7761SOL    HW124182   3.012   6.930   5.872
 7761SOL    HW224183   2.936   0.035   5.806
 7762SOL     OW24184   3.813   0.725   5.367
 7762SOL    HW124185   3.823   0.772   5.455
 7762SOL    HW224186   3.901   0.723   5.320
 7763SOL     OW24187   1.196   1.951   1.345
 7763SOL    HW124188   1.235   1.988   1.260
 7763SOL    HW224189   1.135   1.876   1.323
 7764SOL     OW24190   3.906   2.988   2.385
 7764SOL    HW124191   3.931   3.072   2.434
 7764SOL    HW224192   3.986   2.927   2.381
 7765SOL     OW24193   6.388   3.485   4.394
 7765SOL    HW124194   6.471   3.533   4.420
 7765SOL    HW224195   6.327   3.547   4.344
 7766SOL     OW24196   5.198   1.896   6.796
 7766SOL    HW124197   5.231   1.954   6.721
 7766SOL    HW224198   5.237   1.927   6.882
 7767SOL     OW24199   3.977   6.576   3.965
 7767SOL    HW124200   3.932   6.489   3.984
 7767SOL    HW224201   3.912   6.640   3.924
 7768SOL     OW24202   4.133   4.986   2.794
 7768SOL    HW124203   4.212   5.047   2.789
 7768SOL    HW224204   4.153   4.912   2.858
 7769SOL     OW24205   5.250   1.603   1.914
 7769SOL    HW124206   5.262   1.527   1.850
 7769SOL    HW224207   5.330   1.610   1.973
 7770SOL     OW24208   2.337   4.120   2.040
 7770SOL    HW124209   2.403   4.144   1.969
 7770SOL    HW224210   2.254   4.176   2.029
 7771SOL     OW24211   2.831   2.521   5.258
 7771SOL    HW124212   2.878   2.608   5.268
 7771SOL    HW224213   2.892   2.446   5.283
 7772SOL     OW24214   5.096   1.223   3.697
 7772SOL    HW124215   5.030   1.166   3.747
 7772SOL    HW224216   5.057   1.248   3.608
 7773SOL     OW24217   3.154   4.759   5.526
 7773SOL    HW124218   3.154   4.805   5.437
 7773SOL    HW224219   3.142   4.660   5.511
 7774SOL     OW24220   5.745   1.705   5.831
 7774SOL    HW124221   5.752   1.804   5.824
 7774SOL    HW224222   5.739   1.679   5.928
 7775SOL     OW24223   3.690   6.848   2.861
 7775SOL    HW124224   3.592   6.850   2.841
 7775SOL    HW224225   3.704   6.869   2.958
 7776SOL     OW24226   3.161   2.870   6.261
 7776SOL    HW124227   3.163   2.771   6.257
 7776SOL    HW224228   3.251   2.904   6.289
 7777SOL     OW24229   2.724   1.765   5.544
 7777SOL    HW124230   2.641   1.756   5.599
 7777SOL    HW224231   2.761   1.674   5.525
 7778SOL     OW24232   5.062   6.936   6.982
 7778SOL    HW124233   5.108   6.921   0.045
 7778SOL    HW224234   5.114   7.004   6.929
 7779SOL     OW24235   3.764   2.902   0.616
 7779SOL    HW124236   3.780   2.909   0.714
 7779SOL    HW224237   3.669   2.877   0.599
 7780SOL     OW24238   1.844   5.475   4.862
 7780SOL    HW124239   1.803   5.564   4.843
 7780SOL    HW224240   1.853   5.424   4.777
 7781SOL     OW24241   1.315   3.837   6.214
 7781SOL    HW124242   1.306   3.889   6.299
 7781SOL    HW224243   1.249   3.762   6.213
 7782SOL     OW24244   1.970   3.239   5.537
 7782SOL    HW124245   1.991   3.142   5.524
 7782SOL    HW224246   2.053   3.287   5.564
 7783SOL     OW24247   3.084   6.755   5.936
 7783SOL    HW124248   3.110   6.734   6.030
 7783SOL    HW224249   2.987   6.738   5.923
 7784SOL     OW24250   1.969   2.427   0.275
 7784SOL    HW124251   1.872   2.403   0.267
 7784SOL    HW224252   1.982   2.520   0.242
 7785SOL     OW24253   1.467   6.692   3.710
 7785SOL    HW124254   1.408   6.748   3.653
 7785SOL    HW224255   1.549   6.666   3.658
 7786SOL     OW24256   3.509   5.071   5.980
 7786SOL    HW124257   3.447   5.069   6.058
 7786SOL    HW224258   3.505   5.161   5.937
 7787SOL     OW24259   2.243   2.340   5.682
 7787SOL    HW124260   2.183   2.420   5.687
 7787SOL    HW224261   2.188   2.259   5.659
 7788SOL     OW24262   1.161   0.814   1.761
 7788SOL    HW124263   1.137   0.786   1.668
 7788SOL    HW224264   1.245   0.868   1.758
 7789SOL     OW24265   2.793   0.300   0.725
 7789SOL    HW124266   2.820   0.290   0.629
 7789SOL    HW224267   2.736   0.222   0.752
 7790SOL     OW24268   5.987   4.832   2.519
 7790SOL    HW124269   5.923   4.859   2.591
 7790SOL    HW224270   6.077   4.874   2.536
 7791SOL     OW24271   2.833   6.637   4.007
 7791SOL    HW124272   2.911   6.586   3.970
 7791SOL    HW224273   2.757   6.635   3.942
 7792SOL     OW24274   1.156   5.413   5.904
 7792SOL    HW124275   1.201   5.502   5.916
 7792SOL    HW224276   1.178   5.377   5.813
 7793SOL     OW24277   2.189   0.944   6.010
 7793SOL    HW124278   2.144   0.958   5.921
 7793SOL    HW224279   2.135   0.880   6.064
 7794SOL     OW24280   5.376   5.326   4.034
 7794SOL    HW124281   5.433   5.248   4.060
 7794SOL    HW224282   5.281   5.309   4.061
 7795SOL     OW24283   2.177   4.095   5.281
 7795SOL    HW124284   2.204   4.064   5.373
 7795SOL    HW224285   2.239   4.056   5.213
 7796SOL     OW24286   3.186   4.102   4.086
 7796SOL    HW124287   3.201   4.110   4.184
 7796SOL    HW224288   3.231   4.178   4.038
 7797SOL     OW24289   0.886   5.572   2.478
 7797SOL    HW124290   0.824   5.555   2.554
 7797SOL    HW224291   0.980   5.566   2.510
 7798SOL     OW24292   1.289   4.869   6.427
 7798SOL    HW124293   1.241   4.841   6.344
 7798SOL    HW224294   1.382   4.898   6.403
 7799SOL     OW24295   6.995   6.087   1.757
 7799SOL    HW124296   0.015   6.153   1.697
 7799SOL    HW224297   6.928   6.035   1.705
 7800SOL     OW24298   1.275   4.535   1.076
 7800SOL    HW124299   1.185   4.577   1.088
 7800SOL    HW224300   1.283   4.455   1.135
 7801SOL     OW24301   2.529   1.637   1.505
 7801SOL    HW124302   2.628   1.637   1.519
 7801SOL    HW224303   2.488   1.712   1.556
 7802SOL     OW24304   5.692   2.722   1.104
 7802SOL    HW124305   5.641   2.646   1.064
 7802SOL    HW224306   5.628   2.790   1.140
 7803SOL     OW24307   4.311   3.492   5.697
 7803SOL    HW124308   4.211   3.493   5.701
 7803SOL    HW224309   4.341   3.415   5.640
 7804SOL     OW24310   6.187   0.899   3.673
 7804SOL    HW124311   6.226   0.890   3.764
 7804SOL    HW224312   6.232   0.975   3.625
 7805SOL     OW24313   5.482   1.202   1.656
 7805SOL    HW124314   5.458   1.169   1.565
 7805SOL    HW224315   5.412   1.173   1.721
 7806SOL     OW24316   5.917   2.679   5.452
 7806SOL    HW124317   5.908   2.719   5.543
 7806SOL    HW224318   6.013   2.682   5.424
 7807SOL     OW24319   0.233   4.797   6.288
 7807SOL    HW124320   0.211   4.859   6.362
 7807SOL    HW224321   0.164   4.803   6.216
 7808SOL     OW24322   0.294   3.439   4.658
 7808SOL    HW124323   0.217   3.469   4.716
 7808SOL    HW224324   0.327   3.351   4.690
 7809SOL     OW24325   2.912   6.039   5.019
 7809SOL    HW124326   3.010   6.020   5.029
 7809SOL    HW224327   2.860   5.965   5.063
 7810SOL     OW24328   3.881   0.078   5.574
 7810SOL    HW124329   3.829   0.084   5.659
 7810SOL    HW224330   3.972   0.041   5.594
 7811SOL     OW24331   6.836   4.579   3.991
 7811SOL    HW124332   6.800   4.539   4.075
 7811SOL    HW224333   6.835   4.510   3.919
 7812SOL     OW24334   1.046   2.188   3.976
 7812SOL    HW124335   1.120   2.246   3.941
 7812SOL    HW224336   1.083   2.123   4.042
 7813SOL     OW24337   5.093   2.434   6.054
 7813SOL    HW124338   5.073   2.526   6.086
 7813SOL    HW224339   5.031   2.410   5.979
 7814SOL     OW24340   6.735   2.721   3.807
 7814SOL    HW124341   6.813   2.665   3.777
 7814SOL    HW224342   6.724   2.797   3.743
 7815SOL     OW24343   4.839   1.153   6.911
 7815SOL    HW124344   4.772   1.184   6.978
 7815SOL    HW224345   4.833   1.211   6.829
 7816SOL     OW24346   1.756   2.789   6.453
 7816SOL    HW124347   1.769   2.889   6.454
 7816SOL    HW224348   1.659   2.768   6.458
 7817SOL     OW24349   6.407   3.642   3.979
 7817SOL    HW124350   6.349   3.716   4.013
 7817SOL    HW224351   6.350   3.564   3.953
 7818SOL     OW24352   4.427   1.123   2.625
 7818SOL    HW124353   4.430   1.099   2.722
 7818SOL    HW224354   4.519   1.146   2.593
 7819SOL     OW24355   6.995   2.983   1.705
 7819SOL    HW124356   6.961   2.897   1.666
 7819SOL    HW224357   0.036   2.963   1.777
 7820SOL     OW24358   1.777   2.260   4.629
 7820SOL    HW124359   1.796   2.165   4.604
 7820SOL    HW224360   1.814   2.278   4.720
 7821SOL     OW24361   4.674   5.878   1.282
 7821SOL    HW124362   4.601   5.888   1.215
 7821SOL    HW224363   4.762   5.901   1.240
 7822SOL     OW24364   0.280   0.744   4.969
 7822SOL    HW124365   0.208   0.806   5.001
 7822SOL    HW224366   0.241   0.654   4.949
 7823SOL     OW24367   2.098   3.925   4.920
 7823SOL    HW124368   2.032   3.999   4.910
 7823SOL    HW224369   2.166   3.949   4.989
 7824SOL     OW24370   6.598   2.028   5.259
 7824SOL    HW124371   6.634   1.934   5.254
 7824SOL    HW224372   6.529   2.034   5.330
 7825SOL     OW24373   2.121   3.038   0.364
 7825SOL    HW124374   2.200   3.090   0.332
 7825SOL    HW224375   2.039   3.097   0.361
 7826SOL     OW24376   6.012   1.330   1.142
 7826SOL    HW124377   5.940   1.398   1.135
 7826SOL    HW224378   6.094   1.371   1.183
 7827SOL     OW24379   1.877   5.784   1.297
 7827SOL    HW124380   1.869   5.701   1.242
 7827SOL    HW224381   1.785   5.819   1.319
 7828SOL     OW24382   6.100   4.517   0.172
 7828SOL    HW124383   6.133   4.448   0.107
 7828SOL    HW224384   6.141   4.500   0.261
 7829SOL     OW24385   3.085   3.276   1.167
 7829SOL    HW124386   3.006   3.336   1.153
 7829SOL    HW224387   3.138   3.271   1.083
 7830SOL     OW24388   3.151   5.221   5.737
 7830SOL    HW124389   3.136   5.244   5.641
 7830SOL    HW224390   3.114   5.130   5.756
 7831SOL     OW24391   1.900   0.317   2.228
 7831SOL    HW124392   1.895   0.365   2.316
 7831SOL    HW224393   1.821   0.343   2.172
 7832SOL     OW24394   6.001   0.631   4.646
 7832SOL    HW124395   6.094   0.595   4.651
 7832SOL    HW224396   5.981   0.658   4.551
 7833SOL     OW24397   1.260   0.672   4.828
 7833SOL    HW124398   1.216   0.677   4.739
 7833SOL    HW224399   1.191   0.653   4.898
 7834SOL     OW24400   0.254   1.606   3.357
 7834SOL    HW124401   0.221   1.700   3.358
 7834SOL    HW224402   0.176   1.543   3.351
 7835SOL     OW24403   4.393   1.633   4.915
 7835SOL    HW124404   4.296   1.652   4.902
 7835SOL    HW224405   4.444   1.658   4.833
 7836SOL     OW24406   3.089   4.094   5.524
 7836SOL    HW124407   3.063   4.109   5.619
 7836SOL    HW224408   3.087   4.180   5.474
 7837SOL     OW24409   5.218   6.034   0.190
 7837SOL    HW124410   5.128   6.043   0.148
 7837SOL    HW224411   5.269   6.120   0.178
 7838SOL     OW24412   4.323   6.136   1.356
 7838SOL    HW124413   4.395   6.185   1.406
 7838SOL    HW224414   4.243   6.125   1.415
 7839SOL     OW24415   5.639   3.998   4.991
 7839SOL    HW124416   5.628   4.047   5.077
 7839SOL    HW224417   5.645   3.900   5.009
 7840SOL     OW24418   0.488   3.644   4.793
 7840SOL    HW124419   0.577   3.629   4.749
 7840SOL    HW224420   0.419   3.587   4.750
 7841SOL     OW24421   4.254   1.713   6.559
 7841SOL    HW124422   4.156   1.716   6.578
 7841SOL    HW224423   4.305   1.707   6.645
 7842SOL     OW24424   2.003   1.434   2.334
 7842SOL    HW124425   2.056   1.452   2.417
 7842SOL    HW224426   2.061   1.388   2.268
 7843SOL     OW24427   0.383   6.545   3.819
 7843SOL    HW124428   0.394   6.453   3.856
 7843SOL    HW224429   0.357   6.539   3.722
 7844SOL     OW24430   3.822   0.300   2.376
 7844SOL    HW124431   3.740   0.323   2.324
 7844SOL    HW224432   3.862   0.216   2.339
 7845SOL     OW24433   5.616   2.053   2.139
 7845SOL    HW124434   5.566   2.140   2.137
 7845SOL    HW224435   5.565   1.987   2.195
 7846SOL     OW24436   1.020   2.323   0.768
 7846SOL    HW124437   0.923   2.307   0.754
 7846SOL    HW224438   1.038   2.421   0.773
 7847SOL     OW24439   6.568   1.463   3.911
 7847SOL    HW124440   6.636   1.422   3.849
 7847SOL    HW224441   6.585   1.561   3.919
 7848SOL     OW24442   3.103   4.452   1.004
 7848SOL    HW124443   3.113   4.395   0.922
 7848SOL    HW224444   3.026   4.515   0.992
 7849SOL     OW24445   5.987   3.841   5.131
 7849SOL    HW124446   6.036   3.883   5.054
 7849SOL    HW224447   5.896   3.813   5.100
 7850SOL     OW24448   0.289   2.137   3.761
 7850SOL    HW124449   0.387   2.132   3.745
 7850SOL    HW224450   0.248   2.048   3.744
 7851SOL     OW24451   0.954   2.648   2.012
 7851SOL    HW124452   1.003   2.672   1.928
 7851SOL    HW224453   0.892   2.571   1.994
 7852SOL     OW24454   2.955   0.788   0.337
 7852SOL    HW124455   2.891   0.801   0.262
 7852SOL    HW224456   3.047   0.817   0.308
 7853SOL     OW24457   4.656   3.001   1.414
 7853SOL    HW124458   4.586   2.957   1.358
 7853SOL    HW224459   4.744   2.955   1.400
 7854SOL     OW24460   3.525   2.543   6.197
 7854SOL    HW124461   3.596   2.472   6.198
 7854SOL    HW224462   3.461   2.526   6.272
 7855SOL     OW24463   4.286   5.962   4.813
 7855SOL    HW124464   4.245   6.053   4.809
 7855SOL    HW224465   4.289   5.923   4.721
 7856SOL     OW24466   0.152   5.219   5.320
 7856SOL    HW124467   0.157   5.303   5.266
 7856SOL    HW224468   0.142   5.141   5.258
 7857SOL     OW24469   4.858   3.719   0.434
 7857SOL    HW124470   4.899   3.664   0.362
 7857SOL    HW224471   4.884   3.682   0.523
 7858SOL     OW24472   6.763   6.321   4.415
 7858SOL    HW124473   6.825   6.334   4.493
 7858SOL    HW224474   6.673   6.295   4.448
 7859SOL     OW24475   4.476   3.584   6.789
 7859SOL    HW124476   4.518   3.508   6.840
 7859SOL    HW224477   4.476   3.666   6.846
 7860SOL     OW24478   4.196   1.335   4.723
 7860SOL    HW124479   4.182   1.408   4.789
 7860SOL    HW224480   4.287   1.295   4.737
 7861SOL     OW24481   2.728   5.103   1.765
 7861SOL    HW124482   2.669   5.120   1.845
 7861SOL    HW224483   2.675   5.057   1.694
 7862SOL     OW24484   2.235   6.129   2.167
 7862SOL    HW124485   2.288   6.075   2.233
 7862SOL    HW224486   2.287   6.137   2.082
 7863SOL     OW24487   0.629   4.738   3.716
 7863SOL    HW124488   0.643   4.834   3.739
 7863SOL    HW224489   0.616   4.728   3.618
 7864SOL     OW24490   1.234   5.501   6.331
 7864SOL    HW124491   1.266   5.588   6.369
 7864SOL    HW224492   1.141   5.512   6.297
 7865SOL     OW24493   6.356   5.491   4.184
 7865SOL    HW124494   6.312   5.421   4.127
 7865SOL    HW224495   6.286   5.551   4.223
 7866SOL     OW24496   1.797   0.538   5.831
 7866SOL    HW124497   1.788   0.635   5.810
 7866SOL    HW224498   1.889   0.520   5.866
 7867SOL     OW24499   5.628   6.758   3.279
 7867SOL    HW124500   5.567   6.684   3.306
 7867SOL    HW224501   5.713   6.720   3.244
 7868SOL     OW24502   3.549   5.753   0.751
 7868SOL    HW124503   3.488   5.750   0.671
 7868SOL    HW224504   3.638   5.716   0.726
 7869SOL     OW24505   5.083   4.669   5.696
 7869SOL    HW124506   5.145   4.727   5.644
 7869SOL    HW224507   5.018   4.625   5.633
 7870SOL     OW24508   5.194   0.043   4.682
 7870SOL    HW124509   5.105   0.056   4.638
 7870SOL    HW224510   5.239   6.988   4.642
 7871SOL     OW24511   5.678   2.000   1.879
 7871SOL    HW124512   5.649   2.028   1.787
 7871SOL    HW224513   5.647   2.068   1.945
 7872SOL     OW24514   1.775   4.583   2.406
 7872SOL    HW124515   1.751   4.530   2.324
 7872SOL    HW224516   1.869   4.561   2.433
 7873SOL     OW24517   6.435   0.955   0.346
 7873SOL    HW124518   6.371   0.989   0.277
 7873SOL    HW224519   6.490   1.031   0.381
 7874SOL     OW24520   4.769   2.430   1.149
 7874SOL    HW124521   4.807   2.462   1.236
 7874SOL    HW224522   4.840   2.382   1.098
 7875SOL     OW24523   3.820   3.387   0.413
 7875SOL    HW124524   3.825   3.290   0.390
 7875SOL    HW224525   3.759   3.399   0.491
 7876SOL     OW24526   0.967   6.608   3.584
 7876SOL    HW124527   0.882   6.580   3.629
 7876SOL    HW224528   0.999   6.695   3.623
 7877SOL     OW24529   6.906   2.079   2.861
 7877SOL    HW124530   6.854   2.091   2.777
 7877SOL    HW224531   6.850   2.105   2.939
 7878SOL     OW24532   4.918   4.064   3.508
 7878SOL    HW124533   4.849   4.088   3.439
 7878SOL    HW224534   4.944   3.969   3.497
 7879SOL     OW24535   3.482   4.935   2.815
 7879SOL    HW124536   3.551   4.889   2.758
 7879SOL    HW224537   3.505   5.032   2.824
 7880SOL     OW24538   2.600   3.301   0.907
 7880SOL    HW124539   2.614   3.244   0.987
 7880SOL    HW224540   2.546   3.381   0.931
 7881SOL     OW24541   4.683   4.275   4.186
 7881SOL    HW124542   4.776   4.311   4.181
 7881SOL    HW224543   4.640   4.304   4.271
 7882SOL     OW24544   2.040   3.384   1.520
 7882SOL    HW124545   2.097   3.347   1.446
 7882SOL    HW224546   2.095   3.391   1.603
 7883SOL     OW24547   1.321   7.015   6.004
 7883SOL    HW124548   1.291   6.960   6.082
 7883SOL    HW224549   1.273   0.078   6.003
 7884SOL     OW24550   1.012   4.281   4.053
 7884SOL    HW124551   1.029   4.183   4.060
 7884SOL    HW224552   0.992   4.319   4.143
 7885SOL     OW24553   6.670   5.724   0.806
 7885SOL    HW124554   6.764   5.755   0.791
 7885SOL    HW224555   6.606   5.792   0.770
 7886SOL     OW24556   4.121   5.529   0.461
 7886SOL    HW124557   4.180   5.454   0.432
 7886SOL    HW224558   4.154   5.565   0.548
 7887SOL     OW24559   3.217   2.219   6.950
 7887SOL    HW124560   3.251   2.147   7.011
 7887SOL    HW224561   3.184   2.296   7.004
 7888SOL     OW24562   5.316   0.630   3.735
 7888SOL    HW124563   5.272   0.631   3.645
 7888SOL    HW224564   5.247   0.648   3.806
 7889SOL     OW24565   1.519   5.210   1.585
 7889SOL    HW124566   1.549   5.115   1.595
 7889SOL    HW224567   1.575   5.255   1.515
 7890SOL     OW24568   1.868   4.073   2.347
 7890SOL    HW124569   1.962   4.097   2.323
 7890SOL    HW224570   1.836   4.000   2.287
 7891SOL     OW24571   1.976   5.010   2.838
 7891SOL    HW124572   1.939   4.989   2.748
 7891SOL    HW224573   1.906   4.992   2.907
 7892SOL     OW24574   2.208   2.557   4.548
 7892SOL    HW124575   2.182   2.596   4.460
 7892SOL    HW224576   2.307   2.566   4.561
 7893SOL     OW24577   6.032   6.856   1.767
 7893SOL    HW124578   6.106   6.919   1.744
 7893SOL    HW224579   6.064   6.791   1.836
 7894SOL     OW24580   2.861   6.247   1.719
 7894SOL    HW124581   2.899   6.173   1.773
 7894SOL    HW224582   2.909   6.332   1.741
 7895SOL     OW24583   6.297   1.260   5.606
 7895SOL    HW124584   6.283   1.242   5.703
 7895SOL    HW224585   6.208   1.267   5.560
 7896SOL     OW24586   4.965   4.173   6.219
 7896SOL    HW124587   4.886   4.228   6.192
 7896SOL    HW224588   4.938   4.110   6.292
 7897SOL     OW24589   2.802   3.575   6.100
 7897SOL    HW124590   2.786   3.671   6.123
 7897SOL    HW224591   2.748   3.517   6.161
 7898SOL     OW24592   4.978   2.269   3.676
 7898SOL    HW124593   4.980   2.330   3.755
 7898SOL    HW224594   5.060   2.213   3.675
 7899SOL     OW24595   6.810   1.710   1.498
 7899SOL    HW124596   6.895   1.757   1.477
 7899SOL    HW224597   6.779   1.660   1.417
 7900SOL     OW24598   1.291   5.166   1.160
 7900SOL    HW124599   1.372   5.114   1.135
 7900SOL    HW224600   1.264   5.225   1.084
 7901SOL     OW24601   4.919   0.166   6.204
 7901SOL    HW124602   4.967   0.162   6.116
 7901SOL    HW224603   4.984   0.145   6.277
 7902SOL     OW24604   4.686   5.336   1.766
 7902SOL    HW124605   4.699   5.248   1.812
 7902SOL    HW224606   4.663   5.406   1.834
 7903SOL     OW24607   5.899   2.272   0.241
 7903SOL    HW124608   5.957   2.349   0.216
 7903SOL    HW224609   5.880   2.274   0.339
 7904SOL     OW24610   6.244   0.623   2.856
 7904SOL    HW124611   6.309   0.571   2.912
 7904SOL    HW224612   6.282   0.637   2.765
 7905SOL     OW24613   4.654   1.627   0.458
 7905SOL    HW124614   4.679   1.563   0.385
 7905SOL    HW224615   4.554   1.629   0.467
 7906SOL     OW24616   0.100   5.798   6.764
 7906SOL    HW124617   0.146   5.799   6.675
 7906SOL    HW224618   0.111   5.708   6.806
 7907SOL     OW24619   6.099   2.780   4.491
 7907SOL    HW124620   6.193   2.779   4.455
 7907SOL    HW224621   6.051   2.698   4.460
 7908SOL     OW24622   1.260   1.150   3.853
 7908SOL    HW124623   1.252   1.215   3.929
 7908SOL    HW224624   1.338   1.175   3.796
 7909SOL     OW24625   4.870   3.811   4.885
 7909SOL    HW124626   4.850   3.744   4.957
 7909SOL    HW224627   4.847   3.772   4.796
 7910SOL     OW24628   3.467   2.940   5.041
 7910SOL    HW124629   3.553   2.904   5.078
 7910SOL    HW224630   3.477   3.038   5.025
 7911SOL     OW24631   0.434   4.441   7.000
 7911SOL    HW124632   0.472   4.353   6.974
 7911SOL    HW224633   0.440   4.505   6.923
 7912SOL     OW24634   6.869   5.374   0.056
 7912SOL    HW124635   6.852   5.416   6.992
 7912SOL    HW224636   6.804   5.408   0.123
 7913SOL     OW24637   0.492   5.536   6.626
 7913SOL    HW124638   0.537   5.464   6.572
 7913SOL    HW224639   0.476   5.616   6.568
 7914SOL     OW24640   0.328   4.715   0.080
 7914SOL    HW124641   0.310   4.659   0.161
 7914SOL    HW224642   0.394   4.787   0.103
 7915SOL     OW24643   4.798   2.464   2.695
 7915SOL    HW124644   4.833   2.556   2.679
 7915SOL    HW224645   4.710   2.469   2.742
 7916SOL     OW24646   5.353   4.006   5.081
 7916SOL    HW124647   5.391   3.914   5.088
 7916SOL    HW224648   5.277   4.016   5.145
 7917SOL     OW24649   3.898   2.976   3.678
 7917SOL    HW124650   3.804   2.942   3.674
 7917SOL    HW224651   3.933   2.967   3.771
 7918SOL     OW24652   6.553   1.893   1.205
 7918SOL    HW124653   6.507   1.919   1.120
 7918SOL    HW224654   6.644   1.858   1.183
 7919SOL     OW24655   6.904   4.053   3.576
 7919SOL    HW124656   6.857   4.138   3.552
 7919SOL    HW224657   7.003   4.069   3.577
 7920SOL     OW24658   0.098   5.258   1.146
 7920SOL    HW124659   0.162   5.316   1.196
 7920SOL    HW224660   0.069   5.183   1.206
 7921SOL     OW24661   3.372   6.383   0.567
 7921SOL    HW124662   3.346   6.288   0.582
 7921SOL    HW224663   3.291   6.436   0.542
 7922SOL     OW24664   6.471   5.911   0.144
 7922SOL    HW124665   6.541   5.974   0.111
 7922SOL    HW224666   6.380   5.946   0.120
 7923SOL     OW24667   2.028   1.008   2.818
 7923SOL    HW124668   1.965   1.052   2.882
 7923SOL    HW224669   2.102   0.965   2.869
 7924SOL     OW24670   3.389   6.341   3.401
 7924SOL    HW124671   3.290   6.353   3.412
 7924SOL    HW224672   3.437   6.415   3.448
 7925SOL     OW24673   6.949   1.777   6.596
 7925SOL    HW124674   6.991   1.687   6.587
 7925SOL    HW224675   6.909   1.805   6.509
 7926SOL     OW24676   4.173   1.028   3.778
 7926SOL    HW124677   4.145   0.932   3.786
 7926SOL    HW224678   4.093   1.087   3.789
 7927SOL     OW24679   4.096   5.447   4.970
 7927SOL    HW124680   4.052   5.529   4.934
 7927SOL    HW224681   4.052   5.366   4.931
 7928SOL     OW24682   0.895   4.110   3.637
 7928SOL    HW124683   0.992   4.126   3.656
 7928SOL    HW224684   0.840   4.141   3.715
 7929SOL     OW24685   4.176   3.670   4.982
 7929SOL    HW124686   4.245   3.626   4.925
 7929SOL    HW224687   4.220   3.709   5.063
 7930SOL     OW24688   4.557   5.612   3.383
 7930SOL    HW124689   4.613   5.596   3.464
 7930SOL    HW224690   4.561   5.709   3.358
 7931SOL     OW24691   1.880   2.077   0.083
 7931SOL    HW124692   1.950   2.017   0.044
 7931SOL    HW224693   1.924   2.160   0.119
 7932SOL     OW24694   2.399   0.242   6.885
 7932SOL    HW124695   2.364   0.193   6.965
 7932SOL    HW224696   2.411   0.339   6.907
 7933SOL     OW24697   0.470   6.998   0.455
 7933SOL    HW124698   0.511   0.062   0.436
 7933SOL    HW224699   0.412   7.004   0.536
 7934SOL     OW24700   2.476   3.403   0.209
 7934SOL    HW124701   2.389   3.438   0.244
 7934SOL    HW224702   2.550   3.434   0.268
 7935SOL     OW24703   5.207   5.806   0.067
 7935SOL    HW124704   5.259   5.831   7.010
 7935SOL    HW224705   5.207   5.882   0.132
 7936SOL     OW24706   3.332   5.540   2.719
 7936SOL    HW124707   3.270   5.476   2.673
 7936SOL    HW224708   3.304   5.550   2.815
 7937SOL     OW24709   5.048   0.070   4.369
 7937SOL    HW124710   5.069   6.997   4.362
 7937SOL    HW224711   5.132   0.122   4.380
 7938SOL     OW24712   5.010   4.908   4.848
 7938SOL    HW124713   5.030   4.995   4.805
 7938SOL    HW224714   5.041   4.833   4.789
 7939SOL     OW24715   1.003   1.348   6.117
 7939SOL    HW124716   0.994   1.249   6.110
 7939SOL    HW224717   0.990   1.377   6.212
 7940SOL     OW24718   2.580   5.159   1.978
 7940SOL    HW124719   2.560   5.070   2.020
 7940SOL    HW224720   2.624   5.218   2.046
 7941SOL     OW24721   6.423   6.796   1.576
 7941SOL    HW124722   6.368   6.740   1.638
 7941SOL    HW224723   6.420   6.757   1.485
 7942SOL     OW24724   6.967   6.554   2.800
 7942SOL    HW124725   0.042   6.543   2.810
 7942SOL    HW224726   6.921   6.471   2.833
 7943SOL     OW24727   5.664   1.961   1.135
 7943SOL    HW124728   5.716   2.045   1.123
 7943SOL    HW224729   5.723   1.890   1.173
 7944SOL     OW24730   0.005   3.365   1.022
 7944SOL    HW124731   6.979   3.413   1.092
 7944SOL    HW224732   6.978   3.365   0.936
 7945SOL     OW24733   5.682   6.932   2.588
 7945SOL    HW124734   5.606   6.934   2.652
 7945SOL    HW224735   5.652   6.966   2.499
 7946SOL     OW24736   1.454   2.543   5.776
 7946SOL    HW124737   1.487   2.618   5.719
 7946SOL    HW224738   1.531   2.488   5.808
 7947SOL     OW24739   4.024   2.856   6.633
 7947SOL    HW124740   3.978   2.877   6.719
 7947SOL    HW224741   3.961   2.871   6.556
 7948SOL     OW24742   6.468   6.642   1.271
 7948SOL    HW124743   6.483   6.715   1.205
 7948SOL    HW224744   6.377   6.602   1.255
 7949SOL     OW24745   4.999   5.304   4.175
 7949SOL    HW124746   4.938   5.231   4.206
 7949SOL    HW224747   5.016   5.293   4.077
 7950SOL     OW24748   4.873   4.997   3.571
 7950SOL    HW124749   4.780   4.987   3.606
 7950SOL    HW224750   4.929   4.920   3.601
 7951SOL     OW24751   2.899   3.430   1.037
 7951SOL    HW124752   2.951   3.514   1.052
 7951SOL    HW224753   2.818   3.430   1.096
 7952SOL     OW24754   0.000   3.166   6.556
 7952SOL    HW124755   0.079   3.122   6.599
 7952SOL    HW224756   6.953   3.099   6.540
 7953SOL     OW24757   2.112   2.858   2.961
 7953SOL    HW124758   2.048   2.860   2.884
 7953SOL    HW224759   2.081   2.790   3.028
 7954SOL     OW24760   4.689   5.108   4.616
 7954SOL    HW124761   4.657   5.194   4.575
 7954SOL    HW224762   4.610   5.051   4.639
 7955SOL     OW24763   6.946   6.416   6.407
 7955SOL    HW124764   6.882   6.455   6.472
 7955SOL    HW224765   0.014   6.418   6.445
 7956SOL     OW24766   0.698   5.414   3.003
 7956SOL    HW124767   0.666   5.319   3.007
 7956SOL    HW224768   0.619   5.475   3.012
 7957SOL     OW24769   2.348   1.848   0.630
 7957SOL    HW124770   2.338   1.915   0.702
 7957SOL    HW224771   2.258   1.826   0.591
 7958SOL     OW24772   3.321   5.543   4.319
 7958SOL    HW124773   3.350   5.586   4.234
 7958SOL    HW224774   3.267   5.462   4.299
 7959SOL     OW24775   4.118   4.907   0.552
 7959SOL    HW124776   4.110   4.808   0.538
 7959SOL    HW224777   4.041   4.953   0.508
 7960SOL     OW24778   3.484   1.998   1.401
 7960SOL    HW124779   3.492   1.926   1.332
 7960SOL    HW224780   3.539   2.076   1.374
 7961SOL     OW24781   2.064   6.201   6.208
 7961SOL    HW124782   2.048   6.112   6.249
 7961SOL    HW224783   2.098   6.189   6.115
 7962SOL     OW24784   2.322   0.353   0.914
 7962SOL    HW124785   2.276   0.424   0.967
 7962SOL    HW224786   2.327   0.269   0.968
 7963SOL     OW24787   0.166   1.337   4.774
 7963SOL    HW124788   0.068   1.329   4.759
 7963SOL    HW224789   0.214   1.338   4.686
 7964SOL     OW24790   5.954   5.303   3.830
 7964SOL    HW124791   5.977   5.357   3.912
 7964SOL    HW224792   6.035   5.253   3.800
 7965SOL     OW24793   4.328   3.013   6.966
 7965SOL    HW124794   4.248   2.968   6.926
 7965SOL    HW224795   4.336   2.986   0.038
 7966SOL     OW24796   1.253   3.545   4.809
 7966SOL    HW124797   1.263   3.531   4.711
 7966SOL    HW224798   1.240   3.457   4.855
 7967SOL     OW24799   2.627   6.535   3.825
 7967SOL    HW124800   2.682   6.537   3.741
 7967SOL    HW224801   2.593   6.442   3.841
 7968SOL     OW24802   2.217   3.047   3.172
 7968SOL    HW124803   2.204   2.961   3.122
 7968SOL    HW224804   2.314   3.068   3.177
 7969SOL     OW24805   4.425   0.120   2.153
 7969SOL    HW124806   4.507   0.129   2.211
 7969SOL    HW224807   4.350   0.081   2.208
 7970SOL     OW24808   0.013   3.935   2.565
 7970SOL    HW124809   7.011   4.023   2.526
 7970SOL    HW224810   0.098   3.904   2.524
 7971SOL     OW24811   3.498   1.181   1.850
 7971SOL    HW124812   3.535   1.172   1.758
 7971SOL    HW224813   3.404   1.147   1.851
 7972SOL     OW24814   6.802   4.020   1.217
 7972SOL    HW124815   6.811   3.937   1.163
 7972SOL    HW224816   6.788   3.996   1.313
 7973SOL     OW24817   5.292   3.354   3.663
 7973SOL    HW124818   5.300   3.434   3.723
 7973SOL    HW224819   5.352   3.282   3.696
 7974SOL     OW24820   6.082   0.480   4.253
 7974SOL    HW124821   5.993   0.526   4.264
 7974SOL    HW224822   6.083   0.395   4.306
 7975SOL     OW24823   5.245   0.589   4.039
 7975SOL    HW124824   5.157   0.635   4.052
 7975SOL    HW224825   5.233   0.491   4.055
 7976SOL     OW24826   0.348   6.612   5.654
 7976SOL    HW124827   0.318   6.638   5.562
 7976SOL    HW224828   0.276   6.561   5.700
 7977SOL     OW24829   4.130   6.170   2.704
 7977SOL    HW124830   4.188   6.167   2.785
 7977SOL    HW224831   4.141   6.258   2.658
 7978SOL     OW24832   5.732   4.545   6.193
 7978SOL    HW124833   5.716   4.572   6.287
 7978SOL    HW224834   5.647   4.552   6.141
 7979SOL     OW24835   2.841   0.309   4.873
 7979SOL    HW124836   2.785   0.243   4.922
 7979SOL    HW224837   2.834   0.398   4.917
 7980SOL     OW24838   3.713   5.424   0.003
 7980SOL    HW124839   3.634   5.397   0.057
 7980SOL    HW224840   3.752   5.508   0.040
 7981SOL     OW24841   1.002   5.564   1.491
 7981SOL    HW124842   0.987   5.477   1.443
 7981SOL    HW224843   0.931   5.576   1.560
 7982SOL     OW24844   6.900   2.302   0.990
 7982SOL    HW124845   6.878   2.389   1.034
 7982SOL    HW224846   6.868   2.303   0.896
 7983SOL     OW24847   5.322   2.077   3.248
 7983SOL    HW124848   5.249   2.009   3.262
 7983SOL    HW224849   5.282   2.162   3.216
 7984SOL     OW24850   1.407   1.699   1.779
 7984SOL    HW124851   1.367   1.751   1.704
 7984SOL    HW224852   1.466   1.759   1.833
 7985SOL     OW24853   1.624   0.256   2.906
 7985SOL    HW124854   1.561   0.179   2.903
 7985SOL    HW224855   1.610   0.314   2.826
 7986SOL     OW24856   3.420   1.262   0.279
 7986SOL    HW124857   3.347   1.292   0.341
 7986SOL    HW224858   3.386   1.263   0.185
 7987SOL     OW24859   0.561   3.500   6.345
 7987SOL    HW124860   0.644   3.452   6.374
 7987SOL    HW224861   0.545   3.578   6.406
 7988SOL     OW24862   2.488   2.632   4.578
 7988SOL    HW124863   2.545   2.707   4.545
 7988SOL    HW224864   2.544   2.550   4.588
 7989SOL     OW24865   3.484   2.626   5.415
 7989SOL    HW124866   3.555   2.563   5.381
 7989SOL    HW224867   3.402   2.616   5.359
 7990SOL     OW24868   0.718   3.860   3.130
 7990SOL    HW124869   0.749   3.918   3.205
 7990SOL    HW224870   0.618   3.862   3.124
 7991SOL     OW24871   6.774   2.200   5.871
 7991SOL    HW124872   6.832   2.278   5.894
 7991SOL    HW224873   6.760   2.198   5.772
 7992SOL     OW24874   1.239   6.126   1.146
 7992SOL    HW124875   1.302   6.129   1.068
 7992SOL    HW224876   1.231   6.032   1.180
 7993SOL     OW24877   1.873   5.702   6.314
 7993SOL    HW124878   1.844   5.789   6.275
 7993SOL    HW224879   1.962   5.676   6.276
 7994SOL     OW24880   4.597   0.285   3.747
 7994SOL    HW124881   4.683   0.233   3.740
 7994SOL    HW224882   4.581   0.308   3.843
 7995SOL     OW24883   3.750   5.318   3.584
 7995SOL    HW124884   3.792   5.241   3.536
 7995SOL    HW224885   3.705   5.378   3.519
 7996SOL     OW24886   3.360   6.266   4.488
 7996SOL    HW124887   3.269   6.238   4.518
 7996SOL    HW224888   3.352   6.326   4.408
 7997SOL     OW24889   6.530   2.072   1.430
 7997SOL    HW124890   6.543   2.007   1.355
 7997SOL    HW224891   6.558   2.164   1.401
 7998SOL     OW24892   4.351   5.048   0.431
 7998SOL    HW124893   4.273   5.003   0.474
 7998SOL    HW224894   4.400   4.983   0.373
 7999SOL     OW24895   1.484   6.795   5.979
 7999SOL    HW124896   1.532   6.798   5.891
 7999SOL    HW224897   1.429   6.878   5.990
 8000SOL     OW24898   5.615   0.199   6.508
 8000SOL    HW124899   5.555   0.128   6.471
 8000SOL    HW224900   5.626   0.272   6.440
 8001SOL     OW24901   2.973   6.068   1.872
 8001SOL    HW124902   2.962   6.098   1.967
 8001SOL    HW224903   3.066   6.033   1.859
 8002SOL     OW24904   0.522   3.467   5.917
 8002SOL    HW124905   0.467   3.477   5.834
 8002SOL    HW224906   0.490   3.389   5.969
 8003SOL     OW24907   2.653   4.777   2.820
 8003SOL    HW124908   2.644   4.742   2.727
 8003SOL    HW224909   2.745   4.758   2.854
 8004SOL     OW24910   1.831   4.725   3.244
 8004SOL    HW124911   1.914   4.702   3.295
 8004SOL    HW224912   1.769   4.647   3.244
 8005SOL     OW24913   3.501   1.468   2.397
 8005SOL    HW124914   3.503   1.400   2.323
 8005SOL    HW224915   3.425   1.449   2.459
 8006SOL     OW24916   2.499   5.980   0.682
 8006SOL    HW124917   2.510   6.020   0.591
 8006SOL    HW224918   2.510   5.881   0.676
 8007SOL     OW24919   0.524   0.468   4.151
 8007SOL    HW124920   0.491   0.510   4.067
 8007SOL    HW224921   0.489   0.374   4.158
 8008SOL     OW24922   4.610   6.604   6.328
 8008SOL    HW124923   4.583   6.626   6.421
 8008SOL    HW224924   4.536   6.557   6.281
 8009SOL     OW24925   6.300   0.094   2.759
 8009SOL    HW124926   6.297   0.055   2.666
 8009SOL    HW224927   6.218   0.148   2.775
 8010SOL     OW24928   2.017   1.564   0.007
 8010SOL    HW124929   1.940   1.626   0.021
 8010SOL    HW224930   1.994   1.496   6.962
 8011SOL     OW24931   2.017   2.637   1.464
 8011SOL    HW124932   2.107   2.677   1.479
 8011SOL    HW224933   2.009   2.552   1.516
 8012SOL     OW24934   1.448   5.773   1.129
 8012SOL    HW124935   1.461   5.794   1.032
 8012SOL    HW224936   1.359   5.730   1.142
 8013SOL     OW24937   0.552   5.153   4.527
 8013SOL    HW124938   0.468   5.103   4.552
 8013SOL    HW224939   0.609   5.164   4.609
 8014SOL     OW24940   1.498   6.242   5.543
 8014SOL    HW124941   1.407   6.207   5.565
 8014SOL    HW224942   1.566   6.196   5.600
 8015SOL     OW24943   2.997   1.470   0.456
 8015SOL    HW124944   3.012   1.546   0.519
 8015SOL    HW224945   2.900   1.468   0.430
 8016SOL     OW24946   4.589   0.282   0.286
 8016SOL    HW124947   4.589   0.185   0.261
 8016SOL    HW224948   4.627   0.336   0.211
 8017SOL     OW24949   6.934   4.512   5.913
 8017SOL    HW124950   6.922   4.606   5.946
 8017SOL    HW224951   6.849   4.482   5.869
 8018SOL     OW24952   5.058   2.086   5.901
 8018SOL    HW124953   5.094   2.106   5.992
 8018SOL    HW224954   4.987   2.153   5.877
 8019SOL     OW24955   1.759   3.680   0.102
 8019SOL    HW124956   1.840   3.738   0.090
 8019SOL    HW224957   1.715   3.665   0.014
 8020SOL     OW24958   5.713   6.699   0.135
 8020SOL    HW124959   5.733   6.602   0.126
 8020SOL    HW224960   5.799   6.751   0.137
 8021SOL     OW24961   1.125   1.624   1.881
 8021SOL    HW124962   1.183   1.568   1.823
 8021SOL    HW224963   1.158   1.621   1.975
 8022SOL     OW24964   4.128   1.025   3.046
 8022SOL    HW124965   4.206   1.030   2.984
 8022SOL    HW224966   4.082   0.937   3.034
 8023SOL     OW24967   5.783   5.900   3.522
 8023SOL    HW124968   5.742   5.920   3.611
 8023SOL    HW224969   5.855   5.966   3.503
 8024SOL     OW24970   3.233   5.379   6.708
 8024SOL    HW124971   3.187   5.338   6.629
 8024SOL    HW224972   3.283   5.460   6.680
 8025SOL     OW24973   3.496   6.572   5.727
 8025SOL    HW124974   3.555   6.599   5.651
 8025SOL    HW224975   3.527   6.485   5.765
 8026SOL     OW24976   0.490   3.717   6.511
 8026SOL    HW124977   0.399   3.734   6.548
 8026SOL    HW224978   0.559   3.731   6.582
 8027SOL     OW24979   4.700   2.211   5.660
 8027SOL    HW124980   4.684   2.125   5.611
 8027SOL    HW224981   4.622   2.272   5.647
 8028SOL     OW24982   3.515   4.680   5.335
 8028SOL    HW124983   3.529   4.584   5.360
 8028SOL    HW224984   3.601   4.729   5.346
 8029SOL     OW24985   5.580   3.911   6.385
 8029SOL    HW124986   5.650   3.898   6.315
 8029SOL    HW224987   5.522   3.829   6.390
 8030SOL     OW24988   5.556   4.011   5.558
 8030SOL    HW124989   5.520   4.087   5.504
 8030SOL    HW224990   5.567   4.041   5.653
 8031SOL     OW24991   5.136   5.896   2.483
 8031SOL    HW124992   5.234   5.878   2.470
 8031SOL    HW224993   5.102   5.844   2.561
 8032SOL     OW24994   6.082   4.251   5.285
 8032SOL    HW124995   6.154   4.255   5.354
 8032SOL    HW224996   6.122   4.247   5.194
 8033SOL     OW24997   5.178   2.983   6.853
 8033SOL    HW124998   5.146   2.893   6.823
 8033SOL    HW224999   5.243   2.972   6.928
 8034SOL     OW25000   6.241   1.011   5.303
 8034SOL    HW125001   6.190   1.088   5.341
 8034SOL    HW225002   6.319   1.045   5.250
 8035SOL     OW25003   5.241   0.179   5.082
 8035SOL    HW125004   5.300   0.209   5.008
 8035SOL    HW225005   5.200   0.091   5.059
 8036SOL     OW25006   1.330   3.494   1.952
 8036SOL    HW125007   1.265   3.537   2.015
 8036SOL    HW225008   1.340   3.397   1.976
 8037SOL     OW25009   1.630   3.172   1.842
 8037SOL    HW125010   1.562   3.099   1.830
 8037SOL    HW225011   1.685   3.179   1.758
 8038SOL     OW25012   5.290   1.993   2.869
 8038SOL    HW125013   5.313   1.970   2.775
 8038SOL    HW225014   5.365   1.966   2.930
 8039SOL     OW25015   1.853   6.749   3.400
 8039SOL    HW125016   1.786   6.695   3.451
 8039SOL    HW225017   1.940   6.749   3.449
 8040SOL     OW25018   0.523   5.198   1.006
 8040SOL    HW125019   0.540   5.115   0.953
 8040SOL    HW225020   0.440   5.242   0.973
 8041SOL     OW25021   3.921   1.930   1.964
 8041SOL    HW125022   3.916   1.966   2.057
 8041SOL    HW225023   3.916   2.005   1.899
 8042SOL     OW25024   3.317   2.885   1.863
 8042SOL    HW125025   3.305   2.928   1.953
 8042SOL    HW225026   3.330   2.956   1.794
 8043SOL     OW25027   3.062   0.018   0.457
 8043SOL    HW125028   3.017   7.017   0.543
 8043SOL    HW225029   3.016   6.996   0.381
 8044SOL     OW25030   3.173   3.130   1.423
 8044SOL    HW125031   3.183   3.196   1.349
 8044SOL    HW225032   3.084   3.086   1.417
 8045SOL     OW25033   5.819   1.359   1.956
 8045SOL    HW125034   5.823   1.265   1.922
 8045SOL    HW225035   5.733   1.401   1.929
 8046SOL     OW25036   6.014   4.812   6.102
 8046SOL    HW125037   5.961   4.882   6.150
 8046SOL    HW225038   5.978   4.722   6.125
 8047SOL     OW25039   3.174   4.973   4.714
 8047SOL    HW125040   3.140   4.959   4.807
 8047SOL    HW225041   3.115   4.924   4.649
 8048SOL     OW25042   5.595   1.285   5.020
 8048SOL    HW125043   5.641   1.357   4.969
 8048SOL    HW225044   5.639   1.274   5.109
 8049SOL     OW25045   1.065   6.453   1.663
 8049SOL    HW125046   1.014   6.538   1.649
 8049SOL    HW225047   1.124   6.463   1.743
 8050SOL     OW25048   0.896   3.830   1.537
 8050SOL    HW125049   0.883   3.919   1.582
 8050SOL    HW225050   0.962   3.840   1.463
 8051SOL     OW25051   5.338   6.984   3.334
 8051SOL    HW125052   5.291   6.937   3.260
 8051SOL    HW225053   5.339   0.058   3.316
 8052SOL     OW25054   3.230   1.551   2.167
 8052SOL    HW125055   3.205   1.626   2.106
 8052SOL    HW225056   3.294   1.490   2.120
 8053SOL     OW25057   3.863   3.633   2.774
 8053SOL    HW125058   3.891   3.537   2.774
 8053SOL    HW225059   3.767   3.640   2.803
 8054SOL     OW25060   4.777   6.628   4.443
 8054SOL    HW125061   4.786   6.716   4.398
 8054SOL    HW225062   4.702   6.633   4.510
 8055SOL     OW25063   0.847   0.225   5.670
 8055SOL    HW125064   0.781   0.279   5.619
 8055SOL    HW225065   0.871   0.273   5.754
 8056SOL     OW25066   4.902   1.320   3.429
 8056SOL    HW125067   4.832   1.391   3.441
 8056SOL    HW225068   4.946   1.333   3.340
 8057SOL     OW25069   2.944   0.928   2.696
 8057SOL    HW125070   2.972   1.000   2.759
 8057SOL    HW225071   2.851   0.897   2.718
 8058SOL     OW25072   3.505   0.239   2.933
 8058SOL    HW125073   3.446   0.162   2.955
 8058SOL    HW225074   3.461   0.324   2.961
 8059SOL     OW25075   3.901   1.961   4.961
 8059SOL    HW125076   3.982   2.018   4.972
 8059SOL    HW225077   3.911   1.878   5.015
 8060SOL     OW25078   0.549   1.157   4.707
 8060SOL    HW125079   0.492   1.099   4.765
 8060SOL    HW225080   0.502   1.243   4.690
 8061SOL     OW25081   6.841   5.832   1.793
 8061SOL    HW125082   6.859   5.904   1.861
 8061SOL    HW225083   6.787   5.759   1.836
 8062SOL     OW25084   2.251   4.399   4.041
 8062SOL    HW125085   2.269   4.380   3.945
 8062SOL    HW225086   2.157   4.373   4.063
 8063SOL     OW25087   1.974   3.494   0.161
 8063SOL    HW125088   1.883   3.523   0.132
 8063SOL    HW225089   2.034   3.487   0.081
 8064SOL     OW25090   0.514   4.645   0.417
 8064SOL    HW125091   0.442   4.707   0.448
 8064SOL    HW225092   0.477   4.581   0.350
 8065SOL     OW25093   4.118   6.861   3.849
 8065SOL    HW125094   4.164   6.944   3.818
 8065SOL    HW225095   4.026   6.858   3.811
 8066SOL     OW25096   1.370   1.091   6.400
 8066SOL    HW125097   1.461   1.081   6.441
 8066SOL    HW225098   1.379   1.099   6.301
 8067SOL     OW25099   4.195   3.313   1.578
 8067SOL    HW125100   4.184   3.393   1.519
 8067SOL    HW225101   4.106   3.269   1.592
 8068SOL     OW25102   6.296   5.996   5.309
 8068SOL    HW125103   6.290   6.037   5.400
 8068SOL    HW225104   6.359   5.919   5.311
 8069SOL     OW25105   2.551   6.167   1.492
 8069SOL    HW125106   2.566   6.225   1.412
 8069SOL    HW225107   2.454   6.141   1.497
 8070SOL     OW25108   2.614   4.669   0.750
 8070SOL    HW125109   2.684   4.597   0.747
 8070SOL    HW225110   2.634   4.739   0.681
 8071SOL     OW25111   4.004   6.422   4.818
 8071SOL    HW125112   3.942   6.450   4.892
 8071SOL    HW225113   4.063   6.348   4.851
 8072SOL     OW25114   3.395   1.526   0.483
 8072SOL    HW125115   3.381   1.550   0.579
 8072SOL    HW225116   3.312   1.485   0.446
 8073SOL     OW25117   5.157   0.181   6.392
 8073SOL    HW125118   5.122   0.122   6.464
 8073SOL    HW225119   5.245   0.146   6.360
 8074SOL     OW25120   3.237   2.809   0.144
 8074SOL    HW125121   3.288   2.852   0.218
 8074SOL    HW225122   3.289   2.819   0.058
 8075SOL     OW25123   6.629   1.629   1.687
 8075SOL    HW125124   6.687   1.688   1.630
 8075SOL    HW225125   6.534   1.637   1.658
 8076SOL     OW25126   4.614   2.603   5.885
 8076SOL    HW125127   4.586   2.509   5.900
 8076SOL    HW225128   4.668   2.635   5.962
 8077SOL     OW25129   0.602   6.928   1.446
 8077SOL    HW125130   0.689   6.959   1.407
 8077SOL    HW225131   0.615   6.909   1.543
 8078SOL     OW25132   6.394   1.886   0.464
 8078SOL    HW125133   6.335   1.966   0.452
 8078SOL    HW225134   6.405   1.866   0.561
 8079SOL     OW25135   6.090   2.154   3.088
 8079SOL    HW125136   6.014   2.218   3.074
 8079SOL    HW225137   6.077   2.106   3.175
 8080SOL     OW25138   1.791   3.747   0.661
 8080SOL    HW125139   1.760   3.654   0.681
 8080SOL    HW225140   1.804   3.758   0.563
 8081SOL     OW25141   5.739   0.645   5.419
 8081SOL    HW125142   5.764   0.620   5.326
 8081SOL    HW225143   5.661   0.708   5.417
 8082SOL     OW25144   5.645   2.157   2.845
 8082SOL    HW125145   5.723   2.158   2.783
 8082SOL    HW225146   5.593   2.241   2.836
 8083SOL     OW25147   4.945   3.216   2.027
 8083SOL    HW125148   4.875   3.144   2.025
 8083SOL    HW225149   4.954   3.252   2.120
 8084SOL     OW25150   5.955   6.393   1.209
 8084SOL    HW125151   5.899   6.313   1.193
 8084SOL    HW225152   5.985   6.396   1.305
 8085SOL     OW25153   5.950   0.154   1.763
 8085SOL    HW125154   5.989   0.163   1.672
 8085SOL    HW225155   6.024   0.147   1.830
 8086SOL     OW25156   3.901   0.146   4.029
 8086SOL    HW125157   3.985   0.111   4.070
 8086SOL    HW225158   3.864   0.079   3.965
 8087SOL     OW25159   2.293   1.944   1.081
 8087SOL    HW125160   2.380   1.909   1.117
 8087SOL    HW225161   2.231   1.867   1.064
 8088SOL     OW25162   6.677   1.724   1.979
 8088SOL    HW125163   6.680   1.811   2.029
 8088SOL    HW225164   6.681   1.743   1.880
 8089SOL     OW25165   4.940   2.189   6.617
 8089SOL    HW125166   4.983   2.267   6.662
 8089SOL    HW225167   4.855   2.166   6.664
 8090SOL     OW25168   5.204   2.087   6.499
 8090SOL    HW125169   5.170   2.018   6.435
 8090SOL    HW225170   5.131   2.152   6.519
 8091SOL     OW25171   3.389   3.868   6.964
 8091SOL    HW125172   3.380   3.954   6.915
 8091SOL    HW225173   3.481   3.861   7.003
 8092SOL     OW25174   1.584   1.154   4.705
 8092SOL    HW125175   1.670   1.204   4.696
 8092SOL    HW225176   1.538   1.150   4.616
 8093SOL     OW25177   6.166   6.196   1.232
 8093SOL    HW125178   6.246   6.211   1.175
 8093SOL    HW225179   6.095   6.262   1.207
 8094SOL     OW25180   2.221   4.240   5.618
 8094SOL    HW125181   2.213   4.142   5.600
 8094SOL    HW225182   2.131   4.282   5.615
 8095SOL     OW25183   5.903   3.250   3.945
 8095SOL    HW125184   5.944   3.296   4.024
 8095SOL    HW225185   5.908   3.151   3.956
 8096SOL     OW25186   2.868   5.916   3.273
 8096SOL    HW125187   2.819   5.828   3.272
 8096SOL    HW225188   2.815   5.983   3.221
 8097SOL     OW25189   5.420   0.977   3.600
 8097SOL    HW125190   5.355   0.918   3.552
 8097SOL    HW225191   5.500   0.923   3.627
 8098SOL     OW25192   2.156   6.557   4.222
 8098SOL    HW125193   2.174   6.596   4.312
 8098SOL    HW225194   2.080   6.493   4.228
 8099SOL     OW25195   6.564   0.754   3.975
 8099SOL    HW125196   6.585   0.663   3.941
 8099SOL    HW225197   6.641   0.789   4.028
 8100SOL     OW25198   0.465   6.846   0.233
 8100SOL    HW125199   0.544   6.786   0.242
 8100SOL    HW225200   0.466   6.914   0.307
 8101SOL     OW25201   1.754   0.105   4.738
 8101SOL    HW125202   1.831   0.154   4.779
 8101SOL    HW225203   1.743   0.134   4.644
 8102SOL     OW25204   0.932   5.438   6.492
 8102SOL    HW125205   0.993   5.451   6.570
 8102SOL    HW225206   0.902   5.527   6.458
 8103SOL     OW25207   4.214   1.173   1.517
 8103SOL    HW125208   4.250   1.080   1.522
 8103SOL    HW225209   4.120   1.170   1.482
 8104SOL     OW25210   3.727   6.970   6.573
 8104SOL    HW125211   3.707   7.014   6.485
 8104SOL    HW225212   3.777   0.010   6.631
 8105SOL     OW25213   2.478   2.550   3.545
 8105SOL    HW125214   2.503   2.491   3.622
 8105SOL    HW225215   2.432   2.495   3.475
 8106SOL     OW25216   1.580   5.411   3.760
 8106SOL    HW125217   1.627   5.330   3.724
 8106SOL    HW225218   1.511   5.382   3.826
 8107SOL     OW25219   2.103   5.977   5.730
 8107SOL    HW125220   2.109   5.902   5.796
 8107SOL    HW225221   2.021   5.965   5.674
 8108SOL     OW25222   6.666   2.753   4.910
 8108SOL    HW125223   6.630   2.811   4.984
 8108SOL    HW225224   6.595   2.689   4.881
 8109SOL     OW25225   1.783   4.283   4.820
 8109SOL    HW125226   1.866   4.336   4.800
 8109SOL    HW225227   1.800   4.220   4.895
 8110SOL     OW25228   3.137   6.545   0.485
 8110SOL    HW125229   3.131   6.583   0.393
 8110SOL    HW225230   3.155   6.619   0.551
 8111SOL     OW25231   3.032   6.917   5.582
 8111SOL    HW125232   3.060   6.826   5.613
 8111SOL    HW225233   2.932   6.925   5.590
 8112SOL     OW25234   2.694   0.752   5.598
 8112SOL    HW125235   2.602   0.789   5.603
 8112SOL    HW225236   2.706   0.702   5.512
 8113SOL     OW25237   2.980   2.839   0.206
 8113SOL    HW125238   3.069   2.867   0.169
 8113SOL    HW225239   2.950   2.755   0.160
 8114SOL     OW25240   2.294   2.736   2.268
 8114SOL    HW125241   2.301   2.718   2.170
 8114SOL    HW225242   2.337   2.662   2.319
 8115SOL     OW25243   3.899   1.341   1.291
 8115SOL    HW125244   3.830   1.411   1.278
 8115SOL    HW225245   3.963   1.342   1.214
 8116SOL     OW25246   5.560   0.374   5.465
 8116SOL    HW125247   5.625   0.367   5.390
 8116SOL    HW225248   5.541   0.470   5.485
 8117SOL     OW25249   1.513   2.011   3.704
 8117SOL    HW125250   1.427   2.011   3.755
 8117SOL    HW225251   1.541   1.917   3.686
 8118SOL     OW25252   0.757   3.840   5.827
 8118SOL    HW125253   0.726   3.934   5.839
 8118SOL    HW225254   0.725   3.783   5.903
 8119SOL     OW25255   0.404   5.823   4.218
 8119SOL    HW125256   0.438   5.766   4.144
 8119SOL    HW225257   0.350   5.898   4.180
 8120SOL     OW25258   3.937   4.138   6.836
 8120SOL    HW125259   3.845   4.168   6.861
 8120SOL    HW225260   4.004   4.206   6.867
 8121SOL     OW25261   6.905   6.336   2.913
 8121SOL    HW125262   6.841   6.259   2.922
 8121SOL    HW225263   6.996   6.302   2.892
 8122SOL     OW25264   0.314   4.900   2.399
 8122SOL    HW125265   0.303   4.809   2.440
 8122SOL    HW225266   0.374   4.956   2.456
 8123SOL     OW25267   0.822   0.380   6.417
 8123SOL    HW125268   0.815   0.283   6.394
 8123SOL    HW225269   0.864   0.389   6.507
 8124SOL     OW25270   1.463   6.381   1.424
 8124SOL    HW125271   1.368   6.411   1.413
 8124SOL    HW225272   1.503   6.429   1.502
 8125SOL     OW25273   6.236   5.147   3.141
 8125SOL    HW125274   6.173   5.174   3.214
 8125SOL    HW225275   6.249   5.224   3.078
 8126SOL     OW25276   5.973   4.823   2.176
 8126SOL    HW125277   5.905   4.752   2.161
 8126SOL    HW225278   6.052   4.785   2.224
 8127SOL     OW25279   2.486   5.326   0.415
 8127SOL    HW125280   2.538   5.303   0.497
 8127SOL    HW225281   2.476   5.426   0.408
 8128SOL     OW25282   3.156   2.681   6.726
 8128SOL    HW125283   3.210   2.623   6.787
 8128SOL    HW225284   3.082   2.724   6.779
 8129SOL     OW25285   5.286   1.218   6.597
 8129SOL    HW125286   5.362   1.208   6.533
 8129SOL    HW225287   5.314   1.190   6.688
 8130SOL     OW25288   0.890   5.270   5.802
 8130SOL    HW125289   0.920   5.357   5.842
 8130SOL    HW225290   0.795   5.253   5.826
 8131SOL     OW25291   3.032   1.218   0.102
 8131SOL    HW125292   2.963   1.286   0.078
 8131SOL    HW225293   3.123   1.253   0.079
 8132SOL     OW25294   5.477   5.605   5.742
 8132SOL    HW125295   5.476   5.703   5.764
 8132SOL    HW225296   5.388   5.580   5.703
 8133SOL     OW25297   3.095   4.944   3.080
 8133SOL    HW125298   3.066   5.038   3.060
 8133SOL    HW225299   3.193   4.935   3.065
 8134SOL     OW25300   1.960   1.925   4.115
 8134SOL    HW125301   2.048   1.943   4.158
 8134SOL    HW225302   1.974   1.889   4.023
 8135SOL     OW25303   3.080   5.018   2.275
 8135SOL    HW125304   3.084   4.927   2.235
 8135SOL    HW225305   3.040   5.082   2.210
 8136SOL     OW25306   4.301   5.370   2.550
 8136SOL    HW125307   4.219   5.392   2.496
 8136SOL    HW225308   4.286   5.283   2.597
 8137SOL     OW25309   2.096   3.133   4.519
 8137SOL    HW125310   2.099   3.230   4.541
 8137SOL    HW225311   2.176   3.109   4.464
 8138SOL     OW25312   6.207   2.059   2.122
 8138SOL    HW125313   6.154   2.107   2.051
 8138SOL    HW225314   6.300   2.042   2.088
 8139SOL     OW25315   1.081   2.904   3.498
 8139SOL    HW125316   1.141   2.952   3.561
 8139SOL    HW225317   1.013   2.968   3.461
 8140SOL     OW25318   3.863   6.871   0.053
 8140SOL    HW125319   3.834   6.775   0.055
 8140SOL    HW225320   3.823   6.919   0.131
 8141SOL     OW25321   5.426   0.695   5.489
 8141SOL    HW125322   5.348   0.632   5.488
 8141SOL    HW225323   5.434   0.737   5.579
 8142SOL     OW25324   2.134   5.429   0.353
 8142SOL    HW125325   2.162   5.489   0.278
 8142SOL    HW225326   2.216   5.398   0.402
 8143SOL     OW25327   5.043   5.227   1.648
 8143SOL    HW125328   5.056   5.287   1.727
 8143SOL    HW225329   4.958   5.176   1.658
 8144SOL     OW25330   0.160   5.796   5.776
 8144SOL    HW125331   0.204   5.709   5.752
 8144SOL    HW225332   0.217   5.872   5.744
 8145SOL     OW25333   4.984   5.495   0.504
 8145SOL    HW125334   4.949   5.407   0.473
 8145SOL    HW225335   5.081   5.487   0.527
 8146SOL     OW25336   6.406   0.484   4.946
 8146SOL    HW125337   6.485   0.524   4.899
 8146SOL    HW225338   6.332   0.551   4.948
 8147SOL     OW25339   0.309   0.709   0.140
 8147SOL    HW125340   0.292   0.784   0.204
 8147SOL    HW225341   0.316   0.623   0.190
 8148SOL     OW25342   4.117   4.376   6.929
 8148SOL    HW125343   4.041   4.410   6.984
 8148SOL    HW225344   4.166   4.454   6.889
 8149SOL     OW25345   1.453   6.867   4.283
 8149SOL    HW125346   1.470   6.900   4.375
 8149SOL    HW225347   1.525   6.804   4.256
 8150SOL     OW25348   0.884   3.173   0.938
 8150SOL    HW125349   0.809   3.136   0.883
 8150SOL    HW225350   0.885   3.128   1.028
 8151SOL     OW25351   6.008   5.565   3.570
 8151SOL    HW125352   5.977   5.580   3.476
 8151SOL    HW225353   5.931   5.534   3.625
 8152SOL     OW25354   4.355   2.121   3.117
 8152SOL    HW125355   4.387   2.069   3.038
 8152SOL    HW225356   4.299   2.063   3.175
 8153SOL     OW25357   0.924   0.662   3.390
 8153SOL    HW125358   0.998   0.641   3.326
 8153SOL    HW225359   0.854   0.590   3.384
 8154SOL     OW25360   3.024   1.626   3.106
 8154SOL    HW125361   2.952   1.676   3.154
 8154SOL    HW225362   3.086   1.691   3.061
 8155SOL     OW25363   1.523   4.011   2.333
 8155SOL    HW125364   1.597   3.994   2.267
 8155SOL    HW225365   1.563   4.035   2.421
 8156SOL     OW25366   5.638   5.843   1.150
 8156SOL    HW125367   5.563   5.852   1.084
 8156SOL    HW225368   5.723   5.823   1.101
 8157SOL     OW25369   6.173   3.526   6.036
 8157SOL    HW125370   6.105   3.548   6.106
 8157SOL    HW225371   6.148   3.569   5.950
 8158SOL     OW25372   5.728   5.399   6.030
 8158SOL    HW125373   5.827   5.405   6.030
 8158SOL    HW225374   5.700   5.303   6.023
 8159SOL     OW25375   3.764   6.763   5.755
 8159SOL    HW125376   3.706   6.747   5.835
 8159SOL    HW225377   3.854   6.721   5.770
 8160SOL     OW25378   4.923   1.024   3.355
 8160SOL    HW125379   4.859   1.096   3.380
 8160SOL    HW225380   5.016   1.061   3.353
 8161SOL     OW25381   5.181   3.527   0.216
 8161SOL    HW125382   5.200   3.597   0.147
 8161SOL    HW225383   5.211   3.437   0.182
 8162SOL     OW25384   0.438   5.119   6.990
 8162SOL    HW125385   0.402   5.032   6.957
 8162SOL    HW225386   0.538   5.121   6.979
 8163SOL     OW25387   3.841   5.147   5.477
 8163SOL    HW125388   3.909   5.122   5.545
 8163SOL    HW225389   3.814   5.243   5.491
 8164SOL     OW25390   4.154   0.745   6.958
 8164SOL    HW125391   4.193   0.836   6.974
 8164SOL    HW225392   4.162   0.722   6.861
 8165SOL     OW25393   6.579   3.774   6.411
 8165SOL    HW125394   6.625   3.687   6.392
 8165SOL    HW225395   6.482   3.758   6.427
 8166SOL     OW25396   1.944   2.303   3.949
 8166SOL    HW125397   1.877   2.259   4.008
 8166SOL    HW225398   1.908   2.392   3.919
 8167SOL     OW25399   7.001   1.471   3.743
 8167SOL    HW125400   6.928   1.427   3.797
 8167SOL    HW225401   0.065   1.433   3.770
 8168SOL     OW25402   2.306   0.542   1.300
 8168SOL    HW125403   2.265   0.529   1.210
 8168SOL    HW225404   2.406   0.545   1.292
 8169SOL     OW25405   3.908   2.256   0.417
 8169SOL    HW125406   3.930   2.222   0.508
 8169SOL    HW225407   3.980   2.229   0.353
 8170SOL     OW25408   6.637   4.324   2.131
 8170SOL    HW125409   6.663   4.262   2.057
 8170SOL    HW225410   6.654   4.418   2.104
 8171SOL     OW25411   1.517   1.049   6.784
 8171SOL    HW125412   1.515   1.057   6.685
 8171SOL    HW225413   1.571   0.968   6.810
 8172SOL     OW25414   0.224   2.367   2.274
 8172SOL    HW125415   0.284   2.357   2.353
 8172SOL    HW225416   0.239   2.457   2.233
 8173SOL     OW25417   6.206   2.028   2.568
 8173SOL    HW125418   6.222   1.959   2.639
 8173SOL    HW225419   6.222   1.988   2.478
 8174SOL     OW25420   1.416   6.204   2.600
 8174SOL    HW125421   1.321   6.195   2.631
 8174SOL    HW225422   1.467   6.259   2.666
 8175SOL     OW25423   0.788   2.850   4.170
 8175SOL    HW125424   0.714   2.786   4.146
 8175SOL    HW225425   0.846   2.865   4.090
 8176SOL     OW25426   1.903   4.398   1.229
 8176SOL    HW125427   1.821   4.363   1.183
 8176SOL    HW225428   1.984   4.357   1.187
 8177SOL     OW25429   3.544   0.961   2.788
 8177SOL    HW125430   3.531   0.985   2.692
 8177SOL    HW225431   3.639   0.937   2.804
 8178SOL     OW25432   3.435   6.279   1.063
 8178SOL    HW125433   3.404   6.186   1.084
 8178SOL    HW225434   3.358   6.334   1.033
 8179SOL     OW25435   6.011   0.896   4.053
 8179SOL    HW125436   5.924   0.850   4.065
 8179SOL    HW225437   6.056   0.907   4.141
 8180SOL     OW25438   6.218   0.287   6.934
 8180SOL    HW125439   6.181   0.302   0.001
 8180SOL    HW225440   6.288   0.357   6.915
 8181SOL     OW25441   0.648   1.014   1.255
 8181SOL    HW125442   0.635   0.918   1.280
 8181SOL    HW225443   0.735   1.047   1.293
 8182SOL     OW25444   3.707   3.566   5.166
 8182SOL    HW125445   3.802   3.549   5.140
 8182SOL    HW225446   3.699   3.659   5.202
 8183SOL     OW25447   6.757   1.323   5.149
 8183SOL    HW125448   6.666   1.311   5.190
 8183SOL    HW225449   6.818   1.365   5.216
 8184SOL     OW25450   0.955   6.785   0.289
 8184SOL    HW125451   0.961   6.832   0.377
 8184SOL    HW225452   0.954   6.687   0.304
 8185SOL     OW25453   1.906   0.533   0.774
 8185SOL    HW125454   1.963   0.612   0.796
 8185SOL    HW225455   1.820   0.563   0.734
 8186SOL     OW25456   2.465   3.913   5.846
 8186SOL    HW125457   2.455   3.833   5.786
 8186SOL    HW225458   2.475   3.882   5.941
 8187SOL     OW25459   2.623   1.733   5.162
 8187SOL    HW125460   2.685   1.807   5.188
 8187SOL    HW225461   2.652   1.696   5.073
 8188SOL     OW25462   4.180   1.693   3.627
 8188SOL    HW125463   4.138   1.764   3.684
 8188SOL    HW225464   4.193   1.610   3.681
 8189SOL     OW25465   5.574   5.302   3.293
 8189SOL    HW125466   5.514   5.348   3.227
 8189SOL    HW225467   5.528   5.220   3.327
 8190SOL     OW25468   5.276   3.945   3.385
 8190SOL    HW125469   5.189   3.897   3.391
 8190SOL    HW225470   5.347   3.892   3.431
 8191SOL     OW25471   4.638   5.327   2.465
 8191SOL    HW125472   4.564   5.313   2.399
 8191SOL    HW225473   4.702   5.396   2.429
 8192SOL     OW25474   2.043   5.396   1.940
 8192SOL    HW125475   1.995   5.334   1.878
 8192SOL    HW225476   2.132   5.421   1.901
 8193SOL     OW25477   6.688   5.762   4.818
 8193SOL    HW125478   6.675   5.793   4.724
 8193SOL    HW225479   6.686   5.662   4.821
 8194SOL     OW25480   4.287   0.843   0.698
 8194SOL    HW125481   4.345   0.765   0.672
 8194SOL    HW225482   4.192   0.822   0.674
 8195SOL     OW25483   5.770   6.604   4.137
 8195SOL    HW125484   5.758   6.551   4.222
 8195SOL    HW225485   5.859   6.650   4.139
 8196SOL     OW25486   5.159   0.434   6.670
 8196SOL    HW125487   5.233   0.374   6.639
 8196SOL    HW225488   5.098   0.453   6.593
 8197SOL     OW25489   4.430   1.831   1.680
 8197SOL    HW125490   4.398   1.804   1.589
 8197SOL    HW225491   4.521   1.870   1.674
 8198SOL     OW25492   2.710   0.454   2.144
 8198SOL    HW125493   2.658   0.500   2.217
 8198SOL    HW225494   2.794   0.504   2.126
 8199SOL     OW25495   4.755   3.138   5.567
 8199SOL    HW125496   4.777   3.236   5.561
 8199SOL    HW225497   4.711   3.119   5.655
 8200SOL     OW25498   6.001   4.028   1.895
 8200SOL    HW125499   5.994   4.128   1.894
 8200SOL    HW225500   6.076   4.000   1.836
 8201SOL     OW25501   0.329   0.985   5.395
 8201SOL    HW125502   0.250   1.016   5.342
 8201SOL    HW225503   0.411   0.990   5.338
 8202SOL     OW25504   6.758   6.256   2.527
 8202SOL    HW125505   6.817   6.204   2.465
 8202SOL    HW225506   6.777   6.354   2.516
 8203SOL     OW25507   2.019   2.151   0.558
 8203SOL    HW125508   1.942   2.142   0.494
 8203SOL    HW225509   2.058   2.243   0.551
 8204SOL     OW25510   3.799   3.798   0.666
 8204SOL    HW125511   3.754   3.772   0.581
 8204SOL    HW225512   3.865   3.871   0.647
 8205SOL     OW25513   0.239   2.863   6.800
 8205SOL    HW125514   0.211   2.948   6.845
 8205SOL    HW225515   0.294   2.885   6.719
 8206SOL     OW25516   4.758   1.223   0.293
 8206SOL    HW125517   4.729   1.182   0.207
 8206SOL    HW225518   4.695   1.296   0.319
 8207SOL     OW25519   3.451   3.821   4.688
 8207SOL    HW125520   3.363   3.785   4.721
 8207SOL    HW225521   3.433   3.889   4.616
 8208SOL     OW25522   0.926   0.941   0.815
 8208SOL    HW125523   0.998   0.883   0.777
 8208SOL    HW225524   0.837   0.910   0.781
 8209SOL     OW25525   0.525   0.862   5.125
 8209SOL    HW125526   0.445   0.818   5.085
 8209SOL    HW225527   0.591   0.793   5.153
 8210SOL     OW25528   2.116   2.435   0.526
 8210SOL    HW125529   2.142   2.517   0.578
 8210SOL    HW225530   2.061   2.462   0.447
 8211SOL     OW25531   3.621   3.806   1.404
 8211SOL    HW125532   3.567   3.844   1.479
 8211SOL    HW225533   3.608   3.707   1.400
 8212SOL     OW25534   1.552   2.344   2.924
 8212SOL    HW125535   1.533   2.257   2.878
 8212SOL    HW225536   1.494   2.415   2.885
 8213SOL     OW25537   6.632   5.190   1.541
 8213SOL    HW125538   6.693   5.212   1.464
 8213SOL    HW225539   6.686   5.181   1.625
 8214SOL     OW25540   5.640   4.537   3.575
 8214SOL    HW125541   5.682   4.526   3.665
 8214SOL    HW225542   5.659   4.456   3.519
 8215SOL     OW25543   2.974   6.098   5.473
 8215SOL    HW125544   2.989   6.149   5.388
 8215SOL    HW225545   2.975   6.000   5.453
 8216SOL     OW25546   5.652   5.881   4.410
 8216SOL    HW125547   5.567   5.884   4.462
 8216SOL    HW225548   5.657   5.796   4.357
 8217SOL     OW25549   2.336   4.983   6.916
 8217SOL    HW125550   2.277   5.063   6.923
 8217SOL    HW225551   2.410   5.001   6.851
 8218SOL     OW25552   0.836   1.336   6.616
 8218SOL    HW125553   0.810   1.248   6.657
 8218SOL    HW225554   0.875   1.396   6.686
 8219SOL     OW25555   4.624   1.475   0.217
 8219SOL    HW125556   4.702   1.464   0.156
 8219SOL    HW225557   4.565   1.549   0.184
 8220SOL     OW25558   3.527   3.376   3.133
 8220SOL    HW125559   3.583   3.363   3.215
 8220SOL    HW225560   3.578   3.347   3.052
 8221SOL     OW25561   4.300   5.914   4.558
 8221SOL    HW125562   4.346   6.003   4.558
 8221SOL    HW225563   4.255   5.899   4.470
 8222SOL     OW25564   5.250   1.917   2.206
 8222SOL    HW125565   5.181   1.895   2.136
 8222SOL    HW225566   5.296   1.833   2.234
 8223SOL     OW25567   1.346   3.566   6.286
 8223SOL    HW125568   1.439   3.531   6.298
 8223SOL    HW225569   1.282   3.489   6.279
 8224SOL     OW25570   0.485   2.654   2.899
 8224SOL    HW125571   0.536   2.729   2.941
 8224SOL    HW225572   0.403   2.690   2.855
 8225SOL     OW25573   3.546   0.896   0.306
 8225SOL    HW125574   3.593   0.815   0.340
 8225SOL    HW225575   3.584   0.978   0.350
 8226SOL     OW25576   4.631   0.163   2.600
 8226SOL    HW125577   4.700   0.109   2.648
 8226SOL    HW225578   4.544   0.159   2.649
 8227SOL     OW25579   0.023   2.703   3.552
 8227SOL    HW125580   6.975   2.636   3.562
 8227SOL    HW225581   0.112   2.657   3.557
 8228SOL     OW25582   0.113   2.534   5.784
 8228SOL    HW125583   0.106   2.619   5.836
 8228SOL    HW225584   0.185   2.477   5.824
 8229SOL     OW25585   3.836   4.283   0.641
 8229SOL    HW125586   3.857   4.379   0.625
 8229SOL    HW225587   3.838   4.265   0.740
 8230SOL     OW25588   4.794   0.050   5.645
 8230SOL    HW125589   4.879   0.095   5.670
 8230SOL    HW225590   4.747   0.104   5.575
 8231SOL     OW25591   3.847   5.683   1.186
 8231SOL    HW125592   3.923   5.744   1.207
 8231SOL    HW225593   3.815   5.640   1.271
 8232SOL     OW25594   4.920   1.561   0.704
 8232SOL    HW125595   4.964   1.485   0.657
 8232SOL    HW225596   4.926   1.547   0.803
 8233SOL     OW25597   0.757   6.395   6.305
 8233SOL    HW125598   0.853   6.365   6.301
 8233SOL    HW225599   0.743   6.469   6.239
 8234SOL     OW25600   2.927   3.667   0.078
 8234SOL    HW125601   3.018   3.708   0.081
 8234SOL    HW225602   2.858   3.739   0.081
 8235SOL     OW25603   2.178   3.377   0.594
 8235SOL    HW125604   2.167   3.364   0.693
 8235SOL    HW225605   2.090   3.401   0.554
 8236SOL     OW25606   6.491   4.051   0.222
 8236SOL    HW125607   6.584   4.076   0.195
 8236SOL    HW225608   6.491   3.957   0.256
 8237SOL     OW25609   5.142   6.478   4.626
 8237SOL    HW125610   5.225   6.472   4.682
 8237SOL    HW225611   5.072   6.529   4.676
 8238SOL     OW25612   1.668   4.722   0.496
 8238SOL    HW125613   1.629   4.802   0.542
 8238SOL    HW225614   1.596   4.656   0.477
 8239SOL     OW25615   6.745   1.239   5.460
 8239SOL    HW125616   6.686   1.162   5.433
 8239SOL    HW225617   6.839   1.207   5.469
 8240SOL     OW25618   3.399   3.821   2.734
 8240SOL    HW125619   3.356   3.758   2.670
 8240SOL    HW225620   3.329   3.869   2.786
 8241SOL     OW25621   3.641   6.640   6.989
 8241SOL    HW125622   3.543   6.645   7.011
 8241SOL    HW225623   3.663   6.707   6.918
 8242SOL     OW25624   1.345   4.473   6.032
 8242SOL    HW125625   1.387   4.389   5.997
 8242SOL    HW225626   1.265   4.496   5.977
 8243SOL     OW25627   0.882   2.728   0.054
 8243SOL    HW125628   0.964   2.708   0.109
 8243SOL    HW225629   0.869   2.827   0.049
 8244SOL     OW25630   0.799   6.893   3.505
 8244SOL    HW125631   0.877   6.903   3.566
 8244SOL    HW225632   0.820   6.827   3.433
 8245SOL     OW25633   3.375   1.222   2.650
 8245SOL    HW125634   3.378   1.322   2.649
 8245SOL    HW225635   3.458   1.186   2.606
 8246SOL     OW25636   6.858   3.328   5.567
 8246SOL    HW125637   6.770   3.356   5.527
 8246SOL    HW225638   6.912   3.279   5.499
 8247SOL     OW25639   1.125   0.213   2.103
 8247SOL    HW125640   1.215   0.239   2.066
 8247SOL    HW225641   1.136   0.136   2.165
 8248SOL     OW25642   5.834   5.077   3.534
 8248SOL    HW125643   5.772   5.126   3.596
 8248SOL    HW225644   5.923   5.121   3.535
 8249SOL     OW25645   2.290   3.477   5.253
 8249SOL    HW125646   2.279   3.378   5.264
 8249SOL    HW225647   2.205   3.517   5.219
 8250SOL     OW25648   3.320   4.111   2.137
 8250SOL    HW125649   3.305   4.205   2.107
 8250SOL    HW225650   3.393   4.109   2.205
 8251SOL     OW25651   6.004   2.923   4.211
 8251SOL    HW125652   6.099   2.895   4.199
 8251SOL    HW225653   5.999   2.997   4.278
 8252SOL     OW25654   3.719   3.190   6.815
 8252SOL    HW125655   3.769   3.205   6.730
 8252SOL    HW225656   3.694   3.277   6.856
 8253SOL     OW25657   4.024   4.069   5.194
 8253SOL    HW125658   4.115   4.028   5.207
 8253SOL    HW225659   3.968   4.008   5.138
 8254SOL     OW25660   4.404   4.673   4.543
 8254SOL    HW125661   4.455   4.732   4.481
 8254SOL    HW225662   4.306   4.695   4.536
 8255SOL     OW25663   2.995   6.222   5.219
 8255SOL    HW125664   2.935   6.230   5.139
 8255SOL    HW225665   3.079   6.174   5.193
 8256SOL     OW25666   6.428   0.722   2.083
 8256SOL    HW125667   6.350   0.730   2.021
 8256SOL    HW225668   6.511   0.703   2.030
 8257SOL     OW25669   6.510   3.823   3.341
 8257SOL    HW125670   6.475   3.914   3.318
 8257SOL    HW225671   6.590   3.832   3.400
 8258SOL     OW25672   5.068   1.345   0.619
 8258SOL    HW125673   5.074   1.264   0.678
 8258SOL    HW225674   5.034   1.318   0.529
 8259SOL     OW25675   4.412   1.961   3.412
 8259SOL    HW125676   4.471   1.989   3.487
 8259SOL    HW225677   4.462   1.899   3.351
 8260SOL     OW25678   2.745   0.183   2.118
 8260SOL    HW125679   2.725   0.280   2.103
 8260SOL    HW225680   2.817   0.174   2.187
 8261SOL     OW25681   6.392   1.137   1.920
 8261SOL    HW125682   6.394   1.070   1.845
 8261SOL    HW225683   6.485   1.154   1.952
 8262SOL     OW25684   0.946   2.795   0.899
 8262SOL    HW125685   0.847   2.797   0.884
 8262SOL    HW225686   0.985   2.884   0.875
 8263SOL     OW25687   0.995   2.248   0.281
 8263SOL    HW125688   0.952   2.163   0.308
 8263SOL    HW225689   0.971   2.320   0.346
 8264SOL     OW25690   2.192   6.390   2.143
 8264SOL    HW125691   2.112   6.409   2.200
 8264SOL    HW225692   2.224   6.297   2.162
 8265SOL     OW25693   1.206   6.825   1.406
 8265SOL    HW125694   1.295   6.823   1.452
 8265SOL    HW225695   1.211   6.773   1.321
 8266SOL     OW25696   2.083   1.132   3.569
 8266SOL    HW125697   2.063   1.118   3.666
 8266SOL    HW225698   2.165   1.081   3.544
 8267SOL     OW25699   1.708   3.202   0.967
 8267SOL    HW125700   1.738   3.110   0.992
 8267SOL    HW225701   1.761   3.234   0.888
 8268SOL     OW25702   2.214   6.109   5.500
 8268SOL    HW125703   2.305   6.150   5.511
 8268SOL    HW225704   2.188   6.064   5.586
 8269SOL     OW25705   5.321   1.674   1.301
 8269SOL    HW125706   5.288   1.753   1.352
 8269SOL    HW225707   5.304   1.591   1.353
 8270SOL     OW25708   2.859   6.652   5.157
 8270SOL    HW125709   2.812   6.585   5.215
 8270SOL    HW225710   2.909   6.717   5.215
 8271SOL     OW25711   0.173   0.985   2.532
 8271SOL    HW125712   0.220   1.003   2.446
 8271SOL    HW225713   0.075   1.001   2.520
 8272SOL     OW25714   4.949   1.706   1.452
 8272SOL    HW125715   5.019   1.703   1.523
 8272SOL    HW225716   4.881   1.635   1.470
 8273SOL     OW25717   1.929   6.152   0.938
 8273SOL    HW125718   1.860   6.088   0.972
 8273SOL    HW225719   1.894   6.198   0.856
 8274SOL     OW25720   4.847   4.445   3.395
 8274SOL    HW125721   4.941   4.459   3.423
 8274SOL    HW225722   4.789   4.516   3.435
 8275SOL     OW25723   4.804   1.555   5.444
 8275SOL    HW125724   4.828   1.541   5.540
 8275SOL    HW225725   4.716   1.603   5.438
 8276SOL     OW25726   1.755   2.448   3.775
 8276SOL    HW125727   1.706   2.519   3.824
 8276SOL    HW225728   1.792   2.486   3.689
 8277SOL     OW25729   6.778   1.094   0.305
 8277SOL    HW125730   6.819   1.020   0.359
 8277SOL    HW225731   6.846   1.133   0.243
 8278SOL     OW25732   2.857   1.713   5.823
 8278SOL    HW125733   2.798   1.769   5.882
 8278SOL    HW225734   2.872   1.761   5.737
 8279SOL     OW25735   1.606   0.406   4.093
 8279SOL    HW125736   1.678   0.465   4.056
 8279SOL    HW225737   1.520   0.456   4.094
 8280SOL     OW25738   2.203   2.862   0.585
 8280SOL    HW125739   2.294   2.902   0.595
 8280SOL    HW225740   2.151   2.914   0.517
 8281SOL     OW25741   2.104   4.638   1.491
 8281SOL    HW125742   2.022   4.655   1.438
 8281SOL    HW225743   2.141   4.547   1.468
 8282SOL     OW25744   5.189   3.927   6.915
 8282SOL    HW125745   5.091   3.947   6.915
 8282SOL    HW225746   5.232   3.972   6.994
 8283SOL     OW25747   2.028   4.761   0.312
 8283SOL    HW125748   1.996   4.818   0.236
 8283SOL    HW225749   2.085   4.816   0.373
 8284SOL     OW25750   0.955   3.798   0.378
 8284SOL    HW125751   1.013   3.729   0.422
 8284SOL    HW225752   0.926   3.766   0.288
 8285SOL     OW25753   3.339   2.899   4.782
 8285SOL    HW125754   3.277   2.822   4.770
 8285SOL    HW225755   3.361   2.910   4.879
 8286SOL     OW25756   5.537   3.321   6.477
 8286SOL    HW125757   5.562   3.295   6.570
 8286SOL    HW225758   5.544   3.420   6.466
 8287SOL     OW25759   2.185   5.380   4.276
 8287SOL    HW125760   2.265   5.364   4.219
 8287SOL    HW225761   2.103   5.382   4.220
 8288SOL     OW25762   2.813   1.706   1.506
 8288SOL    HW125763   2.822   1.787   1.448
 8288SOL    HW225764   2.903   1.683   1.545
 8289SOL     OW25765   0.456   5.988   1.797
 8289SOL    HW125766   0.472   5.915   1.730
 8289SOL    HW225767   0.542   6.034   1.817
 8290SOL     OW25768   5.845   0.979   0.928
 8290SOL    HW125769   5.892   0.894   0.955
 8290SOL    HW225770   5.797   0.964   0.842
 8291SOL     OW25771   5.155   6.448   5.901
 8291SOL    HW125772   5.224   6.451   5.828
 8291SOL    HW225773   5.198   6.468   5.989
 8292SOL     OW25774   2.291   6.249   6.871
 8292SOL    HW125775   2.199   6.226   6.902
 8292SOL    HW225776   2.314   6.341   6.902
 8293SOL     OW25777   3.237   6.950   0.052
 8293SOL    HW125778   3.318   6.921   0.103
 8293SOL    HW225779   3.197   6.871   0.005
 8294SOL     OW25780   5.668   4.610   4.826
 8294SOL    HW125781   5.629   4.684   4.771
 8294SOL    HW225782   5.596   4.565   4.879
 8295SOL     OW25783   4.981   5.684   1.552
 8295SOL    HW125784   4.887   5.664   1.525
 8295SOL    HW225785   4.988   5.781   1.576
 8296SOL     OW25786   2.425   6.680   6.624
 8296SOL    HW125787   2.499   6.660   6.560
 8296SOL    HW225788   2.337   6.654   6.582
 8297SOL     OW25789   6.676   2.515   2.206
 8297SOL    HW125790   6.746   2.577   2.241
 8297SOL    HW225791   6.600   2.511   2.270
 8298SOL     OW25792   5.832   2.281   1.095
 8298SOL    HW125793   5.819   2.310   1.190
 8298SOL    HW225794   5.929   2.282   1.073
 8299SOL     OW25795   0.282   2.645   2.058
 8299SOL    HW125796   0.317   2.738   2.049
 8299SOL    HW225797   0.184   2.644   2.035
 8300SOL     OW25798   0.401   5.931   5.037
 8300SOL    HW125799   0.366   5.837   5.036
 8300SOL    HW225800   0.336   5.990   5.085
 8301SOL     OW25801   4.227   1.828   1.848
 8301SOL    HW125802   4.153   1.772   1.810
 8301SOL    HW225803   4.307   1.821   1.788
 8302SOL     OW25804   5.771   6.189   6.406
 8302SOL    HW125805   5.684   6.189   6.456
 8302SOL    HW225806   5.843   6.157   6.467
 8303SOL     OW25807   6.599   1.097   3.977
 8303SOL    HW125808   6.509   1.073   4.015
 8303SOL    HW225809   6.610   1.054   3.888
 8304SOL     OW25810   1.413   3.309   0.668
 8304SOL    HW125811   1.316   3.294   0.685
 8304SOL    HW225812   1.442   3.394   0.711
 8305SOL     OW25813   3.898   4.918   4.691
 8305SOL    HW125814   3.915   4.819   4.686
 8305SOL    HW225815   3.859   4.950   4.604
 8306SOL     OW25816   0.051   2.876   5.369
 8306SOL    HW125817   7.015   2.950   5.396
 8306SOL    HW225818   7.022   2.803   5.326
 8307SOL     OW25819   4.403   5.213   1.975
 8307SOL    HW125820   4.306   5.213   1.998
 8307SOL    HW225821   4.416   5.173   1.884
 8308SOL     OW25822   4.059   5.868   1.259
 8308SOL    HW125823   4.019   5.956   1.234
 8308SOL    HW225824   4.149   5.882   1.300
 8309SOL     OW25825   6.280   5.478   3.471
 8309SOL    HW125826   6.192   5.514   3.504
 8309SOL    HW225827   6.353   5.540   3.498
 8310SOL     OW25828   0.853   4.144   0.852
 8310SOL    HW125829   0.887   4.074   0.790
 8310SOL    HW225830   0.928   4.202   0.883
 8311SOL     OW25831   0.855   1.463   4.866
 8311SOL    HW125832   0.931   1.457   4.800
 8311SOL    HW225833   0.861   1.386   4.930
 8312SOL     OW25834   3.970   6.320   0.980
 8312SOL    HW125835   4.059   6.275   0.978
 8312SOL    HW225836   3.931   6.313   1.072
 8313SOL     OW25837   4.963   1.312   2.732
 8313SOL    HW125838   4.879   1.257   2.733
 8313SOL    HW225839   5.029   1.272   2.795
 8314SOL     OW25840   4.581   0.126   0.926
 8314SOL    HW125841   4.554   0.159   1.016
 8314SOL    HW225842   4.509   0.066   0.890
 8315SOL     OW25843   4.059   3.638   0.949
 8315SOL    HW125844   4.108   3.719   0.982
 8315SOL    HW225845   4.123   3.576   0.904
 8316SOL     OW25846   1.104   1.985   1.775
 8316SOL    HW125847   1.163   1.926   1.829
 8316SOL    HW225848   1.155   2.067   1.749
 8317SOL     OW25849   2.390   2.514   2.385
 8317SOL    HW125850   2.436   2.494   2.299
 8317SOL    HW225851   2.310   2.455   2.394
 8318SOL     OW25852   4.534   1.374   4.598
 8318SOL    HW125853   4.479   1.328   4.667
 8318SOL    HW225854   4.545   1.314   4.519
 8319SOL     OW25855   2.888   1.449   6.386
 8319SOL    HW125856   2.799   1.493   6.399
 8319SOL    HW225857   2.875   1.356   6.352
 8320SOL     OW25858   3.373   3.593   1.357
 8320SOL    HW125859   3.354   3.587   1.259
 8320SOL    HW225860   3.354   3.686   1.388
 8321SOL     OW25861   0.015   1.003   0.533
 8321SOL    HW125862   6.953   0.965   0.502
 8321SOL    HW225863   0.003   1.099   0.558
 8322SOL     OW25864   6.977   0.734   0.757
 8322SOL    HW125865   6.948   0.796   0.830
 8322SOL    HW225866   0.051   0.719   0.764
 8323SOL     OW25867   6.032   6.085   2.979
 8323SOL    HW125868   6.030   6.131   2.889
 8323SOL    HW225869   6.121   6.101   3.022
 8324SOL     OW25870   5.785   1.055   1.853
 8324SOL    HW125871   5.858   1.111   1.812
 8324SOL    HW225872   5.755   0.987   1.787
 8325SOL     OW25873   3.312   3.337   5.371
 8325SOL    HW125874   3.407   3.360   5.352
 8325SOL    HW225875   3.252   3.388   5.310
 8326SOL     OW25876   4.930   3.377   5.142
 8326SOL    HW125877   4.863   3.446   5.114
 8326SOL    HW225878   4.883   3.291   5.161
 8327SOL     OW25879   5.993   1.927   6.065
 8327SOL    HW125880   5.980   1.853   6.131
 8327SOL    HW225881   5.904   1.967   6.042
 8328SOL     OW25882   2.614   4.233   6.046
 8328SOL    HW125883   2.605   4.317   5.992
 8328SOL    HW225884   2.666   4.165   5.994
 8329SOL     OW25885   7.005   4.033   6.383
 8329SOL    HW125886   0.072   4.071   6.367
 8329SOL    HW225887   6.995   4.011   6.481
 8330SOL     OW25888   2.863   0.206   0.461
 8330SOL    HW125889   2.945   0.150   0.469
 8330SOL    HW225890   2.869   0.262   0.379
 8331SOL     OW25891   2.743   1.197   1.228
 8331SOL    HW125892   2.702   1.147   1.306
 8331SOL    HW225893   2.775   1.131   1.160
 8332SOL     OW25894   4.855   4.790   2.432
 8332SOL    HW125895   4.877   4.770   2.527
 8332SOL    HW225896   4.853   4.705   2.379
 8333SOL     OW25897   0.524   6.601   6.533
 8333SOL    HW125898   0.564   6.589   6.624
 8333SOL    HW225899   0.470   6.520   6.509
 8334SOL     OW25900   4.425   1.652   4.158
 8334SOL    HW125901   4.394   1.597   4.236
 8334SOL    HW225902   4.524   1.653   4.155
 8335SOL     OW25903   6.250   5.828   6.528
 8335SOL    HW125904   6.337   5.787   6.500
 8335SOL    HW225905   6.226   5.901   6.464
 8336SOL     OW25906   6.731   6.787   2.621
 8336SOL    HW125907   6.783   6.872   2.615
 8336SOL    HW225908   6.681   6.785   2.708
 8337SOL     OW25909   0.967   6.342   3.063
 8337SOL    HW125910   0.979   6.402   2.984
 8337SOL    HW225911   1.029   6.371   3.136
 8338SOL     OW25912   2.118   5.088   1.929
 8338SOL    HW125913   2.160   5.040   1.851
 8338SOL    HW225914   2.019   5.090   1.917
 8339SOL     OW25915   5.855   0.562   1.568
 8339SOL    HW125916   5.801   0.515   1.499
 8339SOL    HW225917   5.879   0.654   1.536
 8340SOL     OW25918   5.396   4.130   1.374
 8340SOL    HW125919   5.366   4.045   1.330
 8340SOL    HW225920   5.355   4.208   1.328
 8341SOL     OW25921   2.272   6.844   7.013
 8341SOL    HW125922   2.241   6.774   0.053
 8341SOL    HW225923   2.192   6.889   6.973
 8342SOL     OW25924   3.456   0.186   1.784
 8342SOL    HW125925   3.369   0.146   1.755
 8342SOL    HW225926   3.520   0.187   1.707
 8343SOL     OW25927   0.930   4.913   6.099
 8343SOL    HW125928   0.910   4.862   6.183
 8343SOL    HW225929   0.880   4.871   6.023
 8344SOL     OW25930   4.701   0.491   5.482
 8344SOL    HW125931   4.760   0.552   5.429
 8344SOL    HW225932   4.606   0.520   5.472
 8345SOL     OW25933   5.006   1.731   3.453
 8345SOL    HW125934   5.062   1.813   3.466
 8345SOL    HW225935   4.958   1.710   3.537
 8346SOL     OW25936   3.047   4.310   6.982
 8346SOL    HW125937   3.116   4.239   6.994
 8346SOL    HW225938   3.045   4.369   0.038
 8347SOL     OW25939   3.631   5.879   4.398
 8347SOL    HW125940   3.645   5.966   4.447
 8347SOL    HW225941   3.597   5.810   4.462
 8348SOL     OW25942   1.078   6.770   1.676
 8348SOL    HW125943   1.152   6.773   1.608
 8348SOL    HW225944   1.115   6.740   1.764
 8349SOL     OW25945   6.228   5.879   1.369
 8349SOL    HW125946   6.294   5.932   1.316
 8349SOL    HW225947   6.260   5.785   1.378
 8350SOL     OW25948   4.805   0.840   4.707
 8350SOL    HW125949   4.883   0.834   4.769
 8350SOL    HW225950   4.754   0.924   4.725
 8351SOL     OW25951   4.590   5.334   4.463
 8351SOL    HW125952   4.588   5.352   4.365
 8351SOL    HW225953   4.649   5.401   4.509
 8352SOL     OW25954   6.873   6.554   2.558
 8352SOL    HW125955   6.844   6.650   2.552
 8352SOL    HW225956   6.902   6.533   2.651
 8353SOL     OW25957   6.602   3.356   1.461
 8353SOL    HW125958   6.679   3.349   1.398
 8353SOL    HW225959   6.523   3.394   1.412
 8354SOL     OW25960   3.863   0.601   6.931
 8354SOL    HW125961   3.939   0.661   6.957
 8354SOL    HW225962   3.873   0.575   6.835
 8355SOL     OW25963   2.737   0.402   6.981
 8355SOL    HW125964   2.645   0.420   7.015
 8355SOL    HW225965   2.752   0.454   6.897
 8356SOL     OW25966   1.441   6.315   0.674
 8356SOL    HW125967   1.465   6.396   0.727
 8356SOL    HW225968   1.517   6.250   0.676
 8357SOL     OW25969   3.957   7.024   5.956
 8357SOL    HW125970   3.863   0.005   5.921
 8357SOL    HW225971   4.000   0.089   5.947
 8358SOL     OW25972   1.181   3.355   5.518
 8358SOL    HW125973   1.095   3.303   5.517
 8358SOL    HW225974   1.258   3.292   5.514
 8359SOL     OW25975   2.896   6.327   4.609
 8359SOL    HW125976   2.818   6.344   4.669
 8359SOL    HW225977   2.864   6.302   4.518
 8360SOL     OW25978   3.835   5.998   1.491
 8360SOL    HW125979   3.754   5.983   1.434
 8360SOL    HW225980   3.845   6.095   1.509
 8361SOL     OW25981   2.251   0.404   2.645
 8361SOL    HW125982   2.310   0.324   2.655
 8361SOL    HW225983   2.236   0.424   2.548
 8362SOL     OW25984   2.804   1.561   0.871
 8362SOL    HW125985   2.827   1.624   0.797
 8362SOL    HW225986   2.709   1.577   0.900
 8363SOL     OW25987   0.631   2.414   0.103
 8363SOL    HW125988   0.542   2.368   0.101
 8363SOL    HW225989   0.703   2.346   0.090
 8364SOL     OW25990   6.463   3.277   2.535
 8364SOL    HW125991   6.408   3.278   2.618
 8364SOL    HW225992   6.554   3.313   2.555
 8365SOL     OW25993   1.762   4.294   1.615
 8365SOL    HW125994   1.854   4.315   1.582
 8365SOL    HW225995   1.698   4.364   1.584
 8366SOL     OW25996   3.453   5.032   2.229
 8366SOL    HW125997   3.399   4.981   2.162
 8366SOL    HW225998   3.454   4.981   2.315
 8367SOL     OW25999   3.911   6.065   3.992
 8367SOL    HW126000   3.979   5.992   3.997
 8367SOL    HW226001   3.874   6.070   3.899
 8368SOL     OW26002   2.311   6.496   5.766
 8368SOL    HW126003   2.232   6.556   5.782
 8368SOL    HW226004   2.381   6.546   5.716
 8369SOL     OW26005   1.794   6.608   6.657
 8369SOL    HW126006   1.830   6.689   6.704
 8369SOL    HW226007   1.830   6.526   6.700
 8370SOL     OW26008   2.645   2.003   5.405
 8370SOL    HW126009   2.546   1.995   5.397
 8370SOL    HW226010   2.680   1.925   5.458
 8371SOL     OW26011   1.892   4.057   1.410
 8371SOL    HW126012   1.955   4.037   1.335
 8371SOL    HW226013   1.804   4.086   1.373
 8372SOL     OW26014   0.501   5.738   2.418
 8372SOL    HW126015   0.454   5.650   2.424
 8372SOL    HW226016   0.567   5.745   2.493
 8373SOL     OW26017   1.213   0.239   4.348
 8373SOL    HW126018   1.311   0.222   4.362
 8373SOL    HW226019   1.199   0.335   4.321
 8374SOL     OW26020   6.745   0.624   6.194
 8374SOL    HW126021   6.685   0.697   6.163
 8374SOL    HW226022   6.829   0.663   6.230
 8375SOL     OW26023   3.284   7.008   5.717
 8375SOL    HW126024   3.241   6.918   5.712
 8375SOL    HW226025   3.225   0.051   5.673
 8376SOL     OW26026   2.022   0.411   4.345
 8376SOL    HW126027   1.942   0.389   4.400
 8376SOL    HW226028   2.012   0.370   4.254
 8377SOL     OW26029   5.824   5.439   1.308
 8377SOL    HW126030   5.810   5.532   1.343
 8377SOL    HW226031   5.920   5.427   1.283
 8378SOL     OW26032   4.828   4.495   3.128
 8378SOL    HW126033   4.776   4.581   3.125
 8378SOL    HW226034   4.865   4.483   3.220
 8379SOL     OW26035   6.475   2.453   0.935
 8379SOL    HW126036   6.473   2.385   1.009
 8379SOL    HW226037   6.414   2.424   0.862
 8380SOL     OW26038   6.603   1.623   2.645
 8380SOL    HW126039   6.564   1.652   2.558
 8380SOL    HW226040   6.571   1.682   2.719
 8381SOL     OW26041   0.155   4.092   4.963
 8381SOL    HW126042   0.076   4.127   5.013
 8381SOL    HW226043   0.178   4.155   4.890
 8382SOL     OW26044   1.186   0.904   2.133
 8382SOL    HW126045   1.277   0.945   2.132
 8382SOL    HW226046   1.117   0.977   2.129
 8383SOL     OW26047   2.367   0.359   6.068
 8383SOL    HW126048   2.423   0.442   6.065
 8383SOL    HW226049   2.283   0.378   6.118
 8384SOL     OW26050   0.474   0.248   0.416
 8384SOL    HW126051   0.506   0.293   0.332
 8384SOL    HW226052   0.411   0.309   0.464
 8385SOL     OW26053   5.829   2.692   1.491
 8385SOL    HW126054   5.870   2.783   1.503
 8385SOL    HW226055   5.842   2.639   1.575
 8386SOL     OW26056   0.955   4.315   2.447
 8386SOL    HW126057   0.985   4.220   2.458
 8386SOL    HW226058   0.884   4.320   2.377
 8387SOL     OW26059   0.967   1.166   1.499
 8387SOL    HW126060   0.909   1.221   1.558
 8387SOL    HW226061   0.939   1.178   1.404
 8388SOL     OW26062   1.559   6.054   0.701
 8388SOL    HW126063   1.467   6.020   0.718
 8388SOL    HW226064   1.626   5.982   0.720
 8389SOL     OW26065   6.007   4.098   2.703
 8389SOL    HW126066   5.934   4.147   2.657
 8389SOL    HW226067   6.000   4.111   2.802
 8390SOL     OW26068   3.841   1.320   6.693
 8390SOL    HW126069   3.891   1.265   6.760
 8390SOL    HW226070   3.743   1.302   6.702
 8391SOL     OW26071   6.172   5.820   0.767
 8391SOL    HW126072   6.188   5.903   0.713
 8391SOL    HW226073   6.137   5.748   0.708
 8392SOL     OW26074   6.377   3.641   3.525
 8392SOL    HW126075   6.282   3.663   3.548
 8392SOL    HW226076   6.415   3.713   3.467
 8393SOL     OW26077   6.149   0.952   2.904
 8393SOL    HW126078   6.117   0.900   2.825
 8393SOL    HW226079   6.249   0.946   2.911
 8394SOL     OW26080   5.612   3.236   1.729
 8394SOL    HW126081   5.675   3.165   1.758
 8394SOL    HW226082   5.543   3.251   1.801
 8395SOL     OW26083   2.764   6.750   5.474
 8395SOL    HW126084   2.696   6.722   5.541
 8395SOL    HW226085   2.721   6.809   5.406
 8396SOL     OW26086   5.078   4.935   2.910
 8396SOL    HW126087   5.069   4.994   2.830
 8396SOL    HW226088   5.093   4.992   2.991
 8397SOL     OW26089   0.802   0.871   3.544
 8397SOL    HW126090   0.735   0.920   3.488
 8397SOL    HW226091   0.849   0.802   3.489
 8398SOL     OW26092   5.251   2.608   5.672
 8398SOL    HW126093   5.188   2.538   5.640
 8398SOL    HW226094   5.207   2.663   5.743
 8399SOL     OW26095   6.451   6.212   6.883
 8399SOL    HW126096   6.352   6.217   6.897
 8399SOL    HW226097   6.472   6.226   6.786
 8400SOL     OW26098   2.136   2.628   4.276
 8400SOL    HW126099   2.232   2.655   4.274
 8400SOL    HW226100   2.079   2.709   4.259
 8401SOL     OW26101   2.051   1.491   5.428
 8401SOL    HW126102   1.988   1.556   5.471
 8401SOL    HW226103   2.089   1.533   5.345
 8402SOL     OW26104   5.548   1.825   6.262
 8402SOL    HW126105   5.494   1.799   6.182
 8402SOL    HW226106   5.494   1.884   6.321
 8403SOL     OW26107   0.595   3.234   4.374
 8403SOL    HW126108   0.610   3.135   4.383
 8403SOL    HW226109   0.504   3.257   4.408
 8404SOL     OW26110   3.904   0.207   6.465
 8404SOL    HW126111   3.953   0.206   6.552
 8404SOL    HW226112   3.941   0.136   6.405
 8405SOL     OW26113   2.960   1.741   6.112
 8405SOL    HW126114   3.034   1.701   6.166
 8405SOL    HW226115   2.958   1.840   6.126
 8406SOL     OW26116   3.991   0.223   0.356
 8406SOL    HW126117   4.046   0.281   0.296
 8406SOL    HW226118   3.894   0.238   0.336
 8407SOL     OW26119   3.974   6.158   3.459
 8407SOL    HW126120   3.976   6.106   3.374
 8407SOL    HW226121   3.989   6.097   3.536
 8408SOL     OW26122   5.565   5.081   0.646
 8408SOL    HW126123   5.522   5.093   0.735
 8408SOL    HW226124   5.517   5.011   0.594
 8409SOL     OW26125   5.100   2.465   1.984
 8409SOL    HW126126   5.005   2.475   1.953
 8409SOL    HW226127   5.102   2.467   2.084
 8410SOL     OW26128   6.358   2.141   1.783
 8410SOL    HW126129   6.441   2.185   1.815
 8410SOL    HW226130   6.363   2.043   1.803
 8411SOL     OW26131   0.338   5.924   1.137
 8411SOL    HW126132   0.398   5.950   1.213
 8411SOL    HW226133   0.327   5.825   1.136
 8412SOL     OW26134   3.771   2.081   1.119
 8412SOL    HW126135   3.725   2.156   1.166
 8412SOL    HW226136   3.713   1.999   1.121
 8413SOL     OW26137   4.462   5.706   6.224
 8413SOL    HW126138   4.381   5.669   6.270
 8413SOL    HW226139   4.538   5.643   6.237
 8414SOL     OW26140   2.167   0.819   2.996
 8414SOL    HW126141   2.123   0.733   2.968
 8414SOL    HW226142   2.266   0.807   2.994
 8415SOL     OW26143   1.921   6.976   4.048
 8415SOL    HW126144   1.873   0.025   4.098
 8415SOL    HW226145   1.984   6.930   4.110
 8416SOL     OW26146   6.375   1.794   4.872
 8416SOL    HW126147   6.395   1.890   4.889
 8416SOL    HW226148   6.417   1.766   4.786
 8417SOL     OW26149   1.612   2.852   5.314
 8417SOL    HW126150   1.677   2.823   5.244
 8417SOL    HW226151   1.527   2.800   5.304
 8418SOL     OW26152   0.310   5.130   2.061
 8418SOL    HW126153   0.280   5.154   2.153
 8418SOL    HW226154   0.290   5.034   2.043
 8419SOL     OW26155   6.210   1.333   2.705
 8419SOL    HW126156   6.304   1.365   2.713
 8419SOL    HW226157   6.167   1.334   2.795
 8420SOL     OW26158   3.166   6.487   1.694
 8420SOL    HW126159   3.134   6.464   1.602
 8420SOL    HW226160   3.181   6.585   1.700
 8421SOL     OW26161   3.501   4.772   0.102
 8421SOL    HW126162   3.600   4.765   0.109
 8421SOL    HW226163   3.464   4.689   0.060
 8422SOL     OW26164   3.920   1.917   2.504
 8422SOL    HW126165   3.899   1.844   2.570
 8422SOL    HW226166   3.928   2.004   2.553
 8423SOL     OW26167   4.413   4.267   5.581
 8423SOL    HW126168   4.317   4.284   5.601
 8423SOL    HW226169   4.424   4.245   5.484
 8424SOL     OW26170   1.691   2.320   3.199
 8424SOL    HW126171   1.657   2.269   3.120
 8424SOL    HW226172   1.738   2.403   3.167
 8425SOL     OW26173   4.075   3.446   4.856
 8425SOL    HW126174   4.089   3.539   4.889
 8425SOL    HW226175   4.061   3.385   4.934
 8426SOL     OW26176   3.585   3.158   2.736
 8426SOL    HW126177   3.603   3.095   2.659
 8426SOL    HW226178   3.515   3.224   2.709
 8427SOL     OW26179   3.099   3.654   3.606
 8427SOL    HW126180   3.023   3.658   3.541
 8427SOL    HW226181   3.164   3.584   3.577
 8428SOL     OW26182   6.991   6.787   1.831
 8428SOL    HW126183   7.007   6.885   1.825
 8428SOL    HW226184   6.957   6.764   1.922
 8429SOL     OW26185   1.538   5.477   5.624
 8429SOL    HW126186   1.528   5.471   5.525
 8429SOL    HW226187   1.582   5.394   5.659
 8430SOL     OW26188   3.936   4.978   4.163
 8430SOL    HW126189   3.844   4.940   4.149
 8430SOL    HW226190   3.992   4.961   4.082
 8431SOL     OW26191   4.042   3.591   0.330
 8431SOL    HW126192   4.011   3.506   0.371
 8431SOL    HW226193   4.039   3.664   0.399
 8432SOL     OW26194   6.631   5.421   5.595
 8432SOL    HW126195   6.578   5.466   5.667
 8432SOL    HW226196   6.658   5.488   5.526
 8433SOL     OW26197   4.288   2.897   0.689
 8433SOL    HW126198   4.230   2.977   0.701
 8433SOL    HW226199   4.244   2.817   0.731
 8434SOL     OW26200   2.683   6.744   4.359
 8434SOL    HW126201   2.630   6.727   4.276
 8434SOL    HW226202   2.761   6.802   4.337
 8435SOL     OW26203   5.365   0.435   2.610
 8435SOL    HW126204   5.369   0.409   2.514
 8435SOL    HW226205   5.367   0.535   2.618
 8436SOL     OW26206   3.036   6.446   3.884
 8436SOL    HW126207   3.111   6.391   3.847
 8436SOL    HW226208   2.958   6.386   3.904
 8437SOL     OW26209   2.319   2.812   2.592
 8437SOL    HW126210   2.239   2.753   2.580
 8437SOL    HW226211   2.382   2.798   2.517
 8438SOL     OW26212   2.540   4.580   2.962
 8438SOL    HW126213   2.563   4.645   2.889
 8438SOL    HW226214   2.560   4.487   2.931
 8439SOL     OW26215   6.465   4.924   2.913
 8439SOL    HW126216   6.434   4.853   2.976
 8439SOL    HW226217   6.520   4.991   2.963
 8440SOL     OW26218   2.288   2.400   3.398
 8440SOL    HW126219   2.261   2.303   3.397
 8440SOL    HW226220   2.206   2.457   3.386
 8441SOL     OW26221   5.882   6.211   6.128
 8441SOL    HW126222   5.869   6.188   6.225
 8441SOL    HW226223   5.959   6.159   6.092
 8442SOL     OW26224   3.732   1.314   4.611
 8442SOL    HW126225   3.735   1.398   4.556
 8442SOL    HW226226   3.757   1.236   4.553
 8443SOL     OW26227   2.321   5.047   3.679
 8443SOL    HW126228   2.313   4.959   3.632
 8443SOL    HW226229   2.408   5.089   3.654
 8444SOL     OW26230   2.980   6.980   3.598
 8444SOL    HW126231   3.046   0.027   3.573
 8444SOL    HW226232   3.003   6.944   3.689
 8445SOL     OW26233   3.041   0.450   0.728
 8445SOL    HW126234   3.017   0.479   0.635
 8445SOL    HW226235   2.969   0.390   0.763
 8446SOL     OW26236   6.684   5.604   5.407
 8446SOL    HW126237   6.778   5.622   5.436
 8446SOL    HW226238   6.639   5.690   5.383
 8447SOL     OW26239   3.714   1.456   1.477
 8447SOL    HW126240   3.623   1.430   1.445
 8447SOL    HW226241   3.782   1.390   1.443
 8448SOL     OW26242   4.994   6.253   3.196
 8448SOL    HW126243   5.008   6.155   3.183
 8448SOL    HW226244   4.976   6.271   3.293
 8449SOL     OW26245   0.396   3.281   3.355
 8449SOL    HW126246   0.416   3.305   3.450
 8449SOL    HW226247   0.410   3.183   3.342
 8450SOL     OW26248   0.347   0.844   1.480
 8450SOL    HW126249   0.428   0.799   1.444
 8450SOL    HW226250   0.374   0.912   1.548
 8451SOL     OW26251   3.126   1.038   0.283
 8451SOL    HW126252   3.089   1.066   0.194
 8451SOL    HW226253   3.159   1.119   0.332
 8452SOL     OW26254   5.225   2.880   4.823
 8452SOL    HW126255   5.137   2.920   4.847
 8452SOL    HW226256   5.264   2.929   4.745
 8453SOL     OW26257   0.103   5.381   0.155
 8453SOL    HW126258   0.151   5.468   0.154
 8453SOL    HW226259   0.006   5.396   0.135
 8454SOL     OW26260   0.189   5.127   0.114
 8454SOL    HW126261   0.269   5.155   0.060
 8454SOL    HW226262   0.142   5.209   0.147
 8455SOL     OW26263   6.719   2.385   3.272
 8455SOL    HW126264   6.706   2.287   3.279
 8455SOL    HW226265   6.786   2.415   3.340
 8456SOL     OW26266   4.387   0.477   3.431
 8456SOL    HW126267   4.367   0.383   3.460
 8456SOL    HW226268   4.482   0.499   3.455
 8457SOL     OW26269   6.603   5.876   5.060
 8457SOL    HW126270   6.633   5.853   4.968
 8457SOL    HW226271   6.586   5.974   5.066
 8458SOL     OW26272   1.592   0.405   0.533
 8458SOL    HW126273   1.584   0.313   0.495
 8458SOL    HW226274   1.534   0.467   0.481
 8459SOL     OW26275   1.943   5.730   2.892
 8459SOL    HW126276   1.937   5.830   2.895
 8459SOL    HW226277   1.979   5.701   2.804
 8460SOL     OW26278   4.646   3.691   5.414
 8460SOL    HW126279   4.552   3.658   5.420
 8460SOL    HW226280   4.679   3.682   5.320
 8461SOL     OW26281   0.841   2.417   5.138
 8461SOL    HW126282   0.810   2.335   5.091
 8461SOL    HW226283   0.940   2.415   5.148
 8462SOL     OW26284   3.321   1.573   7.006
 8462SOL    HW126285   3.325   1.654   6.948
 8462SOL    HW226286   3.246   1.583   0.047
 8463SOL     OW26287   6.338   0.426   1.930
 8463SOL    HW126288   6.373   0.433   1.836
 8463SOL    HW226289   6.402   0.375   1.986
 8464SOL     OW26290   5.580   4.304   4.250
 8464SOL    HW126291   5.501   4.299   4.312
 8464SOL    HW226292   5.549   4.305   4.156
 8465SOL     OW26293   1.689   2.154   0.649
 8465SOL    HW126294   1.776   2.163   0.697
 8465SOL    HW226295   1.704   2.122   0.556
 8466SOL     OW26296   1.327   6.398   4.129
 8466SOL    HW126297   1.410   6.366   4.174
 8466SOL    HW226298   1.345   6.413   4.031
 8467SOL     OW26299   2.982   5.683   0.662
 8467SOL    HW126300   3.074   5.656   0.634
 8467SOL    HW226301   2.925   5.698   0.581
 8468SOL     OW26302   2.991   1.514   1.074
 8468SOL    HW126303   3.035   1.600   1.099
 8468SOL    HW226304   2.923   1.531   1.003
 8469SOL     OW26305   3.318   2.911   6.747
 8469SOL    HW126306   3.288   2.819   6.723
 8469SOL    HW226307   3.404   2.932   6.701
 8470SOL     OW26308   2.599   3.451   1.448
 8470SOL    HW126309   2.523   3.416   1.503
 8470SOL    HW226310   2.664   3.378   1.430
 8471SOL     OW26311   2.873   0.766   3.458
 8471SOL    HW126312   2.774   0.757   3.451
 8471SOL    HW226313   2.903   0.843   3.401
 8472SOL     OW26314   0.125   6.896   4.039
 8472SOL    HW126315   0.154   6.858   3.951
 8472SOL    HW226316   0.087   6.987   4.026
 8473SOL     OW26317   0.149   5.362   6.701
 8473SOL    HW126318   0.082   5.296   6.736
 8473SOL    HW226319   0.241   5.335   6.731
 8474SOL     OW26320   3.103   3.197   1.776
 8474SOL    HW126321   3.193   3.171   1.741
 8474SOL    HW226322   3.110   3.283   1.827
 8475SOL     OW26323   6.960   1.337   2.630
 8475SOL    HW126324   6.866   1.330   2.595
 8475SOL    HW226325   6.989   1.432   2.628
 8476SOL     OW26326   6.169   0.621   1.964
 8476SOL    HW126327   6.226   0.539   1.968
 8476SOL    HW226328   6.084   0.600   1.915
 8477SOL     OW26329   3.048   6.465   1.454
 8477SOL    HW126330   3.063   6.470   1.355
 8477SOL    HW226331   2.958   6.426   1.472
 8478SOL     OW26332   1.238   0.543   5.797
 8478SOL    HW126333   1.162   0.552   5.732
 8478SOL    HW226334   1.208   0.489   5.876
 8479SOL     OW26335   5.955   1.480   0.422
 8479SOL    HW126336   6.050   1.494   0.451
 8479SOL    HW226337   5.908   1.425   0.491
 8480SOL     OW26338   3.308   1.185   1.181
 8480SOL    HW126339   3.363   1.234   1.113
 8480SOL    HW226340   3.348   1.094   1.196
 8481SOL     OW26341   4.256   1.637   3.930
 8481SOL    HW126342   4.315   1.640   4.011
 8481SOL    HW226343   4.252   1.727   3.889
 8482SOL     OW26344   2.278   0.067   2.017
 8482SOL    HW126345   2.271   0.067   1.917
 8482SOL    HW226346   2.187   0.060   2.057
 8483SOL     OW26347   3.134   5.858   2.118
 8483SOL    HW126348   3.077   5.777   2.123
 8483SOL    HW226349   3.216   5.845   2.174
 8484SOL     OW26350   6.839   5.087   2.897
 8484SOL    HW126351   6.853   5.045   2.987
 8484SOL    HW226352   6.744   5.115   2.888
 8485SOL     OW26353   1.683   3.595   6.837
 8485SOL    HW126354   1.610   3.661   6.821
 8485SOL    HW226355   1.764   3.622   6.785
 8486SOL     OW26356   5.406   1.413   2.755
 8486SOL    HW126357   5.415   1.506   2.719
 8486SOL    HW226358   5.462   1.351   2.701
 8487SOL     OW26359   5.334   7.003   0.719
 8487SOL    HW126360   5.317   6.974   0.814
 8487SOL    HW226361   5.328   0.078   0.713
 8488SOL     OW26362   5.836   5.307   5.267
 8488SOL    HW126363   5.867   5.375   5.334
 8488SOL    HW226364   5.915   5.262   5.226
 8489SOL     OW26365   5.796   6.923   1.154
 8489SOL    HW126366   5.837   7.014   1.162
 8489SOL    HW226367   5.824   6.866   1.231
 8490SOL     OW26368   4.526   6.281   3.470
 8490SOL    HW126369   4.440   6.291   3.520
 8490SOL    HW226370   4.556   6.371   3.437
 8491SOL     OW26371   2.816   0.559   1.584
 8491SOL    HW126372   2.800   0.657   1.572
 8491SOL    HW226373   2.783   0.530   1.674
 8492SOL     OW26374   4.565   3.641   5.785
 8492SOL    HW126375   4.530   3.581   5.713
 8492SOL    HW226376   4.581   3.587   5.868
 8493SOL     OW26377   3.327   1.996   0.077
 8493SOL    HW126378   3.297   1.937   0.152
 8493SOL    HW226379   3.403   1.951   0.028
 8494SOL     OW26380   1.773   4.741   6.216
 8494SOL    HW126381   1.812   4.688   6.291
 8494SOL    HW226382   1.680   4.709   6.198
 8495SOL     OW26383   6.715   3.289   0.717
 8495SOL    HW126384   6.717   3.190   0.708
 8495SOL    HW226385   6.808   3.324   0.726
 8496SOL     OW26386   0.331   2.049   3.101
 8496SOL    HW126387   0.422   2.084   3.121
 8496SOL    HW226388   0.294   2.005   3.183
 8497SOL     OW26389   5.518   6.511   4.482
 8497SOL    HW126390   5.596   6.493   4.422
 8497SOL    HW226391   5.442   6.547   4.428
 8498SOL     OW26392   0.288   6.222   1.864
 8498SOL    HW126393   0.261   6.216   1.768
 8498SOL    HW226394   0.359   6.154   1.884
 8499SOL     OW26395   2.244   5.538   6.066
 8499SOL    HW126396   2.217   5.442   6.072
 8499SOL    HW226397   2.335   5.545   6.025
 8500SOL     OW26398   2.418   0.797   5.651
 8500SOL    HW126399   2.411   0.743   5.735
 8500SOL    HW226400   2.415   0.895   5.674
 8501SOL     OW26401   1.634   2.119   7.011
 8501SOL    HW126402   1.722   2.109   0.032
 8501SOL    HW226403   1.567   2.060   0.030
 8502SOL     OW26404   0.678   5.226   1.450
 8502SOL    HW126405   0.601   5.162   1.457
 8502SOL    HW226406   0.695   5.247   1.353
 8503SOL     OW26407   1.184   5.157   2.756
 8503SOL    HW126408   1.235   5.095   2.696
 8503SOL    HW226409   1.087   5.132   2.754
 8504SOL     OW26410   1.492   6.019   3.392
 8504SOL    HW126411   1.463   6.113   3.408
 8504SOL    HW226412   1.426   5.957   3.434
 8505SOL     OW26413   5.059   4.159   3.226
 8505SOL    HW126414   4.964   4.128   3.221
 8505SOL    HW226415   5.075   4.229   3.157
 8506SOL     OW26416   0.758   6.866   0.503
 8506SOL    HW126417   0.806   6.832   0.584
 8506SOL    HW226418   0.683   6.925   0.531
 8507SOL     OW26419   2.131   0.811   5.393
 8507SOL    HW126420   2.224   0.819   5.429
 8507SOL    HW226421   2.067   0.798   5.468
 8508SOL     OW26422   0.247   2.901   4.651
 8508SOL    HW126423   0.239   2.999   4.669
 8508SOL    HW226424   0.216   2.849   4.731
 8509SOL     OW26425   6.293   1.712   4.579
 8509SOL    HW126426   6.319   1.666   4.494
 8509SOL    HW226427   6.210   1.765   4.564
 8510SOL     OW26428   6.587   5.081   3.126
 8510SOL    HW126429   6.613   5.167   3.171
 8510SOL    HW226430   6.624   5.004   3.178
 8511SOL     OW26431   5.837   4.451   1.766
 8511SOL    HW126432   5.915   4.394   1.741
 8511SOL    HW226433   5.860   4.507   1.845
 8512SOL     OW26434   3.702   2.300   0.176
 8512SOL    HW126435   3.748   2.382   0.143
 8512SOL    HW226436   3.737   2.276   0.267
 8513SOL     OW26437   4.920   4.199   1.331
 8513SOL    HW126438   4.932   4.102   1.353
 8513SOL    HW226439   4.850   4.238   1.390
 8514SOL     OW26440   2.321   2.742   3.414
 8514SOL    HW126441   2.372   2.669   3.460
 8514SOL    HW226442   2.346   2.743   3.317
 8515SOL     OW26443   0.346   1.396   6.805
 8515SOL    HW126444   0.273   1.458   6.834
 8515SOL    HW226445   0.316   1.301   6.814
 8516SOL     OW26446   6.371   3.136   1.843
 8516SOL    HW126447   6.353   3.235   1.850
 8516SOL    HW226448   6.399   3.114   1.750
 8517SOL     OW26449   1.957   2.367   6.158
 8517SOL    HW126450   2.043   2.346   6.205
 8517SOL    HW226451   1.974   2.371   6.060
 8518SOL     OW26452   5.287   4.143   5.904
 8518SOL    HW126453   5.239   4.228   5.928
 8518SOL    HW226454   5.224   4.066   5.914
 8519SOL     OW26455   0.603   4.967   0.896
 8519SOL    HW126456   0.663   5.021   0.837
 8519SOL    HW226457   0.642   4.876   0.908
 8520SOL     OW26458   3.174   2.906   5.704
 8520SOL    HW126459   3.204   2.828   5.648
 8520SOL    HW226460   3.234   2.913   5.784
 8521SOL     OW26461   1.903   5.714   5.466
 8521SOL    HW126462   2.000   5.698   5.485
 8521SOL    HW226463   1.883   5.811   5.476
 8522SOL     OW26464   0.379   0.035   1.378
 8522SOL    HW126465   0.320   0.060   1.454
 8522SOL    HW226466   0.453   7.001   1.410
 8523SOL     OW26467   2.739   6.657   6.758
 8523SOL    HW126468   2.651   6.678   6.802
 8523SOL    HW226469   2.745   6.559   6.739
 8524SOL     OW26470   1.189   3.798   4.971
 8524SOL    HW126471   1.244   3.860   5.026
 8524SOL    HW226472   1.248   3.730   4.927
 8525SOL     OW26473   5.709   5.054   1.048
 8525SOL    HW126474   5.774   4.994   1.001
 8525SOL    HW226475   5.616   5.026   1.023
 8526SOL     OW26476   3.571   6.786   0.891
 8526SOL    HW126477   3.531   6.715   0.832
 8526SOL    HW226478   3.653   6.823   0.847
 8527SOL     OW26479   3.383   0.543   0.098
 8527SOL    HW126480   3.333   0.471   0.050
 8527SOL    HW226481   3.382   0.524   0.196
 8528SOL     OW26482   3.668   1.524   0.829
 8528SOL    HW126483   3.686   1.622   0.838
 8528SOL    HW226484   3.747   1.472   0.860
 8529SOL     OW26485   1.142   6.743   0.526
 8529SOL    HW126486   1.156   6.842   0.524
 8529SOL    HW226487   1.220   6.697   0.484
 8530SOL     OW26488   3.965   3.572   5.141
 8530SOL    HW126489   4.020   3.643   5.097
 8530SOL    HW226490   3.987   3.483   5.100
 8531SOL     OW26491   0.032   5.836   2.451
 8531SOL    HW126492   0.132   5.844   2.450
 8531SOL    HW226493   7.020   5.891   2.526
 8532SOL     OW26494   3.916   5.947   4.383
 8532SOL    HW126495   3.826   5.903   4.376
 8532SOL    HW226496   3.904   6.047   4.383
 8533SOL     OW26497   1.596   5.901   0.431
 8533SOL    HW126498   1.683   5.919   0.386
 8533SOL    HW226499   1.580   5.972   0.500
 8534SOL     OW26500   4.753   2.851   4.151
 8534SOL    HW126501   4.788   2.847   4.245
 8534SOL    HW226502   4.799   2.925   4.102
 8535SOL     OW26503   5.921   1.220   4.060
 8535SOL    HW126504   5.997   1.284   4.079
 8535SOL    HW226505   5.864   1.258   3.987
 8536SOL     OW26506   0.573   1.696   5.223
 8536SOL    HW126507   0.663   1.659   5.249
 8536SOL    HW226508   0.544   1.655   5.136
 8537SOL     OW26509   5.691   1.737   3.405
 8537SOL    HW126510   5.663   1.641   3.411
 8537SOL    HW226511   5.754   1.758   3.480
 8538SOL     OW26512   1.973   1.348   6.843
 8538SOL    HW126513   2.002   1.256   6.870
 8538SOL    HW226514   1.875   1.359   6.863
 8539SOL     OW26515   6.678   1.608   2.244
 8539SOL    HW126516   6.674   1.651   2.153
 8539SOL    HW226517   6.680   1.508   2.233
 8540SOL     OW26518   5.836   0.100   6.621
 8540SOL    HW126519   5.906   0.169   6.642
 8540SOL    HW226520   5.756   0.145   6.582
 8541SOL     OW26521   3.699   1.879   3.462
 8541SOL    HW126522   3.601   1.891   3.478
 8541SOL    HW226523   3.740   1.968   3.442
 8542SOL     OW26524   3.962   4.131   6.249
 8542SOL    HW126525   3.877   4.081   6.231
 8542SOL    HW226526   3.993   4.110   6.342
 8543SOL     OW26527   2.054   1.449   1.492
 8543SOL    HW126528   2.141   1.404   1.468
 8543SOL    HW226529   2.068   1.506   1.573
 8544SOL     OW26530   5.756   3.088   4.228
 8544SOL    HW126531   5.840   3.099   4.281
 8544SOL    HW226532   5.710   3.003   4.256
 8545SOL     OW26533   4.573   0.064   5.842
 8545SOL    HW126534   4.671   0.060   5.825
 8545SOL    HW226535   4.525   0.081   5.756
 8546SOL     OW26536   5.749   2.249   4.230
 8546SOL    HW126537   5.834   2.196   4.224
 8546SOL    HW226538   5.727   2.286   4.139
 8547SOL     OW26539   0.666   6.617   6.143
 8547SOL    HW126540   0.640   6.683   6.072
 8547SOL    HW226541   0.685   6.666   6.228
 8548SOL     OW26542   5.844   2.884   4.849
 8548SOL    HW126543   5.935   2.844   4.842
 8548SOL    HW226544   5.849   2.982   4.829
 8549SOL     OW26545   0.472   3.775   4.021
 8549SOL    HW126546   0.487   3.809   4.114
 8549SOL    HW226547   0.495   3.677   4.018
 8550SOL     OW26548   2.073   4.565   6.182
 8550SOL    HW126549   2.049   4.534   6.274
 8550SOL    HW226550   2.142   4.637   6.187
 8551SOL     OW26551   3.700   4.111   6.528
 8551SOL    HW126552   3.798   4.095   6.522
 8551SOL    HW226553   3.653   4.053   6.461
 8552SOL     OW26554   2.910   6.147   4.228
 8552SOL    HW126555   2.909   6.178   4.323
 8552SOL    HW226556   2.873   6.053   4.223
 8553SOL     OW26557   5.383   5.765   6.756
 8553SOL    HW126558   5.470   5.775   6.804
 8553SOL    HW226559   5.338   5.680   6.787
 8554SOL     OW26560   0.701   4.846   0.407
 8554SOL    HW126561   0.668   4.937   0.434
 8554SOL    HW226562   0.630   4.778   0.426
 8555SOL     OW26563   1.118   0.615   3.219
 8555SOL    HW126564   1.193   0.550   3.205
 8555SOL    HW226565   1.062   0.619   3.136
 8556SOL     OW26566   0.833   6.713   3.274
 8556SOL    HW126567   0.879   6.760   3.198
 8556SOL    HW226568   0.851   6.614   3.267
 8557SOL     OW26569   6.559   1.435   1.987
 8557SOL    HW126570   6.598   1.345   1.966
 8557SOL    HW226571   6.616   1.507   1.947
 8558SOL     OW26572   2.627   5.752   2.951
 8558SOL    HW126573   2.566   5.830   2.962
 8558SOL    HW226574   2.690   5.769   2.876
 8559SOL     OW26575   6.234   0.737   2.522
 8559SOL    HW126576   6.315   0.778   2.563
 8559SOL    HW226577   6.199   0.796   2.450
 8560SOL     OW26578   6.662   0.182   1.292
 8560SOL    HW126579   6.732   0.159   1.360
 8560SOL    HW226580   6.611   0.262   1.324
 8561SOL     OW26581   3.543   6.266   2.181
 8561SOL    HW126582   3.581   6.282   2.090
 8561SOL    HW226583   3.444   6.285   2.179
 8562SOL     OW26584   5.139   6.916   5.010
 8562SOL    HW126585   5.164   6.958   4.923
 8562SOL    HW226586   5.126   6.818   4.997
 8563SOL     OW26587   2.461   3.059   6.667
 8563SOL    HW126588   2.365   3.034   6.676
 8563SOL    HW226589   2.498   3.021   6.583
 8564SOL     OW26590   2.273   0.983   3.423
 8564SOL    HW126591   2.280   0.896   3.472
 8564SOL    HW226592   2.348   0.990   3.357
 8565SOL     OW26593   4.771   6.988   1.445
 8565SOL    HW126594   4.754   7.025   1.353
 8565SOL    HW226595   4.685   6.982   1.495
 8566SOL     OW26596   0.878   1.156   2.416
 8566SOL    HW126597   0.970   1.196   2.419
 8566SOL    HW226598   0.879   1.068   2.465
 8567SOL     OW26599   6.911   1.552   1.753
 8567SOL    HW126600   6.911   1.634   1.810
 8567SOL    HW226601   6.836   1.558   1.686
 8568SOL     OW26602   4.606   1.206   6.536
 8568SOL    HW126603   4.547   1.268   6.484
 8568SOL    HW226604   4.559   1.175   6.619
 8569SOL     OW26605   4.923   1.562   5.683
 8569SOL    HW126606   4.894   1.640   5.739
 8569SOL    HW226607   5.013   1.531   5.713
 8570SOL     OW26608   1.078   2.644   6.150
 8570SOL    HW126609   0.992   2.592   6.159
 8570SOL    HW226610   1.147   2.585   6.109
 8571SOL     OW26611   6.893   5.475   5.893
 8571SOL    HW126612   6.993   5.474   5.890
 8571SOL    HW226613   6.861   5.429   5.975
 8572SOL     OW26614   3.104   5.340   5.971
 8572SOL    HW126615   3.151   5.288   6.042
 8572SOL    HW226616   3.142   5.317   5.882
 8573SOL     OW26617   3.855   6.066   6.665
 8573SOL    HW126618   3.838   6.055   6.763
 8573SOL    HW226619   3.786   6.127   6.626
 8574SOL     OW26620   0.248   4.845   5.451
 8574SOL    HW126621   0.221   4.899   5.371
 8574SOL    HW226622   0.266   4.751   5.423
 8575SOL     OW26623   2.803   2.593   0.141
 8575SOL    HW126624   2.765   2.656   0.208
 8575SOL    HW226625   2.792   2.499   0.173
 8576SOL     OW26626   0.842   6.746   0.768
 8576SOL    HW126627   0.930   6.787   0.794
 8576SOL    HW226628   0.858   6.673   0.702
 8577SOL     OW26629   6.215   5.132   4.629
 8577SOL    HW126630   6.246   5.215   4.676
 8577SOL    HW226631   6.221   5.054   4.691
 8578SOL     OW26632   4.978   0.653   3.830
 8578SOL    HW126633   4.964   0.686   3.923
 8578SOL    HW226634   4.983   0.730   3.767
 8579SOL     OW26635   1.505   5.654   3.675
 8579SOL    HW126636   1.516   5.557   3.698
 8579SOL    HW226637   1.568   5.709   3.730
 8580SOL     OW26638   2.490   6.899   1.945
 8580SOL    HW126639   2.443   6.987   1.937
 8580SOL    HW226640   2.515   6.883   2.040
 8581SOL     OW26641   3.163   2.723   1.707
 8581SOL    HW126642   3.211   2.784   1.770
 8581SOL    HW226643   3.217   2.639   1.696
 8582SOL     OW26644   4.685   4.530   2.633
 8582SOL    HW126645   4.634   4.543   2.547
 8582SOL    HW226646   4.764   4.472   2.615
 8583SOL     OW26647   6.033   0.758   6.035
 8583SOL    HW126648   6.117   0.705   6.023
 8583SOL    HW226649   5.962   0.721   5.976
 8584SOL     OW26650   0.581   3.936   6.718
 8584SOL    HW126651   0.675   3.963   6.738
 8584SOL    HW226652   0.545   3.993   6.645
 8585SOL     OW26653   6.808   6.926   0.570
 8585SOL    HW126654   6.827   6.972   0.484
 8585SOL    HW226655   6.720   6.956   0.606
 8586SOL     OW26656   2.517   6.503   3.024
 8586SOL    HW126657   2.597   6.562   3.037
 8586SOL    HW226658   2.456   6.512   3.103
 8587SOL     OW26659   0.933   0.216   2.932
 8587SOL    HW126660   0.976   0.265   2.857
 8587SOL    HW226661   0.834   0.225   2.926
 8588SOL     OW26662   2.784   0.808   0.119
 8588SOL    HW126663   2.761   0.813   0.021
 8588SOL    HW226664   2.701   0.788   0.171
 8589SOL     OW26665   4.239   1.904   4.664
 8589SOL    HW126666   4.213   1.904   4.760
 8589SOL    HW226667   4.297   1.983   4.645
 8590SOL     OW26668   6.746   5.959   4.407
 8590SOL    HW126669   6.649   5.947   4.382
 8590SOL    HW226670   6.779   5.877   4.453
 8591SOL     OW26671   0.624   4.450   6.299
 8591SOL    HW126672   0.709   4.429   6.251
 8591SOL    HW226673   0.632   4.540   6.342
 8592SOL     OW26674   7.021   4.220   0.114
 8592SOL    HW126675   0.059   4.287   0.073
 8592SOL    HW226676   0.049   4.154   0.168
 8593SOL     OW26677   1.158   6.733   1.931
 8593SOL    HW126678   1.241   6.760   1.980
 8593SOL    HW226679   1.128   6.644   1.965
 8594SOL     OW26680   3.382   3.753   5.068
 8594SOL    HW126681   3.394   3.660   5.032
 8594SOL    HW226682   3.464   3.807   5.048
 8595SOL     OW26683   2.218   1.470   2.556
 8595SOL    HW126684   2.276   1.389   2.550
 8595SOL    HW226685   2.242   1.523   2.637
 8596SOL     OW26686   6.202   5.284   2.058
 8596SOL    HW126687   6.246   5.295   2.147
 8596SOL    HW226688   6.130   5.214   2.064
 8597SOL     OW26689   3.990   2.236   1.295
 8597SOL    HW126690   3.928   2.257   1.370
 8597SOL    HW226691   3.966   2.148   1.254
 8598SOL     OW26692   0.132   5.666   1.411
 8598SOL    HW126693   0.046   5.679   1.460
 8598SOL    HW226694   0.207   5.706   1.463
 8599SOL     OW26695   1.075   2.955   3.998
 8599SOL    HW126696   1.061   3.016   4.075
 8599SOL    HW226697   1.168   2.966   3.963
 8600SOL     OW26698   5.727   4.987   6.805
 8600SOL    HW126699   5.713   4.900   6.758
 8600SOL    HW226700   5.796   5.041   6.755
 8601SOL     OW26701   0.672   0.916   4.688
 8601SOL    HW126702   0.738   0.918   4.763
 8601SOL    HW226703   0.621   1.002   4.686
 8602SOL     OW26704   2.196   6.543   2.555
 8602SOL    HW126705   2.245   6.456   2.563
 8602SOL    HW226706   2.126   6.535   2.484
 8603SOL     OW26707   3.833   4.067   0.398
 8603SOL    HW126708   3.817   4.061   0.496
 8603SOL    HW226709   3.863   4.159   0.375
 8604SOL     OW26710   6.120   3.087   3.360
 8604SOL    HW126711   6.202   3.088   3.302
 8604SOL    HW226712   6.065   3.007   3.337
 8605SOL     OW26713   3.212   4.957   4.304
 8605SOL    HW126714   3.163   4.899   4.368
 8605SOL    HW226715   3.311   4.944   4.315
 8606SOL     OW26716   2.329   4.409   5.831
 8606SOL    HW126717   2.420   4.437   5.799
 8606SOL    HW226718   2.276   4.374   5.753
 8607SOL     OW26719   3.217   5.045   1.087
 8607SOL    HW126720   3.255   4.983   1.156
 8607SOL    HW226721   3.224   5.140   1.120
 8608SOL     OW26722   4.710   4.734   3.059
 8608SOL    HW126723   4.668   4.819   3.090
 8608SOL    HW226724   4.766   4.752   2.978
 8609SOL     OW26725   4.156   0.873   4.114
 8609SOL    HW126726   4.216   0.819   4.174
 8609SOL    HW226727   4.061   0.853   4.136
 8610SOL     OW26728   1.425   0.093   2.851
 8610SOL    HW126729   1.390   0.149   2.776
 8610SOL    HW226730   1.438   7.024   2.819
 8611SOL     OW26731   1.638   2.241   3.902
 8611SOL    HW126732   1.684   2.320   3.861
 8611SOL    HW226733   1.684   2.157   3.872
 8612SOL     OW26734   3.209   3.184   6.602
 8612SOL    HW126735   3.207   3.278   6.637
 8612SOL    HW226736   3.153   3.178   6.519
 8613SOL     OW26737   2.308   1.263   1.318
 8613SOL    HW126738   2.340   1.356   1.301
 8613SOL    HW226739   2.237   1.239   1.252
 8614SOL     OW26740   1.050   3.817   2.659
 8614SOL    HW126741   0.981   3.767   2.711
 8614SOL    HW226742   1.133   3.827   2.715
 8615SOL     OW26743   5.087   1.969   5.012
 8615SOL    HW126744   5.089   2.025   4.929
 8615SOL    HW226745   5.096   1.872   4.988
 8616SOL     OW26746   0.723   5.126   0.712
 8616SOL    HW126747   0.707   5.224   0.718
 8616SOL    HW226748   0.671   5.088   0.635
 8617SOL     OW26749   6.246   1.622   0.428
 8617SOL    HW126750   6.301   1.701   0.401
 8617SOL    HW226751   6.214   1.573   0.346
 8618SOL     OW26752   5.018   0.107   1.410
 8618SOL    HW126753   5.033   0.114   1.311
 8618SOL    HW226754   4.920   0.092   1.427
 8619SOL     OW26755   3.806   4.741   0.383
 8619SOL    HW126756   3.768   4.778   0.468
 8619SOL    HW226757   3.741   4.678   0.342
 8620SOL     OW26758   6.220   6.653   3.161
 8620SOL    HW126759   6.194   6.715   3.087
 8620SOL    HW226760   6.303   6.686   3.205
 8621SOL     OW26761   6.168   1.461   3.515
 8621SOL    HW126762   6.140   1.408   3.595
 8621SOL    HW226763   6.108   1.439   3.438
 8622SOL     OW26764   4.649   4.675   0.516
 8622SOL    HW126765   4.671   4.586   0.554
 8622SOL    HW226766   4.554   4.675   0.484
 8623SOL     OW26767   0.481   4.200   3.173
 8623SOL    HW126768   0.545   4.275   3.156
 8623SOL    HW226769   0.515   4.143   3.248
 8624SOL     OW26770   1.201   4.906   3.945
 8624SOL    HW126771   1.119   4.855   3.919
 8624SOL    HW226772   1.221   4.889   4.042
 8625SOL     OW26773   4.631   0.610   4.110
 8625SOL    HW126774   4.584   0.689   4.070
 8625SOL    HW226775   4.728   0.633   4.123
 8626SOL     OW26776   4.051   3.159   4.446
 8626SOL    HW126777   4.038   3.239   4.388
 8626SOL    HW226778   4.095   3.186   4.532
 8627SOL     OW26779   1.317   0.231   2.628
 8627SOL    HW126780   1.326   0.187   2.539
 8627SOL    HW226781   1.370   0.316   2.629
 8628SOL     OW26782   6.260   6.866   1.252
 8628SOL    HW126783   6.186   6.900   1.311
 8628SOL    HW226784   6.344   6.917   1.272
 8629SOL     OW26785   1.606   5.381   4.668
 8629SOL    HW126786   1.689   5.345   4.625
 8629SOL    HW226787   1.622   5.475   4.697
 8630SOL     OW26788   6.107   3.983   4.920
 8630SOL    HW126789   6.203   3.954   4.918
 8630SOL    HW226790   6.077   4.001   4.826
 8631SOL     OW26791   4.227   6.275   6.513
 8631SOL    HW126792   4.214   6.374   6.510
 8631SOL    HW226793   4.200   6.241   6.603
 8632SOL     OW26794   3.483   6.329   3.761
 8632SOL    HW126795   3.484   6.230   3.743
 8632SOL    HW226796   3.503   6.345   3.858
 8633SOL     OW26797   5.105   1.192   4.260
 8633SOL    HW126798   5.190   1.215   4.307
 8633SOL    HW226799   5.047   1.139   4.320
 8634SOL     OW26800   6.365   2.851   0.966
 8634SOL    HW126801   6.268   2.831   0.978
 8634SOL    HW226802   6.403   2.791   0.895
 8635SOL     OW26803   6.102   3.856   6.051
 8635SOL    HW126804   6.108   3.778   5.989
 8635SOL    HW226805   6.055   3.932   6.005
 8636SOL     OW26806   5.492   5.196   6.958
 8636SOL    HW126807   5.528   5.107   6.929
 8636SOL    HW226808   5.396   5.203   6.933
 8637SOL     OW26809   1.601   0.504   0.776
 8637SOL    HW126810   1.590   0.450   0.693
 8637SOL    HW226811   1.632   0.596   0.751
 8638SOL     OW26812   1.956   3.446   0.440
 8638SOL    HW126813   2.001   3.531   0.466
 8638SOL    HW226814   1.973   3.428   0.343
 8639SOL     OW26815   6.020   2.765   1.750
 8639SOL    HW126816   5.974   2.684   1.714
 8639SOL    HW226817   5.976   2.847   1.714
 8640SOL     OW26818   4.753   4.113   0.599
 8640SOL    HW126819   4.785   4.088   0.508
 8640SOL    HW226820   4.824   4.092   0.666
 8641SOL     OW26821   6.792   4.202   4.660
 8641SOL    HW126822   6.826   4.112   4.630
 8641SOL    HW226823   6.859   4.243   4.722
 8642SOL     OW26824   4.071   0.459   2.364
 8642SOL    HW126825   4.159   0.414   2.377
 8642SOL    HW226826   3.997   0.395   2.384
 8643SOL     OW26827   4.070   6.715   6.979
 8643SOL    HW126828   4.162   6.737   6.948
 8643SOL    HW226829   4.015   6.798   6.985
 8644SOL     OW26830   4.866   2.299   5.844
 8644SOL    HW126831   4.867   2.396   5.820
 8644SOL    HW226832   4.810   2.249   5.778
 8645SOL     OW26833   5.366   4.738   1.738
 8645SOL    HW126834   5.372   4.790   1.653
 8645SOL    HW226835   5.274   4.697   1.745
 8646SOL     OW26836   5.837   1.114   1.170
 8646SOL    HW126837   5.914   1.177   1.183
 8646SOL    HW226838   5.825   1.096   1.072
 8647SOL     OW26839   3.946   4.611   6.157
 8647SOL    HW126840   4.026   4.619   6.217
 8647SOL    HW226841   3.953   4.677   6.082
 8648SOL     OW26842   5.712   1.514   4.863
 8648SOL    HW126843   5.643   1.553   4.802
 8648SOL    HW226844   5.764   1.444   4.813
 8649SOL     OW26845   5.643   5.177   5.865
 8649SOL    HW126846   5.654   5.088   5.821
 8649SOL    HW226847   5.566   5.226   5.824
 8650SOL     OW26848   1.502   4.973   4.809
 8650SOL    HW126849   1.429   5.006   4.869
 8650SOL    HW226850   1.518   4.876   4.826
 8651SOL     OW26851   4.035   0.682   0.650
 8651SOL    HW126852   4.057   0.601   0.704
 8651SOL    HW226853   3.936   0.696   0.651
 8652SOL     OW26854   1.635   4.541   3.201
 8652SOL    HW126855   1.546   4.568   3.239
 8652SOL    HW226856   1.628   4.535   3.101
 8653SOL     OW26857   5.992   2.358   5.996
 8653SOL    HW126858   6.064   2.419   5.963
 8653SOL    HW226859   6.017   2.263   5.978
 8654SOL     OW26860   0.865   6.271   1.971
 8654SOL    HW126861   0.858   6.360   2.016
 8654SOL    HW226862   0.959   6.254   1.945
 8655SOL     OW26863   5.896   0.769   3.572
 8655SOL    HW126864   5.832   0.722   3.512
 8655SOL    HW226865   5.947   0.702   3.626
 8656SOL     OW26866   6.425   1.648   1.323
 8656SOL    HW126867   6.339   1.662   1.274
 8656SOL    HW226868   6.463   1.737   1.350
 8657SOL     OW26869   4.540   4.995   6.726
 8657SOL    HW126870   4.517   5.007   6.823
 8657SOL    HW226871   4.607   4.921   6.717
 8658SOL     OW26872   4.603   5.807   0.398
 8658SOL    HW126873   4.656   5.892   0.393
 8658SOL    HW226874   4.665   5.731   0.416
 8659SOL     OW26875   4.739   1.195   3.139
 8659SOL    HW126876   4.760   1.284   3.098
 8659SOL    HW226877   4.641   1.189   3.157
 8660SOL     OW26878   4.862   3.610   0.696
 8660SOL    HW126879   4.874   3.703   0.731
 8660SOL    HW226880   4.789   3.564   0.746
 8661SOL     OW26881   5.806   3.849   1.784
 8661SOL    HW126882   5.836   3.774   1.843
 8661SOL    HW226883   5.810   3.935   1.835
 8662SOL     OW26884   4.964   6.268   1.906
 8662SOL    HW126885   5.042   6.219   1.946
 8662SOL    HW226886   4.948   6.233   1.813
 8663SOL     OW26887   2.538   5.705   0.700
 8663SOL    HW126888   2.625   5.668   0.733
 8663SOL    HW226889   2.464   5.644   0.726
 8664SOL     OW26890   3.533   5.126   0.680
 8664SOL    HW126891   3.493   5.087   0.763
 8664SOL    HW226892   3.508   5.223   0.673
 8665SOL     OW26893   5.373   5.298   5.136
 8665SOL    HW126894   5.468   5.284   5.165
 8665SOL    HW226895   5.368   5.373   5.071
 8666SOL     OW26896   5.413   2.738   5.002
 8666SOL    HW126897   5.503   2.694   4.990
 8666SOL    HW226898   5.386   2.782   4.917
 8667SOL     OW26899   4.725   2.390   3.017
 8667SOL    HW126900   4.680   2.335   3.087
 8667SOL    HW226901   4.729   2.339   2.931
 8668SOL     OW26902   5.100   2.605   3.889
 8668SOL    HW126903   5.020   2.621   3.831
 8668SOL    HW226904   5.119   2.507   3.894
 8669SOL     OW26905   2.857   7.019   6.856
 8669SOL    HW126906   2.886   6.964   6.778
 8669SOL    HW226907   2.762   0.025   6.842
 8670SOL     OW26908   3.345   4.842   5.193
 8670SOL    HW126909   3.249   4.825   5.214
 8670SOL    HW226910   3.402   4.776   5.241
 8671SOL     OW26911   5.729   1.112   3.836
 8671SOL    HW126912   5.692   1.198   3.872
 8671SOL    HW226913   5.828   1.119   3.826
 8672SOL     OW26914   2.497   6.029   4.158
 8672SOL    HW126915   2.547   5.978   4.088
 8672SOL    HW226916   2.552   6.107   4.188
 8673SOL     OW26917   0.225   1.159   6.873
 8673SOL    HW126918   0.243   1.105   6.955
 8673SOL    HW226919   0.129   1.187   6.872
 8674SOL     OW26920   6.600   6.061   1.301
 8674SOL    HW126921   6.671   6.043   1.369
 8674SOL    HW226922   6.642   6.066   1.210
 8675SOL     OW26923   3.500   2.047   3.975
 8675SOL    HW126924   3.595   2.080   3.981
 8675SOL    HW226925   3.476   2.001   4.061
 8676SOL     OW26926   3.516   0.092   3.293
 8676SOL    HW126927   3.586   0.134   3.351
 8676SOL    HW226928   3.436   0.152   3.287
 8677SOL     OW26929   1.997   5.425   5.934
 8677SOL    HW126930   1.953   5.344   5.896
 8677SOL    HW226931   2.096   5.414   5.931
 8678SOL     OW26932   0.121   0.269   0.483
 8678SOL    HW126933   0.048   0.299   0.543
 8678SOL    HW226934   0.145   0.174   0.504
 8679SOL     OW26935   6.343   2.979   4.907
 8679SOL    HW126936   6.407   2.932   4.969
 8679SOL    HW226937   6.252   2.937   4.916
 8680SOL     OW26938   0.558   3.576   0.894
 8680SOL    HW126939   0.604   3.659   0.926
 8680SOL    HW226940   0.460   3.592   0.891
 8681SOL     OW26941   4.391   4.660   0.409
 8681SOL    HW126942   4.304   4.621   0.380
 8681SOL    HW226943   4.414   4.739   0.352
 8682SOL     OW26944   3.908   6.895   2.717
 8682SOL    HW126945   3.886   6.927   2.624
 8682SOL    HW226946   3.825   6.897   2.773
 8683SOL     OW26947   1.200   2.563   1.869
 8683SOL    HW126948   1.278   2.621   1.892
 8683SOL    HW226949   1.198   2.485   1.931
 8684SOL     OW26950   0.591   3.185   4.817
 8684SOL    HW126951   0.622   3.264   4.870
 8684SOL    HW226952   0.669   3.142   4.772
 8685SOL     OW26953   1.251   2.526   5.604
 8685SOL    HW126954   1.157   2.502   5.629
 8685SOL    HW226955   1.306   2.535   5.687
 8686SOL     OW26956   6.693   2.005   2.023
 8686SOL    HW126957   6.652   2.091   2.054
 8686SOL    HW226958   6.713   2.012   1.925
 8687SOL     OW26959   3.355   6.176   2.964
 8687SOL    HW126960   3.310   6.093   2.930
 8687SOL    HW226961   3.372   6.167   3.062
 8688SOL     OW26962   2.528   6.234   0.105
 8688SOL    HW126963   2.525   6.279   0.016
 8688SOL    HW226964   2.544   6.303   0.177
 8689SOL     OW26965   3.452   5.062   0.050
 8689SOL    HW126966   3.477   4.973   0.088
 8689SOL    HW226967   3.357   5.060   0.020
 8690SOL     OW26968   1.806   2.647   3.595
 8690SOL    HW126969   1.859   2.712   3.651
 8690SOL    HW226970   1.711   2.646   3.627
 8691SOL     OW26971   4.229   2.478   6.207
 8691SOL    HW126972   4.143   2.472   6.156
 8691SOL    HW226973   4.259   2.573   6.210
 8692SOL     OW26974   3.462   2.144   2.474
 8692SOL    HW126975   3.377   2.183   2.438
 8692SOL    HW226976   3.525   2.125   2.399
 8693SOL     OW26977   5.533   2.037   0.915
 8693SOL    HW126978   5.550   1.993   1.003
 8693SOL    HW226979   5.504   1.969   0.848
 8694SOL     OW26980   4.058   1.086   6.520
 8694SOL    HW126981   4.089   1.002   6.475
 8694SOL    HW226982   3.960   1.098   6.505
 8695SOL     OW26983   4.153   2.694   5.975
 8695SOL    HW126984   4.224   2.664   5.912
 8695SOL    HW226985   4.063   2.681   5.933
 8696SOL     OW26986   3.315   5.967   1.088
 8696SOL    HW126987   3.272   6.008   1.168
 8696SOL    HW226988   3.255   5.976   1.008
 8697SOL     OW26989   6.492   3.821   0.744
 8697SOL    HW126990   6.533   3.756   0.681
 8697SOL    HW226991   6.508   3.914   0.711
 8698SOL     OW26992   5.767   6.067   4.004
 8698SOL    HW126993   5.763   5.998   4.076
 8698SOL    HW226994   5.698   6.137   4.021
 8699SOL     OW26995   1.612   2.367   5.331
 8699SOL    HW126996   1.607   2.325   5.421
 8699SOL    HW226997   1.527   2.418   5.313
 8700SOL     OW26998   2.571   1.228   4.561
 8700SOL    HW126999   2.589   1.138   4.600
 8700SOL    HW227000   2.482   1.227   4.515
 8701SOL     OW27001   1.328   0.615   6.987
 8701SOL    HW127002   1.353   0.627   6.891
 8701SOL    HW227003   1.267   0.537   6.996
 8702SOL     OW27004   5.474   4.670   6.987
 8702SOL    HW127005   5.536   4.594   7.005
 8702SOL    HW227006   5.387   4.634   6.953
 8703SOL     OW27007   2.637   5.228   1.299
 8703SOL    HW127008   2.576   5.305   1.320
 8703SOL    HW227009   2.726   5.264   1.272
 8704SOL     OW27010   5.990   3.495   2.567
 8704SOL    HW127011   5.897   3.459   2.569
 8704SOL    HW227012   6.010   3.529   2.475
 8705SOL     OW27013   4.810   1.151   0.876
 8705SOL    HW127014   4.809   1.051   0.866
 8705SOL    HW227015   4.746   1.177   0.948
 8706SOL     OW27016   4.612   2.328   5.936
 8706SOL    HW127017   4.577   2.310   6.028
 8706SOL    HW227018   4.710   2.304   5.932
 8707SOL     OW27019   5.060   2.387   6.790
 8707SOL    HW127020   4.969   2.412   6.823
 8707SOL    HW227021   5.112   2.346   6.864
 8708SOL     OW27022   4.482   2.366   2.357
 8708SOL    HW127023   4.508   2.459   2.385
 8708SOL    HW227024   4.410   2.332   2.417
 8709SOL     OW27025   6.866   5.924   6.561
 8709SOL    HW127026   6.842   5.927   6.658
 8709SOL    HW227027   6.938   5.992   6.543
 8710SOL     OW27028   2.095   3.696   2.916
 8710SOL    HW127029   2.074   3.626   2.983
 8710SOL    HW227030   2.104   3.655   2.826
 8711SOL     OW27031   6.980   6.180   2.322
 8711SOL    HW127032   0.021   6.207   2.251
 8711SOL    HW227033   7.010   6.095   2.365
 8712SOL     OW27034   4.086   2.229   4.183
 8712SOL    HW127035   4.160   2.254   4.121
 8712SOL    HW227036   4.121   2.225   4.277
 8713SOL     OW27037   0.394   3.981   3.449
 8713SOL    HW127038   0.429   3.888   3.464
 8713SOL    HW227039   0.450   4.047   3.498
 8714SOL     OW27040   0.348   0.809   5.768
 8714SOL    HW127041   0.347   0.749   5.849
 8714SOL    HW227042   0.297   0.892   5.787
 8715SOL     OW27043   4.940   0.143   0.865
 8715SOL    HW127044   4.886   0.066   0.832
 8715SOL    HW227045   4.882   0.225   0.870
 8716SOL     OW27046   0.808   0.564   1.652
 8716SOL    HW127047   0.802   0.511   1.568
 8716SOL    HW227048   0.772   0.656   1.635
 8717SOL     OW27049   4.146   3.300   3.073
 8717SOL    HW127050   4.146   3.219   3.015
 8717SOL    HW227051   4.156   3.272   3.169
 8718SOL     OW27052   1.146   2.877   5.323
 8718SOL    HW127053   1.130   2.867   5.225
 8718SOL    HW227054   1.068   2.924   5.365
 8719SOL     OW27055   2.157   0.026   6.155
 8719SOL    HW127056   2.132   0.122   6.141
 8719SOL    HW227057   2.075   6.998   6.174
 8720SOL     OW27058   6.416   5.304   5.824
 8720SOL    HW127059   6.317   5.297   5.837
 8720SOL    HW227060   6.444   5.244   5.749
 8721SOL     OW27061   5.343   1.935   3.900
 8721SOL    HW127062   5.434   1.914   3.863
 8721SOL    HW227063   5.279   1.864   3.870
 8722SOL     OW27064   3.804   0.574   0.868
 8722SOL    HW127065   3.745   0.501   0.832
 8722SOL    HW227066   3.751   0.634   0.928
 8723SOL     OW27067   5.431   5.984   1.392
 8723SOL    HW127068   5.510   5.949   1.342
 8723SOL    HW227069   5.387   5.910   1.442
 8724SOL     OW27070   6.052   6.939   4.812
 8724SOL    HW127071   5.979   6.985   4.863
 8724SOL    HW227072   6.124   7.005   4.791
 8725SOL     OW27073   2.631   0.129   6.796
 8725SOL    HW127074   2.569   0.193   6.841
 8725SOL    HW227075   2.578   0.052   6.760
 8726SOL     OW27076   6.349   1.013   1.679
 8726SOL    HW127077   6.289   0.934   1.666
 8726SOL    HW227078   6.301   1.096   1.650
 8727SOL     OW27079   6.659   6.878   2.020
 8727SOL    HW127080   6.591   6.806   2.012
 8727SOL    HW227081   6.740   6.842   2.066
 8728SOL     OW27082   4.088   6.920   4.558
 8728SOL    HW127083   4.055   6.871   4.477
 8728SOL    HW227084   4.154   6.862   4.607
 8729SOL     OW27085   4.655   6.114   3.286
 8729SOL    HW127086   4.754   6.107   3.296
 8729SOL    HW227087   4.615   6.145   3.372
 8730SOL     OW27088   6.504   4.898   2.648
 8730SOL    HW127089   6.498   4.927   2.744
 8730SOL    HW227090   6.493   4.799   2.642
 8731SOL     OW27091   1.945   1.746   2.804
 8731SOL    HW127092   1.929   1.657   2.761
 8731SOL    HW227093   1.973   1.733   2.899
 8732SOL     OW27094   4.929   4.710   1.898
 8732SOL    HW127095   4.864   4.634   1.886
 8732SOL    HW227096   5.004   4.700   1.833
 8733SOL     OW27097   1.223   5.763   3.237
 8733SOL    HW127098   1.250   5.672   3.269
 8733SOL    HW227099   1.291   5.797   3.172
 8734SOL     OW27100   0.568   4.274   2.200
 8734SOL    HW127101   0.488   4.229   2.241
 8734SOL    HW227102   0.590   4.356   2.251
 8735SOL     OW27103   0.918   1.381   0.140
 8735SOL    HW127104   0.870   1.368   0.227
 8735SOL    HW227105   0.955   1.293   0.109
 8736SOL     OW27106   0.674   6.633   7.023
 8736SOL    HW127107   0.730   6.575   0.058
 8736SOL    HW227108   0.679   6.727   0.031
 8737SOL     OW27109   2.789   6.664   5.937
 8737SOL    HW127110   2.799   6.571   5.900
 8737SOL    HW227111   2.751   6.724   5.867
 8738SOL     OW27112   2.093   4.309   3.763
 8738SOL    HW127113   2.192   4.318   3.775
 8738SOL    HW227114   2.061   4.228   3.812
 8739SOL     OW27115   6.111   5.309   5.852
 8739SOL    HW127116   6.089   5.307   5.754
 8739SOL    HW227117   6.060   5.236   5.898
 8740SOL     OW27118   4.444   1.431   5.388
 8740SOL    HW127119   4.514   1.363   5.369
 8740SOL    HW227120   4.450   1.505   5.321
 8741SOL     OW27121   2.217   0.898   2.250
 8741SOL    HW127122   2.237   0.987   2.211
 8741SOL    HW227123   2.245   0.826   2.186
 8742SOL     OW27124   5.552   5.531   1.502
 8742SOL    HW127125   5.607   5.577   1.432
 8742SOL    HW227126   5.502   5.455   1.461
 8743SOL     OW27127   2.143   6.776   2.731
 8743SOL    HW127128   2.166   6.706   2.664
 8743SOL    HW227129   2.189   6.757   2.818
 8744SOL     OW27130   3.784   2.220   6.518
 8744SOL    HW127131   3.728   2.302   6.526
 8744SOL    HW227132   3.869   2.232   6.571
 8745SOL     OW27133   6.427   2.347   6.245
 8745SOL    HW127134   6.389   2.255   6.234
 8745SOL    HW227135   6.416   2.375   6.341
 8746SOL     OW27136   4.453   4.234   5.286
 8746SOL    HW127137   4.521   4.214   5.216
 8746SOL    HW227138   4.401   4.315   5.258
 8747SOL     OW27139   0.577   2.738   3.193
 8747SOL    HW127140   0.595   2.641   3.209
 8747SOL    HW227141   0.648   2.793   3.236
 8748SOL     OW27142   0.046   1.297   6.619
 8748SOL    HW127143   0.102   1.239   6.560
 8748SOL    HW227144   6.977   1.263   6.620
 8749SOL     OW27145   2.662   6.927   5.308
 8749SOL    HW127146   2.707   6.932   5.219
 8749SOL    HW227147   2.582   6.988   5.308
 8750SOL     OW27148   2.956   3.359   5.196
 8750SOL    HW127149   3.005   3.285   5.151
 8750SOL    HW227150   2.859   3.337   5.201
 8751SOL     OW27151   6.348   7.005   2.113
 8751SOL    HW127152   6.395   7.003   2.202
 8751SOL    HW227153   6.310   6.915   2.095
 8752SOL     OW27154   2.826   4.449   6.818
 8752SOL    HW127155   2.730   4.421   6.816
 8752SOL    HW227156   2.879   4.383   6.871
 8753SOL     OW27157   5.085   1.382   4.496
 8753SOL    HW127158   5.032   1.311   4.451
 8753SOL    HW227159   5.135   1.435   4.427
 8754SOL     OW27160   1.308   1.506   5.767
 8754SOL    HW127161   1.217   1.482   5.799
 8754SOL    HW227162   1.373   1.503   5.843
 8755SOL     OW27163   2.536   1.229   6.758
 8755SOL    HW127164   2.516   1.301   6.691
 8755SOL    HW227165   2.566   1.271   6.844
 8756SOL     OW27166   1.977   3.495   3.090
 8756SOL    HW127167   2.012   3.402   3.101
 8756SOL    HW227168   1.955   3.533   3.180
 8757SOL     OW27169   5.516   6.842   5.860
 8757SOL    HW127170   5.527   6.764   5.921
 8757SOL    HW227171   5.442   6.900   5.892
 8758SOL     OW27172   4.875   6.287   2.168
 8758SOL    HW127173   4.932   6.336   2.235
 8758SOL    HW227174   4.915   6.297   2.077
 8759SOL     OW27175   4.057   2.041   6.373
 8759SOL    HW127176   4.073   2.086   6.460
 8759SOL    HW227177   3.996   2.097   6.317
 8760SOL     OW27178   2.282   1.828   4.942
 8760SOL    HW127179   2.189   1.829   4.904
 8760SOL    HW227180   2.338   1.764   4.890
 8761SOL     OW27181   4.391   0.651   1.106
 8761SOL    HW127182   4.374   0.553   1.107
 8761SOL    HW227183   4.317   0.698   1.155
 8762SOL     OW27184   1.425   3.603   2.815
 8762SOL    HW127185   1.492   3.660   2.767
 8762SOL    HW227186   1.459   3.580   2.906
 8763SOL     OW27187   6.256   5.992   4.701
 8763SOL    HW127188   6.256   5.907   4.649
 8763SOL    HW227189   6.350   6.026   4.710
 8764SOL     OW27190   4.590   1.136   4.193
 8764SOL    HW127191   4.495   1.107   4.182
 8764SOL    HW227192   4.649   1.083   4.132
 8765SOL     OW27193   6.172   6.678   4.779
 8765SOL    HW127194   6.143   6.773   4.796
 8765SOL    HW227195   6.130   6.619   4.847
 8766SOL     OW27196   3.676   4.888   3.281
 8766SOL    HW127197   3.744   4.882   3.209
 8766SOL    HW227198   3.632   4.799   3.293
 8767SOL     OW27199   4.295   0.543   3.178
 8767SOL    HW127200   4.316   0.465   3.119
 8767SOL    HW227201   4.333   0.527   3.269
 8768SOL     OW27202   1.757   2.981   0.196
 8768SOL    HW127203   1.816   3.044   0.246
 8768SOL    HW227204   1.796   2.889   0.198
 8769SOL     OW27205   1.096   0.111   4.797
 8769SOL    HW127206   1.051   0.033   4.843
 8769SOL    HW227207   1.072   0.110   4.700
 8770SOL     OW27208   4.976   4.422   2.088
 8770SOL    HW127209   5.060   4.437   2.037
 8770SOL    HW227210   4.990   4.349   2.156
 8771SOL     OW27211   2.054   0.382   5.878
 8771SOL    HW127212   2.069   0.326   5.797
 8771SOL    HW227213   2.117   0.460   5.876
 8772SOL     OW27214   6.104   6.961   0.396
 8772SOL    HW127215   6.142   7.010   0.475
 8772SOL    HW227216   6.042   7.022   0.347
 8773SOL     OW27217   4.716   2.195   3.500
 8773SOL    HW127218   4.777   2.246   3.560
 8773SOL    HW227219   4.719   2.234   3.408
 8774SOL     OW27220   1.825   1.314   0.670
 8774SOL    HW127221   1.833   1.402   0.717
 8774SOL    HW227222   1.870   1.243   0.724
 8775SOL     OW27223   6.236   0.350   4.063
 8775SOL    HW127224   6.194   0.408   4.132
 8775SOL    HW227225   6.333   0.370   4.057
 8776SOL     OW27226   3.010   3.214   4.810
 8776SOL    HW127227   3.104   3.227   4.844
 8776SOL    HW227228   2.960   3.155   4.874
 8777SOL     OW27229   6.961   4.247   1.095
 8777SOL    HW127230   0.029   4.214   1.078
 8777SOL    HW227231   6.909   4.179   1.146
 8778SOL     OW27232   0.232   2.653   4.231
 8778SOL    HW127233   0.288   2.734   4.242
 8778SOL    HW227234   0.278   2.589   4.169
 8779SOL     OW27235   2.332   5.301   1.994
 8779SOL    HW127236   2.248   5.256   1.963
 8779SOL    HW227237   2.411   5.255   1.953
 8780SOL     OW27238   1.347   5.834   3.533
 8780SOL    HW127239   1.309   5.789   3.452
 8780SOL    HW227240   1.409   5.771   3.580
 8781SOL     OW27241   6.796   2.111   4.213
 8781SOL    HW127242   6.728   2.151   4.276
 8781SOL    HW227243   6.877   2.169   4.210
 8782SOL     OW27244   5.713   0.910   1.314
 8782SOL    HW127245   5.659   0.855   1.250
 8782SOL    HW227246   5.754   0.987   1.266
 8783SOL     OW27247   5.746   3.568   3.848
 8783SOL    HW127248   5.839   3.536   3.829
 8783SOL    HW227249   5.686   3.490   3.861
 8784SOL     OW27250   4.901   4.435   5.074
 8784SOL    HW127251   4.817   4.475   5.037
 8784SOL    HW227252   4.932   4.489   5.153
 8785SOL     OW27253   5.740   3.362   6.985
 8785SOL    HW127254   5.686   3.349   0.044
 8785SOL    HW227255   5.827   3.314   6.993
 8786SOL     OW27256   2.589   6.433   6.930
 8786SOL    HW127257   2.641   6.417   6.846
 8786SOL    HW227258   2.548   6.524   6.928
 8787SOL     OW27259   1.423   2.643   1.989
 8787SOL    HW127260   1.471   2.723   2.024
 8787SOL    HW227261   1.439   2.565   2.049
 8788SOL     OW27262   6.631   1.942   5.534
 8788SOL    HW127263   6.538   1.959   5.501
 8788SOL    HW227264   6.636   1.852   5.578
 8789SOL     OW27265   6.280   0.154   5.533
 8789SOL    HW127266   6.241   0.118   5.449
 8789SOL    HW227267   6.370   0.113   5.549
 8790SOL     OW27268   6.660   1.263   0.633
 8790SOL    HW127269   6.759   1.252   0.632
 8790SOL    HW227270   6.617   1.173   0.643
 8791SOL     OW27271   5.027   6.774   5.482
 8791SOL    HW127272   4.933   6.769   5.515
 8791SOL    HW227273   5.033   6.838   5.406
 8792SOL     OW27274   3.754   6.704   3.279
 8792SOL    HW127275   3.769   6.784   3.221
 8792SOL    HW227276   3.801   6.717   3.366
 8793SOL     OW27277   2.030   5.905   4.057
 8793SOL    HW127278   2.067   5.812   4.052
 8793SOL    HW227279   2.105   5.970   4.072
 8794SOL     OW27280   3.715   6.563   2.026
 8794SOL    HW127281   3.802   6.515   2.016
 8794SOL    HW227282   3.640   6.500   2.009
 8795SOL     OW27283   1.386   6.753   5.069
 8795SOL    HW127284   1.329   6.682   5.028
 8795SOL    HW227285   1.438   6.800   4.997
 8796SOL     OW27286   4.128   1.262   5.217
 8796SOL    HW127287   4.187   1.228   5.290
 8796SOL    HW227288   4.079   1.185   5.175
 8797SOL     OW27289   1.207   6.766   5.682
 8797SOL    HW127290   1.248   6.812   5.603
 8797SOL    HW227291   1.201   6.668   5.664
 8798SOL     OW27292   5.456   4.602   5.346
 8798SOL    HW127293   5.511   4.657   5.282
 8798SOL    HW227294   5.430   4.516   5.301
 8799SOL     OW27295   1.908   5.162   3.250
 8799SOL    HW127296   1.958   5.091   3.300
 8799SOL    HW227297   1.878   5.125   3.162
 8800SOL     OW27298   5.367   3.921   4.800
 8800SOL    HW127299   5.354   3.935   4.898
 8800SOL    HW227300   5.284   3.948   4.751
 8801SOL     OW27301   2.349   1.210   4.390
 8801SOL    HW127302   2.384   1.120   4.365
 8801SOL    HW227303   2.288   1.243   4.318
 8802SOL     OW27304   1.406   0.343   1.151
 8802SOL    HW127305   1.411   0.437   1.118
 8802SOL    HW227306   1.375   0.342   1.246
 8803SOL     OW27307   1.604   4.663   5.842
 8803SOL    HW127308   1.597   4.612   5.756
 8803SOL    HW227309   1.677   4.625   5.898
 8804SOL     OW27310   3.908   0.948   1.987
 8804SOL    HW127311   3.904   1.048   1.977
 8804SOL    HW227312   3.957   0.925   2.071
 8805SOL     OW27313   2.416   0.501   3.751
 8805SOL    HW127314   2.432   0.416   3.801
 8805SOL    HW227315   2.388   0.573   3.816
 8806SOL     OW27316   2.173   5.324   1.452
 8806SOL    HW127317   2.178   5.224   1.442
 8806SOL    HW227318   2.265   5.362   1.442
 8807SOL     OW27319   6.375   6.048   6.397
 8807SOL    HW127320   6.350   5.977   6.331
 8807SOL    HW227321   6.475   6.048   6.409
 8808SOL     OW27322   5.646   1.681   0.834
 8808SOL    HW127323   5.625   1.584   0.845
 8808SOL    HW227324   5.568   1.728   0.793
 8809SOL     OW27325   5.302   4.399   2.304
 8809SOL    HW127326   5.326   4.307   2.335
 8809SOL    HW227327   5.272   4.395   2.209
 8810SOL     OW27328   5.774   1.101   5.359
 8810SOL    HW127329   5.713   1.055   5.423
 8810SOL    HW227330   5.823   1.033   5.304
 8811SOL     OW27331   2.359   1.877   4.039
 8811SOL    HW127332   2.351   1.841   3.946
 8811SOL    HW227333   2.288   1.947   4.054
 8812SOL     OW27334   1.052   0.982   1.050
 8812SOL    HW127335   1.146   0.952   1.031
 8812SOL    HW227336   0.993   0.959   0.973
 8813SOL     OW27337   0.989   4.722   1.726
 8813SOL    HW127338   1.080   4.710   1.766
 8813SOL    HW227339   0.971   4.648   1.661
 8814SOL     OW27340   6.158   1.147   0.627
 8814SOL    HW127341   6.206   1.225   0.588
 8814SOL    HW227342   6.118   1.172   0.715
 8815SOL     OW27343   6.767   6.117   0.759
 8815SOL    HW127344   6.804   6.201   0.799
 8815SOL    HW227345   6.696   6.139   0.692
 8816SOL     OW27346   1.454   0.594   1.052
 8816SOL    HW127347   1.427   0.595   0.956
 8816SOL    HW227348   1.552   0.612   1.059
 8817SOL     OW27349   0.492   5.868   5.860
 8817SOL    HW127350   0.448   5.946   5.815
 8817SOL    HW227351   0.511   5.797   5.793
 8818SOL     OW27352   0.040   3.683   3.373
 8818SOL    HW127353   6.988   3.620   3.386
 8818SOL    HW227354   0.126   3.632   3.379
 8819SOL     OW27355   4.498   5.965   3.769
 8819SOL    HW127356   4.496   5.905   3.849
 8819SOL    HW227357   4.405   5.973   3.732
 8820SOL     OW27358   2.494   2.151   3.941
 8820SOL    HW127359   2.480   2.052   3.944
 8820SOL    HW227360   2.487   2.183   3.847
 8821SOL     OW27361   1.505   6.507   6.675
 8821SOL    HW127362   1.573   6.575   6.649
 8821SOL    HW227363   1.539   6.415   6.653
 8822SOL     OW27364   0.904   0.162   3.399
 8822SOL    HW127365   0.900   0.066   3.425
 8822SOL    HW227366   0.811   0.198   3.390
 8823SOL     OW27367   2.154   0.534   1.038
 8823SOL    HW127368   2.110   0.591   0.969
 8823SOL    HW227369   2.089   0.510   1.110
 8824SOL     OW27370   2.068   3.762   0.753
 8824SOL    HW127371   2.103   3.855   0.747
 8824SOL    HW227372   1.970   3.762   0.731
 8825SOL     OW27373   1.921   0.476   3.547
 8825SOL    HW127374   1.948   0.444   3.456
 8825SOL    HW227375   2.000   0.471   3.609
 8826SOL     OW27376   6.413   2.289   0.451
 8826SOL    HW127377   6.395   2.324   0.543
 8826SOL    HW227378   6.328   2.251   0.413
 8827SOL     OW27379   3.184   1.437   3.335
 8827SOL    HW127380   3.181   1.534   3.356
 8827SOL    HW227381   3.182   1.384   3.420
 8828SOL     OW27382   3.947   5.328   4.202
 8828SOL    HW127383   3.931   5.424   4.179
 8828SOL    HW227384   3.944   5.317   4.302
 8829SOL     OW27385   0.332   2.674   6.957
 8829SOL    HW127386   0.301   2.741   6.890
 8829SOL    HW227387   0.422   2.640   6.931
 8830SOL     OW27388   0.355   1.857   0.714
 8830SOL    HW127389   0.343   1.919   0.636
 8830SOL    HW227390   0.281   1.870   0.779
 8831SOL     OW27391   5.365   1.446   3.510
 8831SOL    HW127392   5.288   1.494   3.468
 8831SOL    HW227393   5.343   1.349   3.518
 8832SOL     OW27394   6.369   6.407   2.692
 8832SOL    HW127395   6.348   6.499   2.724
 8832SOL    HW227396   6.288   6.369   2.645
 8833SOL     OW27397   1.920   6.643   5.560
 8833SOL    HW127398   2.017   6.621   5.574
 8833SOL    HW227399   1.887   6.698   5.637
 8834SOL     OW27400   5.809   3.772   4.598
 8834SOL    HW127401   5.811   3.872   4.607
 8834SOL    HW227402   5.794   3.748   4.502
 8835SOL     OW27403   6.277   0.370   5.679
 8835SOL    HW127404   6.352   0.370   5.745
 8835SOL    HW227405   6.289   0.295   5.615
 8836SOL     OW27406   4.279   0.978   0.019
 8836SOL    HW127407   4.349   0.953   6.978
 8836SOL    HW227408   4.307   0.951   0.111
 8837SOL     OW27409   0.732   6.991   2.516
 8837SOL    HW127410   0.821   0.013   2.521
 8837SOL    HW227411   0.660   0.028   2.547
 8838SOL     OW27412   2.691   5.478   2.843
 8838SOL    HW127413   2.672   5.384   2.873
 8838SOL    HW227414   2.626   5.540   2.887
 8839SOL     OW27415   5.379   5.636   2.326
 8839SOL    HW127416   5.367   5.574   2.249
 8839SOL    HW227417   5.310   5.617   2.396
 8840SOL     OW27418   6.955   2.162   1.947
 8840SOL    HW127419   6.876   2.152   2.008
 8840SOL    HW227420   7.022   2.222   1.990
 8841SOL     OW27421   1.418   0.711   5.370
 8841SOL    HW127422   1.322   0.702   5.396
 8841SOL    HW227423   1.425   0.765   5.286
 8842SOL     OW27424   3.532   2.570   0.476
 8842SOL    HW127425   3.467   2.502   0.443
 8842SOL    HW227426   3.515   2.657   0.429
 8843SOL     OW27427   1.789   2.779   5.507
 8843SOL    HW127428   1.713   2.790   5.443
 8843SOL    HW227429   1.859   2.721   5.464
 8844SOL     OW27430   5.370   1.135   6.833
 8844SOL    HW127431   5.318   1.190   6.899
 8844SOL    HW227432   5.451   1.098   6.877
 8845SOL     OW27433   4.295   3.971   0.053
 8845SOL    HW127434   4.314   3.874   0.069
 8845SOL    HW227435   4.316   3.993   6.982
 8846SOL     OW27436   2.240   6.075   4.105
 8846SOL    HW127437   2.333   6.054   4.135
 8846SOL    HW227438   2.240   6.163   4.058
 8847SOL     OW27439   3.211   1.101   2.825
 8847SOL    HW127440   3.269   1.164   2.774
 8847SOL    HW227441   3.262   1.018   2.847
 8848SOL     OW27442   2.630   0.802   1.318
 8848SOL    HW127443   2.538   0.839   1.324
 8848SOL    HW227444   2.627   0.711   1.276
 8849SOL     OW27445   2.742   6.368   3.267
 8849SOL    HW127446   2.830   6.393   3.227
 8849SOL    HW227447   2.702   6.448   3.312
 8850SOL     OW27448   1.320   1.687   0.219
 8850SOL    HW127449   1.249   1.626   0.254
 8850SOL    HW227450   1.388   1.704   0.291
 8851SOL     OW27451   1.891   4.693   2.728
 8851SOL    HW127452   1.795   4.717   2.720
 8851SOL    HW227453   1.911   4.663   2.821
 8852SOL     OW27454   1.163   1.627   5.554
 8852SOL    HW127455   1.233   1.603   5.622
 8852SOL    HW227456   1.206   1.676   5.478
 8853SOL     OW27457   3.017   0.795   1.771
 8853SOL    HW127458   3.076   0.728   1.726
 8853SOL    HW227459   3.071   0.876   1.796
 8854SOL     OW27460   2.030   3.379   4.620
 8854SOL    HW127461   2.060   3.452   4.681
 8854SOL    HW227462   2.015   3.416   4.529
 8855SOL     OW27463   6.523   4.822   1.577
 8855SOL    HW127464   6.465   4.829   1.659
 8855SOL    HW227465   6.497   4.894   1.512
 8856SOL     OW27466   6.498   5.879   6.806
 8856SOL    HW127467   6.413   5.929   6.794
 8856SOL    HW227468   6.575   5.943   6.814
 8857SOL     OW27469   6.617   1.759   5.211
 8857SOL    HW127470   6.651   1.770   5.118
 8857SOL    HW227471   6.687   1.716   5.268
 8858SOL     OW27472   0.156   4.550   4.798
 8858SOL    HW127473   0.075   4.610   4.802
 8858SOL    HW227474   0.239   4.605   4.810
 8859SOL     OW27475   1.382   0.867   4.031
 8859SOL    HW127476   1.375   0.931   4.107
 8859SOL    HW227477   1.295   0.864   3.981
 8860SOL     OW27478   0.169   3.019   1.295
 8860SOL    HW127479   0.075   2.989   1.280
 8860SOL    HW227480   0.185   3.105   1.247
 8861SOL     OW27481   3.967   1.300   0.442
 8861SOL    HW127482   4.046   1.257   0.399
 8861SOL    HW227483   3.995   1.386   0.486
 8862SOL     OW27484   4.691   5.916   4.089
 8862SOL    HW127485   4.660   5.952   4.177
 8862SOL    HW227486   4.639   5.833   4.067
 8863SOL     OW27487   1.599   5.140   3.284
 8863SOL    HW127488   1.643   5.058   3.321
 8863SOL    HW227489   1.654   5.221   3.307
 8864SOL     OW27490   4.823   3.829   6.559
 8864SOL    HW127491   4.815   3.737   6.597
 8864SOL    HW227492   4.871   3.825   6.472
 8865SOL     OW27493   3.133   1.049   6.012
 8865SOL    HW127494   3.105   1.132   5.963
 8865SOL    HW227495   3.146   0.975   5.947
 8866SOL     OW27496   5.297   6.773   2.742
 8866SOL    HW127497   5.288   6.768   2.642
 8866SOL    HW227498   5.277   6.684   2.782
 8867SOL     OW27499   5.996   3.424   3.765
 8867SOL    HW127500   5.950   3.355   3.820
 8867SOL    HW227501   6.038   3.381   3.685
 8868SOL     OW27502   6.809   3.274   2.308
 8868SOL    HW127503   6.831   3.265   2.211
 8868SOL    HW227504   6.887   3.313   2.357
 8869SOL     OW27505   4.199   5.342   4.393
 8869SOL    HW127506   4.256   5.279   4.446
 8869SOL    HW227507   4.193   5.311   4.298
 8870SOL     OW27508   2.096   6.958   1.474
 8870SOL    HW127509   1.999   6.953   1.448
 8870SOL    HW227510   2.117   0.025   1.506
 8871SOL     OW27511   1.501   1.293   3.106
 8871SOL    HW127512   1.569   1.230   3.144
 8871SOL    HW227513   1.474   1.261   3.015
 8872SOL     OW27514   1.337   4.693   6.229
 8872SOL    HW127515   1.348   4.617   6.165
 8872SOL    HW227516   1.324   4.657   6.321
 8873SOL     OW27517   1.963   0.582   1.658
 8873SOL    HW127518   1.952   0.665   1.713
 8873SOL    HW227519   2.014   0.514   1.711
 8874SOL     OW27520   1.375   5.655   1.745
 8874SOL    HW127521   1.429   5.609   1.674
 8874SOL    HW227522   1.413   5.633   1.834
 8875SOL     OW27523   6.948   3.348   4.177
 8875SOL    HW127524   6.886   3.406   4.125
 8875SOL    HW227525   6.927   3.252   4.158
 8876SOL     OW27526   2.884   0.688   6.503
 8876SOL    HW127527   2.926   0.696   6.593
 8876SOL    HW227528   2.938   0.625   6.447
 8877SOL     OW27529   1.566   3.780   2.657
 8877SOL    HW127530   1.617   3.866   2.649
 8877SOL    HW227531   1.581   3.724   2.576
 8878SOL     OW27532   3.622   4.341   0.493
 8878SOL    HW127533   3.540   4.292   0.522
 8878SOL    HW227534   3.697   4.323   0.557
 8879SOL     OW27535   6.705   4.984   2.487
 8879SOL    HW127536   6.750   4.923   2.422
 8879SOL    HW227537   6.650   4.931   2.551
 8880SOL     OW27538   3.845   6.282   4.124
 8880SOL    HW127539   3.869   6.274   4.221
 8880SOL    HW227540   3.881   6.203   4.075
 8881SOL     OW27541   5.556   5.023   4.513
 8881SOL    HW127542   5.589   4.969   4.590
 8881SOL    HW227543   5.467   4.989   4.483
 8882SOL     OW27544   3.689   0.667   0.385
 8882SOL    HW127545   3.695   0.724   0.467
 8882SOL    HW227546   3.781   0.636   0.359
 8883SOL     OW27547   0.572   6.480   5.671
 8883SOL    HW127548   0.495   6.540   5.650
 8883SOL    HW227549   0.657   6.526   5.645
 8884SOL     OW27550   5.737   4.289   5.344
 8884SOL    HW127551   5.780   4.202   5.321
 8884SOL    HW227552   5.655   4.302   5.289
 8885SOL     OW27553   5.334   4.912   0.151
 8885SOL    HW127554   5.363   4.838   0.212
 8885SOL    HW227555   5.401   4.924   0.078
 8886SOL     OW27556   3.739   5.656   6.056
 8886SOL    HW127557   3.775   5.566   6.078
 8886SOL    HW227558   3.665   5.680   6.119
 8887SOL     OW27559   4.131   1.126   0.638
 8887SOL    HW127560   4.196   1.202   0.628
 8887SOL    HW227561   4.145   1.060   0.564
 8888SOL     OW27562   1.818   2.066   3.799
 8888SOL    HW127563   1.912   2.067   3.831
 8888SOL    HW227564   1.802   1.983   3.746
 8889SOL     OW27565   6.609   6.573   6.609
 8889SOL    HW127566   6.652   6.484   6.590
 8889SOL    HW227567   6.512   6.560   6.629
 8890SOL     OW27568   0.553   6.264   6.750
 8890SOL    HW127569   0.646   6.233   6.730
 8890SOL    HW227570   0.513   6.303   6.667
 8891SOL     OW27571   4.457   4.570   6.949
 8891SOL    HW127572   4.546   4.528   6.928
 8891SOL    HW227573   4.411   4.516   7.019
 8892SOL     OW27574   3.796   4.935   3.712
 8892SOL    HW127575   3.780   5.014   3.772
 8892SOL    HW227576   3.707   4.895   3.688
 8893SOL     OW27577   1.075   5.488   5.234
 8893SOL    HW127578   1.062   5.396   5.271
 8893SOL    HW227579   1.160   5.492   5.182
 8894SOL     OW27580   4.725   1.880   0.043
 8894SOL    HW127581   4.683   1.937   0.114
 8894SOL    HW227582   4.659   1.812   0.011
 8895SOL     OW27583   0.625   2.912   0.546
 8895SOL    HW127584   0.536   2.880   0.578
 8895SOL    HW227585   0.680   2.834   0.516
 8896SOL     OW27586   1.520   2.861   4.565
 8896SOL    HW127587   1.452   2.876   4.493
 8896SOL    HW227588   1.474   2.854   4.653
 8897SOL     OW27589   1.989   3.868   3.462
 8897SOL    HW127590   1.972   3.824   3.550
 8897SOL    HW227591   2.041   3.952   3.476
 8898SOL     OW27592   5.521   3.928   2.203
 8898SOL    HW127593   5.593   3.864   2.229
 8898SOL    HW227594   5.562   4.012   2.167
 8899SOL     OW27595   6.864   5.209   6.478
 8899SOL    HW127596   6.822   5.125   6.514
 8899SOL    HW227597   6.792   5.270   6.445
 8900SOL     OW27598   5.630   2.604   3.586
 8900SOL    HW127599   5.665   2.651   3.506
 8900SOL    HW227600   5.598   2.513   3.559
 8901SOL     OW27601   0.762   2.136   3.517
 8901SOL    HW127602   0.840   2.199   3.521
 8901SOL    HW227603   0.794   2.042   3.530
 8902SOL     OW27604   1.747   5.263   0.261
 8902SOL    HW127605   1.718   5.356   0.282
 8902SOL    HW227606   1.787   5.260   0.169
 8903SOL     OW27607   1.568   1.395   5.178
 8903SOL    HW127608   1.493   1.461   5.184
 8903SOL    HW227609   1.546   1.324   5.112
 8904SOL     OW27610   0.943   1.569   3.144
 8904SOL    HW127611   0.931   1.472   3.162
 8904SOL    HW227612   1.001   1.581   3.063
 8905SOL     OW27613   1.710   2.953   2.692
 8905SOL    HW127614   1.726   3.048   2.667
 8905SOL    HW227615   1.704   2.945   2.792
 8906SOL     OW27616   0.453   6.319   0.814
 8906SOL    HW127617   0.479   6.341   0.720
 8906SOL    HW227618   0.491   6.230   0.839
 8907SOL     OW27619   3.258   2.596   5.277
 8907SOL    HW127620   3.247   2.508   5.230
 8907SOL    HW227621   3.169   2.640   5.287
 8908SOL     OW27622   1.436   4.595   0.432
 8908SOL    HW127623   1.374   4.590   0.510
 8908SOL    HW227624   1.385   4.618   0.350
 8909SOL     OW27625   2.753   1.167   6.465
 8909SOL    HW127626   2.663   1.204   6.485
 8909SOL    HW227627   2.771   1.175   6.367
 8910SOL     OW27628   0.676   2.690   5.181
 8910SOL    HW127629   0.767   2.670   5.143
 8910SOL    HW227630   0.685   2.713   5.278
 8911SOL     OW27631   5.151   2.238   4.447
 8911SOL    HW127632   5.208   2.182   4.388
 8911SOL    HW227633   5.178   2.225   4.542
 8912SOL     OW27634   3.314   2.645   5.636
 8912SOL    HW127635   3.393   2.651   5.574
 8912SOL    HW227636   3.347   2.640   5.730
 8913SOL     OW27637   4.806   5.251   0.426
 8913SOL    HW127638   4.765   5.161   0.436
 8913SOL    HW227639   4.847   5.259   0.335
 8914SOL     OW27640   4.994   6.653   4.789
 8914SOL    HW127641   5.043   6.630   4.873
 8914SOL    HW227642   4.951   6.743   4.800
 8915SOL     OW27643   1.456   1.695   4.509
 8915SOL    HW127644   1.511   1.657   4.434
 8915SOL    HW227645   1.366   1.721   4.474
 8916SOL     OW27646   5.892   2.041   6.416
 8916SOL    HW127647   5.896   1.948   6.379
 8916SOL    HW227648   5.806   2.083   6.390
 8917SOL     OW27649   5.850   1.707   0.650
 8917SOL    HW127650   5.783   1.696   0.723
 8917SOL    HW227651   5.805   1.698   0.561
 8918SOL     OW27652   1.617   5.416   1.021
 8918SOL    HW127653   1.660   5.328   1.001
 8918SOL    HW227654   1.542   5.402   1.086
 8919SOL     OW27655   4.934   4.779   6.472
 8919SOL    HW127656   4.987   4.808   6.552
 8919SOL    HW227657   4.995   4.767   6.394
 8920SOL     OW27658   0.792   1.636   0.091
 8920SOL    HW127659   0.694   1.617   0.084
 8920SOL    HW227660   0.844   1.552   0.077
 8921SOL     OW27661   1.270   2.865   1.123
 8921SOL    HW127662   1.329   2.877   1.043
 8921SOL    HW227663   1.180   2.903   1.105
 8922SOL     OW27664   3.994   6.775   1.903
 8922SOL    HW127665   4.035   6.738   1.820
 8922SOL    HW227666   3.920   6.837   1.878
 8923SOL     OW27667   1.218   1.996   5.661
 8923SOL    HW127668   1.243   2.090   5.639
 8923SOL    HW227669   1.285   1.933   5.623
 8924SOL     OW27670   5.133   5.822   4.871
 8924SOL    HW127671   5.102   5.792   4.780
 8924SOL    HW227672   5.055   5.825   4.933
 8925SOL     OW27673   6.790   0.496   2.294
 8925SOL    HW127674   6.887   0.493   2.321
 8925SOL    HW227675   6.741   0.422   2.340
 8926SOL     OW27676   6.611   3.692   5.171
 8926SOL    HW127677   6.540   3.751   5.134
 8926SOL    HW227678   6.603   3.687   5.271
 8927SOL     OW27679   6.965   1.419   5.349
 8927SOL    HW127680   0.030   1.463   5.339
 8927SOL    HW227681   6.976   1.332   5.397
 8928SOL     OW27682   1.698   6.881   6.329
 8928SOL    HW127683   1.754   6.962   6.341
 8928SOL    HW227684   1.607   6.896   6.368
 8929SOL     OW27685   6.207   1.985   5.019
 8929SOL    HW127686   6.169   1.927   4.948
 8929SOL    HW227687   6.211   2.080   4.987
 8930SOL     OW27688   1.100   3.571   2.857
 8930SOL    HW127689   1.181   3.610   2.813
 8930SOL    HW227690   1.068   3.631   2.930
 8931SOL     OW27691   3.324   3.087   1.639
 8931SOL    HW127692   3.275   3.086   1.552
 8931SOL    HW227693   3.421   3.104   1.622
 8932SOL     OW27694   6.955   2.425   2.859
 8932SOL    HW127695   0.030   2.427   2.867
 8932SOL    HW227696   6.925   2.331   2.842
 8933SOL     OW27697   3.052   2.611   6.484
 8933SOL    HW127698   2.962   2.573   6.504
 8933SOL    HW227699   3.093   2.647   6.568
 8934SOL     OW27700   3.603   4.979   4.837
 8934SOL    HW127701   3.700   4.958   4.853
 8934SOL    HW227702   3.555   4.981   4.925
 8935SOL     OW27703   0.482   4.419   0.758
 8935SOL    HW127704   0.506   4.403   0.662
 8935SOL    HW227705   0.437   4.508   0.766
 8936SOL     OW27706   1.552   3.670   0.283
 8936SOL    HW127707   1.625   3.700   0.222
 8936SOL    HW227708   1.503   3.594   0.241
 8937SOL     OW27709   0.836   0.020   5.232
 8937SOL    HW127710   0.795   6.985   5.301
 8937SOL    HW227711   0.934   0.003   5.227
 8938SOL     OW27712   0.503   5.420   0.647
 8938SOL    HW127713   0.419   5.366   0.653
 8938SOL    HW227714   0.480   5.516   0.634
 8939SOL     OW27715   5.031   2.570   4.470
 8939SOL    HW127716   4.972   2.535   4.397
 8939SOL    HW227717   4.988   2.555   4.559
 8940SOL     OW27718   0.389   0.969   4.015
 8940SOL    HW127719   0.434   1.058   4.009
 8940SOL    HW227720   0.369   0.948   4.111
 8941SOL     OW27721   5.716   2.217   5.731
 8941SOL    HW127722   5.707   2.272   5.648
 8941SOL    HW227723   5.641   2.238   5.793
 8942SOL     OW27724   0.752   3.418   5.783
 8942SOL    HW127725   0.670   3.468   5.811
 8942SOL    HW227726   0.752   3.407   5.684
 8943SOL     OW27727   4.127   3.894   0.422
 8943SOL    HW127728   4.080   3.982   0.410
 8943SOL    HW227729   4.170   3.892   0.513
 8944SOL     OW27730   4.859   5.113   5.254
 8944SOL    HW127731   4.847   5.083   5.349
 8944SOL    HW227732   4.772   5.146   5.218
 8945SOL     OW27733   2.070   1.091   3.847
 8945SOL    HW127734   2.142   1.100   3.916
 8945SOL    HW227735   1.998   1.030   3.883
 8946SOL     OW27736   2.869   1.533   5.513
 8946SOL    HW127737   2.836   1.523   5.419
 8946SOL    HW227738   2.968   1.543   5.513
 8947SOL     OW27739   1.193   3.601   5.149
 8947SOL    HW127740   1.188   3.683   5.092
 8947SOL    HW227741   1.158   3.523   5.098
 8948SOL     OW27742   6.109   5.612   4.233
 8948SOL    HW127743   6.100   5.644   4.139
 8948SOL    HW227744   6.068   5.679   4.295
 8949SOL     OW27745   1.852   0.165   0.865
 8949SOL    HW127746   1.910   0.206   0.795
 8949SOL    HW227747   1.776   0.227   0.885
 8950SOL     OW27748   5.028   3.044   5.635
 8950SOL    HW127749   5.097   3.011   5.571
 8950SOL    HW227750   4.943   3.062   5.586
 8951SOL     OW27751   1.551   2.107   5.054
 8951SOL    HW127752   1.564   2.037   5.125
 8951SOL    HW227753   1.622   2.177   5.063
 8952SOL     OW27754   1.165   0.636   2.151
 8952SOL    HW127755   1.163   0.733   2.124
 8952SOL    HW227756   1.197   0.581   2.074
 8953SOL     OW27757   1.002   3.737   6.926
 8953SOL    HW127758   0.972   3.702   6.837
 8953SOL    HW227759   0.999   3.663   6.994
 8954SOL     OW27760   0.345   6.090   5.785
 8954SOL    HW127761   0.374   6.070   5.692
 8954SOL    HW227762   0.377   6.181   5.812
 8955SOL     OW27763   0.338   4.227   2.470
 8955SOL    HW127764   0.307   4.295   2.404
 8955SOL    HW227765   0.351   4.270   2.560
 8956SOL     OW27766   6.905   1.481   0.282
 8956SOL    HW127767   6.998   1.458   0.254
 8956SOL    HW227768   6.866   1.406   0.336
 8957SOL     OW27769   2.853   4.242   1.478
 8957SOL    HW127770   2.925   4.312   1.485
 8957SOL    HW227771   2.877   4.165   1.538
 8958SOL     OW27772   1.089   0.751   3.807
 8958SOL    HW127773   0.998   0.712   3.793
 8958SOL    HW227774   1.149   0.682   3.849
 8959SOL     OW27775   1.716   4.634   0.910
 8959SOL    HW127776   1.696   4.543   0.874
 8959SOL    HW227777   1.814   4.641   0.931
 8960SOL     OW27778   5.230   5.563   2.539
 8960SOL    HW127779   5.165   5.585   2.611
 8960SOL    HW227780   5.186   5.503   2.472
 8961SOL     OW27781   1.848   2.151   4.272
 8961SOL    HW127782   1.854   2.112   4.364
 8961SOL    HW227783   1.871   2.081   4.204
 8962SOL     OW27784   6.244   6.754   1.995
 8962SOL    HW127785   6.193   6.735   2.079
 8962SOL    HW227786   6.244   6.672   1.937
 8963SOL     OW27787   5.245   6.641   4.403
 8963SOL    HW127788   5.263   6.589   4.320
 8963SOL    HW227789   5.203   6.582   4.471
 8964SOL     OW27790   6.002   3.835   3.214
 8964SOL    HW127791   5.994   3.794   3.305
 8964SOL    HW227792   5.927   3.804   3.156
 8965SOL     OW27793   2.061   4.734   1.105
 8965SOL    HW127794   2.115   4.652   1.089
 8965SOL    HW227795   1.987   4.714   1.168
 8966SOL     OW27796   1.762   3.766   5.620
 8966SOL    HW127797   1.687   3.747   5.556
 8966SOL    HW227798   1.796   3.680   5.657
 8967SOL     OW27799   3.418   5.757   1.650
 8967SOL    HW127800   3.458   5.848   1.634
 8967SOL    HW227801   3.369   5.758   1.737
 8968SOL     OW27802   4.797   5.613   2.543
 8968SOL    HW127803   4.708   5.611   2.590
 8968SOL    HW227804   4.830   5.707   2.538
 8969SOL     OW27805   6.407   0.401   3.769
 8969SOL    HW127806   6.447   0.334   3.832
 8969SOL    HW227807   6.321   0.435   3.807
 8970SOL     OW27808   2.957   2.439   0.522
 8970SOL    HW127809   2.913   2.525   0.497
 8970SOL    HW227810   3.053   2.457   0.546
 8971SOL     OW27811   3.591   5.791   2.277
 8971SOL    HW127812   3.537   5.708   2.291
 8971SOL    HW227813   3.684   5.766   2.249
 8972SOL     OW27814   4.753   5.916   6.145
 8972SOL    HW127815   4.749   5.821   6.116
 8972SOL    HW227816   4.679   5.968   6.101
 8973SOL     OW27817   0.906   3.354   2.253
 8973SOL    HW127818   0.932   3.416   2.326
 8973SOL    HW227819   0.939   3.262   2.275
 8974SOL     OW27820   1.392   4.125   5.538
 8974SOL    HW127821   1.329   4.107   5.614
 8974SOL    HW227822   1.352   4.091   5.453
 8975SOL     OW27823   2.482   0.608   6.784
 8975SOL    HW127824   2.385   0.631   6.783
 8975SOL    HW227825   2.514   0.596   6.690
 8976SOL     OW27826   0.636   5.098   5.411
 8976SOL    HW127827   0.575   5.055   5.344
 8976SOL    HW227828   0.581   5.149   5.477
 8977SOL     OW27829   5.498   1.827   6.819
 8977SOL    HW127830   5.516   1.765   6.742
 8977SOL    HW227831   5.413   1.878   6.801
 8978SOL     OW27832   6.133   6.517   6.285
 8978SOL    HW127833   6.075   6.574   6.342
 8978SOL    HW227834   6.214   6.570   6.258
 8979SOL     OW27835   1.023   3.349   4.393
 8979SOL    HW127836   0.990   3.408   4.320
 8979SOL    HW227837   1.061   3.265   4.353
 8980SOL     OW27838   2.297   3.190   5.324
 8980SOL    HW127839   2.212   3.142   5.300
 8980SOL    HW227840   2.374   3.149   5.276
 8981SOL     OW27841   3.465   1.645   5.158
 8981SOL    HW127842   3.423   1.723   5.111
 8981SOL    HW227843   3.483   1.669   5.253
 8982SOL     OW27844   1.591   2.648   0.238
 8982SOL    HW127845   1.542   2.667   0.152
 8982SOL    HW227846   1.541   2.688   0.314
 8983SOL     OW27847   2.934   6.416   6.397
 8983SOL    HW127848   2.968   6.482   6.465
 8983SOL    HW227849   2.987   6.331   6.404
 8984SOL     OW27850   1.113   6.742   3.820
 8984SOL    HW127851   1.196   6.749   3.875
 8984SOL    HW227852   1.070   6.653   3.836
 8985SOL     OW27853   4.009   2.106   0.697
 8985SOL    HW127854   3.937   2.046   0.663
 8985SOL    HW227855   3.969   2.188   0.736
 8986SOL     OW27856   4.491   5.600   2.634
 8986SOL    HW127857   4.458   5.579   2.726
 8986SOL    HW227858   4.468   5.524   2.573
 8987SOL     OW27859   4.263   6.498   2.121
 8987SOL    HW127860   4.319   6.507   2.038
 8987SOL    HW227861   4.220   6.586   2.142
 8988SOL     OW27862   1.411   4.610   4.623
 8988SOL    HW127863   1.441   4.520   4.655
 8988SOL    HW227864   1.444   4.681   4.685
 8989SOL     OW27865   4.806   3.567   6.666
 8989SOL    HW127866   4.777   3.471   6.662
 8989SOL    HW227867   4.870   3.579   6.742
 8990SOL     OW27868   1.327   5.207   4.774
 8990SOL    HW127869   1.355   5.220   4.679
 8990SOL    HW227870   1.400   5.238   4.835
 8991SOL     OW27871   1.638   3.140   4.627
 8991SOL    HW127872   1.643   3.060   4.567
 8991SOL    HW227873   1.729   3.157   4.667
 8992SOL     OW27874   4.478   1.656   0.820
 8992SOL    HW127875   4.536   1.623   0.746
 8992SOL    HW227876   4.521   1.635   0.908
 8993SOL     OW27877   4.291   2.417   0.030
 8993SOL    HW127878   4.347   2.482   7.004
 8993SOL    HW227879   4.229   2.466   0.091
 8994SOL     OW27880   1.653   4.128   5.532
 8994SOL    HW127881   1.555   4.125   5.556
 8994SOL    HW227882   1.664   4.108   5.435
 8995SOL     OW27883   0.680   2.005   0.128
 8995SOL    HW127884   0.693   2.104   0.131
 8995SOL    HW227885   0.768   1.960   0.118
 8996SOL     OW27886   5.541   4.270   6.793
 8996SOL    HW127887   5.450   4.230   6.783
 8996SOL    HW227888   5.599   4.209   6.847
 8997SOL     OW27889   5.093   1.893   6.326
 8997SOL    HW127890   5.051   1.842   6.251
 8997SOL    HW227891   5.088   1.839   6.410
 8998SOL     OW27892   6.291   3.818   4.672
 8998SOL    HW127893   6.334   3.846   4.586
 8998SOL    HW227894   6.208   3.872   4.687
 8999SOL     OW27895   4.764   6.498   6.604
 8999SOL    HW127896   4.786   6.499   6.702
 8999SOL    HW227897   4.667   6.477   6.592
 9000SOL     OW27898   1.888   3.294   1.941
 9000SOL    HW127899   1.830   3.221   1.905
 9000SOL    HW227900   1.846   3.382   1.921
 9001SOL     OW27901   1.398   4.911   1.942
 9001SOL    HW127902   1.376   4.814   1.929
 9001SOL    HW227903   1.495   4.926   1.925
 9002SOL     OW27904   1.768   5.047   4.908
 9002SOL    HW127905   1.816   5.073   4.824
 9002SOL    HW227906   1.674   5.080   4.905
 9003SOL     OW27907   5.756   4.347   1.324
 9003SOL    HW127908   5.741   4.269   1.385
 9003SOL    HW227909   5.782   4.427   1.377
 9004SOL     OW27910   4.184   5.265   0.758
 9004SOL    HW127911   4.213   5.308   0.673
 9004SOL    HW227912   4.264   5.243   0.814
 9005SOL     OW27913   6.788   1.666   5.401
 9005SOL    HW127914   6.739   1.658   5.488
 9005SOL    HW227915   6.851   1.589   5.391
 9006SOL     OW27916   2.152   5.868   1.240
 9006SOL    HW127917   2.054   5.849   1.246
 9006SOL    HW227918   2.187   5.833   1.153
 9007SOL     OW27919   3.306   0.591   3.540
 9007SOL    HW127920   3.359   0.617   3.460
 9007SOL    HW227921   3.358   0.613   3.623
 9008SOL     OW27922   0.905   5.171   2.772
 9008SOL    HW127923   0.893   5.193   2.675
 9008SOL    HW227924   0.940   5.251   2.820
 9009SOL     OW27925   2.971   5.336   0.882
 9009SOL    HW127926   3.059   5.385   0.886
 9009SOL    HW227927   2.978   5.252   0.936
 9010SOL     OW27928   1.894   6.295   4.127
 9010SOL    HW127929   1.927   6.317   4.036
 9010SOL    HW227930   1.841   6.210   4.125
 9011SOL     OW27931   4.546   1.001   1.039
 9011SOL    HW127932   4.607   0.922   1.043
 9011SOL    HW227933   4.465   0.983   1.096
 9012SOL     OW27934   2.076   5.142   6.682
 9012SOL    HW127935   2.116   5.181   6.765
 9012SOL    HW227936   2.125   5.178   6.602
 9013SOL     OW27937   0.546   0.399   6.368
 9013SOL    HW127938   0.646   0.403   6.373
 9013SOL    HW227939   0.518   0.309   6.334
 9014SOL     OW27940   0.176   2.181   0.781
 9014SOL    HW127941   0.234   2.241   0.836
 9014SOL    HW227942   0.169   2.092   0.825
 9015SOL     OW27943   4.832   2.453   1.885
 9015SOL    HW127944   4.750   2.460   1.827
 9015SOL    HW227945   4.826   2.369   1.940
 9016SOL     OW27946   6.639   6.108   0.036
 9016SOL    HW127947   6.734   6.110   0.005
 9016SOL    HW227948   6.578   6.130   6.984
 9017SOL     OW27949   4.887   1.725   4.184
 9017SOL    HW127950   4.840   1.768   4.106
 9017SOL    HW227951   4.967   1.676   4.151
 9018SOL     OW27952   2.644   3.006   5.765
 9018SOL    HW127953   2.721   2.971   5.712
 9018SOL    HW227954   2.609   3.089   5.721
 9019SOL     OW27955   1.506   5.133   2.703
 9019SOL    HW127956   1.453   5.051   2.681
 9019SOL    HW227957   1.486   5.161   2.797
 9020SOL     OW27958   6.895   3.824   0.964
 9020SOL    HW127959   6.945   3.792   1.045
 9020SOL    HW227960   6.955   3.821   0.884
 9021SOL     OW27961   0.201   1.250   3.429
 9021SOL    HW127962   0.122   1.311   3.425
 9021SOL    HW227963   0.249   1.252   3.342
 9022SOL     OW27964   2.656   1.224   0.277
 9022SOL    HW127965   2.707   1.154   0.226
 9022SOL    HW227966   2.570   1.244   0.230
 9023SOL     OW27967   3.403   3.576   1.693
 9023SOL    HW127968   3.420   3.486   1.654
 9023SOL    HW227969   3.488   3.611   1.733
 9024SOL     OW27970   1.486   3.929   6.017
 9024SOL    HW127971   1.450   3.909   5.926
 9024SOL    HW227972   1.421   3.894   6.086
 9025SOL     OW27973   0.579   5.074   0.447
 9025SOL    HW127974   0.643   5.139   0.408
 9025SOL    HW227975   0.485   5.104   0.428
 9026SOL     OW27976   3.436   2.299   0.911
 9026SOL    HW127977   3.533   2.291   0.930
 9026SOL    HW227978   3.407   2.394   0.917
 9027SOL     OW27979   0.472   3.343   2.865
 9027SOL    HW127980   0.425   3.362   2.951
 9027SOL    HW227981   0.570   3.360   2.875
 9028SOL     OW27982   3.183   2.894   5.073
 9028SOL    HW127983   3.279   2.917   5.086
 9028SOL    HW227984   3.165   2.802   5.107
 9029SOL     OW27985   3.743   6.739   5.003
 9029SOL    HW127986   3.795   6.781   5.078
 9029SOL    HW227987   3.687   6.809   4.959
 9030SOL     OW27988   2.016   2.178   3.549
 9030SOL    HW127989   1.939   2.156   3.488
 9030SOL    HW227990   2.100   2.140   3.510
 9031SOL     OW27991   4.101   6.299   3.766
 9031SOL    HW127992   4.146   6.357   3.833
 9031SOL    HW227993   4.003   6.294   3.786
 9032SOL     OW27994   4.835   4.044   1.110
 9032SOL    HW127995   4.862   4.117   1.173
 9032SOL    HW227996   4.765   3.987   1.152
 9033SOL     OW27997   0.524   4.418   2.855
 9033SOL    HW127998   0.606   4.378   2.815
 9033SOL    HW227999   0.549   4.480   2.929
 9034SOL     OW28000   2.684   5.609   4.797
 9034SOL    HW128001   2.631   5.665   4.734
 9034SOL    HW228002   2.751   5.556   4.744
 9035SOL     OW28003   2.290   4.698   6.830
 9035SOL    HW128004   2.336   4.775   6.875
 9035SOL    HW228005   2.254   4.636   6.900
 9036SOL     OW28006   2.210   3.283   5.754
 9036SOL    HW128007   2.310   3.282   5.749
 9036SOL    HW228008   2.174   3.196   5.719
 9037SOL     OW28009   0.750   4.195   3.845
 9037SOL    HW128010   0.795   4.279   3.876
 9037SOL    HW228011   0.730   4.137   3.925
 9038SOL     OW28012   4.556   2.326   6.418
 9038SOL    HW128013   4.549   2.239   6.466
 9038SOL    HW228014   4.624   2.384   6.462
 9039SOL     OW28015   2.346   5.034   6.360
 9039SOL    HW128016   2.318   5.100   6.429
 9039SOL    HW228017   2.292   4.950   6.369
 9040SOL     OW28018   2.475   2.521   2.810
 9040SOL    HW128019   2.446   2.616   2.818
 9040SOL    HW228020   2.398   2.460   2.832
 9041SOL     OW28021   1.330   2.282   0.729
 9041SOL    HW128022   1.263   2.240   0.668
 9041SOL    HW228023   1.284   2.329   0.804
 9042SOL     OW28024   4.240   0.276   4.239
 9042SOL    HW128025   4.183   0.195   4.250
 9042SOL    HW228026   4.327   0.262   4.288
 9043SOL     OW28027   2.471   0.800   6.335
 9043SOL    HW128028   2.556   0.797   6.388
 9043SOL    HW228029   2.394   0.815   6.396
 9044SOL     OW28030   6.532   0.687   0.358
 9044SOL    HW128031   6.441   0.647   0.371
 9044SOL    HW228032   6.524   0.786   0.353
 9045SOL     OW28033   3.905   1.178   2.662
 9045SOL    HW128034   4.003   1.171   2.641
 9045SOL    HW228035   3.853   1.182   2.577
 9046SOL     OW28036   3.425   4.144   2.658
 9046SOL    HW128037   3.515   4.138   2.702
 9046SOL    HW228038   3.354   4.139   2.728
 9047SOL     OW28039   1.781   3.657   4.764
 9047SOL    HW128040   1.792   3.569   4.810
 9047SOL    HW228041   1.715   3.648   4.690
 9048SOL     OW28042   6.739   2.974   6.110
 9048SOL    HW128043   6.739   3.066   6.148
 9048SOL    HW228044   6.776   2.976   6.017
 9049SOL     OW28045   3.888   6.837   5.515
 9049SOL    HW128046   3.884   6.933   5.488
 9049SOL    HW228047   3.871   6.829   5.613
 9050SOL     OW28048   0.534   3.776   1.292
 9050SOL    HW128049   0.478   3.694   1.284
 9050SOL    HW228050   0.629   3.754   1.266
 9051SOL     OW28051   2.566   0.530   1.267
 9051SOL    HW128052   2.615   0.485   1.193
 9051SOL    HW228053   2.581   0.480   1.353
 9052SOL     OW28054   2.432   2.640   4.263
 9052SOL    HW128055   2.451   2.543   4.275
 9052SOL    HW228056   2.441   2.665   4.167
 9053SOL     OW28057   2.481   1.239   2.485
 9053SOL    HW128058   2.460   1.141   2.485
 9053SOL    HW228059   2.564   1.255   2.432
 9054SOL     OW28060   2.914   5.440   4.708
 9054SOL    HW128061   2.984   5.422   4.639
 9054SOL    HW228062   2.931   5.382   4.788
 9055SOL     OW28063   5.986   2.089   4.237
 9055SOL    HW128064   5.963   2.122   4.145
 9055SOL    HW228065   6.085   2.087   4.248
 9056SOL     OW28066   0.292   2.120   1.441
 9056SOL    HW128067   0.363   2.080   1.384
 9056SOL    HW228068   0.207   2.069   1.431
 9057SOL     OW28069   4.405   2.649   5.537
 9057SOL    HW128070   4.491   2.700   5.539
 9057SOL    HW228071   4.346   2.687   5.465
 9058SOL     OW28072   1.436   1.030   2.126
 9058SOL    HW128073   1.477   1.121   2.126
 9058SOL    HW228074   1.506   0.962   2.149
 9059SOL     OW28075   1.245   2.276   3.250
 9059SOL    HW128076   1.178   2.349   3.234
 9059SOL    HW228077   1.331   2.317   3.283
 9060SOL     OW28078   5.785   2.758   4.232
 9060SOL    HW128079   5.762   2.777   4.327
 9060SOL    HW228080   5.867   2.809   4.207
 9061SOL     OW28081   2.724   5.316   2.147
 9061SOL    HW128082   2.743   5.414   2.153
 9061SOL    HW228083   2.694   5.282   2.236
 9062SOL     OW28084   1.374   6.147   1.941
 9062SOL    HW128085   1.285   6.131   1.899
 9062SOL    HW228086   1.444   6.099   1.889
 9063SOL     OW28087   3.045   0.291   4.069
 9063SOL    HW128088   3.122   0.352   4.085
 9063SOL    HW228089   2.971   0.342   4.024
 9064SOL     OW28090   6.164   3.399   6.388
 9064SOL    HW128091   6.121   3.440   6.307
 9064SOL    HW228092   6.094   3.353   6.443
 9065SOL     OW28093   3.691   0.284   0.321
 9065SOL    HW128094   3.717   0.342   0.398
 9065SOL    HW228095   3.728   0.322   0.236
 9066SOL     OW28096   5.185   6.933   0.195
 9066SOL    HW128097   5.222   7.008   0.249
 9066SOL    HW228098   5.261   6.882   0.153
 9067SOL     OW28099   1.183   0.447   3.476
 9067SOL    HW128100   1.148   0.534   3.442
 9067SOL    HW228101   1.127   0.415   3.551
 9068SOL     OW28102   1.805   6.431   4.434
 9068SOL    HW128103   1.851   6.516   4.408
 9068SOL    HW228104   1.861   6.383   4.501
 9069SOL     OW28105   1.541   3.076   0.629
 9069SOL    HW128106   1.491   3.160   0.608
 9069SOL    HW228107   1.552   3.067   0.727
 9070SOL     OW28108   1.809   3.494   5.066
 9070SOL    HW128109   1.730   3.550   5.093
 9070SOL    HW228110   1.777   3.405   5.034
 9071SOL     OW28111   6.852   6.519   1.068
 9071SOL    HW128112   6.950   6.537   1.078
 9071SOL    HW228113   6.803   6.605   1.055
 9072SOL     OW28114   0.145   2.453   1.256
 9072SOL    HW128115   0.222   2.390   1.248
 9072SOL    HW228116   0.178   2.543   1.283
 9073SOL     OW28117   2.019   0.121   2.105
 9073SOL    HW128118   2.001   0.195   2.170
 9073SOL    HW228119   1.954   0.047   2.119
 9074SOL     OW28120   1.032   0.331   2.691
 9074SOL    HW128121   1.105   0.393   2.719
 9074SOL    HW228122   0.984   0.370   2.612
 9075SOL     OW28123   6.930   1.357   2.180
 9075SOL    HW128124   6.958   1.419   2.253
 9075SOL    HW228125   6.831   1.349   2.178
 9076SOL     OW28126   0.449   1.153   6.570
 9076SOL    HW128127   0.524   1.158   6.635
 9076SOL    HW228128   0.482   1.175   6.478
 9077SOL     OW28129   4.199   6.614   1.361
 9077SOL    HW128130   4.129   6.606   1.291
 9077SOL    HW228131   4.190   6.703   1.406
 9078SOL     OW28132   3.524   3.048   4.655
 9078SOL    HW128133   3.460   2.990   4.705
 9078SOL    HW228134   3.543   3.007   4.566
 9079SOL     OW28135   2.933   0.757   4.556
 9079SOL    HW128136   2.993   0.834   4.582
 9079SOL    HW228137   2.907   0.706   4.638
 9080SOL     OW28138   5.337   2.970   6.366
 9080SOL    HW128139   5.306   3.060   6.333
 9080SOL    HW228140   5.319   2.962   6.464
 9081SOL     OW28141   5.066   6.409   2.316
 9081SOL    HW128142   5.132   6.334   2.324
 9081SOL    HW228143   5.082   6.476   2.388
 9082SOL     OW28144   1.732   0.160   4.482
 9082SOL    HW128145   1.753   0.257   4.493
 9082SOL    HW228146   1.658   0.148   4.417
 9083SOL     OW28147   4.917   4.896   5.846
 9083SOL    HW128148   4.935   4.809   5.800
 9083SOL    HW228149   4.933   4.887   5.944
 9084SOL     OW28150   3.962   3.956   3.261
 9084SOL    HW128151   3.985   4.002   3.175
 9084SOL    HW228152   3.885   3.894   3.246
 9085SOL     OW28153   2.370   0.806   0.816
 9085SOL    HW128154   2.301   0.879   0.813
 9085SOL    HW228155   2.365   0.751   0.733
 9086SOL     OW28156   0.700   4.149   0.566
 9086SOL    HW128157   0.720   4.141   0.663
 9086SOL    HW228158   0.681   4.059   0.528
 9087SOL     OW28159   5.099   3.060   1.797
 9087SOL    HW128160   5.141   3.005   1.869
 9087SOL    HW228161   5.035   3.124   1.837
 9088SOL     OW28162   6.375   0.579   1.088
 9088SOL    HW128163   6.286   0.603   1.129
 9088SOL    HW228164   6.432   0.535   1.157
 9089SOL     OW28165   5.344   6.459   5.671
 9089SOL    HW128166   5.258   6.457   5.621
 9089SOL    HW228167   5.393   6.543   5.651
 9090SOL     OW28168   6.083   0.808   5.279
 9090SOL    HW128169   6.075   0.780   5.375
 9090SOL    HW228170   6.155   0.876   5.270
 9091SOL     OW28171   2.957   3.538   6.812
 9091SOL    HW128172   2.914   3.601   6.747
 9091SOL    HW228173   2.941   3.571   6.906
 9092SOL     OW28174   6.583   1.251   0.380
 9092SOL    HW128175   6.657   1.200   0.337
 9092SOL    HW228176   6.606   1.272   0.475
 9093SOL     OW28177   1.730   5.952   5.340
 9093SOL    HW128178   1.768   6.032   5.293
 9093SOL    HW228179   1.729   5.874   5.277
 9094SOL     OW28180   6.724   4.197   2.956
 9094SOL    HW128181   6.726   4.099   2.976
 9094SOL    HW228182   6.775   4.214   2.871
 9095SOL     OW28183   4.943   4.842   6.103
 9095SOL    HW128184   4.942   4.909   6.177
 9095SOL    HW228185   4.866   4.779   6.113
 9096SOL     OW28186   6.752   5.077   3.527
 9096SOL    HW128187   6.780   5.033   3.613
 9096SOL    HW228188   6.729   5.173   3.545
 9097SOL     OW28189   1.962   2.315   6.696
 9097SOL    HW128190   1.885   2.372   6.724
 9097SOL    HW228191   1.928   2.236   6.646
 9098SOL     OW28192   2.456   2.256   5.078
 9098SOL    HW128193   2.378   2.280   5.021
 9098SOL    HW228194   2.528   2.325   5.066
 9099SOL     OW28195   2.520   2.966   6.425
 9099SOL    HW128196   2.593   2.997   6.364
 9099SOL    HW228197   2.433   2.967   6.376
 9100SOL     OW28198   1.102   3.748   1.933
 9100SOL    HW128199   1.104   3.720   2.029
 9100SOL    HW228200   1.030   3.697   1.885
 9101SOL     OW28201   3.000   1.690   2.748
 9101SOL    HW128202   2.925   1.673   2.813
 9101SOL    HW228203   2.966   1.682   2.655
 9102SOL     OW28204   3.991   6.860   2.215
 9102SOL    HW128205   3.990   6.810   2.129
 9102SOL    HW228206   4.081   6.850   2.259
 9103SOL     OW28207   6.026   1.420   6.619
 9103SOL    HW128208   5.960   1.438   6.546
 9103SOL    HW228209   6.085   1.344   6.593
 9104SOL     OW28210   6.826   0.339   2.071
 9104SOL    HW128211   6.786   0.402   2.138
 9104SOL    HW228212   6.764   0.262   2.056
 9105SOL     OW28213   1.077   6.949   5.205
 9105SOL    HW128214   1.061   6.946   5.107
 9105SOL    HW228215   1.076   6.857   5.243
 9106SOL     OW28216   0.599   3.862   0.152
 9106SOL    HW128217   0.626   3.778   0.104
 9106SOL    HW228218   0.652   3.939   0.117
 9107SOL     OW28219   2.082   0.489   6.171
 9107SOL    HW128220   2.015   0.420   6.147
 9107SOL    HW228221   2.107   0.479   6.267
 9108SOL     OW28222   4.934   4.627   5.269
 9108SOL    HW128223   4.901   4.628   5.363
 9108SOL    HW228224   4.926   4.718   5.229
 9109SOL     OW28225   4.804   3.101   2.335
 9109SOL    HW128226   4.768   3.040   2.406
 9109SOL    HW228227   4.757   3.083   2.249
 9110SOL     OW28228   0.995   5.610   4.317
 9110SOL    HW128229   0.925   5.545   4.346
 9110SOL    HW228230   0.983   5.697   4.365
 9111SOL     OW28231   4.977   3.055   5.890
 9111SOL    HW128232   4.881   3.055   5.918
 9111SOL    HW228233   4.983   3.045   5.791
 9112SOL     OW28234   1.582   5.133   2.984
 9112SOL    HW128235   1.552   5.038   2.990
 9112SOL    HW228236   1.588   5.171   3.077
 9113SOL     OW28237   5.854   2.619   3.734
 9113SOL    HW128238   5.826   2.712   3.758
 9113SOL    HW228239   5.798   2.586   3.658
 9114SOL     OW28240   1.542   6.151   3.973
 9114SOL    HW128241   1.539   6.085   4.048
 9114SOL    HW228242   1.624   6.208   3.982
 9115SOL     OW28243   6.034   4.908   3.155
 9115SOL    HW128244   5.990   4.885   3.241
 9115SOL    HW228245   6.096   4.985   3.168
 9116SOL     OW28246   0.116   6.836   3.161
 9116SOL    HW128247   0.195   6.895   3.178
 9116SOL    HW228248   0.146   6.745   3.133
 9117SOL     OW28249   4.269   1.196   6.649
 9117SOL    HW128250   4.225   1.274   6.693
 9117SOL    HW228251   4.200   1.141   6.602
 9118SOL     OW28252   5.892   3.898   0.500
 9118SOL    HW128253   5.907   3.959   0.577
 9118SOL    HW228254   5.961   3.825   0.501
 9119SOL     OW28255   3.536   6.735   1.330
 9119SOL    HW128256   3.464   6.671   1.307
 9119SOL    HW228257   3.496   6.823   1.357
 9120SOL     OW28258   6.678   2.572   6.462
 9120SOL    HW128259   6.712   2.480   6.480
 9120SOL    HW228260   6.579   2.568   6.446
 9121SOL     OW28261   3.792   0.264   5.402
 9121SOL    HW128262   3.821   0.250   5.308
 9121SOL    HW228263   3.863   0.230   5.464
 9122SOL     OW28264   2.213   3.912   2.148
 9122SOL    HW128265   2.195   3.908   2.246
 9122SOL    HW228266   2.287   3.977   2.130
 9123SOL     OW28267   1.522   0.011   3.194
 9123SOL    HW128268   1.439   0.065   3.177
 9123SOL    HW228269   1.544   0.013   3.291
 9124SOL     OW28270   3.584   4.922   1.755
 9124SOL    HW128271   3.657   4.891   1.695
 9124SOL    HW228272   3.551   4.845   1.810
 9125SOL     OW28273   3.664   5.844   0.249
 9125SOL    HW128274   3.726   5.785   0.197
 9125SOL    HW228275   3.717   5.899   0.314
 9126SOL     OW28276   4.198   4.472   1.109
 9126SOL    HW128277   4.203   4.452   1.207
 9126SOL    HW228278   4.269   4.421   1.061
 9127SOL     OW28279   6.964   3.138   5.200
 9127SOL    HW128280   6.969   3.047   5.160
 9127SOL    HW228281   7.007   3.204   5.138
 9128SOL     OW28282   6.358   2.994   4.637
 9128SOL    HW128283   6.261   3.008   4.615
 9128SOL    HW228284   6.366   2.964   4.732
 9129SOL     OW28285   2.051   2.078   1.155
 9129SOL    HW128286   2.142   2.062   1.117
 9129SOL    HW228287   2.051   2.051   1.251
 9130SOL     OW28288   2.726   4.059   5.752
 9130SOL    HW128289   2.660   4.130   5.727
 9130SOL    HW228290   2.726   3.987   5.683
 9131SOL     OW28291   5.898   2.642   0.827
 9131SOL    HW128292   5.904   2.723   0.769
 9131SOL    HW228293   5.804   2.632   0.861
 9132SOL     OW28294   0.972   4.784   3.871
 9132SOL    HW128295   0.972   4.742   3.780
 9132SOL    HW228296   0.878   4.799   3.900
 9133SOL     OW28297   3.879   0.946   0.813
 9133SOL    HW128298   3.972   0.928   0.845
 9133SOL    HW228299   3.875   1.037   0.770
 9134SOL     OW28300   4.435   5.241   0.888
 9134SOL    HW128301   4.393   5.234   0.979
 9134SOL    HW228302   4.511   5.306   0.892
 9135SOL     OW28303   1.141   5.941   1.942
 9135SOL    HW128304   1.180   5.934   1.850
 9135SOL    HW228305   1.086   5.860   1.961
 9136SOL     OW28306   5.366   4.964   6.236
 9136SOL    HW128307   5.324   4.958   6.145
 9136SOL    HW228308   5.466   4.959   6.227
 9137SOL     OW28309   5.059   6.052   6.245
 9137SOL    HW128310   5.114   5.973   6.215
 9137SOL    HW228311   4.963   6.025   6.251
 9138SOL     OW28312   2.394   3.263   0.520
 9138SOL    HW128313   2.310   3.306   0.552
 9138SOL    HW228314   2.375   3.209   0.438
 9139SOL     OW28315   0.107   0.260   1.501
 9139SOL    HW128316   0.128   0.202   1.580
 9139SOL    HW228317   0.189   0.309   1.473
 9140SOL     OW28318   0.398   4.407   2.042
 9140SOL    HW128319   0.422   4.436   1.950
 9140SOL    HW228320   0.477   4.363   2.085
 9141SOL     OW28321   6.671   5.577   6.188
 9141SOL    HW128322   6.638   5.669   6.208
 9141SOL    HW228323   6.605   5.530   6.130
 9142SOL     OW28324   0.899   3.264   2.806
 9142SOL    HW128325   0.985   3.213   2.806
 9142SOL    HW228326   0.872   3.283   2.901
 9143SOL     OW28327   7.023   3.864   2.852
 9143SOL    HW128328   7.017   3.901   2.759
 9143SOL    HW228329   6.947   3.899   2.906
 9144SOL     OW28330   2.883   5.269   5.038
 9144SOL    HW128331   2.804   5.311   5.081
 9144SOL    HW228332   2.961   5.331   5.044
 9145SOL     OW28333   1.070   6.919   6.478
 9145SOL    HW128334   1.044   6.845   6.416
 9145SOL    HW228335   1.005   6.924   6.554
 9146SOL     OW28336   5.864   3.309   3.449
 9146SOL    HW128337   5.925   3.288   3.525
 9146SOL    HW228338   5.914   3.361   3.380
 9147SOL     OW28339   5.582   6.840   3.748
 9147SOL    HW128340   5.612   6.756   3.792
 9147SOL    HW228341   5.655   6.908   3.752
 9148SOL     OW28342   6.399   0.364   1.609
 9148SOL    HW128343   6.352   0.285   1.568
 9148SOL    HW228344   6.378   0.446   1.556
 9149SOL     OW28345   6.087   3.297   1.136
 9149SOL    HW128346   5.999   3.283   1.183
 9149SOL    HW228347   6.076   3.368   1.066
 9150SOL     OW28348   2.490   3.899   6.743
 9150SOL    HW128349   2.449   3.988   6.760
 9150SOL    HW228350   2.590   3.906   6.753
 9151SOL     OW28351   1.956   3.738   3.719
 9151SOL    HW128352   1.901   3.748   3.802
 9151SOL    HW228353   1.971   3.640   3.702
 9152SOL     OW28354   1.857   3.813   3.962
 9152SOL    HW128355   1.766   3.849   3.937
 9152SOL    HW228356   1.886   3.856   4.047
 9153SOL     OW28357   0.200   2.122   6.736
 9153SOL    HW128358   0.246   2.073   6.662
 9153SOL    HW228359   0.171   2.056   6.806
 9154SOL     OW28360   6.427   5.446   3.231
 9154SOL    HW128361   6.350   5.450   3.294
 9154SOL    HW228362   6.504   5.401   3.276
 9155SOL     OW28363   1.398   5.766   2.679
 9155SOL    HW128364   1.375   5.683   2.629
 9155SOL    HW228365   1.318   5.826   2.684
 9156SOL     OW28366   6.709   3.856   0.367
 9156SOL    HW128367   6.738   3.834   0.460
 9156SOL    HW228368   6.620   3.813   0.349
 9157SOL     OW28369   3.545   4.336   6.563
 9157SOL    HW128370   3.499   4.358   6.477
 9157SOL    HW228371   3.602   4.255   6.550
 9158SOL     OW28372   6.754   3.750   4.285
 9158SOL    HW128373   6.708   3.774   4.199
 9158SOL    HW228374   6.843   3.709   4.264
 9159SOL     OW28375   3.350   0.008   3.093
 9159SOL    HW128376   3.347   6.942   3.137
 9159SOL    HW228377   3.365   0.078   3.163
 9160SOL     OW28378   0.958   4.586   6.546
 9160SOL    HW128379   0.882   4.649   6.526
 9160SOL    HW228380   1.037   4.638   6.577
 9161SOL     OW28381   6.013   3.815   1.566
 9161SOL    HW128382   5.965   3.759   1.634
 9161SOL    HW228383   6.040   3.758   1.489
 9162SOL     OW28384   4.524   1.901   2.733
 9162SOL    HW128385   4.442   1.845   2.722
 9162SOL    HW228386   4.574   1.905   2.646
 9163SOL     OW28387   1.219   2.013   3.302
 9163SOL    HW128388   1.225   2.111   3.284
 9163SOL    HW228389   1.229   1.962   3.217
 9164SOL     OW28390   2.278   0.108   6.676
 9164SOL    HW128391   2.316   0.179   6.735
 9164SOL    HW228392   2.346   0.036   6.663
 9165SOL     OW28393   4.802   2.680   5.220
 9165SOL    HW128394   4.770   2.585   5.215
 9165SOL    HW228395   4.885   2.690   5.166
 9166SOL     OW28396   4.730   5.779   1.826
 9166SOL    HW128397   4.711   5.866   1.872
 9166SOL    HW228398   4.766   5.797   1.735
 9167SOL     OW28399   1.483   0.683   5.754
 9167SOL    HW128400   1.549   0.624   5.707
 9167SOL    HW228401   1.395   0.636   5.762
 9168SOL     OW28402   6.688   5.123   4.350
 9168SOL    HW128403   6.674   5.134   4.448
 9168SOL    HW228404   6.599   5.112   4.305
 9169SOL     OW28405   6.165   6.260   6.932
 9169SOL    HW128406   6.099   6.207   6.985
 9169SOL    HW228407   6.116   6.324   6.873
 9170SOL     OW28408   1.288   1.315   6.058
 9170SOL    HW128409   1.316   1.235   6.110
 9170SOL    HW228410   1.191   1.332   6.071
 9171SOL     OW28411   3.154   5.004   0.610
 9171SOL    HW128412   3.127   4.932   0.674
 9171SOL    HW228413   3.082   5.074   0.606
 9172SOL     OW28414   5.231   1.286   4.711
 9172SOL    HW128415   5.164   1.215   4.735
 9172SOL    HW228416   5.192   1.344   4.640
 9173SOL     OW28417   6.302   2.341   4.027
 9173SOL    HW128418   6.268   2.351   4.121
 9173SOL    HW228419   6.224   2.335   3.965
 9174SOL     OW28420   0.702   5.730   6.977
 9174SOL    HW128421   0.695   5.825   7.010
 9174SOL    HW228422   0.763   5.726   6.898
 9175SOL     OW28423   1.701   6.602   0.038
 9175SOL    HW128424   1.742   6.678   7.014
 9175SOL    HW228425   1.753   6.583   0.122
 9176SOL     OW28426   1.886   1.337   2.854
 9176SOL    HW128427   1.870   1.299   2.945
 9176SOL    HW228428   1.799   1.349   2.807
 9177SOL     OW28429   0.479   4.863   4.162
 9177SOL    HW128430   0.433   4.946   4.193
 9177SOL    HW228431   0.430   4.783   4.199
 9178SOL     OW28432   2.015   6.242   6.951
 9178SOL    HW128433   1.980   6.308   7.017
 9178SOL    HW228434   1.968   6.254   6.864
 9179SOL     OW28435   4.353   6.308   5.273
 9179SOL    HW128436   4.331   6.224   5.323
 9179SOL    HW228437   4.373   6.286   5.178
 9180SOL     OW28438   0.008   1.815   4.122
 9180SOL    HW128439   6.963   1.830   4.192
 9180SOL    HW228440   6.991   1.819   4.031
 9181SOL     OW28441   4.188   2.050   3.521
 9181SOL    HW128442   4.248   1.992   3.466
 9181SOL    HW228443   4.161   2.130   3.468
 9182SOL     OW28444   2.171   1.373   2.854
 9182SOL    HW128445   2.073   1.394   2.858
 9182SOL    HW228446   2.185   1.298   2.789
 9183SOL     OW28447   5.393   2.454   6.063
 9183SOL    HW128448   5.294   2.459   6.045
 9183SOL    HW228449   5.416   2.517   6.137
 9184SOL     OW28450   3.443   3.016   0.830
 9184SOL    HW128451   3.450   2.969   0.742
 9184SOL    HW228452   3.465   2.953   0.904
 9185SOL     OW28453   0.549   0.465   0.182
 9185SOL    HW128454   0.519   0.476   0.087
 9185SOL    HW228455   0.566   0.555   0.222
 9186SOL     OW28456   5.092   0.649   6.125
 9186SOL    HW128457   5.053   0.557   6.129
 9186SOL    HW228458   5.061   0.694   6.041
 9187SOL     OW28459   5.202   1.769   0.109
 9187SOL    HW128460   5.271   1.839   0.088
 9187SOL    HW228461   5.246   1.680   0.115
 9188SOL     OW28462   1.301   0.016   1.758
 9188SOL    HW128463   1.234   6.967   1.763
 9188SOL    HW228464   1.350   0.011   1.671
 9189SOL     OW28465   2.588   1.655   3.538
 9189SOL    HW128466   2.572   1.628   3.443
 9189SOL    HW228467   2.675   1.618   3.569
 9190SOL     OW28468   5.507   3.794   5.265
 9190SOL    HW128469   5.577   3.732   5.229
 9190SOL    HW228470   5.484   3.769   5.359
 9191SOL     OW28471   5.101   6.365   6.370
 9191SOL    HW128472   5.006   6.336   6.363
 9191SOL    HW228473   5.137   6.385   6.278
 9192SOL     OW28474   0.050   4.297   6.022
 9192SOL    HW128475   0.026   4.361   5.949
 9192SOL    HW228476   0.101   4.220   5.984
 9193SOL     OW28477   3.987   3.264   3.328
 9193SOL    HW128478   3.971   3.333   3.399
 9193SOL    HW228479   3.979   3.173   3.369
 9194SOL     OW28480   2.797   5.834   2.743
 9194SOL    HW128481   2.888   5.818   2.781
 9194SOL    HW228482   2.798   5.818   2.645
 9195SOL     OW28483   0.389   3.009   3.474
 9195SOL    HW128484   0.428   2.932   3.524
 9195SOL    HW228485   0.290   3.010   3.488
 9196SOL     OW28486   4.136   0.777   3.188
 9196SOL    HW128487   4.158   0.804   3.282
 9196SOL    HW228488   4.191   0.697   3.163
 9197SOL     OW28489   2.932   3.030   6.725
 9197SOL    HW128490   2.909   2.959   6.659
 9197SOL    HW228491   2.870   3.108   6.714
 9198SOL     OW28492   5.661   3.507   5.652
 9198SOL    HW128493   5.576   3.538   5.609
 9198SOL    HW228494   5.659   3.529   5.750
 9199SOL     OW28495   1.718   4.205   6.649
 9199SOL    HW128496   1.654   4.151   6.703
 9199SOL    HW228497   1.698   4.302   6.663
 9200SOL     OW28498   6.507   0.279   0.830
 9200SOL    HW128499   6.584   0.258   0.890
 9200SOL    HW228500   6.541   0.293   0.737
 9201SOL     OW28501   6.917   4.424   1.760
 9201SOL    HW128502   6.826   4.465   1.756
 9201SOL    HW228503   6.943   4.391   1.670
 9202SOL     OW28504   2.717   5.079   4.220
 9202SOL    HW128505   2.638   5.051   4.275
 9202SOL    HW228506   2.774   4.999   4.201
 9203SOL     OW28507   5.538   1.248   5.625
 9203SOL    HW128508   5.470   1.266   5.554
 9203SOL    HW228509   5.499   1.188   5.694
 9204SOL     OW28510   5.748   4.098   3.064
 9204SOL    HW128511   5.775   4.028   2.998
 9204SOL    HW228512   5.650   4.089   3.083
 9205SOL     OW28513   6.098   2.870   2.719
 9205SOL    HW128514   6.095   2.915   2.809
 9205SOL    HW228515   6.012   2.820   2.705
 9206SOL     OW28516   1.705   6.065   3.224
 9206SOL    HW128517   1.736   6.160   3.230
 9206SOL    HW228518   1.618   6.054   3.271
 9207SOL     OW28519   4.390   5.999   6.589
 9207SOL    HW128520   4.468   6.047   6.628
 9207SOL    HW228521   4.312   6.006   6.652
 9208SOL     OW28522   4.998   3.738   2.102
 9208SOL    HW128523   4.931   3.793   2.053
 9208SOL    HW228524   4.993   3.643   2.071
 9209SOL     OW28525   3.691   1.578   2.866
 9209SOL    HW128526   3.749   1.500   2.890
 9209SOL    HW228527   3.595   1.549   2.868
 9210SOL     OW28528   2.329   0.138   1.072
 9210SOL    HW128529   2.329   0.097   1.163
 9210SOL    HW228530   2.265   0.089   1.013
 9211SOL     OW28531   4.751   1.585   6.425
 9211SOL    HW128532   4.666   1.614   6.468
 9211SOL    HW228533   4.777   1.651   6.354
 9212SOL     OW28534   5.563   4.317   4.614
 9212SOL    HW128535   5.601   4.274   4.696
 9212SOL    HW228536   5.636   4.365   4.565
 9213SOL     OW28537   5.925   6.918   3.871
 9213SOL    HW128538   5.981   6.964   3.939
 9213SOL    HW228539   5.940   6.819   3.875
 9214SOL     OW28540   1.978   2.591   4.699
 9214SOL    HW128541   2.059   2.565   4.646
 9214SOL    HW228542   2.007   2.641   4.781
 9215SOL     OW28543   0.685   3.941   2.591
 9215SOL    HW128544   0.777   3.974   2.570
 9215SOL    HW228545   0.653   3.883   2.516
 9216SOL     OW28546   2.822   5.734   5.130
 9216SOL    HW128547   2.911   5.735   5.086
 9216SOL    HW228548   2.777   5.646   5.114
 9217SOL     OW28549   5.029   1.321   5.968
 9217SOL    HW128550   5.078   1.381   5.906
 9217SOL    HW228551   5.059   1.337   6.062
 9218SOL     OW28552   5.799   6.616   6.129
 9218SOL    HW128553   5.712   6.576   6.100
 9218SOL    HW228554   5.789   6.715   6.137
 9219SOL     OW28555   3.542   2.887   5.712
 9219SOL    HW128556   3.507   2.931   5.629
 9219SOL    HW228557   3.637   2.858   5.697
 9220SOL     OW28558   1.306   6.173   3.035
 9220SOL    HW128559   1.331   6.269   3.023
 9220SOL    HW228560   1.344   6.119   2.960
 9221SOL     OW28561   2.266   0.257   6.442
 9221SOL    HW128562   2.243   0.170   6.486
 9221SOL    HW228563   2.356   0.250   6.400
 9222SOL     OW28564   1.501   4.751   3.704
 9222SOL    HW128565   1.533   4.686   3.635
 9222SOL    HW228566   1.441   4.818   3.661
 9223SOL     OW28567   1.503   3.940   4.778
 9223SOL    HW128568   1.496   4.010   4.849
 9223SOL    HW228569   1.593   3.946   4.735
 9224SOL     OW28570   1.524   4.274   3.769
 9224SOL    HW128571   1.506   4.192   3.713
 9224SOL    HW228572   1.616   4.308   3.749
 9225SOL     OW28573   4.456   7.008   6.263
 9225SOL    HW128574   4.419   6.977   6.176
 9225SOL    HW228575   4.553   6.985   6.269
 9226SOL     OW28576   1.091   0.037   1.041
 9226SOL    HW128577   0.997   0.043   1.007
 9226SOL    HW228578   1.098   0.086   1.128
 9227SOL     OW28579   2.687   5.288   0.933
 9227SOL    HW128580   2.685   5.362   1.000
 9227SOL    HW228581   2.782   5.266   0.910
 9228SOL     OW28582   2.534   2.318   5.683
 9228SOL    HW128583   2.444   2.352   5.657
 9228SOL    HW228584   2.604   2.364   5.629
 9229SOL     OW28585   0.159   4.688   6.690
 9229SOL    HW128586   0.104   4.754   6.638
 9229SOL    HW228587   0.154   4.598   6.645
 9230SOL     OW28588   4.823   2.290   4.127
 9230SOL    HW128589   4.783   2.292   4.035
 9230SOL    HW228590   4.901   2.226   4.128
 9231SOL     OW28591   0.605   5.433   5.359
 9231SOL    HW128592   0.642   5.358   5.304
 9231SOL    HW228593   0.678   5.474   5.413
 9232SOL     OW28594   1.977   6.012   1.761
 9232SOL    HW128595   1.942   6.036   1.670
 9232SOL    HW228596   1.904   5.969   1.814
 9233SOL     OW28597   0.517   0.626   0.424
 9233SOL    HW128598   0.442   0.573   0.462
 9233SOL    HW228599   0.491   0.722   0.419
 9234SOL     OW28600   2.343   4.637   0.522
 9234SOL    HW128601   2.443   4.626   0.528
 9234SOL    HW228602   2.301   4.551   0.496
 9235SOL     OW28603   2.530   2.580   3.962
 9235SOL    HW128604   2.492   2.649   3.901
 9235SOL    HW228605   2.594   2.522   3.911
 9236SOL     OW28606   1.738   3.085   6.517
 9236SOL    HW128607   1.781   3.148   6.453
 9236SOL    HW228608   1.682   3.135   6.582
 9237SOL     OW28609   5.687   5.487   3.467
 9237SOL    HW128610   5.693   5.579   3.428
 9237SOL    HW228611   5.662   5.422   3.395
 9238SOL     OW28612   1.560   3.309   5.114
 9238SOL    HW128613   1.469   3.268   5.116
 9238SOL    HW228614   1.617   3.270   5.187
 9239SOL     OW28615   0.419   4.667   0.773
 9239SOL    HW128616   0.517   4.681   0.758
 9239SOL    HW228617   0.367   4.726   0.711
 9240SOL     OW28618   4.811   3.027   2.646
 9240SOL    HW128619   4.779   3.113   2.685
 9240SOL    HW228620   4.890   3.044   2.588
 9241SOL     OW28621   6.333   6.578   0.576
 9241SOL    HW128622   6.320   6.660   0.632
 9241SOL    HW228623   6.245   6.537   0.556
 9242SOL     OW28624   1.625   2.120   1.891
 9242SOL    HW128625   1.673   2.182   1.953
 9242SOL    HW228626   1.686   2.094   1.816
 9243SOL     OW28627   0.866   0.199   1.652
 9243SOL    HW128628   0.897   0.234   1.740
 9243SOL    HW228629   0.805   0.121   1.666
 9244SOL     OW28630   3.877   6.473   5.059
 9244SOL    HW128631   3.922   6.472   5.149
 9244SOL    HW228632   3.828   6.560   5.048
 9245SOL     OW28633   0.956   4.370   3.364
 9245SOL    HW128634   1.038   4.422   3.339
 9245SOL    HW228635   0.874   4.424   3.342
 9246SOL     OW28636   6.481   0.435   4.121
 9246SOL    HW128637   6.554   0.476   4.067
 9246SOL    HW228638   6.515   0.354   4.169
 9247SOL     OW28639   3.593   5.616   3.082
 9247SOL    HW128640   3.591   5.657   2.990
 9247SOL    HW228641   3.609   5.518   3.073
 9248SOL     OW28642   2.713   1.489   5.287
 9248SOL    HW128643   2.724   1.421   5.214
 9248SOL    HW228644   2.670   1.571   5.250
 9249SOL     OW28645   4.070   4.625   1.810
 9249SOL    HW128646   3.977   4.622   1.772
 9249SOL    HW228647   4.065   4.640   1.909
 9250SOL     OW28648   6.935   3.607   4.531
 9250SOL    HW128649   6.869   3.542   4.569
 9250SOL    HW228650   6.955   3.582   4.436
 9251SOL     OW28651   4.143   2.701   0.800
 9251SOL    HW128652   4.195   2.656   0.872
 9251SOL    HW228653   4.052   2.725   0.834
 9252SOL     OW28654   4.406   0.463   5.553
 9252SOL    HW128655   4.366   0.471   5.645
 9252SOL    HW228656   4.378   0.376   5.512
 9253SOL     OW28657   0.724   4.505   5.711
 9253SOL    HW128658   0.667   4.539   5.637
 9253SOL    HW228659   0.819   4.496   5.679
 9254SOL     OW28660   6.105   4.387   2.568
 9254SOL    HW128661   6.103   4.347   2.660
 9254SOL    HW228662   6.193   4.368   2.525
 9255SOL     OW28663   6.197   4.445   0.402
 9255SOL    HW128664   6.266   4.373   0.406
 9255SOL    HW228665   6.108   4.408   0.428
 9256SOL     OW28666   2.141   6.783   1.692
 9256SOL    HW128667   2.231   6.742   1.688
 9256SOL    HW228668   2.123   6.834   1.607
 9257SOL     OW28669   0.102   5.722   3.884
 9257SOL    HW128670   0.061   5.766   3.964
 9257SOL    HW228671   0.077   5.625   3.882
 9258SOL     OW28672   3.882   3.521   0.700
 9258SOL    HW128673   3.971   3.490   0.667
 9258SOL    HW228674   3.867   3.616   0.672
 9259SOL     OW28675   1.903   1.273   6.520
 9259SOL    HW128676   1.834   1.288   6.449
 9259SOL    HW228677   1.891   1.340   6.593
 9260SOL     OW28678   5.912   2.850   5.673
 9260SOL    HW128679   5.952   2.838   5.763
 9260SOL    HW228680   5.820   2.889   5.682
 9261SOL     OW28681   4.287   2.079   0.719
 9261SOL    HW128682   4.326   2.032   0.798
 9261SOL    HW228683   4.187   2.086   0.730
 9262SOL     OW28684   6.562   6.515   3.985
 9262SOL    HW128685   6.662   6.508   3.985
 9262SOL    HW228686   6.527   6.493   4.077
 9263SOL     OW28687   2.697   4.643   3.200
 9263SOL    HW128688   2.631   4.715   3.220
 9263SOL    HW228689   2.670   4.593   3.118
 9264SOL     OW28690   5.563   3.892   6.692
 9264SOL    HW128691   5.496   3.950   6.738
 9264SOL    HW228692   5.557   3.906   6.593
 9265SOL     OW28693   4.273   1.941   6.845
 9265SOL    HW128694   4.255   1.992   6.929
 9265SOL    HW228695   4.245   1.995   6.766
 9266SOL     OW28696   0.754   4.418   1.642
 9266SOL    HW128697   0.726   4.506   1.605
 9266SOL    HW228698   0.708   4.345   1.593
 9267SOL     OW28699   0.675   1.024   3.783
 9267SOL    HW128700   0.756   1.010   3.726
 9267SOL    HW228701   0.595   0.985   3.738
 9268SOL     OW28702   0.873   6.650   1.566
 9268SOL    HW128703   0.943   6.716   1.592
 9268SOL    HW228704   0.842   6.669   1.473
 9269SOL     OW28705   4.641   0.017   0.198
 9269SOL    HW128706   4.728   7.004   0.227
 9269SOL    HW228707   4.566   6.984   0.229
 9270SOL     OW28708   3.351   1.002   6.459
 9270SOL    HW128709   3.284   0.962   6.396
 9270SOL    HW228710   3.441   1.005   6.414
 9271SOL     OW28711   1.125   0.423   6.938
 9271SOL    HW128712   1.025   0.418   6.937
 9271SOL    HW228713   1.162   0.340   6.980
 9272SOL     OW28714   6.321   6.437   6.045
 9272SOL    HW128715   6.385   6.496   6.095
 9272SOL    HW228716   6.297   6.358   6.101
 9273SOL     OW28717   5.117   5.651   3.717
 9273SOL    HW128718   5.067   5.707   3.783
 9273SOL    HW228719   5.077   5.662   3.626
 9274SOL     OW28720   0.632   3.105   0.353
 9274SOL    HW128721   0.641   3.034   0.422
 9274SOL    HW228722   0.611   3.064   0.264
 9275SOL     OW28723   0.821   6.779   1.281
 9275SOL    HW128724   0.741   6.756   1.226
 9275SOL    HW228725   0.903   6.741   1.238
 9276SOL     OW28726   3.300   4.258   0.201
 9276SOL    HW128727   3.359   4.183   0.170
 9276SOL    HW228728   3.220   4.220   0.248
 9277SOL     OW28729   4.470   4.637   2.211
 9277SOL    HW128730   4.485   4.542   2.237
 9277SOL    HW228731   4.517   4.697   2.276
 9278SOL     OW28732   0.446   0.762   4.499
 9278SOL    HW128733   0.519   0.829   4.512
 9278SOL    HW228734   0.486   0.672   4.481
 9279SOL     OW28735   3.763   5.082   1.505
 9279SOL    HW128736   3.670   5.108   1.481
 9279SOL    HW228737   3.823   5.097   1.427
 9280SOL     OW28738   1.464   1.162   2.858
 9280SOL    HW128739   1.374   1.146   2.820
 9280SOL    HW228740   1.508   1.074   2.878
 9281SOL     OW28741   3.368   3.886   6.619
 9281SOL    HW128742   3.325   3.957   6.675
 9281SOL    HW228743   3.311   3.804   6.621
 9282SOL     OW28744   3.264   0.094   4.823
 9282SOL    HW128745   3.260   0.136   4.733
 9282SOL    HW228746   3.174   0.101   4.867
 9283SOL     OW28747   4.843   6.290   6.406
 9283SOL    HW128748   4.847   6.354   6.483
 9283SOL    HW228749   4.760   6.235   6.413
 9284SOL     OW28750   3.116   4.115   5.113
 9284SOL    HW128751   3.049   4.174   5.157
 9284SOL    HW228752   3.203   4.120   5.162
 9285SOL     OW28753   6.229   3.324   2.399
 9285SOL    HW128754   6.180   3.390   2.456
 9285SOL    HW228755   6.326   3.325   2.422
 9286SOL     OW28756   4.505   6.314   0.696
 9286SOL    HW128757   4.526   6.240   0.633
 9286SOL    HW228758   4.470   6.393   0.644
 9287SOL     OW28759   2.965   4.438   5.868
 9287SOL    HW128760   2.973   4.529   5.828
 9287SOL    HW228761   2.936   4.373   5.798
 9288SOL     OW28762   4.312   2.307   3.962
 9288SOL    HW128763   4.346   2.383   3.906
 9288SOL    HW228764   4.290   2.230   3.902
 9289SOL     OW28765   4.483   6.386   6.580
 9289SOL    HW128766   4.497   6.307   6.638
 9289SOL    HW228767   4.466   6.356   6.486
 9290SOL     OW28768   5.397   0.665   4.991
 9290SOL    HW128769   5.486   0.651   5.034
 9290SOL    HW228770   5.407   0.727   4.913
 9291SOL     OW28771   1.018   5.648   5.452
 9291SOL    HW128772   1.100   5.638   5.509
 9291SOL    HW228773   1.039   5.620   5.358
 9292SOL     OW28774   1.410   1.059   6.103
 9292SOL    HW128775   1.487   0.995   6.110
 9292SOL    HW228776   1.373   1.056   6.010
 9293SOL     OW28777   4.581   2.890   5.742
 9293SOL    HW128778   4.578   2.821   5.815
 9293SOL    HW228779   4.621   2.850   5.660
 9294SOL     OW28780   4.512   0.859   6.928
 9294SOL    HW128781   4.527   0.762   6.948
 9294SOL    HW228782   4.581   0.890   6.862
 9295SOL     OW28783   0.364   0.433   4.781
 9295SOL    HW128784   0.320   0.499   4.720
 9295SOL    HW228785   0.417   0.368   4.726
 9296SOL     OW28786   2.815   4.491   0.729
 9296SOL    HW128787   2.784   4.403   0.766
 9296SOL    HW228788   2.859   4.476   0.641
 9297SOL     OW28789   6.910   6.456   3.196
 9297SOL    HW128790   6.900   6.374   3.140
 9297SOL    HW228791   6.819   6.490   3.220
 9298SOL     OW28792   1.552   6.478   5.722
 9298SOL    HW128793   1.555   6.403   5.656
 9298SOL    HW228794   1.623   6.465   5.791
 9299SOL     OW28795   2.031   2.326   4.779
 9299SOL    HW128796   2.005   2.422   4.772
 9299SOL    HW228797   2.052   2.289   4.688
 9300SOL     OW28798   1.509   5.837   5.540
 9300SOL    HW128799   1.598   5.881   5.530
 9300SOL    HW228800   1.468   5.825   5.449
 9301SOL     OW28801   0.413   3.919   4.788
 9301SOL    HW128802   0.403   3.832   4.837
 9301SOL    HW228803   0.331   3.937   4.734
 9302SOL     OW28804   2.094   3.086   5.121
 9302SOL    HW128805   2.190   3.090   5.095
 9302SOL    HW228806   2.060   2.993   5.109
 9303SOL     OW28807   3.146   4.075   0.320
 9303SOL    HW128808   3.066   4.018   0.336
 9303SOL    HW228809   3.224   4.016   0.298
 9304SOL     OW28810   5.160   4.779   0.709
 9304SOL    HW128811   5.100   4.828   0.773
 9304SOL    HW228812   5.113   4.698   0.676
 9305SOL     OW28813   2.384   1.282   0.746
 9305SOL    HW128814   2.431   1.360   0.705
 9305SOL    HW228815   2.451   1.215   0.779
 9306SOL     OW28816   0.397   4.092   5.295
 9306SOL    HW128817   0.475   4.102   5.233
 9306SOL    HW228818   0.348   4.007   5.274
 9307SOL     OW28819   2.267   3.096   1.062
 9307SOL    HW128820   2.243   3.050   0.976
 9307SOL    HW228821   2.185   3.138   1.101
 9308SOL     OW28822   1.659   3.858   1.497
 9308SOL    HW128823   1.727   3.842   1.426
 9308SOL    HW228824   1.686   3.810   1.581
 9309SOL     OW28825   4.530   5.913   5.724
 9309SOL    HW128826   4.604   5.885   5.785
 9309SOL    HW228827   4.511   5.839   5.659
 9310SOL     OW28828   4.190   5.646   6.031
 9310SOL    HW128829   4.289   5.655   6.026
 9310SOL    HW228830   4.147   5.731   6.001
 9311SOL     OW28831   4.543   3.418   1.697
 9311SOL    HW128832   4.580   3.343   1.642
 9311SOL    HW228833   4.471   3.384   1.758
 9312SOL     OW28834   0.885   2.208   1.007
 9312SOL    HW128835   0.970   2.233   1.053
 9312SOL    HW228836   0.824   2.287   1.004
 9313SOL     OW28837   1.530   6.526   1.643
 9313SOL    HW128838   1.498   6.473   1.721
 9313SOL    HW228839   1.624   6.555   1.659
 9314SOL     OW28840   4.923   2.538   0.794
 9314SOL    HW128841   5.019   2.557   0.775
 9314SOL    HW228842   4.916   2.450   0.842
 9315SOL     OW28843   5.768   1.350   6.768
 9315SOL    HW128844   5.847   1.388   6.721
 9315SOL    HW228845   5.763   1.251   6.752
 9316SOL     OW28846   4.919   0.982   5.367
 9316SOL    HW128847   5.012   1.000   5.336
 9316SOL    HW228848   4.922   0.944   5.459
 9317SOL     OW28849   2.798   5.747   4.305
 9317SOL    HW128850   2.767   5.813   4.373
 9317SOL    HW228851   2.814   5.659   4.350
 9318SOL     OW28852   4.546   6.403   0.312
 9318SOL    HW128853   4.448   6.402   0.333
 9318SOL    HW228854   4.589   6.480   0.360
 9319SOL     OW28855   2.749   4.290   0.901
 9319SOL    HW128856   2.724   4.198   0.932
 9319SOL    HW228857   2.794   4.339   0.975
 9320SOL     OW28858   6.052   0.260   6.449
 9320SOL    HW128859   6.118   0.232   6.380
 9320SOL    HW228860   5.979   0.314   6.406
 9321SOL     OW28861   0.254   3.187   5.597
 9321SOL    HW128862   0.284   3.119   5.530
 9321SOL    HW228863   0.234   3.141   5.684
 9322SOL     OW28864   6.044   3.988   5.721
 9322SOL    HW128865   5.977   3.943   5.663
 9322SOL    HW228866   6.136   3.955   5.698
 9323SOL     OW28867   1.347   3.481   3.140
 9323SOL    HW128868   1.352   3.578   3.116
 9323SOL    HW228869   1.295   3.432   3.070
 9324SOL     OW28870   1.306   4.300   1.216
 9324SOL    HW128871   1.384   4.243   1.192
 9324SOL    HW228872   1.243   4.249   1.275
 9325SOL     OW28873   1.689   5.336   2.494
 9325SOL    HW128874   1.699   5.324   2.395
 9325SOL    HW228875   1.728   5.257   2.541
 9326SOL     OW28876   4.002   4.278   0.344
 9326SOL    HW128877   4.070   4.291   0.416
 9326SOL    HW228878   4.048   4.267   0.256
 9327SOL     OW28879   4.560   0.891   3.091
 9327SOL    HW128880   4.536   0.817   3.028
 9327SOL    HW228881   4.654   0.880   3.122
 9328SOL     OW28882   2.807   6.503   4.267
 9328SOL    HW128883   2.815   6.535   4.172
 9328SOL    HW228884   2.759   6.571   4.321
 9329SOL     OW28885   0.070   6.045   6.473
 9329SOL    HW128886   0.092   6.122   6.534
 9329SOL    HW228887   0.135   5.971   6.489
 9330SOL     OW28888   6.352   0.054   6.927
 9330SOL    HW128889   6.289   0.130   6.913
 9330SOL    HW228890   6.327   0.005   7.010
 9331SOL     OW28891   1.741   2.945   4.913
 9331SOL    HW128892   1.817   2.993   4.869
 9331SOL    HW228893   1.655   2.992   4.892
 9332SOL     OW28894   4.177   5.782   0.930
 9332SOL    HW128895   4.210   5.876   0.934
 9332SOL    HW228896   4.218   5.730   1.005
 9333SOL     OW28897   3.300   5.194   0.474
 9333SOL    HW128898   3.376   5.144   0.433
 9333SOL    HW228899   3.244   5.131   0.529
 9334SOL     OW28900   4.991   6.913   5.237
 9334SOL    HW128901   5.056   6.913   5.161
 9334SOL    HW228902   4.908   6.863   5.211
 9335SOL     OW28903   2.388   1.816   1.659
 9335SOL    HW128904   2.313   1.758   1.689
 9335SOL    HW228905   2.415   1.877   1.734
 9336SOL     OW28906   6.455   0.933   5.071
 9336SOL    HW128907   6.503   0.905   4.988
 9336SOL    HW228908   6.436   1.031   5.066
 9337SOL     OW28909   4.620   0.759   5.645
 9337SOL    HW128910   4.719   0.755   5.656
 9337SOL    HW228911   4.577   0.711   5.722
 9338SOL     OW28912   6.565   6.228   0.584
 9338SOL    HW128913   6.501   6.163   0.545
 9338SOL    HW228914   6.592   6.294   0.514
 9339SOL     OW28915   5.932   4.887   6.500
 9339SOL    HW128916   5.957   4.949   6.574
 9339SOL    HW228917   5.914   4.940   6.417
 9340SOL     OW28918   3.571   6.058   2.384
 9340SOL    HW128919   3.565   6.140   2.327
 9340SOL    HW228920   3.609   5.983   2.330
 9341SOL     OW28921   5.937   4.102   6.377
 9341SOL    HW128922   5.874   4.023   6.380
 9341SOL    HW228923   5.895   4.179   6.425
 9342SOL     OW28924   2.256   0.511   4.438
 9342SOL    HW128925   2.323   0.442   4.464
 9342SOL    HW228926   2.178   0.467   4.395
 9343SOL     OW28927   4.724   4.503   1.990
 9343SOL    HW128928   4.653   4.434   2.006
 9343SOL    HW228929   4.807   4.476   2.039
 9344SOL     OW28930   5.529   5.568   6.021
 9344SOL    HW128931   5.513   5.600   5.928
 9344SOL    HW228932   5.603   5.501   6.021
 9345SOL     OW28933   6.903   6.070   7.020
 9345SOL    HW128934   6.987   6.118   0.017
 9345SOL    HW228935   6.867   6.025   0.077
 9346SOL     OW28936   5.670   6.638   2.006
 9346SOL    HW128937   5.614   6.701   2.061
 9346SOL    HW228938   5.688   6.679   1.916
 9347SOL     OW28939   3.725   5.744   1.504
 9347SOL    HW128940   3.641   5.785   1.470
 9347SOL    HW228941   3.798   5.812   1.504
 9348SOL     OW28942   2.460   6.357   2.577
 9348SOL    HW128943   2.425   6.384   2.667
 9348SOL    HW228944   2.435   6.263   2.558
 9349SOL     OW28945   6.647   5.945   2.218
 9349SOL    HW128946   6.576   5.916   2.282
 9349SOL    HW228947   6.630   5.903   2.128
 9350SOL     OW28948   6.997   1.672   5.031
 9350SOL    HW128949   6.912   1.630   4.999
 9350SOL    HW228950   6.979   1.728   5.112
 9351SOL     OW28951   2.416   0.874   5.347
 9351SOL    HW128952   2.482   0.944   5.373
 9351SOL    HW228953   2.385   0.890   5.253
 9352SOL     OW28954   2.399   2.272   5.953
 9352SOL    HW128955   2.308   2.239   5.927
 9352SOL    HW228956   2.457   2.276   5.871
 9353SOL     OW28957   1.151   4.191   1.414
 9353SOL    HW128958   1.093   4.145   1.481
 9353SOL    HW228959   1.245   4.194   1.449
 9354SOL     OW28960   6.501   2.238   1.108
 9354SOL    HW128961   6.465   2.159   1.058
 9354SOL    HW228962   6.587   2.212   1.153
 9355SOL     OW28963   6.779   0.735   4.191
 9355SOL    HW128964   6.820   0.755   4.102
 9355SOL    HW228965   6.850   0.737   4.262
 9356SOL     OW28966   4.447   5.265   2.276
 9356SOL    HW128967   4.415   5.359   2.262
 9356SOL    HW228968   4.371   5.207   2.305
 9357SOL     OW28969   3.074   3.544   0.345
 9357SOL    HW128970   3.061   3.470   0.279
 9357SOL    HW228971   3.115   3.623   0.300
 9358SOL     OW28972   5.790   4.548   1.505
 9358SOL    HW128973   5.727   4.625   1.499
 9358SOL    HW228974   5.812   4.530   1.600
 9359SOL     OW28975   0.077   4.175   6.770
 9359SOL    HW128976   0.136   4.254   6.787
 9359SOL    HW228977   0.076   4.116   6.851
 9360SOL     OW28978   2.024   0.120   5.401
 9360SOL    HW128979   1.997   0.216   5.410
 9360SOL    HW228980   2.083   0.094   5.477
 9361SOL     OW28981   3.155   6.288   2.437
 9361SOL    HW128982   3.193   6.299   2.345
 9361SOL    HW228983   3.210   6.222   2.488
 9362SOL     OW28984   2.381   0.967   2.483
 9362SOL    HW128985   2.470   0.920   2.484
 9362SOL    HW228986   2.326   0.930   2.408
 9363SOL     OW28987   3.537   5.510   2.310
 9363SOL    HW128988   3.568   5.446   2.240
 9363SOL    HW228989   3.455   5.472   2.354
 9364SOL     OW28990   4.676   2.771   6.085
 9364SOL    HW128991   4.631   2.846   6.133
 9364SOL    HW228992   4.702   2.700   6.151
 9365SOL     OW28993   2.661   2.447   5.072
 9365SOL    HW128994   2.589   2.515   5.054
 9365SOL    HW228995   2.714   2.476   5.152
 9366SOL     OW28996   3.217   1.563   0.706
 9366SOL    HW128997   3.225   1.530   0.801
 9366SOL    HW228998   3.176   1.654   0.706
 9367SOL     OW28999   7.024   5.460   3.881
 9367SOL    HW129000   7.020   5.428   3.786
 9367SOL    HW229001   6.931   5.465   3.919
 9368SOL     OW29002   3.757   1.846   2.294
 9368SOL    HW129003   3.673   1.806   2.328
 9368SOL    HW229004   3.813   1.878   2.370
 9369SOL     OW29005   6.656   1.409   6.126
 9369SOL    HW129006   6.583   1.346   6.097
 9369SOL    HW229007   6.684   1.465   6.048
 9370SOL     OW29008   5.860   1.345   3.026
 9370SOL    HW129009   5.863   1.245   3.033
 9370SOL    HW229010   5.946   1.379   2.989
 9371SOL     OW29011   1.446   5.244   0.561
 9371SOL    HW129012   1.460   5.209   0.469
 9371SOL    HW229013   1.523   5.216   0.619
 9372SOL     OW29014   5.452   6.090   2.986
 9372SOL    HW129015   5.434   6.109   3.083
 9372SOL    HW229016   5.527   6.149   2.955
 9373SOL     OW29017   4.236   1.747   3.151
 9373SOL    HW129018   4.182   1.693   3.085
 9373SOL    HW229019   4.181   1.824   3.183
 9374SOL     OW29020   5.821   2.723   0.333
 9374SOL    HW129021   5.724   2.725   0.311
 9374SOL    HW229022   5.837   2.659   0.408
 9375SOL     OW29023   0.050   1.468   3.453
 9375SOL    HW129024   0.007   1.478   3.543
 9375SOL    HW229025   7.003   1.467   3.383
 9376SOL     OW29026   3.588   3.710   1.087
 9376SOL    HW129027   3.679   3.715   1.045
 9376SOL    HW229028   3.519   3.703   1.016
 9377SOL     OW29029   6.563   5.537   3.520
 9377SOL    HW129030   6.558   5.570   3.614
 9377SOL    HW229031   6.539   5.611   3.457
 9378SOL     OW29032   2.776   0.013   5.554
 9378SOL    HW129033   2.752   6.976   5.479
 9378SOL    HW229034   2.731   7.006   5.638
 9379SOL     OW29035   4.780   4.558   4.783
 9379SOL    HW129036   4.703   4.553   4.846
 9379SOL    HW229037   4.783   4.475   4.727
 9380SOL     OW29038   6.314   6.482   5.392
 9380SOL    HW129039   6.336   6.395   5.436
 9380SOL    HW229040   6.329   6.474   5.293
 9381SOL     OW29041   2.927   2.977   5.346
 9381SOL    HW129042   3.009   3.034   5.351
 9381SOL    HW229043   2.845   3.035   5.348
 9382SOL     OW29044   3.704   1.019   3.513
 9382SOL    HW129045   3.797   0.985   3.499
 9382SOL    HW229046   3.702   1.117   3.493
 9383SOL     OW29047   3.656   5.937   4.693
 9383SOL    HW129048   3.639   5.944   4.791
 9383SOL    HW229049   3.724   5.866   4.676
 9384SOL     OW29050   4.044   5.951   2.310
 9384SOL    HW129051   3.989   6.009   2.370
 9384SOL    HW229052   4.108   5.897   2.365
 9385SOL     OW29053   4.219   1.912   2.713
 9385SOL    HW129054   4.207   1.885   2.618
 9385SOL    HW229055   4.132   1.904   2.761
 9386SOL     OW29056   3.319   5.913   4.370
 9386SOL    HW129057   3.401   5.883   4.419
 9386SOL    HW229058   3.340   5.994   4.315
 9387SOL     OW29059   4.336   6.953   1.232
 9387SOL    HW129060   4.269   6.906   1.175
 9387SOL    HW229061   4.428   6.933   1.198
 9388SOL     OW29062   1.675   6.125   2.510
 9388SOL    HW129063   1.577   6.123   2.530
 9388SOL    HW229064   1.716   6.039   2.539
 9389SOL     OW29065   2.339   0.289   5.271
 9389SOL    HW129066   2.295   0.379   5.266
 9389SOL    HW229067   2.437   0.301   5.288
 9390SOL     OW29068   3.685   5.882   3.168
 9390SOL    HW129069   3.646   5.808   3.114
 9390SOL    HW229070   3.695   5.964   3.111
 9391SOL     OW29071   2.114   0.724   5.682
 9391SOL    HW129072   2.135   0.664   5.759
 9391SOL    HW229073   2.016   0.718   5.661
 9392SOL     OW29074   0.464   6.833   4.440
 9392SOL    HW129075   0.443   6.804   4.346
 9392SOL    HW229076   0.419   6.771   4.504
 9393SOL     OW29077   3.967   1.772   4.193
 9393SOL    HW129078   3.937   1.839   4.125
 9393SOL    HW229079   3.980   1.683   4.148
 9394SOL     OW29080   6.168   2.549   3.420
 9394SOL    HW129081   6.186   2.645   3.443
 9394SOL    HW229082   6.255   2.502   3.403
 9395SOL     OW29083   2.879   2.179   0.561
 9395SOL    HW129084   2.890   2.273   0.529
 9395SOL    HW229085   2.869   2.179   0.661
 9396SOL     OW29086   0.018   6.514   4.908
 9396SOL    HW129087   0.116   6.503   4.891
 9396SOL    HW229088   7.003   6.569   4.835
 9397SOL     OW29089   2.572   0.375   0.248
 9397SOL    HW129090   2.619   0.419   0.325
 9397SOL    HW229091   2.566   0.439   0.171
 9398SOL     OW29092   1.882   0.519   0.053
 9398SOL    HW129093   1.805   0.458   0.074
 9398SOL    HW229094   1.961   0.493   0.109
 9399SOL     OW29095   6.782   1.983   0.408
 9399SOL    HW129096   6.704   1.943   0.360
 9399SOL    HW229097   6.860   1.920   0.404
 9400SOL     OW29098   5.256   3.734   1.684
 9400SOL    HW129099   5.281   3.828   1.658
 9400SOL    HW229100   5.158   3.729   1.701
 9401SOL     OW29101   2.562   6.763   3.555
 9401SOL    HW129102   2.620   6.752   3.474
 9401SOL    HW229103   2.530   6.674   3.586
 9402SOL     OW29104   2.032   4.489   5.638
 9402SOL    HW129105   1.962   4.551   5.604
 9402SOL    HW229106   2.043   4.501   5.737
 9403SOL     OW29107   5.044   1.912   2.749
 9403SOL    HW129108   5.128   1.963   2.769
 9403SOL    HW229109   4.976   1.930   2.820
 9404SOL     OW29110   1.146   4.753   6.647
 9404SOL    HW129111   1.194   4.784   6.564
 9404SOL    HW229112   1.210   4.705   6.707
 9405SOL     OW29113   6.714   0.106   1.977
 9405SOL    HW129114   6.679   0.013   1.988
 9405SOL    HW229115   6.813   0.103   1.962
 9406SOL     OW29116   0.571   1.442   5.877
 9406SOL    HW129117   0.534   1.364   5.827
 9406SOL    HW229118   0.661   1.465   5.841
 9407SOL     OW29119   2.728   6.997   2.494
 9407SOL    HW129120   2.648   0.029   2.472
 9407SOL    HW229121   2.706   6.901   2.477
 9408SOL     OW29122   3.287   1.506   5.854
 9408SOL    HW129123   3.268   1.452   5.936
 9408SOL    HW229124   3.228   1.475   5.779
 9409SOL     OW29125   4.674   4.302   4.689
 9409SOL    HW129126   4.589   4.348   4.717
 9409SOL    HW229127   4.695   4.229   4.754
 9410SOL     OW29128   3.684   5.652   1.770
 9410SOL    HW129129   3.701   5.721   1.700
 9410SOL    HW229130   3.586   5.643   1.786
 9411SOL     OW29131   3.664   4.518   0.971
 9411SOL    HW129132   3.651   4.586   0.898
 9411SOL    HW229133   3.589   4.524   1.036
 9412SOL     OW29134   0.649   3.526   1.687
 9412SOL    HW129135   0.724   3.508   1.623
 9412SOL    HW229136   0.598   3.606   1.656
 9413SOL     OW29137   4.319   5.639   5.345
 9413SOL    HW129138   4.319   5.685   5.256
 9413SOL    HW229139   4.390   5.679   5.403
 9414SOL     OW29140   3.264   1.721   3.380
 9414SOL    HW129141   3.299   1.799   3.432
 9414SOL    HW229142   3.323   1.706   3.300
 9415SOL     OW29143   2.384   6.068   2.567
 9415SOL    HW129144   2.381   6.033   2.474
 9415SOL    HW229145   2.296   6.111   2.590
 9416SOL     OW29146   0.568   1.360   1.675
 9416SOL    HW129147   0.549   1.456   1.652
 9416SOL    HW229148   0.565   1.348   1.774
 9417SOL     OW29149   2.812   0.518   5.774
 9417SOL    HW129150   2.900   0.488   5.809
 9417SOL    HW229151   2.824   0.594   5.711
 9418SOL     OW29152   2.285   6.272   0.674
 9418SOL    HW129153   2.350   6.342   0.644
 9418SOL    HW229154   2.303   6.250   0.770
 9419SOL     OW29155   3.300   6.156   5.149
 9419SOL    HW129156   3.264   6.072   5.106
 9419SOL    HW229157   3.328   6.220   5.078
 9420SOL     OW29158   0.596   1.978   5.234
 9420SOL    HW129159   0.577   1.880   5.231
 9420SOL    HW229160   0.553   2.022   5.155
 9421SOL     OW29161   2.181   5.677   5.545
 9421SOL    HW129162   2.217   5.736   5.473
 9421SOL    HW229163   2.226   5.588   5.541
 9422SOL     OW29164   5.144   0.021   2.066
 9422SOL    HW129165   5.123   0.050   2.160
 9422SOL    HW229166   5.236   0.051   2.042
 9423SOL     OW29167   4.273   0.800   2.812
 9423SOL    HW129168   4.274   0.822   2.714
 9423SOL    HW229169   4.180   0.810   2.847
 9424SOL     OW29170   5.061   0.481   5.631
 9424SOL    HW129171   5.129   0.502   5.701
 9424SOL    HW229172   5.106   0.473   5.542
 9425SOL     OW29173   6.921   3.454   6.084
 9425SOL    HW129174   6.855   3.486   6.016
 9425SOL    HW229175   7.005   3.508   6.077
 9426SOL     OW29176   2.662   1.579   0.316
 9426SOL    HW129177   2.584   1.640   0.309
 9426SOL    HW229178   2.653   1.505   0.250
 9427SOL     OW29179   2.388   4.684   5.308
 9427SOL    HW129180   2.406   4.781   5.293
 9427SOL    HW229181   2.435   4.630   5.239
 9428SOL     OW29182   5.250   0.169   1.789
 9428SOL    HW129183   5.254   0.132   1.696
 9428SOL    HW229184   5.300   0.109   1.851
 9429SOL     OW29185   1.315   4.420   1.616
 9429SOL    HW129186   1.270   4.477   1.548
 9429SOL    HW229187   1.359   4.342   1.571
 9430SOL     OW29188   6.695   6.530   1.705
 9430SOL    HW129189   6.758   6.478   1.763
 9430SOL    HW229190   6.710   6.628   1.721
 9431SOL     OW29191   5.288   4.077   0.582
 9431SOL    HW129192   5.308   4.174   0.564
 9431SOL    HW229193   5.371   4.023   0.568
 9432SOL     OW29194   6.746   0.217   3.561
 9432SOL    HW129195   6.697   0.132   3.579
 9432SOL    HW229196   6.814   0.201   3.489
 9433SOL     OW29197   3.139   5.057   4.055
 9433SOL    HW129198   3.057   5.101   4.092
 9433SOL    HW229199   3.187   5.008   4.127
 9434SOL     OW29200   5.415   4.788   3.768
 9434SOL    HW129201   5.489   4.801   3.703
 9434SOL    HW229202   5.425   4.853   3.844
 9435SOL     OW29203   1.236   1.316   4.077
 9435SOL    HW129204   1.168   1.349   4.143
 9435SOL    HW229205   1.326   1.354   4.099
 9436SOL     OW29206   1.231   3.997   2.020
 9436SOL    HW129207   1.201   3.906   1.992
 9436SOL    HW229208   1.260   4.049   1.939
 9437SOL     OW29209   1.125   6.238   3.502
 9437SOL    HW129210   1.088   6.145   3.508
 9437SOL    HW229211   1.099   6.290   3.583
 9438SOL     OW29212   0.819   6.127   1.127
 9438SOL    HW129213   0.886   6.167   1.065
 9438SOL    HW229214   0.763   6.200   1.167
 9439SOL     OW29215   0.647   3.127   2.176
 9439SOL    HW129216   0.610   3.063   2.244
 9439SOL    HW229217   0.573   3.181   2.137
 9440SOL     OW29218   4.795   5.501   4.572
 9440SOL    HW129219   4.863   5.483   4.643
 9440SOL    HW229220   4.840   5.499   4.482
 9441SOL     OW29221   1.553   5.325   4.937
 9441SOL    HW129222   1.573   5.345   4.841
 9441SOL    HW229223   1.637   5.299   4.984
 9442SOL     OW29224   6.165   2.190   0.071
 9442SOL    HW129225   6.185   2.287   0.057
 9442SOL    HW229226   6.211   2.136   0.001
 9443SOL     OW29227   2.242   4.445   1.356
 9443SOL    HW129228   2.203   4.361   1.394
 9443SOL    HW229229   2.341   4.446   1.374
 9444SOL     OW29230   0.723   3.436   6.826
 9444SOL    HW129231   0.673   3.391   6.753
 9444SOL    HW229232   0.796   3.492   6.787
 9445SOL     OW29233   5.413   3.324   1.931
 9445SOL    HW129234   5.352   3.359   1.860
 9445SOL    HW229235   5.358   3.292   2.008
 9446SOL     OW29236   6.563   6.984   3.251
 9446SOL    HW129237   6.586   6.950   3.342
 9446SOL    HW229238   6.638   6.963   3.188
 9447SOL     OW29239   5.689   3.297   3.066
 9447SOL    HW129240   5.710   3.348   2.983
 9447SOL    HW229241   5.774   3.263   3.106
 9448SOL     OW29242   5.310   6.158   6.180
 9448SOL    HW129243   5.219   6.126   6.206
 9448SOL    HW229244   5.329   6.244   6.228
 9449SOL     OW29245   6.929   5.534   6.251
 9449SOL    HW129246   6.829   5.543   6.254
 9449SOL    HW229247   6.970   5.624   6.238
 9450SOL     OW29248   3.240   5.244   4.762
 9450SOL    HW129249   3.202   5.158   4.728
 9450SOL    HW229250   3.325   5.265   4.712
 9451SOL     OW29251   4.063   5.399   6.069
 9451SOL    HW129252   4.069   5.342   5.987
 9451SOL    HW229253   4.090   5.493   6.046
 9452SOL     OW29254   1.713   3.175   1.278
 9452SOL    HW129255   1.742   3.254   1.223
 9452SOL    HW229256   1.614   3.173   1.284
 9453SOL     OW29257   2.065   4.404   3.204
 9453SOL    HW129258   1.974   4.372   3.232
 9453SOL    HW229259   2.087   4.488   3.253
 9454SOL     OW29260   2.351   3.385   6.173
 9454SOL    HW129261   2.265   3.339   6.197
 9454SOL    HW229262   2.331   3.478   6.142
 9455SOL     OW29263   3.320   1.479   2.596
 9455SOL    HW129264   3.347   1.526   2.680
 9455SOL    HW229265   3.233   1.517   2.563
 9456SOL     OW29266   0.307   4.520   0.280
 9456SOL    HW129267   0.246   4.524   0.359
 9456SOL    HW229268   0.319   4.425   0.252
 9457SOL     OW29269   1.598   3.715   6.390
 9457SOL    HW129270   1.686   3.687   6.351
 9457SOL    HW229271   1.537   3.743   6.316
 9458SOL     OW29272   1.310   4.612   6.824
 9458SOL    HW129273   1.317   4.614   6.924
 9458SOL    HW229274   1.318   4.518   6.792
 9459SOL     OW29275   6.240   5.154   2.363
 9459SOL    HW129276   6.340   5.156   2.356
 9459SOL    HW229277   6.208   5.236   2.410
 9460SOL     OW29278   0.195   1.842   4.929
 9460SOL    HW129279   0.121   1.841   4.996
 9460SOL    HW229280   0.220   1.748   4.905
 9461SOL     OW29281   6.301   1.602   3.226
 9461SOL    HW129282   6.341   1.545   3.297
 9461SOL    HW229283   6.207   1.573   3.210
 9462SOL     OW29284   2.034   3.932   3.027
 9462SOL    HW129285   2.052   3.929   3.126
 9462SOL    HW229286   2.059   3.845   2.986
 9463SOL     OW29287   0.214   0.864   1.166
 9463SOL    HW129288   0.297   0.867   1.110
 9463SOL    HW229289   0.227   0.800   1.242
 9464SOL     OW29290   5.553   6.540   6.937
 9464SOL    HW129291   5.478   6.479   6.914
 9464SOL    HW229292   5.634   6.487   6.960
 9465SOL     OW29293   0.014   0.334   3.387
 9465SOL    HW129294   0.039   0.430   3.384
 9465SOL    HW229295   6.981   0.312   3.308
 9466SOL     OW29296   4.233   3.773   5.229
 9466SOL    HW129297   4.266   3.727   5.311
 9466SOL    HW229298   4.254   3.870   5.234
 9467SOL     OW29299   1.191   3.035   1.503
 9467SOL    HW129300   1.140   3.079   1.429
 9467SOL    HW229301   1.208   2.939   1.479
 9468SOL     OW29302   5.851   2.583   6.077
 9468SOL    HW129303   5.777   2.562   6.013
 9468SOL    HW229304   5.908   2.501   6.088
 9469SOL     OW29305   6.152   5.300   1.621
 9469SOL    HW129306   6.138   5.206   1.652
 9469SOL    HW229307   6.245   5.311   1.587
 9470SOL     OW29308   5.732   3.293   6.075
 9470SOL    HW129309   5.727   3.207   6.025
 9470SOL    HW229310   5.640   3.331   6.085
 9471SOL     OW29311   6.638   2.410   5.158
 9471SOL    HW129312   6.657   2.428   5.254
 9471SOL    HW229313   6.699   2.466   5.101
 9472SOL     OW29314   6.583   3.665   4.485
 9472SOL    HW129315   6.636   3.581   4.500
 9472SOL    HW229316   6.635   3.728   4.428
 9473SOL     OW29317   3.703   6.464   5.351
 9473SOL    HW129318   3.779   6.486   5.412
 9473SOL    HW229319   3.632   6.534   5.358
 9474SOL     OW29320   6.130   3.949   1.160
 9474SOL    HW129321   6.197   3.875   1.164
 9474SOL    HW229322   6.039   3.913   1.178
 9475SOL     OW29323   3.387   3.585   0.470
 9475SOL    HW129324   3.307   3.625   0.514
 9475SOL    HW229325   3.438   3.531   0.537
 9476SOL     OW29326   3.088   3.476   4.659
 9476SOL    HW129327   3.002   3.526   4.653
 9476SOL    HW229328   3.076   3.394   4.716
 9477SOL     OW29329   0.462   3.306   2.020
 9477SOL    HW129330   0.472   3.240   1.946
 9477SOL    HW229331   0.453   3.398   1.981
 9478SOL     OW29332   6.055   3.816   6.337
 9478SOL    HW129333   6.077   3.885   6.406
 9478SOL    HW229334   6.085   3.848   6.247
 9479SOL     OW29335   5.432   6.792   6.205
 9479SOL    HW129336   5.355   6.830   6.256
 9479SOL    HW229337   5.451   6.851   6.126
 9480SOL     OW29338   4.549   4.280   6.691
 9480SOL    HW129339   4.574   4.264   6.595
 9480SOL    HW229340   4.603   4.357   6.726
 9481SOL     OW29341   5.860   3.845   1.254
 9481SOL    HW129342   5.818   3.860   1.344
 9481SOL    HW229343   5.878   3.747   1.242
 9482SOL     OW29344   6.397   0.942   3.278
 9482SOL    HW129345   6.348   0.898   3.203
 9482SOL    HW229346   6.332   0.982   3.342
 9483SOL     OW29347   1.831   1.320   1.041
 9483SOL    HW129348   1.794   1.413   1.038
 9483SOL    HW229349   1.782   1.266   1.109
 9484SOL     OW29350   5.103   1.923   3.217
 9484SOL    HW129351   5.059   1.992   3.158
 9484SOL    HW229352   5.036   1.854   3.242
 9485SOL     OW29353   0.801   6.967   1.724
 9485SOL    HW129354   0.743   6.889   1.748
 9485SOL    HW229355   0.869   6.980   1.796
 9486SOL     OW29356   2.205   5.173   1.001
 9486SOL    HW129357   2.294   5.162   1.046
 9486SOL    HW229358   2.202   5.263   0.956
 9487SOL     OW29359   2.929   3.375   3.917
 9487SOL    HW129360   2.902   3.446   3.853
 9487SOL    HW229361   2.902   3.401   4.010
 9488SOL     OW29362   2.922   6.719   1.514
 9488SOL    HW129363   2.880   6.708   1.604
 9488SOL    HW229364   2.979   6.639   1.494
 9489SOL     OW29365   3.323   3.878   1.408
 9489SOL    HW129366   3.230   3.873   1.372
 9489SOL    HW229367   3.330   3.953   1.473
 9490SOL     OW29368   5.580   0.109   0.230
 9490SOL    HW129369   5.610   0.082   0.322
 9490SOL    HW229370   5.535   0.198   0.234
 9491SOL     OW29371   6.890   4.714   4.519
 9491SOL    HW129372   6.902   4.752   4.611
 9491SOL    HW229373   6.847   4.624   4.525
 9492SOL     OW29374   3.291   3.484   2.629
 9492SOL    HW129375   3.250   3.565   2.587
 9492SOL    HW229376   3.390   3.487   2.617
 9493SOL     OW29377   4.348   5.372   3.883
 9493SOL    HW129378   4.255   5.371   3.920
 9493SOL    HW229379   4.348   5.417   3.794
 9494SOL     OW29380   4.246   3.812   1.060
 9494SOL    HW129381   4.280   3.757   0.984
 9494SOL    HW229382   4.207   3.897   1.025
 9495SOL     OW29383   6.543   2.485   4.413
 9495SOL    HW129384   6.452   2.487   4.456
 9495SOL    HW229385   6.590   2.571   4.431
 9496SOL     OW29386   5.033   4.745   0.178
 9496SOL    HW129387   5.104   4.692   0.226
 9496SOL    HW229388   5.049   4.843   0.193
 9497SOL     OW29389   4.879   4.017   0.369
 9497SOL    HW129390   4.978   4.008   0.382
 9497SOL    HW229391   4.836   3.928   0.386
 9498SOL     OW29392   5.215   0.768   6.355
 9498SOL    HW129393   5.203   0.862   6.325
 9498SOL    HW229394   5.179   0.706   6.284
 9499SOL     OW29395   2.540   3.298   5.639
 9499SOL    HW129396   2.550   3.330   5.545
 9499SOL    HW229397   2.550   3.375   5.702
 9500SOL     OW29398   3.260   6.677   2.022
 9500SOL    HW129399   3.288   6.622   1.944
 9500SOL    HW229400   3.161   6.691   2.021
 9501SOL     OW29401   3.082   1.524   4.641
 9501SOL    HW129402   3.095   1.616   4.676
 9501SOL    HW229403   3.014   1.526   4.567
 9502SOL     OW29404   0.114   2.091   5.089
 9502SOL    HW129405   0.017   2.112   5.077
 9502SOL    HW229406   0.129   2.050   5.179
 9503SOL     OW29407   0.469   1.009   1.721
 9503SOL    HW129408   0.560   0.968   1.723
 9503SOL    HW229409   0.470   1.094   1.775
 9504SOL     OW29410   0.068   2.167   1.133
 9504SOL    HW129411   7.017   2.189   1.072
 9504SOL    HW229412   0.133   2.243   1.135
 9505SOL     OW29413   5.535   3.804   3.351
 9505SOL    HW129414   5.551   3.762   3.262
 9505SOL    HW229415   5.540   3.734   3.423
 9506SOL     OW29416   0.826   2.905   6.464
 9506SOL    HW129417   0.871   2.953   6.540
 9506SOL    HW229418   0.876   2.924   6.379
 9507SOL     OW29419   2.010   1.353   3.782
 9507SOL    HW129420   2.075   1.333   3.709
 9507SOL    HW229421   1.976   1.268   3.822
 9508SOL     OW29422   6.393   2.697   0.667
 9508SOL    HW129423   6.327   2.631   0.702
 9508SOL    HW229424   6.442   2.656   0.590
 9509SOL     OW29425   1.230   6.439   5.209
 9509SOL    HW129426   1.300   6.368   5.218
 9509SOL    HW229427   1.141   6.403   5.239
 9510SOL     OW29428   0.790   3.934   1.924
 9510SOL    HW129429   0.819   3.914   2.018
 9510SOL    HW229430   0.848   4.006   1.886
 9511SOL     OW29431   0.926   1.870   0.106
 9511SOL    HW129432   0.895   1.776   0.114
 9511SOL    HW229433   0.959   1.887   0.013
 9512SOL     OW29434   5.740   1.896   3.204
 9512SOL    HW129435   5.719   1.811   3.252
 9512SOL    HW229436   5.818   1.940   3.248
 9513SOL     OW29437   1.361   3.197   4.709
 9513SOL    HW129438   1.451   3.152   4.707
 9513SOL    HW229439   1.317   3.178   4.797
 9514SOL     OW29440   1.292   3.785   6.968
 9514SOL    HW129441   1.199   3.782   6.930
 9514SOL    HW229442   1.287   3.803   0.042
 9515SOL     OW29443   1.538   6.017   7.020
 9515SOL    HW129444   1.455   6.073   0.003
 9515SOL    HW229445   1.514   5.925   6.992
 9516SOL     OW29446   4.882   3.663   4.646
 9516SOL    HW129447   4.918   3.597   4.712
 9516SOL    HW229448   4.917   3.643   4.555
 9517SOL     OW29449   1.559   4.603   1.141
 9517SOL    HW129450   1.462   4.618   1.121
 9517SOL    HW229451   1.613   4.626   1.061
 9518SOL     OW29452   1.527   2.384   6.951
 9518SOL    HW129453   1.586   2.308   6.977
 9518SOL    HW229454   1.434   2.350   6.936
 9519SOL     OW29455   3.261   3.327   3.062
 9519SOL    HW129456   3.352   3.353   3.094
 9519SOL    HW229457   3.269   3.266   2.983
 9520SOL     OW29458   6.678   1.411   3.658
 9520SOL    HW129459   6.682   1.472   3.579
 9520SOL    HW229460   6.721   1.324   3.636
 9521SOL     OW29461   3.586   4.283   1.521
 9521SOL    HW129462   3.525   4.206   1.541
 9521SOL    HW229463   3.625   4.271   1.429
 9522SOL     OW29464   3.976   5.554   2.777
 9522SOL    HW129465   3.907   5.491   2.814
 9522SOL    HW229466   3.976   5.638   2.831
 9523SOL     OW29467   2.577   5.233   5.026
 9523SOL    HW129468   2.540   5.251   5.117
 9523SOL    HW229469   2.522   5.162   4.982
 9524SOL     OW29470   1.762   2.755   1.218
 9524SOL    HW129471   1.684   2.817   1.219
 9524SOL    HW229472   1.730   2.660   1.218
 9525SOL     OW29473   1.856   2.038   5.742
 9525SOL    HW129474   1.953   2.015   5.729
 9525SOL    HW229475   1.835   2.041   5.840
 9526SOL     OW29476   5.906   4.633   0.861
 9526SOL    HW129477   5.967   4.588   0.926
 9526SOL    HW229478   5.930   4.730   0.854
 9527SOL     OW29479   2.323   0.307   4.751
 9527SOL    HW129480   2.268   0.379   4.794
 9527SOL    HW229481   2.262   0.236   4.715
 9528SOL     OW29482   6.242   1.526   1.103
 9528SOL    HW129483   6.228   1.536   1.202
 9528SOL    HW229484   6.339   1.509   1.085
 9529SOL     OW29485   5.239   3.975   0.840
 9529SOL    HW129486   5.275   4.019   0.758
 9529SOL    HW229487   5.158   4.024   0.872
 9530SOL     OW29488   0.987   4.312   4.314
 9530SOL    HW129489   1.080   4.281   4.335
 9530SOL    HW229490   0.977   4.408   4.340
 9531SOL     OW29491   4.126   4.812   3.155
 9531SOL    HW129492   4.126   4.767   3.244
 9531SOL    HW229493   4.193   4.769   3.095
 9532SOL     OW29494   6.694   4.995   0.931
 9532SOL    HW129495   6.732   5.063   0.993
 9532SOL    HW229496   6.679   4.909   0.980
 9533SOL     OW29497   0.569   5.271   3.758
 9533SOL    HW129498   0.647   5.333   3.761
 9533SOL    HW229499   0.600   5.179   3.734
 9534SOL     OW29500   5.812   4.036   4.568
 9534SOL    HW129501   5.768   4.052   4.656
 9534SOL    HW229502   5.808   4.120   4.513
 9535SOL     OW29503   2.079   0.787   6.219
 9535SOL    HW129504   2.131   0.705   6.242
 9535SOL    HW229505   1.986   0.778   6.254
 9536SOL     OW29506   3.478   3.048   5.516
 9536SOL    HW129507   3.519   2.989   5.446
 9536SOL    HW229508   3.533   3.131   5.525
 9537SOL     OW29509   3.064   1.774   4.717
 9537SOL    HW129510   3.059   1.810   4.624
 9537SOL    HW229511   3.090   1.847   4.780
 9538SOL     OW29512   4.798   0.843   4.276
 9538SOL    HW129513   4.726   0.833   4.344
 9538SOL    HW229514   4.820   0.940   4.264
 9539SOL     OW29515   2.882   3.523   4.135
 9539SOL    HW129516   2.945   3.597   4.113
 9539SOL    HW229517   2.809   3.558   4.194
 9540SOL     OW29518   5.100   5.759   4.610
 9540SOL    HW129519   5.056   5.670   4.601
 9540SOL    HW229520   5.056   5.824   4.548
 9541SOL     OW29521   2.187   0.601   5.917
 9541SOL    HW129522   2.256   0.671   5.940
 9541SOL    HW229523   2.141   0.572   6.001
 9542SOL     OW29524   5.775   5.306   4.255
 9542SOL    HW129525   5.751   5.209   4.262
 9542SOL    HW229526   5.730   5.357   4.329
 9543SOL     OW29527   3.611   0.632   6.341
 9543SOL    HW129528   3.674   0.558   6.314
 9543SOL    HW229529   3.572   0.611   6.430
 9544SOL     OW29530   5.157   3.299   3.921
 9544SOL    HW129531   5.101   3.280   4.001
 9544SOL    HW229532   5.207   3.216   3.895
 9545SOL     OW29533   6.018   5.130   2.170
 9545SOL    HW129534   6.066   5.132   2.258
 9545SOL    HW229535   5.995   5.035   2.147
 9546SOL     OW29536   3.713   1.187   5.798
 9546SOL    HW129537   3.676   1.095   5.809
 9546SOL    HW229538   3.812   1.185   5.804
 9547SOL     OW29539   2.181   5.415   3.884
 9547SOL    HW129540   2.121   5.336   3.884
 9547SOL    HW229541   2.256   5.400   3.949
 9548SOL     OW29542   0.619   5.595   4.944
 9548SOL    HW129543   0.651   5.626   4.855
 9548SOL    HW229544   0.657   5.506   4.965
 9549SOL     OW29545   2.614   1.290   2.166
 9549SOL    HW129546   2.613   1.243   2.077
 9549SOL    HW229547   2.709   1.311   2.190
 9550SOL     OW29548   6.297   2.391   0.732
 9550SOL    HW129549   6.320   2.296   0.753
 9550SOL    HW229550   6.197   2.400   0.725
 9551SOL     OW29551   5.905   3.271   5.789
 9551SOL    HW129552   5.890   3.185   5.837
 9551SOL    HW229553   5.826   3.331   5.800
 9552SOL     OW29554   2.408   6.094   5.790
 9552SOL    HW129555   2.394   6.181   5.839
 9552SOL    HW229556   2.418   6.112   5.692
 9553SOL     OW29557   5.386   2.361   6.924
 9553SOL    HW129558   5.342   2.277   6.891
 9553SOL    HW229559   5.326   2.408   6.988
 9554SOL     OW29560   1.406   6.263   3.462
 9554SOL    HW129561   1.424   6.362   3.456
 9554SOL    HW229562   1.307   6.248   3.459
 9555SOL     OW29563   0.583   0.912   3.390
 9555SOL    HW129564   0.585   0.900   3.291
 9555SOL    HW229565   0.522   0.987   3.414
 9556SOL     OW29566   1.840   3.397   1.161
 9556SOL    HW129567   1.818   3.454   1.240
 9556SOL    HW229568   1.892   3.451   1.094
 9557SOL     OW29569   5.327   7.006   1.211
 9557SOL    HW129570   5.385   0.064   1.213
 9557SOL    HW229571   5.314   6.977   1.116
 9558SOL     OW29572   5.971   5.965   5.234
 9558SOL    HW129573   6.054   5.909   5.228
 9558SOL    HW229574   5.891   5.906   5.243
 9559SOL     OW29575   1.064   4.286   0.597
 9559SOL    HW129576   1.058   4.193   0.561
 9559SOL    HW229577   0.971   4.324   0.605
 9560SOL     OW29578   2.687   1.003   2.836
 9560SOL    HW129579   2.590   1.028   2.836
 9560SOL    HW229580   2.742   1.086   2.845
 9561SOL     OW29581   0.331   0.419   1.430
 9561SOL    HW129582   0.339   0.448   1.525
 9561SOL    HW229583   0.351   0.495   1.369
 9562SOL     OW29584   2.719   0.317   4.634
 9562SOL    HW129585   2.765   0.235   4.601
 9562SOL    HW229586   2.733   0.326   4.733
 9563SOL     OW29587   0.464   6.931   6.995
 9563SOL    HW129588   0.456   6.863   6.922
 9563SOL    HW229589   0.450   6.886   0.059
 9564SOL     OW29590   2.539   0.913   1.051
 9564SOL    HW129591   2.521   0.910   1.149
 9564SOL    HW229592   2.469   0.860   1.003
 9565SOL     OW29593   3.353   1.129   5.584
 9565SOL    HW129594   3.394   1.219   5.599
 9565SOL    HW229595   3.387   1.091   5.498
 9566SOL     OW29596   2.618   6.094   0.449
 9566SOL    HW129597   2.696   6.039   0.419
 9566SOL    HW229598   2.556   6.109   0.371
 9567SOL     OW29599   5.208   4.312   0.123
 9567SOL    HW129600   5.161   4.325   0.210
 9567SOL    HW229601   5.289   4.255   0.137
 9568SOL     OW29602   4.325   1.953   0.199
 9568SOL    HW129603   4.252   1.992   0.256
 9568SOL    HW229604   4.359   2.024   0.137
 9569SOL     OW29605   0.038   1.111   2.163
 9569SOL    HW129606   7.017   1.194   2.195
 9569SOL    HW229607   0.115   1.136   2.104
 9570SOL     OW29608   0.542   2.966   1.448
 9570SOL    HW129609   0.526   3.064   1.443
 9570SOL    HW229610   0.477   2.924   1.511
 9571SOL     OW29611   3.156   3.093   5.451
 9571SOL    HW129612   3.216   3.162   5.410
 9571SOL    HW229613   3.212   3.023   5.496
 9572SOL     OW29614   1.986   5.164   2.318
 9572SOL    HW129615   1.968   5.066   2.323
 9572SOL    HW229616   1.929   5.205   2.247
 9573SOL     OW29617   0.741   1.646   6.666
 9573SOL    HW129618   0.657   1.681   6.706
 9573SOL    HW229619   0.720   1.597   6.581
 9574SOL     OW29620   3.401   2.867   2.491
 9574SOL    HW129621   3.343   2.811   2.432
 9574SOL    HW229622   3.359   2.874   2.581
 9575SOL     OW29623   0.228   1.180   1.948
 9575SOL    HW129624   0.159   1.242   1.910
 9575SOL    HW229625   0.318   1.223   1.943
 9576SOL     OW29626   2.086   1.890   0.604
 9576SOL    HW129627   2.067   1.982   0.569
 9576SOL    HW229628   2.044   1.879   0.694
 9577SOL     OW29629   1.124   0.173   5.854
 9577SOL    HW129630   1.062   0.232   5.906
 9577SOL    HW229631   1.111   0.190   5.756
 9578SOL     OW29632   1.384   3.139   2.946
 9578SOL    HW129633   1.454   3.208   2.927
 9578SOL    HW229634   1.294   3.183   2.952
 9579SOL     OW29635   0.158   5.848   3.128
 9579SOL    HW129636   0.215   5.930   3.123
 9579SOL    HW229637   0.196   5.785   3.196
 9580SOL     OW29638   4.382   3.232   0.634
 9580SOL    HW129639   4.420   3.195   0.549
 9580SOL    HW229640   4.295   3.186   0.653
 9581SOL     OW29641   0.505   0.407   6.659
 9581SOL    HW129642   0.521   0.396   6.561
 9581SOL    HW229643   0.406   0.403   6.678
 9582SOL     OW29644   4.375   5.818   5.097
 9582SOL    HW129645   4.421   5.763   5.028
 9582SOL    HW229646   4.341   5.903   5.054
 9583SOL     OW29647   2.843   3.800   1.246
 9583SOL    HW129648   2.868   3.769   1.337
 9583SOL    HW229649   2.765   3.747   1.213
 9584SOL     OW29650   6.801   4.841   5.981
 9584SOL    HW129651   6.830   4.880   6.069
 9584SOL    HW229652   6.738   4.765   5.997
 9585SOL     OW29653   5.565   6.431   3.181
 9585SOL    HW129654   5.643   6.407   3.124
 9585SOL    HW229655   5.594   6.443   3.276
 9586SOL     OW29656   4.843   5.501   2.320
 9586SOL    HW129657   4.902   5.555   2.259
 9586SOL    HW229658   4.836   5.546   2.409
 9587SOL     OW29659   1.313   0.160   1.384
 9587SOL    HW129660   1.371   0.221   1.438
 9587SOL    HW229661   1.252   0.110   1.445
 9588SOL     OW29662   6.234   6.804   0.750
 9588SOL    HW129663   6.215   6.825   0.846
 9588SOL    HW229664   6.295   6.873   0.712
 9589SOL     OW29665   1.829   4.572   0.341
 9589SOL    HW129666   1.918   4.616   0.329
 9589SOL    HW229667   1.770   4.630   0.397
 9590SOL     OW29668   6.068   3.323   1.860
 9590SOL    HW129669   6.050   3.283   1.949
 9590SOL    HW229670   6.065   3.252   1.790
 9591SOL     OW29671   2.841   5.335   5.936
 9591SOL    HW129672   2.797   5.409   5.987
 9591SOL    HW229673   2.940   5.348   5.937
 9592SOL     OW29674   2.561   4.700   0.126
 9592SOL    HW129675   2.607   4.698   0.214
 9592SOL    HW229676   2.629   4.701   0.053
 9593SOL     OW29677   0.834   1.041   6.411
 9593SOL    HW129678   0.784   1.122   6.442
 9593SOL    HW229679   0.891   1.006   6.485
 9594SOL     OW29680   2.019   5.188   3.898
 9594SOL    HW129681   1.937   5.131   3.905
 9594SOL    HW229682   2.053   5.186   3.804
 9595SOL     OW29683   0.310   3.190   4.127
 9595SOL    HW129684   0.367   3.245   4.188
 9595SOL    HW229685   0.244   3.138   4.181
 9596SOL     OW29686   0.937   4.937   6.618
 9596SOL    HW129687   1.004   4.863   6.617
 9596SOL    HW229688   0.978   5.020   6.580
 9597SOL     OW29689   0.034   4.327   1.988
 9597SOL    HW129690   0.111   4.273   1.954
 9597SOL    HW229691   0.005   4.392   1.918
 9598SOL     OW29692   1.658   4.898   3.407
 9598SOL    HW129693   1.719   4.899   3.487
 9598SOL    HW229694   1.689   4.827   3.343
 9599SOL     OW29695   2.390   0.601   4.019
 9599SOL    HW129696   2.457   0.542   4.063
 9599SOL    HW229697   2.407   0.696   4.047
 9600SOL     OW29698   2.910   6.810   0.010
 9600SOL    HW129699   2.875   6.720   7.009
 9600SOL    HW229700   2.884   6.877   6.965
 9601SOL     OW29701   5.021   4.122   0.922
 9601SOL    HW129702   5.070   4.190   0.976
 9601SOL    HW229703   4.946   4.084   0.976
 9602SOL     OW29704   5.836   3.943   6.687
 9602SOL    HW129705   5.740   3.939   6.712
 9602SOL    HW229706   5.865   3.855   6.649
 9603SOL     OW29707   4.626   1.108   5.826
 9603SOL    HW129708   4.590   1.177   5.888
 9603SOL    HW229709   4.569   1.025   5.831
 9604SOL     OW29710   4.759   6.939   0.827
 9604SOL    HW129711   4.718   6.995   0.899
 9604SOL    HW229712   4.767   6.844   0.860
 9605SOL     OW29713   0.958   5.992   3.505
 9605SOL    HW129714   0.964   5.921   3.435
 9605SOL    HW229715   0.959   5.949   3.596
 9606SOL     OW29716   1.742   5.987   0.203
 9606SOL    HW129717   1.669   6.015   0.141
 9606SOL    HW229718   1.823   5.961   0.150
 9607SOL     OW29719   2.274   0.811   6.520
 9607SOL    HW129720   2.200   0.875   6.505
 9607SOL    HW229721   2.296   0.808   6.618
 9608SOL     OW29722   0.068   4.850   1.672
 9608SOL    HW129723   7.016   4.820   1.728
 9608SOL    HW229724   0.119   4.770   1.639
 9609SOL     OW29725   2.603   2.933   0.275
 9609SOL    HW129726   2.522   2.946   0.218
 9609SOL    HW229727   2.625   3.020   0.321
 9610SOL     OW29728   1.694   4.736   3.903
 9610SOL    HW129729   1.609   4.734   3.850
 9610SOL    HW229730   1.672   4.733   4.000
 9611SOL     OW29731   0.905   6.215   6.924
 9611SOL    HW129732   0.903   6.149   7.000
 9611SOL    HW229733   0.972   6.286   6.944
 9612SOL     OW29734   0.380   3.741   1.576
 9612SOL    HW129735   0.332   3.667   1.528
 9612SOL    HW229736   0.327   3.825   1.570
 9613SOL     OW29737   5.049   0.174   3.519
 9613SOL    HW129738   5.014   0.244   3.581
 9613SOL    HW229739   5.038   0.205   3.424
 9614SOL     OW29740   4.264   2.641   1.725
 9614SOL    HW129741   4.297   2.548   1.743
 9614SOL    HW229742   4.339   2.706   1.733
 9615SOL     OW29743   2.591   0.184   0.485
 9615SOL    HW129744   2.550   0.208   0.573
 9615SOL    HW229745   2.676   0.235   0.473
 9616SOL     OW29746   3.713   3.536   1.457
 9616SOL    HW129747   3.747   3.457   1.406
 9616SOL    HW229748   3.780   3.562   1.526
 9617SOL     OW29749   1.360   3.110   3.233
 9617SOL    HW129750   1.366   3.126   3.134
 9617SOL    HW229751   1.417   3.032   3.257
 9618SOL     OW29752   3.507   6.593   0.275
 9618SOL    HW129753   3.578   6.662   0.292
 9618SOL    HW229754   3.551   6.505   0.259
 9619SOL     OW29755   1.717   6.611   6.410
 9619SOL    HW129756   1.747   6.581   6.500
 9619SOL    HW229757   1.726   6.710   6.403
 9620SOL     OW29758   4.209   0.734   6.221
 9620SOL    HW129759   4.141   0.664   6.197
 9620SOL    HW229760   4.276   0.695   6.284
 9621SOL     OW29761   0.926   2.076   2.100
 9621SOL    HW129762   1.010   2.047   2.146
 9621SOL    HW229763   0.909   2.172   2.118
 9622SOL     OW29764   6.931   1.243   0.644
 9622SOL    HW129765   6.987   1.325   0.635
 9622SOL    HW229766   6.941   1.206   0.736
 9623SOL     OW29767   2.962   3.755   5.652
 9623SOL    HW129768   2.986   3.850   5.671
 9623SOL    HW229769   3.019   3.721   5.577
 9624SOL     OW29770   6.762   3.945   2.684
 9624SOL    HW129771   6.817   3.911   2.608
 9624SOL    HW229772   6.703   4.019   2.652
 9625SOL     OW29773   4.883   5.820   6.934
 9625SOL    HW129774   4.823   5.883   6.886
 9625SOL    HW229775   4.963   5.799   6.878
 9626SOL     OW29776   4.033   5.237   0.364
 9626SOL    HW129777   3.996   5.145   0.350
 9626SOL    HW229778   4.079   5.241   0.453
 9627SOL     OW29779   6.801   6.255   4.696
 9627SOL    HW129780   6.791   6.283   4.792
 9627SOL    HW229781   6.898   6.250   4.673
 9628SOL     OW29782   4.796   4.705   0.040
 9628SOL    HW129783   4.874   4.701   0.103
 9628SOL    HW229784   4.817   4.768   6.990
 9629SOL     OW29785   0.534   6.867   1.714
 9629SOL    HW129786   0.551   6.948   1.770
 9629SOL    HW229787   0.435   6.850   1.710
 9630SOL     OW29788   6.817   0.003   4.820
 9630SOL    HW129789   6.771   6.940   4.833
 9630SOL    HW229790   6.821   0.051   4.908
 9631SOL     OW29791   0.028   6.830   6.636
 9631SOL    HW129792   6.967   6.875   6.611
 9631SOL    HW229793   0.071   6.881   6.711
 9632SOL     OW29794   1.079   7.013   2.772
 9632SOL    HW129795   1.115   6.922   2.792
 9632SOL    HW229796   1.038   0.027   2.855
 9633SOL     OW29797   5.261   5.211   5.904
 9633SOL    HW129798   5.273   5.117   5.936
 9633SOL    HW229799   5.320   5.228   5.825
 9634SOL     OW29800   1.101   6.007   4.172
 9634SOL    HW129801   1.042   5.994   4.252
 9634SOL    HW229802   1.196   5.986   4.197
 9635SOL     OW29803   1.516   4.847   5.180
 9635SOL    HW129804   1.500   4.945   5.193
 9635SOL    HW229805   1.449   4.811   5.114
 9636SOL     OW29806   3.909   2.008   5.666
 9636SOL    HW129807   3.908   1.919   5.620
 9636SOL    HW229808   3.822   2.021   5.714
 9637SOL     OW29809   2.090   1.405   6.193
 9637SOL    HW129810   2.025   1.469   6.154
 9637SOL    HW229811   2.058   1.311   6.178
 9638SOL     OW29812   6.712   3.764   6.944
 9638SOL    HW129813   6.724   3.863   6.934
 9638SOL    HW229814   6.795   3.725   6.985
 9639SOL     OW29815   3.767   1.486   2.442
 9639SOL    HW129816   3.772   1.549   2.520
 9639SOL    HW229817   3.674   1.450   2.435
 9640SOL     OW29818   2.181   2.874   3.618
 9640SOL    HW129819   2.235   2.830   3.546
 9640SOL    HW229820   2.197   2.973   3.616
 9641SOL     OW29821   3.854   6.467   0.783
 9641SOL    HW129822   3.804   6.403   0.725
 9641SOL    HW229823   3.904   6.416   0.853
 9642SOL     OW29824   3.330   6.614   4.530
 9642SOL    HW129825   3.416   6.599   4.480
 9642SOL    HW229826   3.351   6.639   4.624
 9643SOL     OW29827   5.464   5.513   4.576
 9643SOL    HW129828   5.464   5.608   4.545
 9643SOL    HW229829   5.438   5.509   4.673
 9644SOL     OW29830   1.212   4.217   6.172
 9644SOL    HW129831   1.127   4.217   6.225
 9644SOL    HW229832   1.244   4.312   6.160
 9645SOL     OW29833   2.734   5.424   3.741
 9645SOL    HW129834   2.779   5.371   3.670
 9645SOL    HW229835   2.799   5.446   3.813
 9646SOL     OW29836   3.007   4.773   1.849
 9646SOL    HW129837   3.083   4.724   1.805
 9646SOL    HW229838   2.927   4.714   1.854
 9647SOL     OW29839   6.503   5.626   2.161
 9647SOL    HW129840   6.540   5.711   2.125
 9647SOL    HW229841   6.503   5.630   2.261
 9648SOL     OW29842   4.263   1.465   0.280
 9648SOL    HW129843   4.279   1.531   0.354
 9648SOL    HW229844   4.248   1.374   0.319
 9649SOL     OW29845   2.816   6.533   0.066
 9649SOL    HW129846   2.838   6.443   0.104
 9649SOL    HW229847   2.731   6.529   0.015
 9650SOL     OW29848   6.412   5.199   1.936
 9650SOL    HW129849   6.481   5.272   1.935
 9650SOL    HW229850   6.339   5.224   2.000
 9651SOL     OW29851   0.161   1.141   6.429
 9651SOL    HW129852   0.251   1.162   6.466
 9651SOL    HW229853   0.161   1.159   6.330
 9652SOL     OW29854   2.340   4.353   0.760
 9652SOL    HW129855   2.389   4.333   0.675
 9652SOL    HW229856   2.245   4.374   0.739
 9653SOL     OW29857   4.374   5.181   4.535
 9653SOL    HW129858   4.351   5.113   4.466
 9653SOL    HW229859   4.468   5.213   4.521
 9654SOL     OW29860   3.357   2.821   1.490
 9654SOL    HW129861   3.344   2.862   1.400
 9654SOL    HW229862   3.302   2.871   1.557
 9655SOL     OW29863   0.234   1.083   0.382
 9655SOL    HW129864   0.166   1.058   0.450
 9655SOL    HW229865   0.291   1.157   0.417
 9656SOL     OW29866   2.615   1.431   1.168
 9656SOL    HW129867   2.658   1.341   1.177
 9656SOL    HW229868   2.677   1.501   1.202
 9657SOL     OW29869   5.340   0.215   3.551
 9657SOL    HW129870   5.250   0.187   3.518
 9657SOL    HW229871   5.403   0.222   3.473
 9658SOL     OW29872   6.328   2.151   3.545
 9658SOL    HW129873   6.308   2.072   3.603
 9658SOL    HW229874   6.375   2.121   3.462
 9659SOL     OW29875   6.727   4.583   0.342
 9659SOL    HW129876   6.723   4.527   0.259
 9659SOL    HW229877   6.688   4.673   0.323
 9660SOL     OW29878   0.599   5.282   0.154
 9660SOL    HW129879   0.631   5.292   0.248
 9660SOL    HW229880   0.519   5.222   0.153
 9661SOL     OW29881   4.256   5.692   1.593
 9661SOL    HW129882   4.298   5.715   1.505
 9661SOL    HW229883   4.298   5.746   1.665
 9662SOL     OW29884   6.130   2.769   4.809
 9662SOL    HW129885   6.104   2.732   4.719
 9662SOL    HW229886   6.163   2.695   4.867
 9663SOL     OW29887   1.088   5.782   3.888
 9663SOL    HW129888   1.155   5.845   3.849
 9663SOL    HW229889   1.126   5.690   3.891
 9664SOL     OW29890   5.521   6.947   2.813
 9664SOL    HW129891   5.438   6.892   2.808
 9664SOL    HW229892   5.579   6.913   2.887
 9665SOL     OW29893   5.272   5.462   5.376
 9665SOL    HW129894   5.360   5.420   5.354
 9665SOL    HW229895   5.198   5.408   5.338
 9666SOL     OW29896   5.578   4.497   2.038
 9666SOL    HW129897   5.660   4.441   2.029
 9666SOL    HW229898   5.573   4.562   1.962
 9667SOL     OW29899   4.045   3.135   4.046
 9667SOL    HW129900   3.970   3.190   4.082
 9667SOL    HW229901   4.068   3.063   4.111
 9668SOL     OW29902   6.607   1.359   6.397
 9668SOL    HW129903   6.645   1.378   6.307
 9668SOL    HW229904   6.508   1.350   6.390
 9669SOL     OW29905   0.809   1.183   0.927
 9669SOL    HW129906   0.802   1.091   0.965
 9669SOL    HW229907   0.836   1.247   0.999
 9670SOL     OW29908   4.933   5.053   6.285
 9670SOL    HW129909   4.873   5.052   6.365
 9670SOL    HW229910   5.021   5.094   6.310
 9671SOL     OW29911   0.647   5.367   6.448
 9671SOL    HW129912   0.638   5.322   6.359
 9671SOL    HW229913   0.738   5.407   6.457
 9672SOL     OW29914   1.735   6.828   4.416
 9672SOL    HW129915   1.722   6.873   4.504
 9672SOL    HW229916   1.813   6.765   4.421
 9673SOL     OW29917   5.227   4.569   6.942
 9673SOL    HW129918   5.228   4.524   0.006
 9673SOL    HW229919   5.147   4.538   6.890
 9674SOL     OW29920   2.953   6.190   2.892
 9674SOL    HW129921   3.002   6.267   2.934
 9674SOL    HW229922   2.886   6.154   2.957
 9675SOL     OW29923   5.934   1.495   1.415
 9675SOL    HW129924   5.924   1.396   1.418
 9675SOL    HW229925   5.903   1.529   1.326
 9676SOL     OW29926   1.520   3.549   5.549
 9676SOL    HW129927   1.580   3.469   5.552
 9676SOL    HW229928   1.444   3.533   5.486
 9677SOL     OW29929   2.866   4.709   6.246
 9677SOL    HW129930   2.913   4.749   6.325
 9677SOL    HW229931   2.809   4.779   6.202
 9678SOL     OW29932   3.202   3.998   2.828
 9678SOL    HW129933   3.272   4.047   2.881
 9678SOL    HW229934   3.121   3.984   2.885
 9679SOL     OW29935   1.279   1.357   1.730
 9679SOL    HW129936   1.295   1.379   1.634
 9679SOL    HW229937   1.365   1.365   1.781
 9680SOL     OW29938   6.204   0.002   3.412
 9680SOL    HW129939   6.222   6.957   3.342
 9680SOL    HW229940   6.291   0.044   3.440
 9681SOL     OW29941   2.819   0.901   1.474
 9681SOL    HW129942   2.743   0.862   1.423
 9681SOL    HW229943   2.883   0.945   1.411
 9682SOL     OW29944   5.145   5.129   3.425
 9682SOL    HW129945   5.206   5.141   3.503
 9682SOL    HW229946   5.050   5.131   3.456
 9683SOL     OW29947   3.557   5.428   0.999
 9683SOL    HW129948   3.473   5.468   0.964
 9683SOL    HW229949   3.543   5.330   1.014
 9684SOL     OW29950   0.365   3.043   5.182
 9684SOL    HW129951   0.321   3.075   5.098
 9684SOL    HW229952   0.450   2.995   5.159
 9685SOL     OW29953   2.274   2.882   1.217
 9685SOL    HW129954   2.183   2.842   1.208
 9685SOL    HW229955   2.278   2.966   1.162
 9686SOL     OW29956   6.155   2.017   0.775
 9686SOL    HW129957   6.155   1.939   0.837
 9686SOL    HW229958   6.067   2.024   0.729
 9687SOL     OW29959   2.311   0.747   3.551
 9687SOL    HW129960   2.252   0.738   3.631
 9687SOL    HW229961   2.340   0.657   3.519
 9688SOL     OW29962   6.355   2.481   3.650
 9688SOL    HW129963   6.383   2.532   3.569
 9688SOL    HW229964   6.386   2.386   3.643
 9689SOL     OW29965   1.585   6.510   0.800
 9689SOL    HW129966   1.601   6.497   0.898
 9689SOL    HW229967   1.625   6.597   0.771
 9690SOL     OW29968   5.841   5.445   6.685
 9690SOL    HW129969   5.839   5.395   6.598
 9690SOL    HW229970   5.935   5.454   6.717
 9691SOL     OW29971   2.845   4.737   1.549
 9691SOL    HW129972   2.842   4.780   1.459
 9691SOL    HW229973   2.901   4.654   1.545
 9692SOL     OW29974   2.087   5.302   2.771
 9692SOL    HW129975   2.051   5.209   2.763
 9692SOL    HW229976   2.012   5.367   2.761
 9693SOL     OW29977   6.679   5.040   2.010
 9693SOL    HW129978   6.754   4.990   2.054
 9693SOL    HW229979   6.594   5.023   2.059
 9694SOL     OW29980   2.360   1.362   6.244
 9694SOL    HW129981   2.368   1.267   6.212
 9694SOL    HW229982   2.264   1.391   6.238
 9695SOL     OW29983   6.523   3.940   1.009
 9695SOL    HW129984   6.558   3.900   0.924
 9695SOL    HW229985   6.434   3.980   0.992
 9696SOL     OW29986   4.960   2.246   1.013
 9696SOL    HW129987   4.901   2.208   1.085
 9696SOL    HW229988   4.967   2.181   0.938
 9697SOL     OW29989   6.943   5.250   6.816
 9697SOL    HW129990   7.006   5.173   6.827
 9697SOL    HW229991   6.854   5.216   6.787
 9698SOL     OW29992   5.692   0.905   5.555
 9698SOL    HW129993   5.781   0.863   5.570
 9698SOL    HW229994   5.670   0.965   5.632
 9699SOL     OW29995   0.204   4.543   6.188
 9699SOL    HW129996   0.109   4.515   6.192
 9699SOL    HW229997   0.214   4.633   6.232
 9700SOL     OW29998   4.149   5.446   5.762
 9700SOL    HW129999   4.211   5.400   5.826
 9700SOL    HW230000   4.175   5.421   5.668
 9701SOL     OW30001   3.648   5.260   4.790
 9701SOL    HW130002   3.715   5.199   4.832
 9701SOL    HW230003   3.601   5.211   4.716
 9702SOL     OW30004   5.822   0.516   6.610
 9702SOL    HW130005   5.805   0.589   6.676
 9702SOL    HW230006   5.898   0.460   6.642
 9703SOL     OW30007   3.386   5.677   4.097
 9703SOL    HW130008   3.366   5.773   4.117
 9703SOL    HW230009   3.411   5.667   4.001
 9704SOL     OW30010   3.098   0.909   2.461
 9704SOL    HW130011   3.098   1.001   2.423
 9704SOL    HW230012   3.046   0.908   2.547
 9705SOL     OW30013   5.119   5.212   0.727
 9705SOL    HW130014   5.083   5.300   0.759
 9705SOL    HW230015   5.202   5.189   0.779
 9706SOL     OW30016   0.355   2.322   1.155
 9706SOL    HW130017   0.432   2.294   1.212
 9706SOL    HW230018   0.388   2.343   1.063
 9707SOL     OW30019   6.309   4.191   1.916
 9707SOL    HW130020   6.227   4.136   1.900
 9707SOL    HW230021   6.377   4.137   1.965
 9708SOL     OW30022   1.905   2.698   3.104
 9708SOL    HW130023   1.860   2.622   3.057
 9708SOL    HW230024   1.918   2.675   3.200
 9709SOL     OW30025   6.864   5.503   3.377
 9709SOL    HW130026   6.958   5.471   3.365
 9709SOL    HW230027   6.835   5.553   3.296
 9710SOL     OW30028   0.593   1.852   2.565
 9710SOL    HW130029   0.626   1.897   2.649
 9710SOL    HW230030   0.498   1.878   2.548
 9711SOL     OW30031   1.607   3.451   6.156
 9711SOL    HW130032   1.637   3.542   6.128
 9711SOL    HW230033   1.654   3.382   6.101
 9712SOL     OW30034   5.203   3.765   4.454
 9712SOL    HW130035   5.255   3.703   4.513
 9712SOL    HW230036   5.116   3.723   4.430
 9713SOL     OW30037   0.603   5.132   3.012
 9713SOL    HW130038   0.510   5.116   3.044
 9713SOL    HW230039   0.621   5.077   2.931
 9714SOL     OW30040   1.996   1.054   1.918
 9714SOL    HW130041   1.987   1.129   1.984
 9714SOL    HW230042   2.086   1.059   1.875
 9715SOL     OW30043   7.025   5.564   4.931
 9715SOL    HW130044   0.006   5.520   4.842
 9715SOL    HW230045   0.077   5.626   4.944
 9716SOL     OW30046   4.102   2.519   6.828
 9716SOL    HW130047   4.115   2.420   6.831
 9716SOL    HW230048   4.032   2.541   6.760
 9717SOL     OW30049   5.533   5.907   5.515
 9717SOL    HW130050   5.500   5.861   5.598
 9717SOL    HW230051   5.517   6.005   5.523
 9718SOL     OW30052   4.633   3.156   1.633
 9718SOL    HW130053   4.629   3.089   1.708
 9718SOL    HW230054   4.630   3.108   1.546
 9719SOL     OW30055   0.825   2.243   0.054
 9719SOL    HW130056   0.863   2.203   6.995
 9719SOL    HW230057   0.899   2.258   0.120
 9720SOL     OW30058   0.559   5.740   1.707
 9720SOL    HW130059   0.563   5.670   1.635
 9720SOL    HW230060   0.543   5.696   1.795
 9721SOL     OW30061   0.968   2.470   1.730
 9721SOL    HW130062   1.038   2.513   1.787
 9721SOL    HW230063   0.953   2.376   1.761
 9722SOL     OW30064   0.539   6.776   3.649
 9722SOL    HW130065   0.599   6.738   3.720
 9722SOL    HW230066   0.594   6.816   3.576
 9723SOL     OW30067   1.710   6.023   2.811
 9723SOL    HW130068   1.753   6.110   2.834
 9723SOL    HW230069   1.767   5.975   2.744
 9724SOL     OW30070   3.308   2.884   1.242
 9724SOL    HW130071   3.219   2.927   1.228
 9724SOL    HW230072   3.358   2.883   1.156
 9725SOL     OW30073   4.368   3.770   6.112
 9725SOL    HW130074   4.459   3.811   6.119
 9725SOL    HW230075   4.312   3.801   6.188
 9726SOL     OW30076   4.430   0.008   4.508
 9726SOL    HW130077   4.366   6.977   4.560
 9726SOL    HW230078   4.524   7.011   4.535
 9727SOL     OW30079   1.285   3.604   5.401
 9727SOL    HW130080   1.247   3.523   5.445
 9727SOL    HW230081   1.283   3.591   5.301
 9728SOL     OW30082   0.731   6.758   6.400
 9728SOL    HW130083   0.689   6.675   6.436
 9728SOL    HW230084   0.695   6.838   6.449
 9729SOL     OW30085   0.947   4.534   2.906
 9729SOL    HW130086   1.044   4.521   2.921
 9729SOL    HW230087   0.917   4.479   2.828
 9730SOL     OW30088   0.391   3.489   2.247
 9730SOL    HW130089   0.412   3.579   2.207
 9730SOL    HW230090   0.397   3.419   2.176
 9731SOL     OW30091   4.368   4.693   0.707
 9731SOL    HW130092   4.405   4.698   0.614
 9731SOL    HW230093   4.278   4.651   0.705
 9732SOL     OW30094   5.631   6.302   2.877
 9732SOL    HW130095   5.655   6.268   2.787
 9732SOL    HW230096   5.714   6.334   2.924
 9733SOL     OW30097   6.088   5.235   4.933
 9733SOL    HW130098   6.010   5.288   4.898
 9733SOL    HW230099   6.168   5.252   4.876
 9734SOL     OW30100   5.152   1.766   3.827
 9734SOL    HW130101   5.129   1.670   3.813
 9734SOL    HW230102   5.068   1.820   3.836
 9735SOL     OW30103   1.637   4.467   2.648
 9735SOL    HW130104   1.711   4.404   2.672
 9735SOL    HW230105   1.627   4.470   2.549
 9736SOL     OW30106   5.450   1.459   5.792
 9736SOL    HW130107   5.488   1.376   5.752
 9736SOL    HW230108   5.439   1.529   5.721
 9737SOL     OW30109   4.730   2.776   4.913
 9737SOL    HW130110   4.689   2.685   4.919
 9737SOL    HW230111   4.706   2.830   4.994
 9738SOL     OW30112   1.597   6.764   3.206
 9738SOL    HW130113   1.671   6.779   3.272
 9738SOL    HW230114   1.573   6.851   3.162
 9739SOL     OW30115   0.518   4.857   1.927
 9739SOL    HW130116   0.552   4.951   1.919
 9739SOL    HW230117   0.453   4.851   2.003
 9740SOL     OW30118   5.903   3.144   3.164
 9740SOL    HW130119   5.943   3.153   3.255
 9740SOL    HW230120   5.862   3.053   3.155
 9741SOL     OW30121   4.635   1.277   2.488
 9741SOL    HW130122   4.715   1.257   2.544
 9741SOL    HW230123   4.661   1.335   2.411
 9742SOL     OW30124   4.503   0.030   3.338
 9742SOL    HW130125   4.413   0.054   3.303
 9742SOL    HW230126   4.553   7.002   3.269
 9743SOL     OW30127   2.049   2.042   5.243
 9743SOL    HW130128   2.026   2.101   5.165
 9743SOL    HW230129   2.143   2.060   5.272
 9744SOL     OW30130   0.677   0.245   2.915
 9744SOL    HW130131   0.658   0.340   2.942
 9744SOL    HW230132   0.648   0.184   2.988
 9745SOL     OW30133   0.222   2.218   6.126
 9745SOL    HW130134   0.138   2.270   6.109
 9745SOL    HW230135   0.291   2.242   6.058
 9746SOL     OW30136   5.800   1.595   5.324
 9746SOL    HW130137   5.758   1.581   5.413
 9746SOL    HW230138   5.862   1.674   5.328
 9747SOL     OW30139   1.353   1.028   1.831
 9747SOL    HW130140   1.279   1.089   1.860
 9747SOL    HW230141   1.428   1.033   1.897
 9748SOL     OW30142   1.329   0.088   4.919
 9748SOL    HW130143   1.399   0.042   4.864
 9748SOL    HW230144   1.245   0.097   4.865
 9749SOL     OW30145   2.160   2.204   5.418
 9749SOL    HW130146   2.106   2.120   5.422
 9749SOL    HW230147   2.244   2.187   5.366
 9750SOL     OW30148   5.742   5.024   4.298
 9750SOL    HW130149   5.818   5.055   4.355
 9750SOL    HW230150   5.675   4.976   4.355
 9751SOL     OW30151   2.630   2.291   1.073
 9751SOL    HW130152   2.579   2.377   1.069
 9751SOL    HW230153   2.576   2.222   1.121
 9752SOL     OW30154   4.674   0.642   6.449
 9752SOL    HW130155   4.728   0.576   6.396
 9752SOL    HW230156   4.646   0.600   6.535
 9753SOL     OW30157   6.570   6.297   4.884
 9753SOL    HW130158   6.556   6.223   4.819
 9753SOL    HW230159   6.563   6.385   4.838
 9754SOL     OW30160   1.297   1.651   6.948
 9754SOL    HW130161   1.268   1.667   0.018
 9754SOL    HW230162   1.223   1.674   6.886
 9755SOL     OW30163   4.262   3.227   5.293
 9755SOL    HW130164   4.330   3.300   5.287
 9755SOL    HW230165   4.307   3.142   5.320
 9756SOL     OW30166   6.145   3.028   0.195
 9756SOL    HW130167   6.047   3.040   0.187
 9756SOL    HW230168   6.174   3.056   0.287
 9757SOL     OW30169   5.065   3.150   3.374
 9757SOL    HW130170   5.054   3.193   3.464
 9757SOL    HW230171   5.041   3.215   3.303
 9758SOL     OW30172   1.423   6.558   6.353
 9758SOL    HW130173   1.513   6.596   6.331
 9758SOL    HW230174   1.431   6.460   6.369
 9759SOL     OW30175   2.195   6.609   1.073
 9759SOL    HW130176   2.217   6.577   0.981
 9759SOL    HW230177   2.256   6.684   1.098
 9760SOL     OW30178   4.904   3.847   5.231
 9760SOL    HW130179   4.857   3.762   5.208
 9760SOL    HW230180   4.951   3.883   5.151
 9761SOL     OW30181   5.970   5.968   2.159
 9761SOL    HW130182   5.956   6.045   2.221
 9761SOL    HW230183   6.061   5.930   2.172
 9762SOL     OW30184   2.665   2.419   4.559
 9762SOL    HW130185   2.660   2.369   4.645
 9762SOL    HW230186   2.761   2.435   4.535
 9763SOL     OW30187   4.753   2.188   1.999
 9763SOL    HW130188   4.844   2.172   1.959
 9763SOL    HW230189   4.692   2.113   1.974
 9764SOL     OW30190   0.953   1.908   3.317
 9764SOL    HW130191   1.033   1.968   3.323
 9764SOL    HW230192   0.886   1.949   3.254
 9765SOL     OW30193   6.468   2.081   4.578
 9765SOL    HW130194   6.465   2.070   4.678
 9765SOL    HW230195   6.491   1.993   4.535
 9766SOL     OW30196   2.495   0.220   2.922
 9766SOL    HW130197   2.562   0.148   2.937
 9766SOL    HW230198   2.471   0.224   2.825
 9767SOL     OW30199   5.331   1.987   4.810
 9767SOL    HW130200   5.355   1.894   4.838
 9767SOL    HW230201   5.404   2.026   4.755
 9768SOL     OW30202   5.105   2.375   2.256
 9768SOL    HW130203   5.146   2.290   2.288
 9768SOL    HW230204   5.024   2.396   2.312
 9769SOL     OW30205   1.537   1.282   2.054
 9769SOL    HW130206   1.633   1.295   2.080
 9769SOL    HW230207   1.523   1.319   1.962
 9770SOL     OW30208   5.769   6.458   6.370
 9770SOL    HW130209   5.765   6.361   6.390
 9770SOL    HW230210   5.820   6.473   6.285
 9771SOL     OW30211   4.230   4.410   1.390
 9771SOL    HW130212   4.247   4.312   1.380
 9771SOL    HW230213   4.292   4.447   1.460
 9772SOL     OW30214   0.508   6.561   1.620
 9772SOL    HW130215   0.527   6.652   1.656
 9772SOL    HW230216   0.440   6.516   1.678
 9773SOL     OW30217   5.369   6.102   3.624
 9773SOL    HW130218   5.272   6.096   3.643
 9773SOL    HW230219   5.409   6.011   3.622
 9774SOL     OW30220   5.880   5.429   2.695
 9774SOL    HW130221   5.897   5.484   2.613
 9774SOL    HW230222   5.798   5.374   2.681
 9775SOL     OW30223   2.186   2.029   4.212
 9775SOL    HW130224   2.181   2.126   4.189
 9775SOL    HW230225   2.269   2.012   4.266
 9776SOL     OW30226   6.999   6.033   5.063
 9776SOL    HW130227   6.931   6.085   5.115
 9776SOL    HW230228   6.965   5.940   5.049
 9777SOL     OW30229   5.560   5.050   6.472
 9777SOL    HW130230   5.584   4.991   6.394
 9777SOL    HW230231   5.513   4.995   6.541
 9778SOL     OW30232   5.761   0.274   3.805
 9778SOL    HW130233   5.734   0.356   3.754
 9778SOL    HW230234   5.713   0.272   3.893
 9779SOL     OW30235   2.628   1.956   4.567
 9779SOL    HW130236   2.605   2.036   4.622
 9779SOL    HW230237   2.643   1.878   4.628
 9780SOL     OW30238   2.355   2.051   0.815
 9780SOL    HW130239   2.355   2.149   0.796
 9780SOL    HW230240   2.348   2.037   0.914
 9781SOL     OW30241   2.000   4.353   4.102
 9781SOL    HW130242   1.946   4.397   4.029
 9781SOL    HW230243   1.944   4.347   4.184
 9782SOL     OW30244   6.709   0.265   1.032
 9782SOL    HW130245   6.768   0.345   1.021
 9782SOL    HW230246   6.670   0.264   1.123
 9783SOL     OW30247   6.173   1.316   1.915
 9783SOL    HW130248   6.152   1.356   2.005
 9783SOL    HW230249   6.259   1.266   1.920
 9784SOL     OW30250   4.699   1.527   3.428
 9784SOL    HW130251   4.652   1.586   3.494
 9784SOL    HW230252   4.747   1.583   3.361
 9785SOL     OW30253   6.967   3.246   3.853
 9785SOL    HW130254   6.870   3.231   3.830
 9785SOL    HW230255   6.995   3.179   3.923
 9786SOL     OW30256   0.972   4.998   5.750
 9786SOL    HW130257   0.929   5.088   5.760
 9786SOL    HW230258   1.070   5.010   5.736
 9787SOL     OW30259   5.286   4.244   1.814
 9787SOL    HW130260   5.353   4.171   1.829
 9787SOL    HW230261   5.196   4.211   1.841
 9788SOL     OW30262   0.425   0.405   3.853
 9788SOL    HW130263   0.453   0.480   3.794
 9788SOL    HW230264   0.496   0.335   3.854
 9789SOL     OW30265   2.182   5.567   6.598
 9789SOL    HW130266   2.095   5.612   6.618
 9789SOL    HW230267   2.168   5.468   6.592
 9790SOL     OW30268   5.590   2.784   4.715
 9790SOL    HW130269   5.664   2.799   4.780
 9790SOL    HW230270   5.536   2.868   4.706
 9791SOL     OW30271   0.929   0.726   2.354
 9791SOL    HW130272   0.871   0.725   2.273
 9791SOL    HW230273   1.022   0.753   2.329
 9792SOL     OW30274   4.776   5.271   2.184
 9792SOL    HW130275   4.794   5.360   2.224
 9792SOL    HW230276   4.858   5.239   2.136
 9793SOL     OW30277   5.054   5.757   2.709
 9793SOL    HW130278   4.985   5.822   2.739
 9793SOL    HW230279   5.111   5.731   2.787
 9794SOL     OW30280   5.583   3.591   6.569
 9794SOL    HW130281   5.512   3.628   6.509
 9794SOL    HW230282   5.558   3.606   6.664
 9795SOL     OW30283   1.040   2.726   3.818
 9795SOL    HW130284   1.021   2.792   3.891
 9795SOL    HW230285   1.137   2.731   3.793
 9796SOL     OW30286   3.212   4.159   1.037
 9796SOL    HW130287   3.116   4.132   1.040
 9796SOL    HW230288   3.222   4.251   1.074
 9797SOL     OW30289   4.279   3.753   0.240
 9797SOL    HW130290   4.239   3.664   0.260
 9797SOL    HW230291   4.236   3.823   0.297
 9798SOL     OW30292   2.808   0.866   0.938
 9798SOL    HW130293   2.722   0.909   0.965
 9798SOL    HW230294   2.793   0.768   0.924
 9799SOL     OW30295   3.582   3.490   2.660
 9799SOL    HW130296   3.599   3.553   2.735
 9799SOL    HW230297   3.669   3.449   2.631
 9800SOL     OW30298   3.848   6.015   6.175
 9800SOL    HW130299   3.918   5.958   6.131
 9800SOL    HW230300   3.846   5.996   6.273
 9801SOL     OW30301   3.973   5.217   0.084
 9801SOL    HW130302   4.032   5.248   0.010
 9801SOL    HW230303   3.984   5.277   0.163
 9802SOL     OW30304   0.137   3.326   1.991
 9802SOL    HW130305   0.174   3.290   2.077
 9802SOL    HW230306   0.182   3.282   1.914
 9803SOL     OW30307   6.415   0.480   6.804
 9803SOL    HW130308   6.417   0.429   6.718
 9803SOL    HW230309   6.507   0.483   6.843
 9804SOL     OW30310   0.389   4.917   3.890
 9804SOL    HW130311   0.351   5.009   3.894
 9804SOL    HW230312   0.435   4.896   3.976
 9805SOL     OW30313   1.249   5.377   6.909
 9805SOL    HW130314   1.290   5.450   6.964
 9805SOL    HW230315   1.232   5.411   6.817
 9806SOL     OW30316   0.813   2.220   1.755
 9806SOL    HW130317   0.856   2.162   1.824
 9806SOL    HW230318   0.732   2.175   1.718
 9807SOL     OW30319   3.118   1.680   6.760
 9807SOL    HW130320   3.214   1.707   6.764
 9807SOL    HW230321   3.090   1.670   6.664
 9808SOL     OW30322   6.065   0.471   5.808
 9808SOL    HW130323   5.984   0.435   5.762
 9808SOL    HW230324   6.147   0.426   5.772
 9809SOL     OW30325   1.075   1.381   5.860
 9809SOL    HW130326   1.046   1.301   5.807
 9809SOL    HW230327   1.058   1.364   5.957
 9810SOL     OW30328   2.640   2.095   2.991
 9810SOL    HW130329   2.673   2.045   3.071
 9810SOL    HW230330   2.713   2.154   2.956
 9811SOL     OW30331   6.199   6.135   3.470
 9811SOL    HW130332   6.232   6.073   3.541
 9811SOL    HW230333   6.101   6.122   3.457
 9812SOL     OW30334   3.785   1.985   6.680
 9812SOL    HW130335   3.688   1.969   6.700
 9812SOL    HW230336   3.795   2.071   6.630
 9813SOL     OW30337   6.373   5.374   0.041
 9813SOL    HW130338   6.390   5.302   6.999
 9813SOL    HW230339   6.276   5.374   0.066
 9814SOL     OW30340   6.532   0.412   6.252
 9814SOL    HW130341   6.611   0.357   6.224
 9814SOL    HW230342   6.555   0.509   6.244
 9815SOL     OW30343   6.893   2.552   1.078
 9815SOL    HW130344   6.920   2.637   1.034
 9815SOL    HW230345   6.877   2.569   1.176
 9816SOL     OW30346   6.337   0.826   6.364
 9816SOL    HW130347   6.355   0.751   6.428
 9816SOL    HW230348   6.366   0.912   6.405
 9817SOL     OW30349   3.004   5.340   1.631
 9817SOL    HW130350   2.973   5.291   1.713
 9817SOL    HW230351   2.984   5.437   1.640
 9818SOL     OW30352   1.751   1.626   3.187
 9818SOL    HW130353   1.691   1.619   3.267
 9818SOL    HW230354   1.846   1.629   3.216
 9819SOL     OW30355   5.701   4.168   4.786
 9819SOL    HW130356   5.781   4.216   4.822
 9819SOL    HW230357   5.672   4.098   4.850
 9820SOL     OW30358   2.924   2.230   6.597
 9820SOL    HW130359   2.876   2.281   6.526
 9820SOL    HW230360   3.016   2.269   6.611
 9821SOL     OW30361   4.588   2.168   1.533
 9821SOL    HW130362   4.655   2.107   1.574
 9821SOL    HW230363   4.496   2.130   1.546
 9822SOL     OW30364   4.477   5.722   4.475
 9822SOL    HW130365   4.466   5.641   4.533
 9822SOL    HW230366   4.403   5.787   4.495
 9823SOL     OW30367   1.439   0.631   2.354
 9823SOL    HW130368   1.418   0.535   2.373
 9823SOL    HW230369   1.420   0.687   2.435
 9824SOL     OW30370   2.401   5.829   5.746
 9824SOL    HW130371   2.481   5.816   5.686
 9824SOL    HW230372   2.382   5.926   5.755
 9825SOL     OW30373   5.337   6.161   5.259
 9825SOL    HW130374   5.298   6.117   5.178
 9825SOL    HW230375   5.264   6.181   5.325
 9826SOL     OW30376   3.717   0.044   5.849
 9826SOL    HW130377   3.675   7.025   5.769
 9826SOL    HW230378   3.645   0.083   5.906
 9827SOL     OW30379   2.089   5.554   2.574
 9827SOL    HW130380   2.004   5.531   2.620
 9827SOL    HW230381   2.090   5.652   2.551
 9828SOL     OW30382   3.702   2.051   4.801
 9828SOL    HW130383   3.640   2.062   4.878
 9828SOL    HW230384   3.790   2.016   4.834
 9829SOL     OW30385   4.945   6.294   5.920
 9829SOL    HW130386   5.026   6.352   5.928
 9829SOL    HW230387   4.970   6.198   5.935
 9830SOL     OW30388   5.783   1.164   2.714
 9830SOL    HW130389   5.699   1.192   2.669
 9830SOL    HW230390   5.817   1.239   2.772
 9831SOL     OW30391   0.009   4.340   2.254
 9831SOL    HW130392   0.008   4.339   2.154
 9831SOL    HW230393   0.041   4.251   2.288
 9832SOL     OW30394   5.237   4.660   4.446
 9832SOL    HW130395   5.194   4.572   4.428
 9832SOL    HW230396   5.334   4.646   4.465
 9833SOL     OW30397   3.616   3.910   3.476
 9833SOL    HW130398   3.533   3.962   3.461
 9833SOL    HW230399   3.593   3.815   3.497
 9834SOL     OW30400   2.238   5.297   5.733
 9834SOL    HW130401   2.290   5.213   5.716
 9834SOL    HW230402   2.301   5.374   5.743
 9835SOL     OW30403   3.671   3.993   4.641
 9835SOL    HW130404   3.649   3.904   4.682
 9835SOL    HW230405   3.621   4.065   4.687
 9836SOL     OW30406   1.258   3.845   6.558
 9836SOL    HW130407   1.218   3.758   6.527
 9836SOL    HW230408   1.237   3.917   6.492
 9837SOL     OW30409   5.572   2.022   1.608
 9837SOL    HW130410   5.549   2.119   1.614
 9837SOL    HW230411   5.496   1.972   1.565
 9838SOL     OW30412   1.205   5.886   1.277
 9838SOL    HW130413   1.233   5.818   1.345
 9838SOL    HW230414   1.109   5.910   1.291
 9839SOL     OW30415   4.486   1.375   3.691
 9839SOL    HW130416   4.449   1.315   3.762
 9839SOL    HW230417   4.455   1.344   3.601
 9840SOL     OW30418   5.092   1.539   6.830
 9840SOL    HW130419   5.081   1.610   6.899
 9840SOL    HW230420   5.020   1.547   6.761
 9841SOL     OW30421   0.199   5.400   3.386
 9841SOL    HW130422   0.273   5.466   3.394
 9841SOL    HW230423   0.159   5.383   3.477
 9842SOL     OW30424   3.802   2.857   0.324
 9842SOL    HW130425   3.733   2.809   0.269
 9842SOL    HW230426   3.788   2.836   0.421
 9843SOL     OW30427   6.501   6.971   1.289
 9843SOL    HW130428   6.536   0.035   1.259
 9843SOL    HW230429   6.576   6.906   1.296
 9844SOL     OW30430   5.467   0.648   4.532
 9844SOL    HW130431   5.534   0.574   4.527
 9844SOL    HW230432   5.476   0.706   4.451
 9845SOL     OW30433   1.107   2.082   2.660
 9845SOL    HW130434   1.096   2.165   2.715
 9845SOL    HW230435   1.083   2.102   2.565
 9846SOL     OW30436   5.361   1.452   1.094
 9846SOL    HW130437   5.354   1.534   1.150
 9846SOL    HW230438   5.443   1.401   1.119
 9847SOL     OW30439   3.692   2.838   1.531
 9847SOL    HW130440   3.764   2.804   1.591
 9847SOL    HW230441   3.723   2.835   1.436
 9848SOL     OW30442   3.281   3.871   5.553
 9848SOL    HW130443   3.223   3.941   5.512
 9848SOL    HW230444   3.308   3.804   5.483
 9849SOL     OW30445   1.387   0.738   6.463
 9849SOL    HW130446   1.360   0.810   6.399
 9849SOL    HW230447   1.354   0.650   6.430
 9850SOL     OW30448   0.006   0.650   4.350
 9850SOL    HW130449   0.057   0.629   4.434
 9850SOL    HW230450   0.069   0.660   4.274
 9851SOL     OW30451   3.435   5.240   4.553
 9851SOL    HW130452   3.484   5.297   4.487
 9851SOL    HW230453   3.443   5.144   4.528
 9852SOL     OW30454   0.999   1.357   6.400
 9852SOL    HW130455   1.066   1.290   6.433
 9852SOL    HW230456   0.930   1.372   6.470
 9853SOL     OW30457   0.190   3.984   4.664
 9853SOL    HW130458   0.182   4.064   4.604
 9853SOL    HW230459   0.100   3.962   4.702
 9854SOL     OW30460   0.797   6.031   6.125
 9854SOL    HW130461   0.867   5.970   6.089
 9854SOL    HW230462   0.770   6.096   6.053
 9855SOL     OW30463   1.116   3.289   0.684
 9855SOL    HW130464   1.042   3.344   0.723
 9855SOL    HW230465   1.082   3.196   0.666
 9856SOL     OW30466   6.092   5.166   3.602
 9856SOL    HW130467   6.174   5.219   3.623
 9856SOL    HW230468   6.092   5.082   3.657
 9857SOL     OW30469   5.313   2.748   3.030
 9857SOL    HW130470   5.296   2.752   2.932
 9857SOL    HW230471   5.232   2.779   3.080
 9858SOL     OW30472   1.038   6.734   2.252
 9858SOL    HW130473   1.134   6.708   2.263
 9858SOL    HW230474   0.982   6.681   2.316
 9859SOL     OW30475   6.816   4.896   5.221
 9859SOL    HW130476   6.799   4.867   5.315
 9859SOL    HW230477   6.874   4.828   5.176
 9860SOL     OW30478   2.133   2.429   5.216
 9860SOL    HW130479   2.088   2.359   5.161
 9860SOL    HW230480   2.187   2.384   5.288
 9861SOL     OW30481   2.728   1.425   3.815
 9861SOL    HW130482   2.748   1.380   3.728
 9861SOL    HW230483   2.812   1.460   3.855
 9862SOL     OW30484   2.596   4.736   1.212
 9862SOL    HW130485   2.590   4.637   1.204
 9862SOL    HW230486   2.524   4.769   1.272
 9863SOL     OW30487   3.214   5.561   0.535
 9863SOL    HW130488   3.261   5.634   0.484
 9863SOL    HW230489   3.282   5.499   0.574
 9864SOL     OW30490   2.704   6.407   5.208
 9864SOL    HW130491   2.757   6.383   5.126
 9864SOL    HW230492   2.616   6.360   5.205
 9865SOL     OW30493   0.620   6.996   5.080
 9865SOL    HW130494   0.710   6.997   5.122
 9865SOL    HW230495   0.623   6.940   4.997
 9866SOL     OW30496   6.217   4.531   4.441
 9866SOL    HW130497   6.298   4.540   4.383
 9866SOL    HW230498   6.166   4.617   4.441
 9867SOL     OW30499   5.164   2.133   2.349
 9867SOL    HW130500   5.197   2.071   2.278
 9867SOL    HW230501   5.099   2.085   2.408
 9868SOL     OW30502   1.328   4.508   3.727
 9868SOL    HW130503   1.367   4.436   3.785
 9868SOL    HW230504   1.393   4.584   3.720
 9869SOL     OW30505   0.522   2.610   0.764
 9869SOL    HW130506   0.453   2.552   0.808
 9869SOL    HW230507   0.518   2.598   0.665
 9870SOL     OW30508   3.524   1.590   1.716
 9870SOL    HW130509   3.475   1.530   1.652
 9870SOL    HW230510   3.516   1.685   1.686
 9871SOL     OW30511   0.102   3.286   5.381
 9871SOL    HW130512   0.150   3.239   5.455
 9871SOL    HW230513   0.060   3.218   5.321
 9872SOL     OW30514   2.432   5.598   5.021
 9872SOL    HW130515   2.532   5.597   5.031
 9872SOL    HW230516   2.408   5.597   4.924
 9873SOL     OW30517   1.811   2.041   6.004
 9873SOL    HW130518   1.746   1.981   6.050
 9873SOL    HW230519   1.883   2.068   6.068
 9874SOL     OW30520   0.803   2.743   4.703
 9874SOL    HW130521   0.712   2.728   4.664
 9874SOL    HW230522   0.859   2.793   4.638
 9875SOL     OW30523   6.842   6.347   0.834
 9875SOL    HW130524   6.823   6.404   0.754
 9875SOL    HW230525   6.832   6.402   0.917
 9876SOL     OW30526   3.145   0.171   3.531
 9876SOL    HW130527   3.131   0.260   3.488
 9876SOL    HW230528   3.155   0.182   3.630
 9877SOL     OW30529   0.318   4.393   4.618
 9877SOL    HW130530   0.393   4.456   4.596
 9877SOL    HW230531   0.278   4.417   4.706
 9878SOL     OW30532   1.823   3.142   7.004
 9878SOL    HW130533   1.920   3.167   7.004
 9878SOL    HW230534   1.805   3.081   0.057
 9879SOL     OW30535   1.606   4.505   6.155
 9879SOL    HW130536   1.662   4.494   6.074
 9879SOL    HW230537   1.511   4.522   6.129
 9880SOL     OW30538   2.258   0.962   0.435
 9880SOL    HW130539   2.261   0.969   0.335
 9880SOL    HW230540   2.348   0.985   0.472
 9881SOL     OW30541   5.017   0.734   4.469
 9881SOL    HW130542   4.934   0.748   4.523
 9881SOL    HW230543   5.004   0.656   4.408
 9882SOL     OW30544   3.808   2.933   4.788
 9882SOL    HW130545   3.787   2.997   4.715
 9882SOL    HW230546   3.793   2.840   4.756
 9883SOL     OW30547   1.641   6.289   1.174
 9883SOL    HW130548   1.705   6.216   1.151
 9883SOL    HW230549   1.627   6.291   1.273
 9884SOL     OW30550   1.563   3.074   6.888
 9884SOL    HW130551   1.533   3.110   6.800
 9884SOL    HW230552   1.637   3.132   6.924
 9885SOL     OW30553   6.785   3.184   3.514
 9885SOL    HW130554   6.880   3.177   3.485
 9885SOL    HW230555   6.780   3.231   3.602
 9886SOL     OW30556   5.248   6.193   1.374
 9886SOL    HW130557   5.296   6.270   1.332
 9886SOL    HW230558   5.312   6.118   1.388
 9887SOL     OW30559   3.749   6.698   0.330
 9887SOL    HW130560   3.796   6.637   0.267
 9887SOL    HW230561   3.810   6.722   0.405
 9888SOL     OW30562   5.530   5.856   2.301
 9888SOL    HW130563   5.495   5.766   2.325
 9888SOL    HW230564   5.606   5.847   2.237
 9889SOL     OW30565   0.295   5.093   3.017
 9889SOL    HW130566   0.261   5.000   3.006
 9889SOL    HW230567   0.293   5.119   3.114
 9890SOL     OW30568   6.449   3.268   0.639
 9890SOL    HW130569   6.449   3.204   0.563
 9890SOL    HW230570   6.539   3.312   0.646
 9891SOL     OW30571   4.688   5.080   0.809
 9891SOL    HW130572   4.669   5.171   0.772
 9891SOL    HW230573   4.742   5.089   0.893
 9892SOL     OW30574   2.196   5.642   3.741
 9892SOL    HW130575   2.195   5.555   3.790
 9892SOL    HW230576   2.245   5.710   3.795
 9893SOL     OW30577   5.667   5.253   2.662
 9893SOL    HW130578   5.672   5.163   2.706
 9893SOL    HW230579   5.574   5.288   2.670
 9894SOL     OW30580   3.710   2.082   5.835
 9894SOL    HW130581   3.653   2.129   5.767
 9894SOL    HW230582   3.652   2.024   5.892
 9895SOL     OW30583   5.305   2.459   6.363
 9895SOL    HW130584   5.284   2.441   6.459
 9895SOL    HW230585   5.231   2.423   6.306
 9896SOL     OW30586   3.578   3.528   0.700
 9896SOL    HW130587   3.675   3.552   0.695
 9896SOL    HW230588   3.569   3.435   0.735
 9897SOL     OW30589   4.940   1.585   2.824
 9897SOL    HW130590   4.936   1.485   2.817
 9897SOL    HW230591   5.026   1.618   2.784
 9898SOL     OW30592   0.907   5.235   5.552
 9898SOL    HW130593   0.911   5.216   5.650
 9898SOL    HW230594   0.826   5.192   5.513
 9899SOL     OW30595   5.101   4.828   2.317
 9899SOL    HW130596   5.156   4.746   2.336
 9899SOL    HW230597   5.022   4.829   2.378
 9900SOL     OW30598   1.258   2.026   3.846
 9900SOL    HW130599   1.194   1.999   3.775
 9900SOL    HW230600   1.225   1.993   3.935
 9901SOL     OW30601   2.301   2.067   6.476
 9901SOL    HW130602   2.393   2.100   6.498
 9901SOL    HW230603   2.252   2.047   6.561
 9902SOL     OW30604   3.419   3.644   0.891
 9902SOL    HW130605   3.390   3.730   0.848
 9902SOL    HW230606   3.485   3.598   0.832
 9903SOL     OW30607   4.383   2.146   2.794
 9903SOL    HW130608   4.328   2.065   2.772
 9903SOL    HW230609   4.475   2.136   2.755
 9904SOL     OW30610   6.778   2.707   0.486
 9904SOL    HW130611   6.821   2.620   0.460
 9904SOL    HW230612   6.789   2.722   0.584
 9905SOL     OW30613   1.372   6.088   6.293
 9905SOL    HW130614   1.345   6.044   6.207
 9905SOL    HW230615   1.314   6.055   6.367
 9906SOL     OW30616   2.087   2.865   6.362
 9906SOL    HW130617   2.027   2.942   6.340
 9906SOL    HW230618   2.046   2.780   6.328
 9907SOL     OW30619   2.506   6.231   2.964
 9907SOL    HW130620   2.470   6.323   2.949
 9907SOL    HW230621   2.515   6.183   2.877
 9908SOL     OW30622   0.556   3.324   6.625
 9908SOL    HW130623   0.591   3.336   6.532
 9908SOL    HW230624   0.463   3.288   6.621
 9909SOL     OW30625   3.275   1.780   2.655
 9909SOL    HW130626   3.207   1.717   2.693
 9909SOL    HW230627   3.238   1.873   2.654
 9910SOL     OW30628   6.712   4.561   0.840
 9910SOL    HW130629   6.801   4.581   0.881
 9910SOL    HW230630   6.724   4.498   0.763
 9911SOL     OW30631   4.470   4.675   3.333
 9911SOL    HW130632   4.459   4.629   3.245
 9911SOL    HW230633   4.443   4.612   3.406
 9912SOL     OW30634   4.646   0.971   2.232
 9912SOL    HW130635   4.590   1.043   2.273
 9912SOL    HW230636   4.601   0.882   2.243
 9913SOL     OW30637   5.434   2.988   2.380
 9913SOL    HW130638   5.505   3.058   2.392
 9913SOL    HW230639   5.474   2.898   2.394
 9914SOL     OW30640   1.651   0.161   5.457
 9914SOL    HW130641   1.724   0.228   5.471
 9914SOL    HW230642   1.565   0.210   5.441
 9915SOL     OW30643   5.050   3.551   3.879
 9915SOL    HW130644   5.030   3.569   3.782
 9915SOL    HW230645   5.119   3.479   3.886
 9916SOL     OW30646   2.130   3.150   2.391
 9916SOL    HW130647   2.039   3.108   2.388
 9916SOL    HW230648   2.146   3.200   2.307
 9917SOL     OW30649   3.333   3.697   5.355
 9917SOL    HW130650   3.261   3.628   5.352
 9917SOL    HW230651   3.382   3.697   5.268
 9918SOL     OW30652   2.016   1.325   5.864
 9918SOL    HW130653   2.045   1.287   5.777
 9918SOL    HW230654   2.072   1.405   5.886
 9919SOL     OW30655   1.318   6.260   2.185
 9919SOL    HW130656   1.219   6.252   2.178
 9919SOL    HW230657   1.361   6.205   2.112
 9920SOL     OW30658   3.889   7.020   1.531
 9920SOL    HW130659   3.857   0.060   1.462
 9920SOL    HW230660   3.859   0.026   1.621
 9921SOL     OW30661   6.077   6.996   3.059
 9921SOL    HW130662   5.982   6.990   3.088
 9921SOL    HW230663   6.098   0.066   3.033
 9922SOL     OW30664   4.152   4.688   0.971
 9922SOL    HW130665   4.061   4.678   0.932
 9922SOL    HW230666   4.172   4.611   1.032
 9923SOL     OW30667   6.613   2.038   6.043
 9923SOL    HW130668   6.680   2.088   5.988
 9923SOL    HW230669   6.584   1.956   5.995
 9924SOL     OW30670   6.816   1.213   3.040
 9924SOL    HW130671   6.854   1.189   3.130
 9924SOL    HW230672   6.799   1.312   3.037
 9925SOL     OW30673   2.644   3.482   5.847
 9925SOL    HW130674   2.649   3.432   5.933
 9925SOL    HW230675   2.675   3.576   5.860
 9926SOL     OW30676   1.290   1.245   0.938
 9926SOL    HW130677   1.217   1.282   0.880
 9926SOL    HW230678   1.379   1.262   0.895
 9927SOL     OW30679   0.708   1.896   2.302
 9927SOL    HW130680   0.660   1.914   2.388
 9927SOL    HW230681   0.708   1.978   2.245
 9928SOL     OW30682   0.527   4.633   1.778
 9928SOL    HW130683   0.588   4.660   1.704
 9928SOL    HW230684   0.536   4.697   1.854
 9929SOL     OW30685   3.300   4.381   5.792
 9929SOL    HW130686   3.374   4.330   5.835
 9929SOL    HW230687   3.284   4.466   5.843
 9930SOL     OW30688   0.193   0.545   6.840
 9930SOL    HW130689   0.216   0.450   6.819
 9930SOL    HW230690   0.141   0.584   6.763
 9931SOL     OW30691   1.447   6.479   4.880
 9931SOL    HW130692   1.349   6.500   4.882
 9931SOL    HW230693   1.500   6.564   4.879
 9932SOL     OW30694   1.678   1.797   0.680
 9932SOL    HW130695   1.592   1.750   0.663
 9932SOL    HW230696   1.662   1.895   0.691
 9933SOL     OW30697   3.046   0.904   3.292
 9933SOL    HW130698   3.038   0.875   3.197
 9933SOL    HW230699   3.080   0.998   3.295
 9934SOL     OW30700   5.816   1.415   6.452
 9934SOL    HW130701   5.723   1.409   6.487
 9934SOL    HW230702   5.831   1.342   6.385
 9935SOL     OW30703   2.730   2.300   0.179
 9935SOL    HW130704   2.651   2.268   0.231
 9935SOL    HW230705   2.778   2.221   0.139
 9936SOL     OW30706   5.145   5.388   5.695
 9936SOL    HW130707   5.179   5.354   5.783
 9936SOL    HW230708   5.188   5.476   5.674
 9937SOL     OW30709   0.336   0.249   2.877
 9937SOL    HW130710   0.257   0.267   2.820
 9937SOL    HW230711   0.379   0.336   2.903
 9938SOL     OW30712   6.876   0.991   4.858
 9938SOL    HW130713   6.792   0.938   4.846
 9938SOL    HW230714   6.905   1.028   4.770
 9939SOL     OW30715   1.993   3.906   1.031
 9939SOL    HW130716   1.967   3.984   0.975
 9939SOL    HW230717   2.088   3.880   1.011
 9940SOL     OW30718   0.673   0.025   3.097
 9940SOL    HW130719   0.740   0.046   3.169
 9940SOL    HW230720   0.586   7.024   3.138
 9941SOL     OW30721   4.086   5.128   5.650
 9941SOL    HW130722   4.042   5.174   5.727
 9941SOL    HW230723   4.143   5.194   5.600
 9942SOL     OW30724   4.701   4.614   3.538
 9942SOL    HW130725   4.670   4.527   3.574
 9942SOL    HW230726   4.622   4.665   3.501
 9943SOL     OW30727   1.831   3.807   0.403
 9943SOL    HW130728   1.849   3.905   0.398
 9943SOL    HW230729   1.814   3.771   0.311
 9944SOL     OW30730   1.793   4.906   0.183
 9944SOL    HW130731   1.829   4.962   0.109
 9944SOL    HW230732   1.694   4.894   0.172
 9945SOL     OW30733   6.043   4.145   0.280
 9945SOL    HW130734   6.034   4.193   0.368
 9945SOL    HW230735   6.016   4.050   0.292
 9946SOL     OW30736   5.731   0.709   2.878
 9946SOL    HW130737   5.744   0.621   2.832
 9946SOL    HW230738   5.751   0.699   2.975
 9947SOL     OW30739   1.178   2.425   4.336
 9947SOL    HW130740   1.277   2.432   4.324
 9947SOL    HW230741   1.134   2.427   4.246
 9948SOL     OW30742   6.399   0.160   3.555
 9948SOL    HW130743   6.465   0.221   3.513
 9948SOL    HW230744   6.445   0.096   3.616
 9949SOL     OW30745   6.522   4.375   4.860
 9949SOL    HW130746   6.616   4.376   4.825
 9949SOL    HW230747   6.487   4.468   4.865
 9950SOL     OW30748   6.290   5.170   6.108
 9950SOL    HW130749   6.295   5.091   6.047
 9950SOL    HW230750   6.370   5.171   6.168
 9951SOL     OW30751   1.014   3.035   2.965
 9951SOL    HW130752   1.041   3.083   3.048
 9951SOL    HW230753   1.069   3.067   2.888
 9952SOL     OW30754   0.892   4.176   1.870
 9952SOL    HW130755   0.829   4.253   1.880
 9952SOL    HW230756   0.946   4.166   1.953
 9953SOL     OW30757   6.119   2.655   3.760
 9953SOL    HW130758   6.184   2.586   3.729
 9953SOL    HW230759   6.026   2.623   3.743
 9954SOL     OW30760   2.591   1.364   5.895
 9954SOL    HW130761   2.612   1.275   5.855
 9954SOL    HW230762   2.671   1.399   5.943
 9955SOL     OW30763   4.505   3.375   0.984
 9955SOL    HW130764   4.520   3.281   1.014
 9955SOL    HW230765   4.549   3.390   0.896
 9956SOL     OW30766   1.201   4.523   3.194
 9956SOL    HW130767   1.255   4.607   3.190
 9956SOL    HW230768   1.200   4.479   3.105
 9957SOL     OW30769   5.419   6.586   1.574
 9957SOL    HW130770   5.461   6.612   1.487
 9957SOL    HW230771   5.395   6.669   1.625
 9958SOL     OW30772   4.357   4.784   5.834
 9958SOL    HW130773   4.324   4.696   5.868
 9958SOL    HW230774   4.312   4.859   5.883
 9959SOL     OW30775   4.443   4.100   1.186
 9959SOL    HW130776   4.519   4.035   1.185
 9959SOL    HW230777   4.401   4.101   1.276
 9960SOL     OW30778   6.584   6.529   0.974
 9960SOL    HW130779   6.566   6.487   1.063
 9960SOL    HW230780   6.542   6.474   0.902
 9961SOL     OW30781   1.899   4.017   1.978
 9961SOL    HW130782   1.993   3.984   1.967
 9961SOL    HW230783   1.856   4.024   1.889
 9962SOL     OW30784   3.243   5.604   2.296
 9962SOL    HW130785   3.172   5.542   2.264
 9962SOL    HW230786   3.332   5.573   2.263
 9963SOL     OW30787   2.163   1.538   0.324
 9963SOL    HW130788   2.082   1.551   0.380
 9963SOL    HW230789   2.188   1.441   0.324
 9964SOL     OW30790   4.626   4.546   5.341
 9964SOL    HW130791   4.628   4.472   5.408
 9964SOL    HW230792   4.653   4.632   5.386
 9965SOL     OW30793   2.816   6.301   4.994
 9965SOL    HW130794   2.822   6.212   4.949
 9965SOL    HW230795   2.883   6.364   4.952
 9966SOL     OW30796   2.850   4.722   2.207
 9966SOL    HW130797   2.946   4.741   2.187
 9966SOL    HW230798   2.813   4.659   2.139
 9967SOL     OW30799   6.359   6.688   2.696
 9967SOL    HW130800   6.437   6.733   2.740
 9967SOL    HW230801   6.341   6.731   2.608
 9968SOL     OW30802   4.439   6.117   0.202
 9968SOL    HW130803   4.377   6.165   0.139
 9968SOL    HW230804   4.393   6.101   0.289
 9969SOL     OW30805   0.656   4.230   4.571
 9969SOL    HW130806   0.749   4.265   4.557
 9969SOL    HW230807   0.660   4.139   4.612
 9970SOL     OW30808   5.588   5.266   2.002
 9970SOL    HW130809   5.649   5.283   2.080
 9970SOL    HW230810   5.634   5.295   1.917
 9971SOL     OW30811   1.380   3.249   2.007
 9971SOL    HW130812   1.327   3.189   2.067
 9971SOL    HW230813   1.475   3.220   2.005
 9972SOL     OW30814   3.418   3.884   0.801
 9972SOL    HW130815   3.506   3.929   0.782
 9972SOL    HW230816   3.368   3.871   0.716
 9973SOL     OW30817   4.151   1.650   4.482
 9973SOL    HW130818   4.062   1.674   4.444
 9973SOL    HW230819   4.169   1.704   4.564
 9974SOL     OW30820   6.647   2.387   3.572
 9974SOL    HW130821   6.620   2.291   3.586
 9974SOL    HW230822   6.744   2.397   3.595
 9975SOL     OW30823   1.126   5.170   6.801
 9975SOL    HW130824   1.193   5.127   6.740
 9975SOL    HW230825   1.173   5.235   6.861
 9976SOL     OW30826   1.560   5.213   5.744
 9976SOL    HW130827   1.622   5.226   5.821
 9976SOL    HW230828   1.607   5.163   5.671
 9977SOL     OW30829   5.191   5.130   4.801
 9977SOL    HW130830   5.233   5.085   4.722
 9977SOL    HW230831   5.119   5.192   4.769
 9978SOL     OW30832   0.466   1.886   6.078
 9978SOL    HW130833   0.565   1.894   6.087
 9978SOL    HW230834   0.428   1.842   6.160
 9979SOL     OW30835   4.953   3.507   5.843
 9979SOL    HW130836   4.863   3.495   5.887
 9979SOL    HW230837   4.985   3.600   5.857
 9980SOL     OW30838   1.329   0.762   0.181
 9980SOL    HW130839   1.245   0.816   0.190
 9980SOL    HW230840   1.330   0.716   0.092
 9981SOL     OW30841   1.358   2.518   1.179
 9981SOL    HW130842   1.269   2.545   1.214
 9981SOL    HW230843   1.360   2.530   1.080
 9982SOL     OW30844   2.482   1.112   4.874
 9982SOL    HW130845   2.433   1.063   4.946
 9982SOL    HW230846   2.440   1.202   4.860
 9983SOL     OW30847   6.120   3.014   2.381
 9983SOL    HW130848   6.208   3.061   2.390
 9983SOL    HW230849   6.131   2.935   2.320
 9984SOL     OW30850   0.449   6.288   1.250
 9984SOL    HW130851   0.411   6.309   1.159
 9984SOL    HW230852   0.544   6.318   1.253
 9985SOL     OW30853   3.091   5.245   0.304
 9985SOL    HW130854   3.065   5.162   0.255
 9985SOL    HW230855   3.157   5.221   0.376
 9986SOL     OW30856   4.792   4.560   0.855
 9986SOL    HW130857   4.792   4.660   0.841
 9986SOL    HW230858   4.870   4.520   0.807
 9987SOL     OW30859   5.664   3.494   1.640
 9987SOL    HW130860   5.618   3.424   1.695
 9987SOL    HW230861   5.600   3.569   1.621
 9988SOL     OW30862   6.522   5.922   4.145
 9988SOL    HW130863   6.562   5.835   4.174
 9988SOL    HW230864   6.438   5.905   4.094
 9989SOL     OW30865   6.237   3.652   1.704
 9989SOL    HW130866   6.305   3.596   1.751
 9989SOL    HW230867   6.258   3.749   1.718
 9990SOL     OW30868   0.292   6.249   3.320
 9990SOL    HW130869   0.278   6.184   3.395
 9990SOL    HW230870   0.312   6.199   3.236
 9991SOL     OW30871   1.501   4.068   3.596
 9991SOL    HW130872   1.593   4.074   3.557
 9991SOL    HW230873   1.481   3.973   3.620
 9992SOL     OW30874   3.379   3.962   1.071
 9992SOL    HW130875   3.392   3.915   0.984
 9992SOL    HW230876   3.316   4.038   1.059
 9993SOL     OW30877   3.311   5.962   3.830
 9993SOL    HW130878   3.281   5.875   3.790
 9993SOL    HW230879   3.262   5.977   3.916
 9994SOL     OW30880   0.203   3.818   3.703
 9994SOL    HW130881   0.220   3.841   3.799
 9994SOL    HW230882   0.188   3.902   3.651
 9995SOL     OW30883   2.936   1.009   4.146
 9995SOL    HW130884   2.873   1.077   4.182
 9995SOL    HW230885   2.946   1.021   4.047
 9996SOL     OW30886   3.002   4.440   0.516
 9996SOL    HW130887   3.046   4.358   0.481
 9996SOL    HW230888   3.057   4.521   0.493
 9997SOL     OW30889   5.402   1.654   3.740
 9997SOL    HW130890   5.416   1.643   3.642
 9997SOL    HW230891   5.304   1.666   3.759
 9998SOL     OW30892   4.978   4.124   2.519
 9998SOL    HW130893   5.055   4.126   2.583
 9998SOL    HW230894   4.965   4.030   2.486
 9999SOL     OW30895   0.940   0.034   4.165
 9999SOL    HW130896   0.999   6.981   4.188
 9999SOL    HW230897   0.919   0.087   4.248
10000SOL     OW30898   5.551   1.424   1.885
10000SOL    HW130899   5.520   1.378   1.802
10000SOL    HW230900   5.554   1.523   1.869
10001SOL     OW30901   3.339   6.498   2.627
10001SOL    HW130902   3.433   6.515   2.597
10001SOL    HW230903   3.290   6.448   2.555
10002SOL     OW30904   2.220   1.032   0.797
10002SOL    HW130905   2.150   1.006   0.731
10002SOL    HW230906   2.289   1.090   0.753
10003SOL     OW30907   2.938   1.680   2.483
10003SOL    HW130908   2.876   1.726   2.420
10003SOL    HW230909   3.033   1.699   2.455
10004SOL     OW30910   5.522   4.812   4.683
10004SOL    HW130911   5.467   4.830   4.764
10004SOL    HW230912   5.491   4.727   4.639
10005SOL     OW30913   2.934   5.572   3.375
10005SOL    HW130914   2.879   5.618   3.305
10005SOL    HW230915   2.928   5.623   3.461
10006SOL     OW30916   5.694   0.089   5.415
10006SOL    HW130917   5.704   0.169   5.474
10006SOL    HW230918   5.641   0.019   5.463
10007SOL     OW30919   0.470   3.685   5.062
10007SOL    HW130920   0.558   3.696   5.107
10007SOL    HW230921   0.484   3.654   4.969
10008SOL     OW30922   4.203   1.975   4.239
10008SOL    HW130923   4.128   2.020   4.190
10008SOL    HW230924   4.175   1.882   4.265
10009SOL     OW30925   1.706   3.716   1.740
10009SOL    HW130926   1.762   3.665   1.676
10009SOL    HW230927   1.739   3.701   1.833
10010SOL     OW30928   3.241   5.137   6.474
10010SOL    HW130929   3.263   5.070   6.403
10010SOL    HW230930   3.232   5.091   6.562
10011SOL     OW30931   0.156   4.402   6.984
10011SOL    HW130932   0.252   4.425   6.999
10011SOL    HW230933   0.099   4.479   7.010
10012SOL     OW30934   4.888   0.678   1.862
10012SOL    HW130935   4.872   0.681   1.960
10012SOL    HW230936   4.886   0.584   1.830
10013SOL     OW30937   1.175   4.518   4.840
10013SOL    HW130938   1.236   4.535   4.763
10013SOL    HW230939   1.216   4.450   4.901
10014SOL     OW30940   1.282   6.571   2.209
10014SOL    HW130941   1.291   6.527   2.298
10014SOL    HW230942   1.261   6.503   2.140
10015SOL     OW30943   3.723   5.222   6.833
10015SOL    HW130944   3.764   5.138   6.868
10015SOL    HW230945   3.722   5.292   6.905
10016SOL     OW30946   2.427   1.640   4.818
10016SOL    HW130947   2.519   1.646   4.857
10016SOL    HW230948   2.427   1.682   4.727
10017SOL     OW30949   2.330   1.717   2.406
10017SOL    HW130950   2.287   1.632   2.436
10017SOL    HW230951   2.355   1.709   2.309
10018SOL     OW30952   6.800   3.718   5.628
10018SOL    HW130953   6.866   3.774   5.678
10018SOL    HW230954   6.713   3.717   5.676
10019SOL     OW30955   0.397   1.304   3.188
10019SOL    HW130956   0.423   1.230   3.249
10019SOL    HW230957   0.330   1.271   3.122
10020SOL     OW30958   0.344   0.776   2.060
10020SOL    HW130959   0.391   0.769   1.972
10020SOL    HW230960   0.247   0.759   2.048
10021SOL     OW30961   1.161   3.017   2.031
10021SOL    HW130962   1.113   3.102   2.052
10021SOL    HW230963   1.138   2.989   1.937
10022SOL     OW30964   1.952   5.714   6.942
10022SOL    HW130965   1.898   5.788   6.901
10022SOL    HW230966   1.970   5.736   0.013
10023SOL     OW30967   2.650   5.804   5.622
10023SOL    HW130968   2.712   5.877   5.653
10023SOL    HW230969   2.618   5.825   5.530
10024SOL     OW30970   1.187   4.860   3.003
10024SOL    HW130971   1.243   4.939   2.977
10024SOL    HW230972   1.091   4.888   3.007
10025SOL     OW30973   2.001   2.989   2.147
10025SOL    HW130974   1.959   2.998   2.237
10025SOL    HW230975   2.056   3.070   2.128
10026SOL     OW30976   5.105   0.797   3.141
10026SOL    HW130977   5.052   0.870   3.096
10026SOL    HW230978   5.140   0.831   3.228
10027SOL     OW30979   0.880   2.659   4.969
10027SOL    HW130980   0.905   2.567   4.999
10027SOL    HW230981   0.851   2.656   4.874
10028SOL     OW30982   3.211   1.016   0.952
10028SOL    HW130983   3.162   1.066   1.023
10028SOL    HW230984   3.147   0.986   0.881
10029SOL     OW30985   0.463   3.494   4.012
10029SOL    HW130986   0.368   3.477   3.984
10029SOL    HW230987   0.525   3.452   3.946
10030SOL     OW30988   3.268   6.774   5.120
10030SOL    HW130989   3.179   6.794   5.162
10030SOL    HW230990   3.302   6.856   5.073
10031SOL     OW30991   4.522   4.911   4.722
10031SOL    HW130992   4.602   4.891   4.778
10031SOL    HW230993   4.444   4.860   4.756
10032SOL     OW30994   3.533   0.552   6.594
10032SOL    HW130995   3.596   0.477   6.611
10032SOL    HW230996   3.439   0.521   6.610
10033SOL     OW30997   4.130   1.701   4.911
10033SOL    HW130998   4.077   1.682   4.993
10033SOL    HW230999   4.068   1.708   4.832
10034SOL     OW31000   2.592   1.100   3.848
10034SOL    HW131001   2.540   1.085   3.764
10034SOL    HW231002   2.618   1.196   3.855
10035SOL     OW31003   5.586   3.912   1.061
10035SOL    HW131004   5.522   3.987   1.046
10035SOL    HW231005   5.678   3.948   1.075
10036SOL     OW31006   6.479   1.047   0.710
10036SOL    HW131007   6.513   1.034   0.803
10036SOL    HW231008   6.387   1.009   0.702
10037SOL     OW31009   6.637   6.784   6.801
10037SOL    HW131010   6.564   6.844   6.769
10037SOL    HW231011   6.640   6.702   6.743
10038SOL     OW31012   3.978   6.709   6.242
10038SOL    HW131013   4.077   6.721   6.243
10038SOL    HW231014   3.945   6.702   6.147
10039SOL     OW31015   5.102   6.330   5.287
10039SOL    HW131016   5.088   6.415   5.339
10039SOL    HW231017   5.098   6.350   5.189
10040SOL     OW31018   4.822   6.046   6.641
10040SOL    HW131019   4.902   6.080   6.691
10040SOL    HW231020   4.832   6.070   6.544
10041SOL     OW31021   5.812   5.319   5.663
10041SOL    HW131022   5.801   5.416   5.683
10041SOL    HW231023   5.763   5.264   5.731
10042SOL     OW31024   0.713   0.566   5.146
10042SOL    HW131025   0.705   0.467   5.158
10042SOL    HW231026   0.774   0.603   5.216
10043SOL     OW31027   0.600   0.033   3.455
10043SOL    HW131028   0.564   0.075   3.537
10043SOL    HW231029   0.655   6.978   3.480
10044SOL     OW31030   2.708   1.812   3.908
10044SOL    HW131031   2.745   1.861   3.987
10044SOL    HW231032   2.705   1.714   3.928
10045SOL     OW31033   5.070   0.356   4.059
10045SOL    HW131034   5.000   0.302   4.013
10045SOL    HW231035   5.151   0.299   4.076
10046SOL     OW31036   0.845   1.541   1.856
10046SOL    HW131037   0.772   1.609   1.842
10046SOL    HW231038   0.934   1.586   1.851
10047SOL     OW31039   6.209   3.181   5.017
10047SOL    HW131040   6.215   3.272   4.976
10047SOL    HW231041   6.274   3.120   4.973
10048SOL     OW31042   3.483   1.698   2.268
10048SOL    HW131043   3.491   1.646   2.183
10048SOL    HW231044   3.487   1.635   2.346
10049SOL     OW31045   0.675   0.826   6.364
10049SOL    HW131046   0.706   0.743   6.318
10049SOL    HW231047   0.747   0.895   6.360
10050SOL     OW31048   6.253   2.493   4.833
10050SOL    HW131049   6.250   2.416   4.769
10050SOL    HW231050   6.176   2.487   4.897
10051SOL     OW31051   6.526   2.557   4.775
10051SOL    HW131052   6.433   2.545   4.810
10051SOL    HW231053   6.563   2.468   4.748
10052SOL     OW31054   1.751   1.940   2.321
10052SOL    HW131055   1.752   1.995   2.404
10052SOL    HW231056   1.660   1.899   2.309
10053SOL     OW31057   3.692   5.144   1.941
10053SOL    HW131058   3.653   5.067   1.889
10053SOL    HW231059   3.739   5.206   1.878
10054SOL     OW31060   4.026   6.503   5.946
10054SOL    HW131061   3.962   6.440   5.989
10054SOL    HW231062   4.120   6.471   5.961
10055SOL     OW31063   6.137   2.461   5.230
10055SOL    HW131064   6.073   2.503   5.165
10055SOL    HW231065   6.218   2.431   5.181
10056SOL     OW31066   6.413   5.334   0.507
10056SOL    HW131067   6.436   5.347   0.604
10056SOL    HW231068   6.486   5.284   0.462
10057SOL     OW31069   3.728   0.898   4.348
10057SOL    HW131070   3.704   0.993   4.331
10057SOL    HW231071   3.760   0.887   4.442
10058SOL     OW31072   0.085   3.833   4.425
10058SOL    HW131073   0.129   3.859   4.511
10058SOL    HW231074   0.070   3.734   4.424
10059SOL     OW31075   5.078   6.724   0.714
10059SOL    HW131076   5.159   6.755   0.665
10059SOL    HW231077   5.022   6.804   0.738
10060SOL     OW31078   2.571   1.318   1.898
10060SOL    HW131079   2.561   1.414   1.927
10060SOL    HW231080   2.603   1.316   1.803
10061SOL     OW31081   4.702   1.394   4.219
10061SOL    HW131082   4.649   1.469   4.259
10061SOL    HW231083   4.643   1.314   4.207
10062SOL     OW31084   6.414   6.728   4.662
10062SOL    HW131085   6.332   6.704   4.715
10062SOL    HW231086   6.400   6.816   4.617
10063SOL     OW31087   1.673   1.823   2.994
10063SOL    HW131088   1.690   1.773   2.909
10063SOL    HW231089   1.693   1.763   3.072
10064SOL     OW31090   5.608   5.619   6.301
10064SOL    HW131091   5.615   5.718   6.316
10064SOL    HW231092   5.542   5.601   6.229
10065SOL     OW31093   2.430   0.734   1.879
10065SOL    HW131094   2.369   0.807   1.849
10065SOL    HW231095   2.390   0.686   1.957
10066SOL     OW31096   1.829   1.393   4.436
10066SOL    HW131097   1.893   1.467   4.458
10066SOL    HW231098   1.818   1.334   4.515
10067SOL     OW31099   5.638   4.120   5.923
10067SOL    HW131100   5.585   4.037   5.904
10067SOL    HW231101   5.577   4.192   5.955
10068SOL     OW31102   5.409   3.047   4.049
10068SOL    HW131103   5.332   3.016   4.104
10068SOL    HW231104   5.473   2.971   4.034
10069SOL     OW31105   1.719   5.508   3.995
10069SOL    HW131106   1.687   5.461   3.913
10069SOL    HW231107   1.724   5.606   3.978
10070SOL     OW31108   0.099   0.324   4.606
10070SOL    HW131109   0.135   0.414   4.583
10070SOL    HW231110   0.004   0.318   4.577
10071SOL     OW31111   5.095   5.290   3.913
10071SOL    HW131112   5.008   5.330   3.884
10071SOL    HW231113   5.168   5.318   3.849
10072SOL     OW31114   0.949   5.849   4.466
10072SOL    HW131115   1.012   5.891   4.531
10072SOL    HW231116   0.867   5.819   4.515
10073SOL     OW31117   6.619   3.989   4.357
10073SOL    HW131118   6.682   3.913   4.370
10073SOL    HW231119   6.649   4.045   4.280
10074SOL     OW31120   0.709   0.666   5.533
10074SOL    HW131121   0.778   0.670   5.460
10074SOL    HW231122   0.647   0.744   5.524
10075SOL     OW31123   1.460   2.240   2.383
10075SOL    HW131124   1.420   2.166   2.438
10075SOL    HW231125   1.523   2.293   2.439
10076SOL     OW31126   5.566   0.274   3.397
10076SOL    HW131127   5.592   0.185   3.359
10076SOL    HW231128   5.513   0.326   3.330
10077SOL     OW31129   3.590   2.279   6.769
10077SOL    HW131130   3.667   2.343   6.772
10077SOL    HW231131   3.543   2.279   6.857
10078SOL     OW31132   6.929   6.470   4.283
10078SOL    HW131133   7.006   6.426   4.329
10078SOL    HW231134   6.844   6.424   4.311
10079SOL     OW31135   1.144   3.522   2.158
10079SOL    HW131136   1.057   3.511   2.205
10079SOL    HW231137   1.217   3.537   2.225
10080SOL     OW31138   3.023   1.296   5.914
10080SOL    HW131139   2.970   1.380   5.925
10080SOL    HW231140   3.018   1.265   5.819
10081SOL     OW31141   0.068   0.662   0.020
10081SOL    HW131142   0.100   0.630   6.955
10081SOL    HW231143   0.146   0.693   0.074
10082SOL     OW31144   6.986   3.825   2.212
10082SOL    HW131145   0.036   3.771   2.174
10082SOL    HW231146   6.934   3.768   2.277
10083SOL     OW31147   5.305   0.858   2.932
10083SOL    HW131148   5.214   0.833   2.963
10083SOL    HW231149   5.364   0.778   2.931
10084SOL     OW31150   3.646   0.923   5.932
10084SOL    HW131151   3.688   0.833   5.921
10084SOL    HW231152   3.547   0.912   5.942
10085SOL     OW31153   0.360   5.891   2.037
10085SOL    HW131154   0.271   5.921   2.005
10085SOL    HW231155   0.431   5.947   1.994
10086SOL     OW31156   6.354   4.979   1.803
10086SOL    HW131157   6.382   5.062   1.850
10086SOL    HW231158   6.265   4.994   1.759
10087SOL     OW31159   0.515   6.968   4.136
10087SOL    HW131160   0.605   6.925   4.146
10087SOL    HW231161   0.444   6.903   4.163
10088SOL     OW31162   0.026   0.053   6.879
10088SOL    HW131163   0.095   0.024   6.945
10088SOL    HW231164   6.960   0.026   6.912
10089SOL     OW31165   2.385   2.707   3.139
10089SOL    HW131166   2.401   2.773   3.065
10089SOL    HW231167   2.321   2.637   3.107
10090SOL     OW31168   1.301   4.626   0.802
10090SOL    HW131169   1.325   4.577   0.886
10090SOL    HW231170   1.339   4.719   0.806
10091SOL     OW31171   1.309   3.162   5.073
10091SOL    HW131172   1.238   3.109   5.120
10091SOL    HW231173   1.371   3.100   5.026
10092SOL     OW31174   2.031   3.515   5.499
10092SOL    HW131175   2.022   3.527   5.400
10092SOL    HW231176   2.126   3.531   5.526
10093SOL     OW31177   0.828   4.394   5.052
10093SOL    HW131178   0.821   4.437   5.142
10093SOL    HW231179   0.737   4.374   5.017
10094SOL     OW31180   2.451   6.416   1.607
10094SOL    HW131181   2.525   6.412   1.540
10094SOL    HW231182   2.375   6.469   1.570
10095SOL     OW31183   6.372   2.243   5.737
10095SOL    HW131184   6.345   2.338   5.754
10095SOL    HW231185   6.337   2.215   5.648
10096SOL     OW31186   5.835   4.910   1.948
10096SOL    HW131187   5.901   4.890   2.020
10096SOL    HW231188   5.754   4.954   1.989
10097SOL     OW31189   0.947   1.143   6.870
10097SOL    HW131190   0.892   1.121   6.951
10097SOL    HW231191   0.999   1.226   6.887
10098SOL     OW31192   2.297   0.586   5.282
10098SOL    HW131193   2.260   0.677   5.265
10098SOL    HW231194   2.334   0.581   5.375
10099SOL     OW31195   0.133   5.092   6.865
10099SOL    HW131196   0.211   5.031   6.854
10099SOL    HW231197   0.120   5.112   6.962
10100SOL     OW31198   5.255   0.182   4.128
10100SOL    HW131199   5.339   0.146   4.087
10100SOL    HW231200   5.274   0.216   4.220
10101SOL     OW31201   5.684   4.169   1.735
10101SOL    HW131202   5.664   4.150   1.639
10101SOL    HW231203   5.733   4.256   1.743
10102SOL     OW31204   1.623   0.923   2.950
10102SOL    HW131205   1.682   0.901   3.027
10102SOL    HW231206   1.557   0.849   2.936
10103SOL     OW31207   2.488   1.426   5.510
10103SOL    HW131208   2.528   1.438   5.419
10103SOL    HW231209   2.488   1.513   5.559
10104SOL     OW31210   1.651   2.592   4.271
10104SOL    HW131211   1.735   2.545   4.244
10104SOL    HW231212   1.670   2.654   4.347
10105SOL     OW31213   0.914   1.035   0.268
10105SOL    HW131214   0.927   1.072   0.360
10105SOL    HW231215   0.988   1.067   0.209
10106SOL     OW31216   4.654   5.425   1.082
10106SOL    HW131217   4.694   5.351   1.136
10106SOL    HW231218   4.564   5.448   1.117
10107SOL     OW31219   0.258   1.613   0.106
10107SOL    HW131220   0.234   1.708   0.083
10107SOL    HW231221   0.314   1.612   0.188
10108SOL     OW31222   6.252   5.968   6.766
10108SOL    HW131223   6.255   5.914   6.682
10108SOL    HW231224   6.162   6.012   6.775
10109SOL     OW31225   3.543   6.684   1.842
10109SOL    HW131226   3.615   6.623   1.873
10109SOL    HW231227   3.581   6.751   1.779
10110SOL     OW31228   4.555   6.636   4.616
10110SOL    HW131229   4.589   6.724   4.649
10110SOL    HW231230   4.549   6.572   4.692
10111SOL     OW31231   6.165   2.701   4.064
10111SOL    HW131232   6.261   2.726   4.073
10111SOL    HW231233   6.143   2.684   3.968
10112SOL     OW31234   5.535   4.009   4.389
10112SOL    HW131235   5.633   4.029   4.396
10112SOL    HW231236   5.514   3.926   4.441
10113SOL     OW31237   4.341   0.672   5.776
10113SOL    HW131238   4.248   0.668   5.739
10113SOL    HW231239   4.346   0.624   5.863
10114SOL     OW31240   5.186   0.726   0.954
10114SOL    HW131241   5.205   0.643   1.007
10114SOL    HW231242   5.171   0.702   0.858
10115SOL     OW31243   3.169   2.168   3.680
10115SOL    HW131244   3.267   2.180   3.668
10115SOL    HW231245   3.125   2.164   3.590
10116SOL     OW31246   0.472   6.502   0.120
10116SOL    HW131247   0.522   6.563   0.058
10116SOL    HW231248   0.534   6.433   0.156
10117SOL     OW31249   7.016   6.931   5.152
10117SOL    HW131250   0.014   6.887   5.065
10117SOL    HW231251   6.927   6.975   5.145
10118SOL     OW31252   1.005   5.371   2.923
10118SOL    HW131253   1.103   5.363   2.941
10118SOL    HW231254   0.966   5.444   2.980
10119SOL     OW31255   0.627   6.660   4.685
10119SOL    HW131256   0.550   6.621   4.636
10119SOL    HW231257   0.654   6.600   4.760
10120SOL     OW31258   1.158   3.719   4.378
10120SOL    HW131259   1.173   3.818   4.380
10120SOL    HW231260   1.062   3.700   4.399
10121SOL     OW31261   6.169   4.954   5.923
10121SOL    HW131262   6.266   4.949   5.946
10121SOL    HW231263   6.116   4.895   5.983
10122SOL     OW31264   5.627   3.075   0.710
10122SOL    HW131265   5.644   3.032   0.798
10122SOL    HW231266   5.710   3.122   0.680
10123SOL     OW31267   6.673   6.691   0.230
10123SOL    HW131268   6.767   6.667   0.253
10123SOL    HW231269   6.659   6.789   0.245
10124SOL     OW31270   1.657   3.363   6.953
10124SOL    HW131271   1.751   3.333   6.938
10124SOL    HW231272   1.646   3.457   6.919
10125SOL     OW31273   1.429   0.722   2.633
10125SOL    HW131274   1.342   0.762   2.604
10125SOL    HW231275   1.428   0.706   2.731
10126SOL     OW31276   0.246   0.173   6.758
10126SOL    HW131277   0.238   0.185   6.659
10126SOL    HW231278   0.157   0.145   6.795
10127SOL     OW31279   2.568   4.881   5.646
10127SOL    HW131280   2.474   4.905   5.622
10127SOL    HW231281   2.568   4.807   5.713
10128SOL     OW31282   1.002   1.652   1.543
10128SOL    HW131283   1.036   1.668   1.636
10128SOL    HW231284   0.916   1.701   1.530
10129SOL     OW31285   5.160   2.717   4.165
10129SOL    HW131286   5.150   2.692   4.069
10129SOL    HW231287   5.163   2.634   4.221
10130SOL     OW31288   2.114   4.172   2.298
10130SOL    HW131289   2.168   4.156   2.381
10130SOL    HW231290   2.114   4.269   2.276
10131SOL     OW31291   0.353   0.686   3.159
10131SOL    HW131292   0.361   0.750   3.082
10131SOL    HW231293   0.437   0.631   3.165
10132SOL     OW31294   2.744   6.963   3.946
10132SOL    HW131295   2.705   6.992   3.859
10132SOL    HW231296   2.827   6.910   3.929
10133SOL     OW31297   4.912   6.183   1.644
10133SOL    HW131298   4.954   6.249   1.581
10133SOL    HW231299   4.821   6.160   1.612
10134SOL     OW31300   6.552   6.722   3.814
10134SOL    HW131301   6.578   6.646   3.873
10134SOL    HW231302   6.618   6.796   3.824
10135SOL     OW31303   5.350   3.232   3.358
10135SOL    HW131304   5.339   3.261   3.453
10135SOL    HW231305   5.263   3.194   3.325
10136SOL     OW31306   5.763   0.705   3.134
10136SOL    HW131307   5.759   0.798   3.170
10136SOL    HW231308   5.766   0.640   3.210
10137SOL     OW31309   5.920   4.186   4.086
10137SOL    HW131310   5.953   4.253   4.019
10137SOL    HW231311   5.824   4.166   4.069
10138SOL     OW31312   5.131   1.935   0.627
10138SOL    HW131313   5.132   1.931   0.527
10138SOL    HW231314   5.093   1.850   0.664
10139SOL     OW31315   3.680   3.928   3.182
10139SOL    HW131316   3.655   3.832   3.184
10139SOL    HW231317   3.656   3.971   3.270
10140SOL     OW31318   6.275   6.192   6.190
10140SOL    HW131319   6.321   6.137   6.260
10140SOL    HW231320   6.219   6.132   6.133
10141SOL     OW31321   3.300   1.394   4.236
10141SOL    HW131322   3.214   1.344   4.249
10141SOL    HW231323   3.280   1.489   4.210
10142SOL     OW31324   6.561   6.509   4.730
10142SOL    HW131325   6.520   6.600   4.736
10142SOL    HW231326   6.625   6.506   4.654
10143SOL     OW31327   4.407   0.640   0.555
10143SOL    HW131328   4.503   0.621   0.577
10143SOL    HW231329   4.392   0.625   0.458
10144SOL     OW31330   3.918   6.965   6.258
10144SOL    HW131331   3.917   6.865   6.260
10144SOL    HW231332   3.933   6.997   6.165
10145SOL     OW31333   3.261   5.659   5.529
10145SOL    HW131334   3.270   5.560   5.541
10145SOL    HW231335   3.352   5.702   5.535
10146SOL     OW31336   3.833   5.028   4.425
10146SOL    HW131337   3.878   5.022   4.336
10146SOL    HW231338   3.851   5.117   4.466
10147SOL     OW31339   5.458   4.516   4.967
10147SOL    HW131340   5.404   4.593   4.932
10147SOL    HW231341   5.400   4.434   4.970
10148SOL     OW31342   5.285   5.205   6.780
10148SOL    HW131343   5.204   5.171   6.732
10148SOL    HW231344   5.347   5.248   6.715
10149SOL     OW31345   5.849   1.831   1.305
10149SOL    HW131346   5.863   1.902   1.375
10149SOL    HW231347   5.900   1.855   1.223
10150SOL     OW31348   4.184   3.439   0.647
10150SOL    HW131349   4.191   3.354   0.595
10150SOL    HW231350   4.247   3.435   0.725
10151SOL     OW31351   1.153   6.833   0.081
10151SOL    HW131352   1.126   6.813   7.011
10151SOL    HW231353   1.072   6.834   0.140
10152SOL     OW31354   0.796   6.514   4.921
10152SOL    HW131355   0.828   6.476   4.835
10152SOL    HW231356   0.794   6.442   4.991
10153SOL     OW31357   4.955   6.244   3.825
10153SOL    HW131358   4.941   6.178   3.899
10153SOL    HW231359   4.908   6.329   3.847
10154SOL     OW31360   5.598   0.130   5.008
10154SOL    HW131361   5.542   0.051   4.987
10154SOL    HW231362   5.546   0.214   4.991
10155SOL     OW31363   3.530   2.211   5.657
10155SOL    HW131364   3.475   2.214   5.741
10155SOL    HW231365   3.484   2.154   5.590
10156SOL     OW31366   6.229   1.355   2.248
10156SOL    HW131367   6.131   1.358   2.225
10156SOL    HW231368   6.241   1.311   2.337
10157SOL     OW31369   5.904   2.710   6.313
10157SOL    HW131370   5.878   2.652   6.235
10157SOL    HW231371   5.835   2.780   6.327
10158SOL     OW31372   5.713   3.516   0.819
10158SOL    HW131373   5.752   3.531   0.910
10158SOL    HW231374   5.614   3.517   0.825
10159SOL     OW31375   2.730   2.982   6.252
10159SOL    HW131376   2.788   2.901   6.250
10159SOL    HW231377   2.734   3.028   6.163
10160SOL     OW31378   2.319   2.709   2.001
10160SOL    HW131379   2.371   2.735   1.920
10160SOL    HW231380   2.223   2.734   1.988
10161SOL     OW31381   3.408   3.404   6.404
10161SOL    HW131382   3.324   3.397   6.458
10161SOL    HW231383   3.389   3.447   6.316
10162SOL     OW31384   3.575   4.582   0.374
10162SOL    HW131385   3.581   4.493   0.419
10162SOL    HW231386   3.479   4.607   0.363
10163SOL     OW31387   5.437   5.296   5.692
10163SOL    HW131388   5.485   5.384   5.682
10163SOL    HW231389   5.450   5.241   5.610
10164SOL     OW31390   5.669   3.118   4.619
10164SOL    HW131391   5.747   3.137   4.678
10164SOL    HW231392   5.656   3.194   4.555
10165SOL     OW31393   0.676   1.846   3.598
10165SOL    HW131394   0.591   1.867   3.549
10165SOL    HW231395   0.732   1.786   3.541
10166SOL     OW31396   3.588   1.504   1.972
10166SOL    HW131397   3.555   1.546   1.888
10166SOL    HW231398   3.679   1.541   1.994
10167SOL     OW31399   2.940   2.731   6.892
10167SOL    HW131400   2.954   2.642   6.936
10167SOL    HW231401   2.845   2.739   6.862
10168SOL     OW31402   5.850   3.909   5.510
10168SOL    HW131403   5.887   3.952   5.427
10168SOL    HW231404   5.756   3.940   5.524
10169SOL     OW31405   6.387   4.112   3.530
10169SOL    HW131406   6.398   4.114   3.431
10169SOL    HW231407   6.291   4.129   3.553
10170SOL     OW31408   0.864   5.176   6.148
10170SOL    HW131409   0.825   5.192   6.057
10170SOL    HW231410   0.887   5.079   6.157
10171SOL     OW31411   6.634   3.166   5.789
10171SOL    HW131412   6.714   3.114   5.819
10171SOL    HW231413   6.613   3.236   5.857
10172SOL     OW31414   6.791   6.591   4.524
10172SOL    HW131415   6.720   6.659   4.508
10172SOL    HW231416   6.815   6.547   4.437
10173SOL     OW31417   0.710   2.649   1.163
10173SOL    HW131418   0.691   2.700   1.079
10173SOL    HW231419   0.734   2.713   1.236
10174SOL     OW31420   5.778   5.273   2.189
10174SOL    HW131421   5.844   5.215   2.143
10174SOL    HW231422   5.811   5.296   2.281
10175SOL     OW31423   5.790   1.904   4.266
10175SOL    HW131424   5.856   1.974   4.238
10175SOL    HW231425   5.767   1.917   4.363
10176SOL     OW31426   1.168   3.520   5.773
10176SOL    HW131427   1.236   3.519   5.846
10176SOL    HW231428   1.193   3.454   5.703
10177SOL     OW31429   2.328   0.565   0.295
10177SOL    HW131430   2.327   0.479   0.347
10177SOL    HW231431   2.418   0.608   0.305
10178SOL     OW31432   6.576   1.053   5.390
10178SOL    HW131433   6.514   1.029   5.465
10178SOL    HW231434   6.528   1.110   5.324
10179SOL     OW31435   0.585   1.604   6.443
10179SOL    HW131436   0.543   1.669   6.506
10179SOL    HW231437   0.625   1.653   6.366
10180SOL     OW31438   4.261   0.414   6.550
10180SOL    HW131439   4.317   0.338   6.584
10180SOL    HW231440   4.320   0.481   6.506
10181SOL     OW31441   5.570   2.537   1.966
10181SOL    HW131442   5.489   2.570   2.015
10181SOL    HW231443   5.595   2.602   1.894
10182SOL     OW31444   4.506   1.101   1.708
10182SOL    HW131445   4.478   1.090   1.613
10182SOL    HW231446   4.602   1.074   1.718
10183SOL     OW31447   6.962   2.123   6.105
10183SOL    HW131448   6.874   2.094   6.067
10183SOL    HW231449   6.952   2.214   6.145
10184SOL     OW31450   3.639   0.789   6.710
10184SOL    HW131451   3.628   0.780   6.809
10184SOL    HW231452   3.630   0.699   6.667
10185SOL     OW31453   5.886   5.868   1.901
10185SOL    HW131454   5.917   5.925   1.977
10185SOL    HW231455   5.965   5.824   1.857
10186SOL     OW31456   6.124   4.186   3.677
10186SOL    HW131457   6.139   4.186   3.776
10186SOL    HW231458   6.160   4.271   3.638
10187SOL     OW31459   0.409   3.158   0.986
10187SOL    HW131460   0.381   3.146   0.891
10187SOL    HW231461   0.458   3.245   0.996
10188SOL     OW31462   3.385   5.726   0.979
10188SOL    HW131463   3.456   5.724   0.909
10188SOL    HW231464   3.361   5.821   0.999
10189SOL     OW31465   0.829   0.568   6.183
10189SOL    HW131466   0.928   0.575   6.180
10189SOL    HW231467   0.800   0.526   6.269
10190SOL     OW31468   4.854   3.260   1.762
10190SOL    HW131469   4.763   3.226   1.741
10190SOL    HW231470   4.875   3.243   1.858
10191SOL     OW31471   5.305   5.112   5.330
10191SOL    HW131472   5.258   5.031   5.294
10191SOL    HW231473   5.326   5.174   5.254
10192SOL     OW31474   4.610   1.439   5.694
10192SOL    HW131475   4.576   1.387   5.616
10192SOL    HW231476   4.698   1.401   5.724
10193SOL     OW31477   4.107   3.165   1.947
10193SOL    HW131478   4.079   3.085   1.895
10193SOL    HW231479   4.078   3.156   2.042
10194SOL     OW31480   5.843   5.559   5.067
10194SOL    HW131481   5.799   5.615   4.997
10194SOL    HW231482   5.773   5.519   5.126
10195SOL     OW31483   6.377   5.350   0.874
10195SOL    HW131484   6.283   5.380   0.858
10195SOL    HW231485   6.422   5.414   0.937
10196SOL     OW31486   4.349   1.902   4.028
10196SOL    HW131487   4.413   1.836   4.066
10196SOL    HW231488   4.294   1.941   4.101
10197SOL     OW31489   6.383   1.985   5.441
10197SOL    HW131490   6.340   2.065   5.482
10197SOL    HW231491   6.319   1.940   5.379
10198SOL     OW31492   3.012   0.358   1.981
10198SOL    HW131493   3.072   0.396   2.052
10198SOL    HW231494   3.034   0.262   1.967
10199SOL     OW31495   2.624   2.349   6.932
10199SOL    HW131496   2.693   2.335   6.861
10199SOL    HW231497   2.665   2.335   7.022
10200SOL     OW31498   5.160   2.147   0.379
10200SOL    HW131499   5.255   2.172   0.363
10200SOL    HW231500   5.148   2.050   0.362
10201SOL     OW31501   1.728   4.271   1.058
10201SOL    HW131502   1.693   4.178   1.056
10201SOL    HW231503   1.758   4.298   0.966
10202SOL     OW31504   3.994   3.322   0.868
10202SOL    HW131505   4.085   3.359   0.885
10202SOL    HW231506   3.937   3.393   0.826
10203SOL     OW31507   6.129   3.258   3.579
10203SOL    HW131508   6.110   3.198   3.501
10203SOL    HW231509   6.152   3.202   3.659
10204SOL     OW31510   5.086   6.632   0.219
10204SOL    HW131511   5.175   6.629   0.264
10204SOL    HW231512   5.099   6.643   0.120
10205SOL     OW31513   2.087   0.926   1.560
10205SOL    HW131514   2.003   0.872   1.564
10205SOL    HW231515   2.160   0.871   1.521
10206SOL     OW31516   0.340   1.025   0.119
10206SOL    HW131517   0.260   0.972   0.148
10206SOL    HW231518   0.378   1.074   0.197
10207SOL     OW31519   1.247   2.132   6.785
10207SOL    HW131520   1.322   2.078   6.747
10207SOL    HW231521   1.215   2.197   6.717
10208SOL     OW31522   5.704   4.270   3.517
10208SOL    HW131523   5.707   4.175   3.486
10208SOL    HW231524   5.796   4.301   3.540
10209SOL     OW31525   0.337   0.302   6.986
10209SOL    HW131526   0.302   0.243   6.913
10209SOL    HW231527   0.393   0.375   6.947
10210SOL     OW31528   4.764   6.633   2.105
10210SOL    HW131529   4.699   6.557   2.110
10210SOL    HW231530   4.820   6.634   2.187
10211SOL     OW31531   4.220   6.116   4.293
10211SOL    HW131532   4.269   6.072   4.217
10211SOL    HW231533   4.131   6.072   4.305
10212SOL     OW31534   0.786   0.318   5.213
10212SOL    HW131535   0.783   0.221   5.240
10212SOL    HW231536   0.813   0.324   5.117
10213SOL     OW31537   5.368   2.854   0.842
10213SOL    HW131538   5.279   2.882   0.877
10213SOL    HW231539   5.357   2.770   0.788
10214SOL     OW31540   1.283   1.546   2.114
10214SOL    HW131541   1.219   1.474   2.142
10214SOL    HW231542   1.370   1.534   2.162
10215SOL     OW31543   3.938   3.461   3.503
10215SOL    HW131544   3.870   3.471   3.576
10215SOL    HW231545   3.962   3.552   3.468
10216SOL     OW31546   0.408   0.726   0.746
10216SOL    HW131547   0.370   0.633   0.749
10216SOL    HW231548   0.372   0.774   0.666
10217SOL     OW31549   3.135   1.932   3.283
10217SOL    HW131550   3.163   1.840   3.311
10217SOL    HW231551   3.146   1.941   3.184
10218SOL     OW31552   1.553   1.459   1.778
10218SOL    HW131553   1.501   1.544   1.773
10218SOL    HW231554   1.640   1.476   1.824
10219SOL     OW31555   0.023   2.924   3.023
10219SOL    HW131556   6.959   2.890   2.992
10219SOL    HW231557   0.010   3.009   3.074
10220SOL     OW31558   4.418   2.217   0.997
10220SOL    HW131559   4.468   2.195   1.080
10220SOL    HW231560   4.323   2.186   1.006
10221SOL     OW31561   0.764   5.068   3.220
10221SOL    HW131562   0.845   5.125   3.231
10221SOL    HW231563   0.710   5.101   3.142
10222SOL     OW31564   3.064   3.316   6.250
10222SOL    HW131565   3.053   3.230   6.300
10222SOL    HW231566   3.090   3.297   6.155
10223SOL     OW31567   0.674   4.642   1.527
10223SOL    HW131568   0.740   4.633   1.453
10223SOL    HW231569   0.644   4.737   1.533
10224SOL     OW31570   6.697   3.160   3.854
10224SOL    HW131571   6.627   3.231   3.851
10224SOL    HW231572   6.669   3.089   3.918
10225SOL     OW31573   1.844   4.846   5.653
10225SOL    HW131574   1.803   4.922   5.602
10225SOL    HW231575   1.838   4.762   5.598
10226SOL     OW31576   2.795   0.512   6.741
10226SOL    HW131577   2.865   0.446   6.714
10226SOL    HW231578   2.728   0.522   6.668
10227SOL     OW31579   5.026   4.559   0.617
10227SOL    HW131580   4.977   4.559   0.530
10227SOL    HW231581   5.027   4.466   0.654
10228SOL     OW31582   7.024   0.056   1.859
10228SOL    HW131583   0.005   0.147   1.817
10228SOL    HW231584   0.090   0.028   1.889
10229SOL     OW31585   1.118   2.733   5.083
10229SOL    HW131586   1.171   2.692   5.009
10229SOL    HW231587   1.025   2.752   5.052
10230SOL     OW31588   5.735   5.722   2.818
10230SOL    HW131589   5.785   5.637   2.799
10230SOL    HW231590   5.785   5.800   2.782
10231SOL     OW31591   0.443   5.572   5.182
10231SOL    HW131592   0.475   5.574   5.087
10231SOL    HW231593   0.520   5.550   5.242
10232SOL     OW31594   2.700   1.254   3.554
10232SOL    HW131595   2.777   1.192   3.541
10232SOL    HW231596   2.617   1.212   3.517
10233SOL     OW31597   3.875   3.857   5.009
10233SOL    HW131598   3.932   3.900   4.939
10233SOL    HW231599   3.822   3.783   4.968
10234SOL     OW31600   6.404   1.472   1.534
10234SOL    HW131601   6.495   1.454   1.571
10234SOL    HW231602   6.412   1.530   1.452
10235SOL     OW31603   1.854   2.573   2.028
10235SOL    HW131604   1.771   2.618   2.059
10235SOL    HW231605   1.931   2.637   2.036
10236SOL     OW31606   2.769   6.680   0.357
10236SOL    HW131607   2.758   6.630   0.272
10236SOL    HW231608   2.798   6.774   0.338
10237SOL     OW31609   6.903   2.846   6.912
10237SOL    HW131610   6.947   2.925   6.871
10237SOL    HW231611   6.898   2.772   6.844
10238SOL     OW31612   4.264   4.153   1.394
10238SOL    HW131613   4.183   4.096   1.380
10238SOL    HW231614   4.302   4.136   1.485
10239SOL     OW31615   1.240   2.433   4.607
10239SOL    HW131616   1.194   2.410   4.521
10239SOL    HW231617   1.339   2.425   4.596
10240SOL     OW31618   2.162   5.758   2.197
10240SOL    HW131619   2.159   5.778   2.099
10240SOL    HW231620   2.175   5.660   2.211
10241SOL     OW31621   5.544   0.701   2.271
10241SOL    HW131622   5.485   0.620   2.277
10241SOL    HW231623   5.488   0.783   2.279
10242SOL     OW31624   6.503   1.595   1.027
10242SOL    HW131625   6.560   1.655   0.971
10242SOL    HW231626   6.539   1.592   1.121
10243SOL     OW31627   2.404   4.004   1.716
10243SOL    HW131628   2.329   3.956   1.761
10243SOL    HW231629   2.428   4.086   1.768
10244SOL     OW31630   2.698   4.045   0.483
10244SOL    HW131631   2.762   3.989   0.431
10244SOL    HW231632   2.651   3.989   0.550
10245SOL     OW31633   3.855   3.792   1.293
10245SOL    HW131634   3.768   3.790   1.341
10245SOL    HW231635   3.864   3.710   1.237
10246SOL     OW31636   3.235   4.117   4.353
10246SOL    HW131637   3.151   4.123   4.407
10246SOL    HW231638   3.311   4.093   4.413
10247SOL     OW31639   6.912   3.779   6.301
10247SOL    HW131640   6.874   3.798   6.210
10247SOL    HW231641   6.948   3.864   6.340
10248SOL     OW31642   1.075   0.128   3.151
10248SOL    HW131643   1.040   0.175   3.232
10248SOL    HW231644   1.021   0.155   3.071
10249SOL     OW31645   3.012   6.031   6.777
10249SOL    HW131646   3.094   5.973   6.771
10249SOL    HW231647   2.948   5.992   6.843
10250SOL     OW31648   6.591   3.608   0.970
10250SOL    HW131649   6.530   3.530   0.982
10250SOL    HW231650   6.560   3.664   0.893
10251SOL     OW31651   2.186   1.686   4.172
10251SOL    HW131652   2.266   1.735   4.137
10251SOL    HW231653   2.129   1.656   4.095
10252SOL     OW31654   4.234   3.586   5.953
10252SOL    HW131655   4.280   3.650   6.015
10252SOL    HW231656   4.299   3.556   5.883
10253SOL     OW31657   2.765   6.083   0.775
10253SOL    HW131658   2.689   6.063   0.713
10253SOL    HW231659   2.804   6.172   0.752
10254SOL     OW31660   4.720   1.930   5.399
10254SOL    HW131661   4.645   1.873   5.367
10254SOL    HW231662   4.777   1.957   5.322
10255SOL     OW31663   2.941   6.919   0.678
10255SOL    HW131664   2.967   6.836   0.728
10255SOL    HW231665   2.850   6.907   0.639
10256SOL     OW31666   4.159   1.159   2.609
10256SOL    HW131667   4.242   1.103   2.602
10256SOL    HW231668   4.185   1.255   2.618
10257SOL     OW31669   1.265   5.612   4.174
10257SOL    HW131670   1.195   5.655   4.230
10257SOL    HW231671   1.239   5.617   4.077
10258SOL     OW31672   4.010   1.974   2.881
10258SOL    HW131673   4.051   2.041   2.942
10258SOL    HW231674   3.972   1.899   2.936
10259SOL     OW31675   0.610   4.262   3.463
10259SOL    HW131676   0.604   4.198   3.539
10259SOL    HW231677   0.695   4.314   3.471
10260SOL     OW31678   0.511   1.549   3.411
10260SOL    HW131679   0.413   1.533   3.398
10260SOL    HW231680   0.557   1.551   3.322
10261SOL     OW31681   6.926   4.901   0.540
10261SOL    HW131682   6.861   4.872   0.610
10261SOL    HW231683   6.948   4.824   0.481
10262SOL     OW31684   3.332   6.555   6.585
10262SOL    HW131685   3.391   6.618   6.534
10262SOL    HW231686   3.365   6.461   6.573
10263SOL     OW31687   5.550   0.419   0.480
10263SOL    HW131688   5.492   0.456   0.553
10263SOL    HW231689   5.638   0.391   0.518
10264SOL     OW31690   6.751   5.676   6.505
10264SOL    HW131691   6.830   5.615   6.499
10264SOL    HW231692   6.782   5.770   6.517
10265SOL     OW31693   3.900   2.477   0.109
10265SOL    HW131694   3.889   2.454   0.012
10265SOL    HW231695   3.998   2.482   0.130
10266SOL     OW31696   3.937   3.037   3.111
10266SOL    HW131697   3.887   3.122   3.125
10266SOL    HW231698   3.966   3.001   3.200
10267SOL     OW31699   5.088   1.106   0.823
10267SOL    HW131700   5.138   1.118   0.909
10267SOL    HW231701   4.992   1.134   0.836
10268SOL     OW31702   6.054   6.360   2.030
10268SOL    HW131703   6.121   6.316   2.090
10268SOL    HW231704   5.990   6.414   2.085
10269SOL     OW31705   0.923   2.981   5.447
10269SOL    HW131706   0.895   3.063   5.396
10269SOL    HW231707   0.980   3.008   5.525
10270SOL     OW31708   3.021   5.360   2.269
10270SOL    HW131709   3.053   5.286   2.209
10270SOL    HW231710   3.006   5.323   2.361
10271SOL     OW31711   3.462   2.516   0.112
10271SOL    HW131712   3.512   2.442   0.067
10271SOL    HW231713   3.366   2.489   0.125
10272SOL     OW31714   1.197   0.996   4.519
10272SOL    HW131715   1.148   1.067   4.570
10272SOL    HW231716   1.131   0.930   4.482
10273SOL     OW31717   3.109   5.415   3.559
10273SOL    HW131718   3.101   5.500   3.610
10273SOL    HW231719   3.051   5.420   3.477
10274SOL     OW31720   0.851   4.751   5.881
10274SOL    HW131721   0.888   4.829   5.830
10274SOL    HW231722   0.814   4.684   5.817
10275SOL     OW31723   0.285   0.243   2.269
10275SOL    HW131724   0.305   0.147   2.249
10275SOL    HW231725   0.364   0.286   2.311
10276SOL     OW31726   4.869   5.938   5.634
10276SOL    HW131727   4.943   5.991   5.674
10276SOL    HW231728   4.820   5.889   5.706
10277SOL     OW31729   1.990   6.236   4.855
10277SOL    HW131730   2.019   6.158   4.799
10277SOL    HW231731   1.905   6.212   4.902
10278SOL     OW31732   0.940   1.316   3.646
10278SOL    HW131733   0.934   1.313   3.746
10278SOL    HW231734   1.004   1.246   3.614
10279SOL     OW31735   1.838   4.784   4.574
10279SOL    HW131736   1.851   4.781   4.673
10279SOL    HW231737   1.874   4.870   4.538
10280SOL     OW31738   6.386   2.971   6.504
10280SOL    HW131739   6.393   3.071   6.508
10280SOL    HW231740   6.458   2.931   6.560
10281SOL     OW31741   6.247   2.031   3.917
10281SOL    HW131742   6.225   2.107   3.857
10281SOL    HW231743   6.223   2.054   4.011
10282SOL     OW31744   5.469   3.173   3.737
10282SOL    HW131745   5.537   3.156   3.666
10282SOL    HW231746   5.515   3.193   3.824
10283SOL     OW31747   1.345   3.212   1.208
10283SOL    HW131748   1.339   3.179   1.302
10283SOL    HW231749   1.352   3.312   1.209
10284SOL     OW31750   5.870   1.617   5.055
10284SOL    HW131751   5.807   1.570   4.994
10284SOL    HW231752   5.831   1.619   5.147
10285SOL     OW31753   4.821   6.345   2.890
10285SOL    HW131754   4.746   6.285   2.914
10285SOL    HW231755   4.837   6.411   2.964
10286SOL     OW31756   4.024   0.522   3.868
10286SOL    HW131757   4.067   0.448   3.921
10286SOL    HW231758   3.926   0.524   3.888
10287SOL     OW31759   2.831   5.464   1.877
10287SOL    HW131760   2.735   5.436   1.874
10287SOL    HW231761   2.852   5.522   1.799
10288SOL     OW31762   4.371   6.522   3.374
10288SOL    HW131763   4.339   6.462   3.447
10288SOL    HW231764   4.294   6.550   3.318
10289SOL     OW31765   2.953   6.333   0.532
10289SOL    HW131766   3.006   6.252   0.557
10289SOL    HW231767   3.012   6.413   0.530
10290SOL     OW31768   3.032   3.096   2.770
10290SOL    HW131769   3.038   3.100   2.869
10290SOL    HW231770   2.963   3.160   2.738
10291SOL     OW31771   3.714   2.022   3.046
10291SOL    HW131772   3.763   1.935   3.042
10291SOL    HW231773   3.714   2.065   2.956
10292SOL     OW31774   0.861   1.974   5.144
10292SOL    HW131775   0.924   2.000   5.217
10292SOL    HW231776   0.768   1.966   5.180
10293SOL     OW31777   1.080   3.161   3.186
10293SOL    HW131778   1.003   3.129   3.241
10293SOL    HW231779   1.165   3.133   3.229
10294SOL     OW31780   4.661   1.424   2.997
10294SOL    HW131781   4.684   1.520   2.983
10294SOL    HW231782   4.562   1.413   3.005
10295SOL     OW31783   0.871   3.167   5.824
10295SOL    HW131784   0.809   3.245   5.824
10295SOL    HW231785   0.900   3.147   5.730
10296SOL     OW31786   5.388   1.357   6.076
10296SOL    HW131787   5.436   1.426   6.022
10296SOL    HW231788   5.301   1.395   6.108
10297SOL     OW31789   1.837   0.985   6.666
10297SOL    HW131790   1.758   1.018   6.615
10297SOL    HW231791   1.915   1.045   6.648
10298SOL     OW31792   2.429   4.554   0.910
10298SOL    HW131793   2.410   4.476   0.851
10298SOL    HW231794   2.482   4.622   0.859
10299SOL     OW31795   3.811   5.315   2.829
10299SOL    HW131796   3.775   5.371   2.755
10299SOL    HW231797   3.746   5.316   2.906
10300SOL     OW31798   1.276   4.157   1.788
10300SOL    HW131799   1.367   4.126   1.817
10300SOL    HW231800   1.285   4.223   1.714
10301SOL     OW31801   4.449   2.000   5.513
10301SOL    HW131802   4.417   1.963   5.600
10301SOL    HW231803   4.486   1.926   5.456
10302SOL     OW31804   2.588   6.269   4.485
10302SOL    HW131805   2.546   6.190   4.530
10302SOL    HW231806   2.627   6.241   4.397
10303SOL     OW31807   1.260   5.956   3.786
10303SOL    HW131808   1.291   5.897   3.712
10303SOL    HW231809   1.308   6.044   3.783
10304SOL     OW31810   5.658   0.237   1.525
10304SOL    HW131811   5.667   0.275   1.617
10304SOL    HW231812   5.561   0.219   1.506
10305SOL     OW31813   1.664   4.030   6.183
10305SOL    HW131814   1.608   3.997   6.106
10305SOL    HW231815   1.605   4.079   6.247
10306SOL     OW31816   5.249   5.587   0.350
10306SOL    HW131817   5.233   5.491   0.327
10306SOL    HW231818   5.180   5.644   0.304
10307SOL     OW31819   3.075   1.690   5.200
10307SOL    HW131820   3.046   1.646   5.115
10307SOL    HW231821   3.082   1.789   5.185
10308SOL     OW31822   2.038   4.236   2.947
10308SOL    HW131823   2.025   4.274   3.039
10308SOL    HW231824   2.068   4.141   2.955
10309SOL     OW31825   0.146   1.948   0.213
10309SOL    HW131826   0.086   1.964   0.134
10309SOL    HW231827   0.241   1.953   0.184
10310SOL     OW31828   3.176   3.788   0.147
10310SOL    HW131829   3.213   3.818   0.059
10310SOL    HW231830   3.232   3.824   0.221
10311SOL     OW31831   6.753   5.527   0.394
10311SOL    HW131832   6.698   5.535   0.311
10311SOL    HW231833   6.837   5.478   0.374
10312SOL     OW31834   4.136   6.740   2.652
10312SOL    HW131835   4.060   6.805   2.654
10312SOL    HW231836   4.196   6.756   2.731
10313SOL     OW31837   3.842   5.761   2.191
10313SOL    HW131838   3.936   5.796   2.190
10313SOL    HW231839   3.830   5.696   2.115
10314SOL     OW31840   6.693   0.473   0.449
10314SOL    HW131841   6.652   0.561   0.427
10314SOL    HW231842   6.714   0.423   0.365
10315SOL     OW31843   6.088   6.114   4.525
10315SOL    HW131844   6.160   6.088   4.590
10315SOL    HW231845   6.035   6.191   4.562
10316SOL     OW31846   6.289   2.493   5.768
10316SOL    HW131847   6.222   2.515   5.839
10316SOL    HW231848   6.320   2.577   5.724
10317SOL     OW31849   4.107   6.142   6.711
10317SOL    HW131850   4.136   6.052   6.745
10317SOL    HW231851   4.013   6.136   6.677
10318SOL     OW31852   4.728   0.141   6.563
10318SOL    HW131853   4.783   0.179   6.637
10318SOL    HW231854   4.778   0.067   6.519
10319SOL     OW31855   0.688   3.458   5.511
10319SOL    HW131856   0.604   3.404   5.505
10319SOL    HW231857   0.667   3.548   5.549
10320SOL     OW31858   0.864   6.568   2.386
10320SOL    HW131859   0.882   6.472   2.410
10320SOL    HW231860   0.766   6.579   2.367
10321SOL     OW31861   5.452   2.265   1.698
10321SOL    HW131862   5.377   2.258   1.765
10321SOL    HW231863   5.418   2.310   1.616
10322SOL     OW31864   4.789   5.315   5.040
10322SOL    HW131865   4.759   5.400   5.084
10322SOL    HW231866   4.747   5.237   5.087
10323SOL     OW31867   5.986   4.741   5.357
10323SOL    HW131868   5.945   4.832   5.363
10323SOL    HW231869   5.981   4.709   5.263
10324SOL     OW31870   3.539   3.120   2.042
10324SOL    HW131871   3.439   3.119   2.052
10324SOL    HW231872   3.578   3.041   2.090
10325SOL     OW31873   6.203   4.380   2.129
10325SOL    HW131874   6.279   4.397   2.191
10325SOL    HW231875   6.231   4.315   2.058
10326SOL     OW31876   5.104   4.621   6.286
10326SOL    HW131877   5.150   4.534   6.297
10326SOL    HW231878   5.065   4.626   6.194
10327SOL     OW31879   2.551   2.410   0.674
10327SOL    HW131880   2.477   2.356   0.713
10327SOL    HW231881   2.519   2.458   0.592
10328SOL     OW31882   6.515   2.595   0.463
10328SOL    HW131883   6.441   2.599   0.395
10328SOL    HW231884   6.598   2.637   0.424
10329SOL     OW31885   2.410   1.111   3.641
10329SOL    HW131886   2.385   1.083   3.549
10329SOL    HW231887   2.392   1.209   3.653
10330SOL     OW31888   4.264   1.479   2.268
10330SOL    HW131889   4.174   1.492   2.310
10330SOL    HW231890   4.262   1.400   2.208
10331SOL     OW31891   6.554   6.585   6.137
10331SOL    HW131892   6.493   6.656   6.102
10331SOL    HW231893   6.607   6.621   6.214
10332SOL     OW31894   6.917   0.311   0.648
10332SOL    HW131895   6.864   0.387   0.686
10332SOL    HW231896   6.894   0.227   0.697
10333SOL     OW31897   0.583   4.385   5.393
10333SOL    HW131898   0.498   4.347   5.357
10333SOL    HW231899   0.574   4.484   5.403
10334SOL     OW31900   3.471   0.960   4.761
10334SOL    HW131901   3.444   1.027   4.692
10334SOL    HW231902   3.490   1.007   4.847
10335SOL     OW31903   2.816   4.150   6.944
10335SOL    HW131904   2.739   4.194   6.989
10335SOL    HW231905   2.901   4.193   6.974
10336SOL     OW31906   6.380   0.131   1.468
10336SOL    HW131907   6.444   0.065   1.428
10336SOL    HW231908   6.332   0.089   1.545
10337SOL     OW31909   0.156   6.241   6.665
10337SOL    HW131910   0.206   6.183   6.729
10337SOL    HW231911   0.091   6.298   6.716
10338SOL     OW31912   2.163   6.721   2.121
10338SOL    HW131913   2.156   6.787   2.196
10338SOL    HW231914   2.256   6.686   2.117
10339SOL     OW31915   4.939   3.830   6.304
10339SOL    HW131916   4.897   3.876   6.226
10339SOL    HW231917   5.034   3.809   6.283
10340SOL     OW31918   1.406   3.682   0.516
10340SOL    HW131919   1.466   3.693   0.437
10340SOL    HW231920   1.461   3.673   0.599
10341SOL     OW31921   2.083   3.265   2.130
10341SOL    HW131922   2.011   3.274   2.062
10341SOL    HW231923   2.155   3.333   2.111
10342SOL     OW31924   1.997   6.867   3.793
10342SOL    HW131925   2.097   6.867   3.802
10342SOL    HW231926   1.955   6.857   3.883
10343SOL     OW31927   3.504   5.240   6.478
10343SOL    HW131928   3.567   5.163   6.482
10343SOL    HW231929   3.410   5.206   6.475
10344SOL     OW31930   4.308   2.999   0.258
10344SOL    HW131931   4.211   2.999   0.284
10344SOL    HW231932   4.333   2.908   0.225
10345SOL     OW31933   1.700   1.383   6.324
10345SOL    HW131934   1.634   1.409   6.395
10345SOL    HW231935   1.664   1.409   6.235
10346SOL     OW31936   0.264   5.254   1.489
10346SOL    HW131937   0.174   5.227   1.524
10346SOL    HW231938   0.332   5.249   1.562
10347SOL     OW31939   3.934   1.562   3.217
10347SOL    HW131940   4.033   1.545   3.214
10347SOL    HW231941   3.889   1.489   3.268
10348SOL     OW31942   6.310   2.676   6.971
10348SOL    HW131943   6.212   2.664   6.989
10348SOL    HW231944   6.349   2.737   0.015
10349SOL     OW31945   1.090   0.817   0.343
10349SOL    HW131946   1.032   0.736   0.335
10349SOL    HW231947   1.046   0.895   0.297
10350SOL     OW31948   3.018   5.686   4.942
10350SOL    HW131949   2.952   5.705   4.869
10350SOL    HW231950   3.085   5.760   4.946
10351SOL     OW31951   4.144   4.859   6.415
10351SOL    HW131952   4.124   4.773   6.368
10351SOL    HW231953   4.092   4.933   6.372
10352SOL     OW31954   3.584   1.231   6.646
10352SOL    HW131955   3.594   1.137   6.614
10352SOL    HW231956   3.556   1.290   6.570
10353SOL     OW31957   6.610   3.329   5.405
10353SOL    HW131958   6.564   3.266   5.468
10353SOL    HW231959   6.589   3.302   5.311
10354SOL     OW31960   5.419   2.501   2.495
10354SOL    HW131961   5.461   2.582   2.455
10354SOL    HW231962   5.320   2.513   2.499
10355SOL     OW31963   2.396   6.706   1.766
10355SOL    HW131964   2.415   6.768   1.842
10355SOL    HW231965   2.411   6.612   1.795
10356SOL     OW31966   0.522   4.769   4.679
10356SOL    HW131967   0.451   4.800   4.616
10356SOL    HW231968   0.561   4.683   4.648
10357SOL     OW31969   1.443   2.869   6.169
10357SOL    HW131970   1.481   2.820   6.090
10357SOL    HW231971   1.508   2.939   6.199
10358SOL     OW31972   6.866   3.473   3.386
10358SOL    HW131973   6.905   3.384   3.361
10358SOL    HW231974   6.814   3.464   3.471
10359SOL     OW31975   0.822   1.925   1.429
10359SOL    HW131976   0.843   2.023   1.434
10359SOL    HW231977   0.825   1.895   1.334
10360SOL     OW31978   4.617   4.325   3.306
10360SOL    HW131979   4.589   4.367   3.219
10360SOL    HW231980   4.704   4.364   3.335
10361SOL     OW31981   2.745   6.091   3.108
10361SOL    HW131982   2.766   6.183   3.142
10361SOL    HW231983   2.662   6.094   3.053
10362SOL     OW31984   0.909   4.585   4.754
10362SOL    HW131985   0.902   4.625   4.662
10362SOL    HW231986   1.004   4.559   4.772
10363SOL     OW31987   4.639   1.375   2.198
10363SOL    HW131988   4.585   1.368   2.114
10363SOL    HW231989   4.723   1.425   2.180
10364SOL     OW31990   3.499   3.151   1.331
10364SOL    HW131991   3.556   3.121   1.408
10364SOL    HW231992   3.460   3.070   1.286
10365SOL     OW31993   3.952   5.025   6.303
10365SOL    HW131994   3.940   5.123   6.288
10365SOL    HW231995   3.900   4.997   6.384
10366SOL     OW31996   2.649   0.662   4.159
10366SOL    HW131997   2.715   0.714   4.213
10366SOL    HW231998   2.594   0.604   4.220
10367SOL     OW31999   6.244   2.546   2.447
10367SOL    HW132000   6.202   2.466   2.489
10367SOL    HW232001   6.269   2.612   2.518
10368SOL     OW32002   1.830   1.921   1.333
10368SOL    HW132003   1.909   1.923   1.394
10368SOL    HW232004   1.819   1.829   1.295
10369SOL     OW32005   4.378   0.605   6.037
10369SOL    HW132006   4.442   0.563   6.101
10369SOL    HW232007   4.314   0.663   6.088
10370SOL     OW32008   4.915   1.928   5.206
10370SOL    HW132009   4.983   1.948   5.135
10370SOL    HW232010   4.951   1.858   5.268
10371SOL     OW32011   3.653   5.773   5.067
10371SOL    HW132012   3.710   5.691   5.071
10371SOL    HW232013   3.561   5.751   5.101
10372SOL     OW32014   1.562   1.430   6.097
10372SOL    HW132015   1.637   1.406   6.035
10372SOL    HW232016   1.478   1.384   6.067
10373SOL     OW32017   2.220   6.543   4.850
10373SOL    HW132018   2.272   6.628   4.862
10373SOL    HW232019   2.279   6.473   4.810
10374SOL     OW32020   3.495   1.227   2.943
10374SOL    HW132021   3.498   1.135   2.905
10374SOL    HW232022   3.480   1.293   2.870
10375SOL     OW32023   3.997   1.821   7.021
10375SOL    HW132024   4.034   1.789   0.084
10375SOL    HW232025   3.956   1.743   6.973
10376SOL     OW32026   0.999   6.297   3.755
10376SOL    HW132027   0.899   6.307   3.759
10376SOL    HW232028   1.042   6.377   3.797
10377SOL     OW32029   6.617   0.971   3.720
10377SOL    HW132030   6.562   1.050   3.694
10377SOL    HW232031   6.570   0.887   3.694
10378SOL     OW32032   6.459   0.751   5.867
10378SOL    HW132033   6.401   0.726   5.789
10378SOL    HW232034   6.534   0.809   5.835
10379SOL     OW32035   4.330   0.445   4.964
10379SOL    HW132036   4.407   0.382   4.970
10379SOL    HW232037   4.322   0.496   5.050
10380SOL     OW32038   6.386   1.275   3.121
10380SOL    HW132039   6.425   1.295   3.211
10380SOL    HW232040   6.303   1.220   3.132
10381SOL     OW32041   4.691   5.575   6.110
10381SOL    HW132042   4.677   5.516   6.031
10381SOL    HW232043   4.789   5.579   6.132
10382SOL     OW32044   2.732   4.829   6.043
10382SOL    HW132045   2.755   4.916   6.000
10382SOL    HW232046   2.636   4.807   6.025
10383SOL     OW32047   1.056   3.034   0.600
10383SOL    HW132048   0.994   3.047   0.524
10383SOL    HW232049   1.134   2.979   0.570
10384SOL     OW32050   0.569   7.011   0.732
10384SOL    HW132051   0.559   6.914   0.753
10384SOL    HW232052   0.488   0.036   0.763
10385SOL     OW32053   4.723   6.998   6.305
10385SOL    HW132054   4.765   6.939   6.236
10385SOL    HW232055   4.755   0.067   6.292
10386SOL     OW32056   0.042   3.805   5.253
10386SOL    HW132057   6.994   3.769   5.195
10386SOL    HW232058   0.120   3.832   5.197
10387SOL     OW32059   3.529   1.819   2.604
10387SOL    HW132060   3.441   1.794   2.645
10387SOL    HW232061   3.557   1.909   2.637
10388SOL     OW32062   0.840   5.729   3.661
10388SOL    HW132063   0.753   5.742   3.613
10388SOL    HW232064   0.846   5.795   3.736
10389SOL     OW32065   0.575   5.820   2.177
10389SOL    HW132066   0.561   5.779   2.268
10389SOL    HW232067   0.486   5.835   2.134
10390SOL     OW32068   1.590   3.715   2.392
10390SOL    HW132069   1.567   3.804   2.354
10390SOL    HW232070   1.688   3.698   2.379
10391SOL     OW32071   1.271   5.657   5.907
10391SOL    HW132072   1.369   5.649   5.922
10391SOL    HW232073   1.253   5.732   5.843
10392SOL     OW32074   6.377   4.251   0.410
10392SOL    HW132075   6.421   4.197   0.338
10392SOL    HW232076   6.319   4.193   0.466
10393SOL     OW32077   0.556   1.829   3.092
10393SOL    HW132078   0.486   1.807   3.023
10393SOL    HW232079   0.621   1.752   3.098
10394SOL     OW32080   2.795   6.734   6.210
10394SOL    HW132081   2.831   6.688   6.129
10394SOL    HW232082   2.716   6.789   6.185
10395SOL     OW32083   6.802   1.003   4.493
10395SOL    HW132084   6.783   1.035   4.401
10395SOL    HW232085   6.900   0.985   4.503
10396SOL     OW32086   1.115   0.836   3.505
10396SOL    HW132087   1.106   0.797   3.596
10396SOL    HW232088   1.041   0.802   3.446
10397SOL     OW32089   3.596   1.520   3.838
10397SOL    HW132090   3.504   1.488   3.861
10397SOL    HW232091   3.595   1.559   3.745
10398SOL     OW32092   6.104   2.458   0.104
10398SOL    HW132093   6.077   2.484   0.012
10398SOL    HW232094   6.148   2.536   0.150
10399SOL     OW32095   4.449   1.651   5.794
10399SOL    HW132096   4.497   1.584   5.737
10399SOL    HW232097   4.459   1.626   5.890
10400SOL     OW32098   3.206   5.765   2.512
10400SOL    HW132099   3.240   5.707   2.586
10400SOL    HW232100   3.243   5.732   2.425
10401SOL     OW32101   6.557   6.571   2.017
10401SOL    HW132102   6.538   6.496   1.953
10401SOL    HW232103   6.603   6.535   2.098
10402SOL     OW32104   0.126   2.783   5.902
10402SOL    HW132105   0.176   2.864   5.872
10402SOL    HW232106   0.097   2.794   5.997
10403SOL     OW32107   5.156   1.331   2.526
10403SOL    HW132108   5.114   1.341   2.616
10403SOL    HW232109   5.087   1.338   2.455
10404SOL     OW32110   0.932   6.669   4.128
10404SOL    HW132111   1.003   6.671   4.058
10404SOL    HW232112   0.876   6.586   4.118
10405SOL     OW32113   1.786   5.355   5.136
10405SOL    HW132114   1.793   5.391   5.043
10405SOL    HW232115   1.877   5.331   5.169
10406SOL     OW32116   1.908   4.569   5.189
10406SOL    HW132117   1.810   4.558   5.205
10406SOL    HW232118   1.956   4.485   5.215
10407SOL     OW32119   1.482   0.601   6.113
10407SOL    HW132120   1.514   0.541   6.040
10407SOL    HW232121   1.474   0.695   6.079
10408SOL     OW32122   4.719   5.866   2.986
10408SOL    HW132123   4.794   5.812   3.025
10408SOL    HW232124   4.741   5.890   2.892
10409SOL     OW32125   0.339   4.441   1.406
10409SOL    HW132126   0.437   4.423   1.392
10409SOL    HW232127   0.294   4.446   1.318
10410SOL     OW32128   5.113   0.994   1.374
10410SOL    HW132129   5.073   1.038   1.294
10410SOL    HW232130   5.118   0.895   1.358
10411SOL     OW32131   2.319   4.625   4.180
10411SOL    HW132132   2.259   4.556   4.140
10411SOL    HW232133   2.387   4.654   4.113
10412SOL     OW32134   0.956   1.536   6.794
10412SOL    HW132135   1.020   1.612   6.784
10412SOL    HW232136   0.864   1.565   6.766
10413SOL     OW32137   1.117   2.080   0.901
10413SOL    HW132138   1.035   2.133   0.923
10413SOL    HW232139   1.126   2.073   0.802
10414SOL     OW32140   5.425   6.277   6.570
10414SOL    HW132141   5.402   6.275   6.473
10414SOL    HW232142   5.438   6.371   6.599
10415SOL     OW32143   1.181   5.548   3.922
10415SOL    HW132144   1.203   5.506   3.834
10415SOL    HW232145   1.147   5.478   3.984
10416SOL     OW32146   6.328   1.765   5.601
10416SOL    HW132147   6.342   1.848   5.548
10416SOL    HW232148   6.257   1.709   5.557
10417SOL     OW32149   4.142   5.077   3.155
10417SOL    HW132150   4.129   4.980   3.173
10417SOL    HW232151   4.122   5.096   3.059
10418SOL     OW32152   6.804   3.879   6.073
10418SOL    HW132153   6.829   3.975   6.064
10418SOL    HW232154   6.705   3.870   6.063
10419SOL     OW32155   3.329   1.009   5.316
10419SOL    HW132156   3.375   0.969   5.237
10419SOL    HW232157   3.277   1.089   5.289
10420SOL     OW32158   6.419   2.895   2.372
10420SOL    HW132159   6.387   2.838   2.448
10420SOL    HW232160   6.484   2.963   2.406
10421SOL     OW32161   1.165   4.528   4.040
10421SOL    HW132162   1.106   4.448   4.046
10421SOL    HW232163   1.134   4.588   3.966
10422SOL     OW32164   6.339   4.226   5.434
10422SOL    HW132165   6.304   4.177   5.515
10422SOL    HW232166   6.426   4.269   5.457
10423SOL     OW32167   3.555   4.948   4.364
10423SOL    HW132168   3.510   4.946   4.453
10423SOL    HW232169   3.652   4.971   4.376
10424SOL     OW32170   3.957   0.976   0.218
10424SOL    HW132171   3.897   0.954   0.294
10424SOL    HW232172   3.903   0.990   0.135
10425SOL     OW32173   1.403   0.072   1.120
10425SOL    HW132174   1.416   0.170   1.134
10425SOL    HW232175   1.350   0.034   1.196
10426SOL     OW32176   5.139   2.864   5.454
10426SOL    HW132177   5.238   2.876   5.444
10426SOL    HW232178   5.093   2.908   5.377
10427SOL     OW32179   5.028   5.866   5.175
10427SOL    HW132180   5.107   5.809   5.199
10427SOL    HW232181   5.010   5.930   5.250
10428SOL     OW32182   1.662   1.683   3.441
10428SOL    HW132183   1.582   1.740   3.420
10428SOL    HW232184   1.657   1.653   3.536
10429SOL     OW32185   1.174   3.282   2.503
10429SOL    HW132186   1.258   3.328   2.533
10429SOL    HW232187   1.199   3.205   2.443
10430SOL     OW32188   3.640   6.056   4.088
10430SOL    HW132189   3.738   6.075   4.099
10430SOL    HW232190   3.619   6.042   3.991
10431SOL     OW32191   2.686   1.883   4.304
10431SOL    HW132192   2.689   1.912   4.399
10431SOL    HW232193   2.610   1.819   4.290
10432SOL     OW32194   0.197   7.023   5.293
10432SOL    HW132195   0.131   6.982   5.229
10432SOL    HW232196   0.181   6.987   5.385
10433SOL     OW32197   2.099   0.186   1.551
10433SOL    HW132198   2.112   0.286   1.552
10433SOL    HW232199   2.014   0.164   1.504
10434SOL     OW32200   4.881   0.705   5.702
10434SOL    HW132201   4.909   0.731   5.794
10434SOL    HW232202   4.927   0.620   5.676
10435SOL     OW32203   0.957   2.233   6.491
10435SOL    HW132204   0.874   2.281   6.518
10435SOL    HW232205   1.035   2.267   6.543
10436SOL     OW32206   0.185   4.059   5.613
10436SOL    HW132207   0.181   4.134   5.547
10436SOL    HW232208   0.140   3.979   5.575
10437SOL     OW32209   5.028   5.583   5.132
10437SOL    HW132210   5.034   5.495   5.179
10437SOL    HW232211   5.103   5.642   5.162
10438SOL     OW32212   6.984   6.422   6.750
10438SOL    HW132213   0.038   6.474   6.719
10438SOL    HW232214   6.962   6.447   6.845
10439SOL     OW32215   6.716   0.465   4.334
10439SOL    HW132216   6.691   0.403   4.260
10439SOL    HW232217   6.734   0.556   4.297
10440SOL     OW32218   0.129   1.387   0.179
10440SOL    HW132219   0.189   1.360   0.253
10440SOL    HW232220   0.160   1.474   0.140
10441SOL     OW32221   3.240   1.376   1.362
10441SOL    HW132222   3.154   1.394   1.408
10441SOL    HW232223   3.231   1.293   1.306
10442SOL     OW32224   3.059   0.509   5.371
10442SOL    HW132225   3.057   0.609   5.361
10442SOL    HW232226   3.083   0.486   5.466
10443SOL     OW32227   0.447   1.870   3.386
10443SOL    HW132228   0.458   1.848   3.289
10443SOL    HW232229   0.407   1.791   3.433
10444SOL     OW32230   3.348   5.278   3.778
10444SOL    HW132231   3.279   5.206   3.770
10444SOL    HW232232   3.436   5.242   3.748
10445SOL     OW32233   0.820   3.932   2.198
10445SOL    HW132234   0.899   3.880   2.231
10445SOL    HW232235   0.737   3.878   2.214
10446SOL     OW32236   1.992   3.963   5.533
10446SOL    HW132237   1.958   4.053   5.506
10446SOL    HW232238   1.917   3.897   5.530
10447SOL     OW32239   6.408   2.466   3.340
10447SOL    HW132240   6.394   2.381   3.291
10447SOL    HW232241   6.501   2.499   3.325
10448SOL     OW32242   2.915   0.472   3.815
10448SOL    HW132243   2.885   0.561   3.847
10448SOL    HW232244   2.864   0.448   3.732
10449SOL     OW32245   3.548   5.831   0.006
10449SOL    HW132246   3.555   5.811   0.104
10449SOL    HW232247   3.614   5.774   6.981
10450SOL     OW32248   6.193   0.225   6.198
10450SOL    HW132249   6.286   0.203   6.168
10450SOL    HW232250   6.167   0.315   6.162
10451SOL     OW32251   1.657   0.940   4.151
10451SOL    HW132252   1.584   0.877   4.176
10451SOL    HW232253   1.650   1.023   4.207
10452SOL     OW32254   6.548   3.138   2.961
10452SOL    HW132255   6.541   3.050   3.009
10452SOL    HW232256   6.633   3.183   2.986
10453SOL     OW32257   4.206   6.219   3.229
10453SOL    HW132258   4.117   6.259   3.208
10453SOL    HW232259   4.278   6.283   3.203
10454SOL     OW32260   6.685   1.428   6.861
10454SOL    HW132261   6.763   1.450   6.920
10454SOL    HW232262   6.683   1.489   6.783
10455SOL     OW32263   5.978   6.599   4.378
10455SOL    HW132264   6.048   6.536   4.345
10455SOL    HW232265   6.021   6.672   4.432
10456SOL     OW32266   6.636   5.503   0.142
10456SOL    HW132267   6.543   5.465   0.136
10456SOL    HW232268   6.649   5.569   0.069
10457SOL     OW32269   4.217   3.327   6.784
10457SOL    HW132270   4.284   3.256   6.767
10457SOL    HW232271   4.161   3.341   6.701
10458SOL     OW32272   7.009   7.017   6.128
10458SOL    HW132273   6.958   0.052   6.066
10458SOL    HW232274   7.003   0.029   6.221
10459SOL     OW32275   6.921   5.123   0.749
10459SOL    HW132276   6.838   5.171   0.778
10459SOL    HW232277   6.909   5.088   0.656
10460SOL     OW32278   6.965   4.318   1.500
10460SOL    HW132279   6.961   4.398   1.439
10460SOL    HW232280   6.895   4.252   1.473
10461SOL     OW32281   6.372   5.076   5.233
10461SOL    HW132282   6.437   5.090   5.308
10461SOL    HW232283   6.306   5.005   5.259
10462SOL     OW32284   5.132   1.729   1.669
10462SOL    HW132285   5.217   1.752   1.621
10462SOL    HW232286   5.154   1.697   1.761
10463SOL     OW32287   4.477   2.322   6.171
10463SOL    HW132288   4.504   2.320   6.267
10463SOL    HW232289   4.393   2.375   6.161
10464SOL     OW32290   5.408   4.978   2.449
10464SOL    HW132291   5.373   5.045   2.515
10464SOL    HW232292   5.439   5.026   2.367
10465SOL     OW32293   5.434   4.152   2.398
10465SOL    HW132294   5.378   4.132   2.479
10465SOL    HW232295   5.480   4.068   2.368
10466SOL     OW32296   5.551   4.389   6.015
10466SOL    HW132297   5.526   4.406   5.920
10466SOL    HW232298   5.506   4.456   6.074
10467SOL     OW32299   1.887   2.597   6.974
10467SOL    HW132300   1.866   2.643   6.888
10467SOL    HW232301   1.971   2.544   6.964
10468SOL     OW32302   2.952   4.778   3.808
10468SOL    HW132303   2.982   4.724   3.887
10468SOL    HW232304   3.030   4.797   3.748
10469SOL     OW32305   5.514   2.619   5.690
10469SOL    HW132306   5.559   2.553   5.629
10469SOL    HW232307   5.415   2.608   5.682
10470SOL     OW32308   2.347   1.853   3.766
10470SOL    HW132309   2.426   1.908   3.736
10470SOL    HW232310   2.264   1.888   3.722
10471SOL     OW32311   2.384   1.044   6.999
10471SOL    HW132312   2.443   1.006   6.928
10471SOL    HW232313   2.337   1.125   6.964
10472SOL     OW32314   3.416   4.917   0.867
10472SOL    HW132315   3.363   4.986   0.917
10472SOL    HW232316   3.419   4.832   0.921
10473SOL     OW32317   5.411   5.881   6.506
10473SOL    HW132318   5.415   5.818   6.583
10473SOL    HW232319   5.344   5.953   6.526
10474SOL     OW32320   4.943   1.334   4.096
10474SOL    HW132321   4.862   1.335   4.154
10474SOL    HW232322   5.022   1.306   4.150
10475SOL     OW32323   2.523   6.467   1.863
10475SOL    HW132324   2.510   6.438   1.768
10475SOL    HW232325   2.561   6.391   1.916
10476SOL     OW32326   4.143   6.234   6.227
10476SOL    HW132327   4.075   6.172   6.189
10476SOL    HW232328   4.134   6.238   6.327
10477SOL     OW32329   0.255   6.061   4.193
10477SOL    HW132330   0.277   6.076   4.097
10477SOL    HW232331   0.255   6.149   4.242
10478SOL     OW32332   6.245   6.959   0.131
10478SOL    HW132333   6.170   7.015   0.165
10478SOL    HW232334   6.210   6.869   0.104
10479SOL     OW32335   6.459   2.836   2.109
10479SOL    HW132336   6.511   2.912   2.070
10479SOL    HW232337   6.444   2.853   2.207
10480SOL     OW32338   1.699   0.447   2.423
10480SOL    HW132339   1.647   0.444   2.338
10480SOL    HW232340   1.728   0.540   2.442
10481SOL     OW32341   0.797   6.629   2.940
10481SOL    HW132342   0.739   6.594   3.014
10481SOL    HW232343   0.762   6.718   2.910
10482SOL     OW32344   6.128   4.483   4.687
10482SOL    HW132345   6.140   4.508   4.591
10482SOL    HW232346   6.182   4.403   4.709
10483SOL     OW32347   5.534   5.213   0.198
10483SOL    HW132348   5.593   5.288   0.227
10483SOL    HW232349   5.547   5.197   0.100
10484SOL     OW32350   5.228   1.216   1.065
10484SOL    HW132351   5.283   1.147   1.112
10484SOL    HW232352   5.275   1.304   1.067
10485SOL     OW32353   3.963   4.400   6.477
10485SOL    HW132354   4.014   4.448   6.405
10485SOL    HW232355   4.015   4.321   6.508
10486SOL     OW32356   6.913   2.436   0.558
10486SOL    HW132357   6.833   2.440   0.618
10486SOL    HW232358   6.898   2.366   0.488
10487SOL     OW32359   5.840   6.717   2.385
10487SOL    HW132360   5.776   6.708   2.461
10487SOL    HW232361   5.932   6.734   2.422
10488SOL     OW32362   2.530   3.442   6.845
10488SOL    HW132363   2.485   3.531   6.841
10488SOL    HW232364   2.604   3.446   6.913
10489SOL     OW32365   0.408   6.732   5.969
10489SOL    HW132366   0.439   6.639   5.985
10489SOL    HW232367   0.316   6.744   6.006
10490SOL     OW32368   6.473   1.433   2.783
10490SOL    HW132369   6.513   1.412   2.872
10490SOL    HW232370   6.530   1.499   2.735
10491SOL     OW32371   1.598   3.392   6.557
10491SOL    HW132372   1.547   3.354   6.480
10491SOL    HW232373   1.686   3.428   6.524
10492SOL     OW32374   5.062   3.763   5.588
10492SOL    HW132375   5.123   3.735   5.514
10492SOL    HW232376   4.969   3.732   5.569
10493SOL     OW32377   3.545   0.716   1.579
10493SOL    HW132378   3.512   0.631   1.621
10493SOL    HW232379   3.486   0.791   1.607
10494SOL     OW32380   5.656   2.632   5.005
10494SOL    HW132381   5.676   2.600   5.098
10494SOL    HW232382   5.734   2.684   4.970
10495SOL     OW32383   1.543   6.930   0.969
10495SOL    HW132384   1.489   6.999   1.017
10495SOL    HW232385   1.617   6.899   1.028
10496SOL     OW32386   0.224   6.810   0.533
10496SOL    HW132387   0.311   6.762   0.545
10496SOL    HW232388   0.161   6.784   0.606
10497SOL     OW32389   1.897   0.092   1.121
10497SOL    HW132390   1.860   0.094   1.028
10497SOL    HW232391   1.874   0.005   1.164
10498SOL     OW32392   2.785   6.608   0.649
10498SOL    HW132393   2.792   6.631   0.552
10498SOL    HW232394   2.874   6.618   0.693
10499SOL     OW32395   2.665   6.720   2.471
10499SOL    HW132396   2.733   6.646   2.466
10499SOL    HW232397   2.614   6.712   2.556
10500SOL     OW32398   0.540   0.892   5.583
10500SOL    HW132399   0.497   0.847   5.661
10500SOL    HW232400   0.469   0.933   5.526
10501SOL     OW32401   1.768   5.346   3.385
10501SOL    HW132402   1.825   5.284   3.332
10501SOL    HW232403   1.776   5.439   3.348
10502SOL     OW32404   3.283   6.628   1.287
10502SOL    HW132405   3.192   6.589   1.275
10502SOL    HW232406   3.319   6.658   1.198
10503SOL     OW32407   4.481   2.785   0.515
10503SOL    HW132408   4.525   2.703   0.552
10503SOL    HW232409   4.429   2.830   0.588
10504SOL     OW32410   1.839   2.669   0.837
10504SOL    HW132411   1.917   2.729   0.854
10504SOL    HW232412   1.835   2.599   0.909
10505SOL     OW32413   5.751   5.960   0.555
10505SOL    HW132414   5.748   6.058   0.571
10505SOL    HW232415   5.772   5.942   0.459
10506SOL     OW32416   0.844   4.868   6.359
10506SOL    HW132417   0.839   4.913   6.448
10506SOL    HW232418   0.789   4.785   6.360
10507SOL     OW32419   1.934   6.389   0.387
10507SOL    HW132420   1.958   6.293   0.402
10507SOL    HW232421   1.858   6.414   0.446
10508SOL     OW32422   5.951   5.761   4.404
10508SOL    HW132423   5.854   5.781   4.413
10508SOL    HW232424   5.994   5.759   4.495
10509SOL     OW32425   0.902   6.908   6.087
10509SOL    HW132426   0.950   6.904   6.000
10509SOL    HW232427   0.824   6.845   6.086
10510SOL     OW32428   5.722   4.932   5.657
10510SOL    HW132429   5.703   4.870   5.581
10510SOL    HW232430   5.820   4.932   5.676
10511SOL     OW32431   4.430   2.909   0.925
10511SOL    HW132432   4.408   2.911   0.828
10511SOL    HW232433   4.446   3.002   0.959
10512SOL     OW32434   3.641   0.998   6.545
10512SOL    HW132435   3.638   0.913   6.598
10512SOL    HW232436   3.723   0.998   6.487
10513SOL     OW32437   6.946   2.390   5.942
10513SOL    HW132438   0.009   2.405   5.898
10513SOL    HW232439   6.955   2.403   6.041
10514SOL     OW32440   6.878   3.753   0.149
10514SOL    HW132441   6.962   3.807   0.155
10514SOL    HW232442   6.810   3.791   0.212
10515SOL     OW32443   5.997   2.842   3.276
10515SOL    HW132444   6.009   2.774   3.204
10515SOL    HW232445   5.911   2.825   3.325
10516SOL     OW32446   5.029   1.149   6.506
10516SOL    HW132447   5.125   1.149   6.536
10516SOL    HW232448   4.977   1.213   6.563
10517SOL     OW32449   0.751   2.192   2.408
10517SOL    HW132450   0.817   2.228   2.342
10517SOL    HW232451   0.799   2.136   2.476
10518SOL     OW32452   1.184   4.701   0.299
10518SOL    HW132453   1.186   4.623   0.362
10518SOL    HW232454   1.091   4.734   0.289
10519SOL     OW32455   3.164   2.377   5.804
10519SOL    HW132456   3.125   2.464   5.833
10519SOL    HW232457   3.184   2.381   5.706
10520SOL     OW32458   2.380   2.765   6.794
10520SOL    HW132459   2.420   2.712   6.868
10520SOL    HW232460   2.306   2.823   6.831
10521SOL     OW32461   6.537   5.740   1.220
10521SOL    HW132462   6.544   5.829   1.265
10521SOL    HW232463   6.475   5.681   1.271
10522SOL     OW32464   6.314   0.552   0.479
10522SOL    HW132465   6.305   0.455   0.457
10522SOL    HW232466   6.255   0.574   0.557
10523SOL     OW32467   0.060   6.198   4.694
10523SOL    HW132468   0.056   6.103   4.723
10523SOL    HW232469   0.154   6.231   4.698
10524SOL     OW32470   1.799   1.126   4.953
10524SOL    HW132471   1.846   1.038   4.953
10524SOL    HW232472   1.701   1.111   4.937
10525SOL     OW32473   3.033   6.672   5.474
10525SOL    HW132474   3.047   6.586   5.524
10525SOL    HW232475   2.938   6.702   5.487
10526SOL     OW32476   0.603   0.540   2.938
10526SOL    HW132477   0.506   0.531   2.914
10526SOL    HW232478   0.655   0.560   2.855
10527SOL     OW32479   1.322   2.682   3.742
10527SOL    HW132480   1.390   2.718   3.806
10527SOL    HW232481   1.349   2.590   3.714
10528SOL     OW32482   1.179   4.036   5.353
10528SOL    HW132483   1.131   4.118   5.325
10528SOL    HW232484   1.113   3.963   5.373
10529SOL     OW32485   1.103   5.691   2.893
10529SOL    HW132486   1.187   5.637   2.904
10529SOL    HW232487   1.045   5.677   2.973
10530SOL     OW32488   1.988   1.149   6.077
10530SOL    HW132489   1.995   1.221   6.008
10530SOL    HW232490   2.062   1.082   6.063
10531SOL     OW32491   1.555   3.363   4.471
10531SOL    HW132492   1.567   3.290   4.539
10531SOL    HW232493   1.644   3.384   4.430
10532SOL     OW32494   2.425   3.011   0.659
10532SOL    HW132495   2.461   3.016   0.752
10532SOL    HW232496   2.432   3.101   0.616
10533SOL     OW32497   3.185   1.633   4.171
10533SOL    HW132498   3.091   1.626   4.206
10533SOL    HW232499   3.198   1.723   4.130
10534SOL     OW32500   0.218   5.851   0.695
10534SOL    HW132501   0.198   5.786   0.769
10534SOL    HW232502   0.160   5.828   0.616
10535SOL     OW32503   0.266   2.716   2.502
10535SOL    HW132504   0.227   2.807   2.513
10535SOL    HW232505   0.280   2.697   2.404
10536SOL     OW32506   3.883   0.564   2.985
10536SOL    HW132507   3.844   0.575   3.077
10536SOL    HW232508   3.813   0.527   2.924
10537SOL     OW32509   3.248   5.253   2.985
10537SOL    HW132510   3.165   5.221   2.938
10537SOL    HW232511   3.327   5.237   2.925
10538SOL     OW32512   4.756   2.885   6.498
10538SOL    HW132513   4.705   2.799   6.504
10538SOL    HW232514   4.790   2.897   6.405
10539SOL     OW32515   0.851   4.106   6.304
10539SOL    HW132516   0.844   4.129   6.207
10539SOL    HW232517   0.759   4.092   6.341
10540SOL     OW32518   1.859   0.752   5.604
10540SOL    HW132519   1.816   0.727   5.517
10540SOL    HW232520   1.833   0.845   5.628
10541SOL     OW32521   3.600   3.757   1.796
10541SOL    HW132522   3.694   3.786   1.782
10541SOL    HW232523   3.557   3.816   1.864
10542SOL     OW32524   0.060   1.458   0.608
10542SOL    HW132525   0.106   1.532   0.559
10542SOL    HW232526   0.053   1.480   0.705
10543SOL     OW32527   0.565   1.101   5.246
10543SOL    HW132528   0.561   1.017   5.191
10543SOL    HW232529   0.554   1.180   5.186
10544SOL     OW32530   2.113   1.190   2.650
10544SOL    HW132531   2.079   1.123   2.717
10544SOL    HW232532   2.115   1.148   2.559
10545SOL     OW32533   6.540   0.214   2.772
10545SOL    HW132534   6.447   0.176   2.778
10545SOL    HW232535   6.539   0.294   2.712
10546SOL     OW32536   1.003   0.496   5.588
10546SOL    HW132537   1.045   0.408   5.612
10546SOL    HW232538   0.937   0.482   5.514
10547SOL     OW32539   4.487   1.626   2.162
10547SOL    HW132540   4.551   1.554   2.188
10547SOL    HW232541   4.393   1.591   2.169
10548SOL     OW32542   5.052   3.961   5.018
10548SOL    HW132543   5.054   4.055   4.982
10548SOL    HW232544   5.004   3.902   4.954
10549SOL     OW32545   6.582   0.682   2.557
10549SOL    HW132546   6.610   0.726   2.472
10549SOL    HW232547   6.580   0.583   2.544
10550SOL     OW32548   4.211   6.472   3.945
10550SOL    HW132549   4.127   6.524   3.962
10550SOL    HW232550   4.277   6.491   4.018
10551SOL     OW32551   1.419   2.628   4.960
10551SOL    HW132552   1.405   2.530   4.951
10551SOL    HW232553   1.512   2.652   4.934
10552SOL     OW32554   3.566   1.877   5.308
10552SOL    HW132555   3.478   1.912   5.341
10552SOL    HW232556   3.625   1.954   5.282
10553SOL     OW32557   1.176   5.013   1.481
10553SOL    HW132558   1.206   5.106   1.458
10553SOL    HW232559   1.078   5.005   1.464
10554SOL     OW32560   5.133   4.950   6.626
10554SOL    HW132561   5.167   4.894   6.551
10554SOL    HW232562   5.181   4.924   6.711
10555SOL     OW32563   2.865   1.913   1.330
10555SOL    HW132564   2.799   1.989   1.335
10555SOL    HW232565   2.940   1.938   1.268
10556SOL     OW32566   1.974   2.976   5.451
10556SOL    HW132567   1.913   2.897   5.464
10556SOL    HW232568   2.030   2.962   5.370
10557SOL     OW32569   1.060   2.466   3.248
10557SOL    HW132570   1.077   2.509   3.337
10557SOL    HW232571   1.069   2.535   3.176
10558SOL     OW32572   4.113   0.029   5.102
10558SOL    HW132573   4.144   6.986   5.035
10558SOL    HW232574   4.143   0.120   5.072
10559SOL     OW32575   3.873   1.383   0.921
10559SOL    HW132576   3.881   1.346   0.828
10559SOL    HW232577   3.927   1.327   0.984
10560SOL     OW32578   2.145   5.570   4.465
10560SOL    HW132579   2.222   5.545   4.524
10560SOL    HW232580   2.150   5.519   4.379
10561SOL     OW32581   2.481   4.957   0.117
10561SOL    HW132582   2.515   4.863   0.127
10561SOL    HW232583   2.410   4.959   0.047
10562SOL     OW32584   5.273   6.842   0.527
10562SOL    HW132585   5.248   6.890   0.443
10562SOL    HW232586   5.296   6.909   0.598
10563SOL     OW32587   1.925   1.119   4.133
10563SOL    HW132588   1.970   1.057   4.198
10563SOL    HW232589   1.869   1.066   4.070
10564SOL     OW32590   5.882   0.268   2.039
10564SOL    HW132591   5.967   0.240   1.994
10564SOL    HW232592   5.896   0.357   2.084
10565SOL     OW32593   0.502   0.345   5.917
10565SOL    HW132594   0.437   0.370   5.989
10565SOL    HW232595   0.572   0.417   5.909
10566SOL     OW32596   4.323   3.425   0.015
10566SOL    HW132597   4.420   3.410   7.017
10566SOL    HW232598   4.266   3.401   6.961
10567SOL     OW32599   2.170   3.181   3.944
10567SOL    HW132600   2.080   3.179   3.900
10567SOL    HW232601   2.204   3.088   3.953
10568SOL     OW32602   5.690   1.438   1.579
10568SOL    HW132603   5.648   1.348   1.571
10568SOL    HW232604   5.787   1.432   1.559
10569SOL     OW32605   6.585   3.060   1.977
10569SOL    HW132606   6.514   3.094   1.916
10569SOL    HW232607   6.641   3.137   2.010
10570SOL     OW32608   1.800   5.127   2.608
10570SOL    HW132609   1.725   5.082   2.656
10570SOL    HW232610   1.860   5.057   2.568
10571SOL     OW32611   6.596   5.643   4.171
10571SOL    HW132612   6.670   5.577   4.180
10571SOL    HW232613   6.511   5.596   4.151
10572SOL     OW32614   5.994   3.474   3.261
10572SOL    HW132615   6.088   3.441   3.263
10572SOL    HW232616   5.970   3.500   3.168
10573SOL     OW32617   5.578   5.893   3.173
10573SOL    HW132618   5.663   5.915   3.124
10573SOL    HW232619   5.528   5.978   3.191
10574SOL     OW32620   1.743   1.768   3.862
10574SOL    HW132621   1.692   1.758   3.947
10574SOL    HW232622   1.828   1.817   3.880
10575SOL     OW32623   0.380   0.992   3.746
10575SOL    HW132624   0.361   0.960   3.839
10575SOL    HW232625   0.310   1.059   3.720
10576SOL     OW32626   1.295   6.645   5.372
10576SOL    HW132627   1.296   6.607   5.465
10576SOL    HW232628   1.299   6.571   5.305
10577SOL     OW32629   1.233   2.909   6.559
10577SOL    HW132630   1.215   2.830   6.500
10577SOL    HW232631   1.184   2.989   6.523
10578SOL     OW32632   6.496   0.202   3.896
10578SOL    HW132633   6.428   0.134   3.866
10578SOL    HW232634   6.577   0.154   3.930
10579SOL     OW32635   4.061   1.862   0.288
10579SOL    HW132636   3.992   1.795   0.315
10579SOL    HW232637   4.099   1.905   0.370
10580SOL     OW32638   6.663   6.988   0.214
10580SOL    HW132639   6.614   0.050   0.209
10580SOL    HW232640   6.756   7.004   0.247
10581SOL     OW32641   5.910   7.007   2.710
10581SOL    HW132642   5.864   0.046   2.772
10581SOL    HW232643   5.843   6.967   2.647
10582SOL     OW32644   3.802   4.358   6.153
10582SOL    HW132645   3.853   4.278   6.184
10582SOL    HW232646   3.854   4.441   6.171
10583SOL     OW32647   4.041   1.131   5.858
10583SOL    HW132648   4.116   1.141   5.792
10583SOL    HW232649   4.074   1.083   5.939
10584SOL     OW32650   5.680   6.651   1.043
10584SOL    HW132651   5.589   6.655   1.002
10584SOL    HW232652   5.701   6.739   1.086
10585SOL     OW32653   1.382   3.178   5.508
10585SOL    HW132654   1.440   3.173   5.589
10585SOL    HW232655   1.438   3.161   5.426
10586SOL     OW32656   1.314   5.868   5.762
10586SOL    HW132657   1.370   5.891   5.841
10586SOL    HW232658   1.371   5.866   5.680
10587SOL     OW32659   6.033   3.494   0.241
10587SOL    HW132660   6.010   3.422   0.175
10587SOL    HW232661   5.996   3.581   0.208
10588SOL     OW32662   1.261   4.007   2.301
10588SOL    HW132663   1.358   3.998   2.324
10588SOL    HW232664   1.251   4.045   2.209
10589SOL     OW32665   5.346   1.230   4.364
10589SOL    HW132666   5.395   1.261   4.445
10589SOL    HW232667   5.410   1.228   4.286
10590SOL     OW32668   1.503   0.196   2.085
10590SOL    HW132669   1.508   0.134   2.007
10590SOL    HW232670   1.563   0.275   2.069
10591SOL     OW32671   1.428   1.559   5.434
10591SOL    HW132672   1.418   1.472   5.482
10591SOL    HW232673   1.511   1.605   5.465
10592SOL     OW32674   5.086   2.482   0.459
10592SOL    HW132675   5.030   2.415   0.409
10592SOL    HW232676   5.155   2.433   0.513
10593SOL     OW32677   3.013   5.653   1.099
10593SOL    HW132678   3.001   5.751   1.117
10593SOL    HW232679   3.031   5.605   1.184
10594SOL     OW32680   5.853   1.813   3.628
10594SOL    HW132681   5.872   1.820   3.726
10594SOL    HW232682   5.939   1.809   3.578
10595SOL     OW32683   3.115   0.474   5.686
10595SOL    HW132684   3.175   0.408   5.642
10595SOL    HW232685   3.152   0.499   5.775
10596SOL     OW32686   4.316   0.001   1.680
10596SOL    HW132687   4.317   0.101   1.674
10596SOL    HW232688   4.288   6.999   1.773
10597SOL     OW32689   2.661   1.271   4.182
10597SOL    HW132690   2.720   1.267   4.263
10597SOL    HW232691   2.566   1.284   4.210
10598SOL     OW32692   2.871   2.255   6.875
10598SOL    HW132693   2.877   2.238   6.776
10598SOL    HW232694   2.878   2.168   6.924
10599SOL     OW32695   5.364   1.601   0.365
10599SOL    HW132696   5.461   1.607   0.345
10599SOL    HW232697   5.351   1.586   0.463
10600SOL     OW32698   2.299   3.173   0.235
10600SOL    HW132699   2.336   3.260   0.202
10600SOL    HW232700   2.326   3.099   0.174
10601SOL     OW32701   2.236   5.258   6.066
10601SOL    HW132702   2.240   5.177   6.007
10601SOL    HW232703   2.327   5.282   6.097
10602SOL     OW32704   5.013   1.671   2.280
10602SOL    HW132705   5.022   1.719   2.193
10602SOL    HW232706   5.100   1.627   2.303
10603SOL     OW32707   1.987   6.005   3.003
10603SOL    HW132708   1.971   6.097   3.038
10603SOL    HW232709   1.964   5.937   3.073
10604SOL     OW32710   5.788   4.241   4.394
10604SOL    HW132711   5.713   4.264   4.332
10604SOL    HW232712   5.871   4.289   4.364
10605SOL     OW32713   0.882   5.310   6.782
10605SOL    HW132714   0.965   5.258   6.803
10605SOL    HW232715   0.826   5.258   6.717
10606SOL     OW32716   6.153   0.790   1.642
10606SOL    HW132717   6.124   0.866   1.584
10606SOL    HW232718   6.073   0.734   1.667
10607SOL     OW32719   4.049   3.595   5.628
10607SOL    HW132720   4.003   3.605   5.540
10607SOL    HW232721   4.047   3.682   5.677
10608SOL     OW32722   5.807   2.068   4.916
10608SOL    HW132723   5.795   2.049   5.013
10608SOL    HW232724   5.723   2.109   4.879
10609SOL     OW32725   3.351   5.586   1.440
10609SOL    HW132726   3.374   5.642   1.519
10609SOL    HW232727   3.405   5.616   1.361
10610SOL     OW32728   1.120   4.238   6.976
10610SOL    HW132729   1.051   4.299   7.014
10610SOL    HW232730   1.085   4.144   6.976
10611SOL     OW32731   5.639   3.015   0.071
10611SOL    HW132732   5.563   3.080   0.076
10611SOL    HW232733   5.713   3.046   0.129
10612SOL     OW32734   2.342   6.304   5.948
10612SOL    HW132735   2.344   6.385   5.889
10612SOL    HW232736   2.398   6.321   6.029
10613SOL     OW32737   0.163   6.818   6.092
10613SOL    HW132738   0.091   6.884   6.115
10613SOL    HW232739   0.131   6.725   6.112
10614SOL     OW32740   0.109   1.472   4.056
10614SOL    HW132741   0.016   1.447   4.084
10614SOL    HW232742   0.129   1.565   4.086
10615SOL     OW32743   4.436   5.680   5.599
10615SOL    HW132744   4.440   5.602   5.661
10615SOL    HW232745   4.342   5.712   5.591
10616SOL     OW32746   3.072   6.676   0.214
10616SOL    HW132747   3.107   6.605   0.152
10616SOL    HW232748   2.977   6.696   0.190
10617SOL     OW32749   1.947   2.187   0.836
10617SOL    HW132750   1.992   2.151   0.754
10617SOL    HW232751   1.982   2.279   0.855
10618SOL     OW32752   6.019   2.793   0.139
10618SOL    HW132753   6.098   2.853   0.153
10618SOL    HW232754   5.967   2.787   0.224
10619SOL     OW32755   0.548   3.791   2.426
10619SOL    HW132756   0.556   3.787   2.327
10619SOL    HW232757   0.489   3.717   2.458
10620SOL     OW32758   0.803   5.530   5.546
10620SOL    HW132759   0.832   5.437   5.572
10620SOL    HW232760   0.884   5.583   5.520
10621SOL     OW32761   1.344   5.905   0.379
10621SOL    HW132762   1.443   5.908   0.393
10621SOL    HW232763   1.322   5.943   0.289
10622SOL     OW32764   4.359   0.922   2.138
10622SOL    HW132765   4.387   0.993   2.202
10622SOL    HW232766   4.353   0.960   2.046
10623SOL     OW32767   5.582   2.824   4.050
10623SOL    HW132768   5.618   2.785   4.135
10623SOL    HW232769   5.573   2.751   3.982
10624SOL     OW32770   0.851   1.039   5.052
10624SOL    HW132771   0.823   1.052   5.147
10624SOL    HW232772   0.848   0.941   5.030
10625SOL     OW32773   0.577   4.182   6.909
10625SOL    HW132774   0.645   4.210   6.841
10625SOL    HW232775   0.536   4.095   6.882
10626SOL     OW32776   1.178   2.545   1.504
10626SOL    HW132777   1.116   2.603   1.450
10626SOL    HW232778   1.124   2.477   1.553
10627SOL     OW32779   5.762   5.990   2.999
10627SOL    HW132780   5.852   6.034   2.996
10627SOL    HW232781   5.751   5.933   2.918
10628SOL     OW32782   5.474   5.073   5.523
10628SOL    HW132783   5.553   5.012   5.514
10628SOL    HW232784   5.413   5.060   5.445
10629SOL     OW32785   2.598   4.604   5.505
10629SOL    HW132786   2.543   4.647   5.433
10629SOL    HW232787   2.559   4.516   5.529
10630SOL     OW32788   6.271   0.701   3.444
10630SOL    HW132789   6.221   0.615   3.454
10630SOL    HW232790   6.232   0.753   3.367
10631SOL     OW32791   1.142   5.982   4.626
10631SOL    HW132792   1.087   6.009   4.706
10631SOL    HW232793   1.216   6.048   4.613
10632SOL     OW32794   6.156   2.317   4.255
10632SOL    HW132795   6.092   2.261   4.309
10632SOL    HW232796   6.207   2.377   4.317
10633SOL     OW32797   2.619   4.075   1.038
10633SOL    HW132798   2.669   4.087   1.123
10633SOL    HW232799   2.540   4.136   1.035
10634SOL     OW32800   2.869   5.470   0.018
10634SOL    HW132801   2.876   5.529   0.099
10634SOL    HW232802   2.940   5.496   6.977
10635SOL     OW32803   3.056   0.798   1.124
10635SOL    HW132804   3.014   0.839   1.042
10635SOL    HW232805   3.027   0.703   1.132
10636SOL     OW32806   0.861   1.961   1.860
10636SOL    HW132807   0.881   2.005   1.948
10636SOL    HW232808   0.946   1.942   1.813
10637SOL     OW32809   3.586   4.069   5.398
10637SOL    HW132810   3.521   4.088   5.472
10637SOL    HW232811   3.678   4.095   5.427
10638SOL     OW32812   0.192   6.517   3.012
10638SOL    HW132813   0.191   6.513   3.112
10638SOL    HW232814   0.246   6.596   2.983
10639SOL     OW32815   0.940   1.680   3.865
10639SOL    HW132816   0.913   1.651   3.773
10639SOL    HW232817   0.939   1.780   3.870
10640SOL     OW32818   4.185   7.024   0.014
10640SOL    HW132819   4.189   6.998   0.111
10640SOL    HW232820   4.257   6.974   6.989
10641SOL     OW32821   4.452   1.716   0.082
10641SOL    HW132822   4.402   1.798   0.108
10641SOL    HW232823   4.422   1.686   7.016
10642SOL     OW32824   0.632   2.711   1.626
10642SOL    HW132825   0.638   2.779   1.553
10642SOL    HW232826   0.645   2.620   1.588
10643SOL     OW32827   2.542   3.804   6.182
10643SOL    HW132828   2.508   3.895   6.207
10643SOL    HW232829   2.636   3.811   6.149
10644SOL     OW32830   4.716   1.896   4.029
10644SOL    HW132831   4.640   1.894   4.094
10644SOL    HW232832   4.681   1.883   3.936
10645SOL     OW32833   0.792   1.182   4.232
10645SOL    HW132834   0.804   1.182   4.331
10645SOL    HW232835   0.850   1.252   4.191
10646SOL     OW32836   0.725   1.935   6.152
10646SOL    HW132837   0.739   1.879   6.070
10646SOL    HW232838   0.801   2.000   6.161
10647SOL     OW32839   5.802   5.210   6.482
10647SOL    HW132840   5.791   5.286   6.418
10647SOL    HW232841   5.714   5.167   6.498
10648SOL     OW32842   5.401   3.709   6.392
10648SOL    HW132843   5.315   3.746   6.427
10648SOL    HW232844   5.381   3.639   6.322
10649SOL     OW32845   0.014   4.413   4.325
10649SOL    HW132846   0.054   4.332   4.281
10649SOL    HW232847   0.064   4.495   4.297
10650SOL     OW32848   1.343   6.482   3.855
10650SOL    HW132849   1.342   6.402   3.796
10650SOL    HW232850   1.380   6.560   3.805
10651SOL     OW32851   4.310   6.749   5.401
10651SOL    HW132852   4.291   6.687   5.477
10651SOL    HW232853   4.305   6.699   5.315
10652SOL     OW32854   3.342   0.167   6.386
10652SOL    HW132855   3.315   0.187   6.480
10652SOL    HW232856   3.323   0.071   6.366
10653SOL     OW32857   5.061   4.345   4.687
10653SOL    HW132858   5.073   4.252   4.650
10653SOL    HW232859   5.023   4.404   4.616
10654SOL     OW32860   3.088   6.929   1.692
10654SOL    HW132861   3.128   6.852   1.643
10654SOL    HW232862   2.988   6.918   1.695
10655SOL     OW32863   2.949   5.166   2.089
10655SOL    HW132864   2.866   5.222   2.094
10655SOL    HW232865   2.967   5.142   1.994
10656SOL     OW32866   6.423   2.412   6.903
10656SOL    HW132867   6.412   2.508   6.929
10656SOL    HW232868   6.429   2.356   6.985
10657SOL     OW32869   5.980   6.694   0.733
10657SOL    HW132870   5.973   6.631   0.811
10657SOL    HW232871   6.067   6.743   0.738
10658SOL     OW32872   0.544   4.353   4.995
10658SOL    HW132873   0.469   4.303   4.950
10658SOL    HW232874   0.523   4.450   4.994
10659SOL     OW32875   6.063   0.084   0.964
10659SOL    HW132876   6.131   0.010   0.966
10659SOL    HW232877   6.104   0.168   1.001
10660SOL     OW32878   5.026   4.027   5.962
10660SOL    HW132879   4.942   4.025   5.908
10660SOL    HW232880   5.016   4.094   6.036
10661SOL     OW32881   0.125   6.834   2.621
10661SOL    HW132882   0.162   6.749   2.660
10661SOL    HW232883   0.110   6.900   2.694
10662SOL     OW32884   6.371   1.078   1.196
10662SOL    HW132885   6.311   1.017   1.144
10662SOL    HW232886   6.429   1.130   1.132
10663SOL     OW32887   1.224   0.502   1.322
10663SOL    HW132888   1.186   0.436   1.388
10663SOL    HW232889   1.256   0.583   1.371
10664SOL     OW32890   1.906   3.966   6.547
10664SOL    HW132891   1.953   3.954   6.460
10664SOL    HW232892   1.823   4.021   6.532
10665SOL     OW32893   1.473   1.226   0.027
10665SOL    HW132894   1.538   1.270   6.989
10665SOL    HW232895   1.423   1.154   7.002
10666SOL     OW32896   3.798   4.822   0.011
10666SOL    HW132897   3.822   4.891   6.968
10666SOL    HW232898   3.878   4.803   0.069
10667SOL     OW32899   4.070   1.845   5.873
10667SOL    HW132900   4.035   1.755   5.845
10667SOL    HW232901   4.045   1.913   5.805
10668SOL     OW32902   1.435   2.109   6.072
10668SOL    HW132903   1.422   2.084   6.168
10668SOL    HW232904   1.353   2.156   6.039
10669SOL     OW32905   0.530   0.121   1.040
10669SOL    HW132906   0.531   0.167   0.951
10669SOL    HW232907   0.498   0.184   1.110
10670SOL     OW32908   5.522   4.715   5.937
10670SOL    HW132909   5.614   4.713   5.898
10670SOL    HW232910   5.456   4.736   5.865
10671SOL     OW32911   2.099   3.510   2.716
10671SOL    HW132912   2.125   3.493   2.621
10671SOL    HW232913   2.113   3.426   2.769
10672SOL     OW32914   0.111   3.144   0.801
10672SOL    HW132915   0.087   3.205   0.876
10672SOL    HW232916   0.029   3.099   0.766
10673SOL     OW32917   2.992   2.670   5.615
10673SOL    HW132918   3.079   2.653   5.660
10673SOL    HW232919   2.923   2.693   5.683
10674SOL     OW32920   3.815   3.765   0.939
10674SOL    HW132921   3.822   3.792   0.843
10674SOL    HW232922   3.880   3.691   0.957
10675SOL     OW32923   0.472   0.526   5.602
10675SOL    HW132924   0.545   0.591   5.580
10675SOL    HW232925   0.492   0.480   5.688
10676SOL     OW32926   5.886   0.465   6.312
10676SOL    HW132927   5.853   0.508   6.396
10676SOL    HW232928   5.935   0.533   6.257
10677SOL     OW32929   0.537   0.623   2.332
10677SOL    HW132930   0.558   0.675   2.249
10677SOL    HW232931   0.500   0.684   2.401
10678SOL     OW32932   3.018   5.945   2.523
10678SOL    HW132933   3.086   5.872   2.510
10678SOL    HW232934   3.005   5.961   2.621
10679SOL     OW32935   5.898   5.384   4.784
10679SOL    HW132936   5.892   5.402   4.686
10679SOL    HW232937   5.824   5.432   4.832
10680SOL     OW32938   1.839   3.183   2.682
10680SOL    HW132939   1.781   3.261   2.707
10680SOL    HW232940   1.935   3.210   2.691
10681SOL     OW32941   6.319   3.993   6.639
10681SOL    HW132942   6.409   3.986   6.682
10681SOL    HW232943   6.285   3.902   6.618
10682SOL     OW32944   1.577   1.311   3.456
10682SOL    HW132945   1.668   1.342   3.483
10682SOL    HW232946   1.531   1.382   3.403
10683SOL     OW32947   2.154   2.324   4.176
10683SOL    HW132948   2.236   2.376   4.150
10683SOL    HW232949   2.079   2.348   4.115
10684SOL     OW32950   5.429   4.146   1.016
10684SOL    HW132951   5.497   4.212   0.986
10684SOL    HW232952   5.347   4.154   0.959
10685SOL     OW32953   0.783   3.998   3.357
10685SOL    HW132954   0.791   3.943   3.440
10685SOL    HW232955   0.762   4.092   3.381
10686SOL     OW32956   3.815   6.017   6.929
10686SOL    HW132957   3.786   6.035   7.023
10686SOL    HW232958   3.876   5.938   6.927
10687SOL     OW32959   6.723   5.261   2.198
10687SOL    HW132960   6.754   5.192   2.133
10687SOL    HW232961   6.763   5.243   2.288
10688SOL     OW32962   6.350   4.519   2.460
10688SOL    HW132963   6.393   4.433   2.434
10688SOL    HW232964   6.410   4.569   2.523
10689SOL     OW32965   0.006   0.222   2.834
10689SOL    HW132966   0.020   0.314   2.871
10689SOL    HW232967   6.943   0.186   2.866
10690SOL     OW32968   4.175   5.448   2.971
10690SOL    HW132969   4.135   5.471   2.882
10690SOL    HW232970   4.126   5.495   3.043
10691SOL     OW32971   6.622   0.942   1.734
10691SOL    HW132972   6.694   1.011   1.728
10691SOL    HW232973   6.534   0.982   1.708
10692SOL     OW32974   2.945   6.010   3.764
10692SOL    HW132975   2.958   5.968   3.854
10692SOL    HW232976   3.021   6.073   3.745
10693SOL     OW32977   1.048   1.240   0.803
10693SOL    HW132978   0.990   1.180   0.857
10693SOL    HW232979   0.992   1.287   0.734
10694SOL     OW32980   3.602   6.493   1.048
10694SOL    HW132981   3.623   6.519   0.954
10694SOL    HW232982   3.547   6.410   1.048
10695SOL     OW32983   0.443   2.983   4.031
10695SOL    HW132984   0.394   3.069   4.032
10695SOL    HW232985   0.405   2.923   3.960
10696SOL     OW32986   6.808   6.117   1.510
10696SOL    HW132987   6.847   6.207   1.490
10696SOL    HW232988   6.872   6.046   1.482
10697SOL     OW32989   0.523   6.429   3.235
10697SOL    HW132990   0.447   6.368   3.254
10697SOL    HW232991   0.587   6.386   3.172
10698SOL     OW32992   2.900   6.972   3.176
10698SOL    HW132993   2.901   6.889   3.233
10698SOL    HW232994   2.865   0.023   3.230
10699SOL     OW32995   4.485   1.820   3.198
10699SOL    HW132996   4.410   1.757   3.176
10699SOL    HW232997   4.505   1.876   3.118
10700SOL     OW32998   0.486   6.742   0.779
10700SOL    HW132999   0.571   6.694   0.801
10700SOL    HW233000   0.461   6.723   0.684
10701SOL     OW33001   4.206   5.925   6.803
10701SOL    HW133002   4.259   5.857   6.752
10701SOL    HW233003   4.236   5.925   6.899
10702SOL     OW33004   5.583   2.458   0.413
10702SOL    HW133005   5.618   2.424   0.326
10702SOL    HW233006   5.640   2.533   0.445
10703SOL     OW33007   3.871   3.997   3.560
10703SOL    HW133008   3.926   3.991   3.477
10703SOL    HW233009   3.781   3.958   3.544
10704SOL     OW33010   5.054   6.768   1.769
10704SOL    HW133011   5.144   6.736   1.799
10704SOL    HW233012   4.984   6.702   1.796
10705SOL     OW33013   1.363   4.394   6.680
10705SOL    HW133014   1.315   4.309   6.701
10705SOL    HW233015   1.429   4.379   6.608
10706SOL     OW33016   4.301   0.658   1.817
10706SOL    HW133017   4.252   0.616   1.894
10706SOL    HW233018   4.398   0.631   1.822
10707SOL     OW33019   0.044   0.057   5.738
10707SOL    HW133020   7.016   0.066   5.822
10707SOL    HW233021   0.129   0.109   5.746
10708SOL     OW33022   4.843   1.286   1.397
10708SOL    HW133023   4.906   1.355   1.361
10708SOL    HW233024   4.864   1.197   1.357
10709SOL     OW33025   6.483   0.292   5.126
10709SOL    HW133026   6.542   0.334   5.195
10709SOL    HW233027   6.468   0.357   5.051
10710SOL     OW33028   6.214   5.599   3.782
10710SOL    HW133029   6.188   5.558   3.869
10710SOL    HW233030   6.142   5.584   3.714
10711SOL     OW33031   1.900   0.365   4.093
10711SOL    HW133032   1.898   0.333   3.998
10711SOL    HW233033   1.828   0.319   4.145
10712SOL     OW33034   3.730   1.541   5.111
10712SOL    HW133035   3.738   1.540   5.012
10712SOL    HW233036   3.638   1.570   5.137
10713SOL     OW33037   2.442   6.108   1.982
10713SOL    HW133038   2.454   6.011   1.959
10713SOL    HW233039   2.526   6.143   2.021
10714SOL     OW33040   0.239   4.699   5.108
10714SOL    HW133041   0.153   4.722   5.063
10714SOL    HW233042   0.315   4.730   5.051
10715SOL     OW33043   4.643   2.261   4.341
10715SOL    HW133044   4.695   2.301   4.266
10715SOL    HW233045   4.549   2.244   4.312
10716SOL     OW33046   6.671   1.210   4.609
10716SOL    HW133047   6.727   1.129   4.590
10716SOL    HW233048   6.627   1.241   4.525
10717SOL     OW33049   6.384   0.997   2.160
10717SOL    HW133050   6.417   0.906   2.133
10717SOL    HW233051   6.355   1.047   2.079
10718SOL     OW33052   6.675   5.167   6.759
10718SOL    HW133053   6.602   5.195   6.821
10718SOL    HW233054   6.692   5.069   6.769
10719SOL     OW33055   5.243   1.140   1.784
10719SOL    HW133056   5.229   1.108   1.877
10719SOL    HW233057   5.196   1.079   1.720
10720SOL     OW33058   6.755   3.573   6.397
10720SOL    HW133059   6.798   3.484   6.416
10720SOL    HW233060   6.827   3.643   6.388
10721SOL     OW33061   5.825   2.308   4.605
10721SOL    HW133062   5.801   2.346   4.694
10721SOL    HW233063   5.743   2.273   4.560
10722SOL     OW33064   6.180   3.813   0.438
10722SOL    HW133065   6.212   3.740   0.499
10722SOL    HW233066   6.179   3.779   0.343
10723SOL     OW33067   5.799   4.300   6.537
10723SOL    HW133068   5.866   4.283   6.609
10723SOL    HW233069   5.797   4.398   6.516
10724SOL     OW33070   4.264   6.419   5.985
10724SOL    HW133071   4.281   6.370   6.070
10724SOL    HW233072   4.351   6.454   5.948
10725SOL     OW33073   0.552   6.207   4.257
10725SOL    HW133074   0.537   6.109   4.264
10725SOL    HW233075   0.646   6.224   4.228
10726SOL     OW33076   5.815   0.462   4.785
10726SOL    HW133077   5.721   0.494   4.787
10726SOL    HW233078   5.872   0.528   4.737
10727SOL     OW33079   2.047   5.319   5.257
10727SOL    HW133080   2.118   5.390   5.251
10727SOL    HW233081   2.031   5.295   5.352
10728SOL     OW33082   4.846   6.885   3.194
10728SOL    HW133083   4.921   6.848   3.248
10728SOL    HW233084   4.760   6.844   3.223
10729SOL     OW33085   6.321   2.517   3.034
10729SOL    HW133086   6.400   2.559   3.079
10729SOL    HW233087   6.305   2.426   3.073
10730SOL     OW33088   2.383   6.568   2.097
10730SOL    HW133089   2.311   6.511   2.136
10730SOL    HW233090   2.427   6.521   2.021
10731SOL     OW33091   3.382   5.967   0.292
10731SOL    HW133092   3.474   5.983   0.255
10731SOL    HW233093   3.321   6.041   0.262
10732SOL     OW33094   5.444   6.125   2.487
10732SOL    HW133095   5.486   6.049   2.438
10732SOL    HW233096   5.406   6.093   2.573
10733SOL     OW33097   6.150   1.282   6.229
10733SOL    HW133098   6.154   1.294   6.129
10733SOL    HW233099   6.064   1.237   6.254
10734SOL     OW33100   1.602   0.444   6.658
10734SOL    HW133101   1.625   0.514   6.725
10734SOL    HW233102   1.620   0.354   6.696
10735SOL     OW33103   0.809   5.098   2.078
10735SOL    HW133104   0.817   5.115   2.177
10735SOL    HW233105   0.876   5.029   2.051
10736SOL     OW33106   0.120   1.143   3.683
10736SOL    HW133107   0.120   1.164   3.586
10736SOL    HW233108   0.147   1.224   3.735
10737SOL     OW33109   0.307   1.860   1.164
10737SOL    HW133110   0.394   1.822   1.133
10737SOL    HW233111   0.300   1.852   1.263
10738SOL     OW33112   2.726   0.735   2.828
10738SOL    HW133113   2.700   0.681   2.908
10738SOL    HW233114   2.693   0.829   2.840
10739SOL     OW33115   6.053   1.658   2.223
10739SOL    HW133116   6.125   1.671   2.291
10739SOL    HW233117   6.039   1.744   2.173
10740SOL     OW33118   1.960   6.875   6.130
10740SOL    HW133119   1.961   6.811   6.207
10740SOL    HW233120   1.927   6.827   6.049
10741SOL     OW33121   1.697   2.853   2.945
10741SOL    HW133122   1.614   2.797   2.943
10741SOL    HW233123   1.773   2.800   2.982
10742SOL     OW33124   6.263   5.433   2.354
10742SOL    HW133125   6.352   5.462   2.387
10742SOL    HW233126   6.202   5.416   2.431
10743SOL     OW33127   3.150   1.545   5.399
10743SOL    HW133128   3.104   1.592   5.324
10743SOL    HW233129   3.215   1.607   5.443
10744SOL     OW33130   2.936   0.529   1.194
10744SOL    HW133131   2.858   0.468   1.180
10744SOL    HW233132   2.974   0.516   1.285
10745SOL     OW33133   2.094   4.293   1.071
10745SOL    HW133134   2.117   4.383   1.035
10745SOL    HW233135   2.078   4.230   0.994
10746SOL     OW33136   2.294   6.109   0.163
10746SOL    HW133137   2.373   6.160   0.131
10746SOL    HW233138   2.325   6.027   0.211
10747SOL     OW33139   6.252   2.486   4.445
10747SOL    HW133140   6.156   2.466   4.462
10747SOL    HW233141   6.268   2.584   4.455
10748SOL     OW33142   4.329   5.218   1.140
10748SOL    HW133143   4.399   5.221   1.211
10748SOL    HW233144   4.258   5.285   1.160
10749SOL     OW33145   6.500   4.623   2.665
10749SOL    HW133146   6.418   4.606   2.720
10749SOL    HW233147   6.580   4.623   2.724
10750SOL     OW33148   4.854   3.305   3.890
10750SOL    HW133149   4.773   3.330   3.943
10750SOL    HW233150   4.904   3.388   3.865
10751SOL     OW33151   1.561   3.588   5.137
10751SOL    HW133152   1.560   3.488   5.144
10751SOL    HW233153   1.512   3.616   5.054
10752SOL     OW33154   6.051   5.362   6.954
10752SOL    HW133155   6.092   5.452   6.963
10752SOL    HW233156   6.038   5.322   0.020
10753SOL     OW33157   5.139   6.457   4.187
10753SOL    HW133158   5.092   6.445   4.100
10753SOL    HW233159   5.072   6.473   4.259
10754SOL     OW33160   0.796   3.185   1.973
10754SOL    HW133161   0.893   3.174   1.996
10754SOL    HW233162   0.741   3.178   2.056
10755SOL     OW33163   6.833   2.789   1.374
10755SOL    HW133164   6.879   2.701   1.373
10755SOL    HW233165   6.779   2.798   1.458
10756SOL     OW33166   6.435   2.143   0.755
10756SOL    HW133167   6.518   2.109   0.712
10756SOL    HW233168   6.358   2.085   0.729
10757SOL     OW33169   6.484   3.753   0.248
10757SOL    HW133170   6.385   3.747   0.236
10757SOL    HW233171   6.526   3.667   0.218
10758SOL     OW33172   0.800   6.295   6.566
10758SOL    HW133173   0.767   6.344   6.486
10758SOL    HW233174   0.815   6.199   6.543
10759SOL     OW33175   1.598   1.868   6.114
10759SOL    HW133176   1.554   1.957   6.105
10759SOL    HW233177   1.655   1.867   6.196
10760SOL     OW33178   0.789   6.231   0.450
10760SOL    HW133179   0.874   6.275   0.477
10760SOL    HW233180   0.795   6.133   0.468
10761SOL     OW33181   0.925   2.115   6.227
10761SOL    HW133182   0.943   2.196   6.283
10761SOL    HW233183   0.977   2.037   6.264
10762SOL     OW33184   4.044   0.646   5.757
10762SOL    HW133185   3.983   0.567   5.746
10762SOL    HW233186   4.040   0.703   5.675
10763SOL     OW33187   5.781   0.592   3.378
10763SOL    HW133188   5.702   0.546   3.418
10763SOL    HW233189   5.852   0.525   3.358
10764SOL     OW33190   4.646   1.180   5.000
10764SOL    HW133191   4.697   1.265   5.014
10764SOL    HW233192   4.701   1.102   5.032
10765SOL     OW33193   6.317   2.204   2.322
10765SOL    HW133194   6.266   2.153   2.253
10765SOL    HW233195   6.253   2.245   2.387
10766SOL     OW33196   1.141   4.962   0.645
10766SOL    HW133197   1.122   5.041   0.703
10766SOL    HW233198   1.062   4.901   0.644
10767SOL     OW33199   1.384   5.842   0.822
10767SOL    HW133200   1.300   5.826   0.873
10767SOL    HW233201   1.411   5.757   0.775
10768SOL     OW33202   5.902   5.491   0.238
10768SOL    HW133203   5.966   5.427   0.195
10768SOL    HW233204   5.911   5.486   0.337
10769SOL     OW33205   2.744   4.150   5.439
10769SOL    HW133206   2.799   4.076   5.399
10769SOL    HW233207   2.648   4.122   5.443
10770SOL     OW33208   5.474   6.781   4.738
10770SOL    HW133209   5.451   6.787   4.640
10770SOL    HW233210   5.573   6.781   4.749
10771SOL     OW33211   5.032   0.179   5.670
10771SOL    HW133212   5.081   0.159   5.755
10771SOL    HW233213   5.040   0.277   5.649
10772SOL     OW33214   5.418   5.889   3.454
10772SOL    HW133215   5.512   5.866   3.477
10772SOL    HW233216   5.375   5.811   3.409
10773SOL     OW33217   0.079   3.929   0.552
10773SOL    HW133218   7.009   3.924   0.583
10773SOL    HW233219   0.124   4.009   0.591
10774SOL     OW33220   1.573   2.333   0.805
10774SOL    HW133221   1.478   2.341   0.775
10774SOL    HW233222   1.624   2.279   0.739
10775SOL     OW33223   2.023   4.386   0.757
10775SOL    HW133224   1.925   4.369   0.767
10775SOL    HW233225   2.037   4.467   0.701
10776SOL     OW33226   0.101   0.613   2.739
10776SOL    HW133227   0.059   0.667   2.811
10776SOL    HW233228   0.031   0.559   2.692
10777SOL     OW33229   2.881   0.777   3.722
10777SOL    HW133230   2.806   0.732   3.770
10777SOL    HW233231   2.871   0.764   3.623
10778SOL     OW33232   6.490   6.454   4.249
10778SOL    HW133233   6.511   6.372   4.302
10778SOL    HW233234   6.491   6.534   4.308
10779SOL     OW33235   5.365   4.924   3.186
10779SOL    HW133236   5.265   4.924   3.174
10779SOL    HW233237   5.389   4.976   3.267
10780SOL     OW33238   0.680   5.788   4.565
10780SOL    HW133239   0.585   5.766   4.586
10780SOL    HW233240   0.719   5.842   4.639
10781SOL     OW33241   6.007   2.546   4.988
10781SOL    HW133242   5.968   2.614   5.051
10781SOL    HW233243   5.938   2.476   4.968
10782SOL     OW33244   0.664   3.112   5.290
10782SOL    HW133245   0.639   3.041   5.224
10782SOL    HW233246   0.604   3.191   5.277
10783SOL     OW33247   1.237   2.451   2.547
10783SOL    HW133248   1.271   2.502   2.467
10783SOL    HW233249   1.171   2.383   2.516
10784SOL     OW33250   2.884   6.272   2.460
10784SOL    HW133251   2.875   6.287   2.559
10784SOL    HW233252   2.979   6.250   2.438
10785SOL     OW33253   1.741   5.292   1.426
10785SOL    HW133254   1.777   5.205   1.393
10785SOL    HW233255   1.786   5.318   1.512
10786SOL     OW33256   4.532   2.009   2.040
10786SOL    HW133257   4.497   1.964   2.122
10786SOL    HW233258   4.457   2.055   1.992
10787SOL     OW33259   3.248   1.194   3.834
10787SOL    HW133260   3.271   1.201   3.737
10787SOL    HW233261   3.264   1.283   3.879
10788SOL     OW33262   0.350   4.262   0.312
10788SOL    HW133263   0.444   4.252   0.343
10788SOL    HW233264   0.326   4.184   0.253
10789SOL     OW33265   6.461   1.375   6.992
10789SOL    HW133266   6.550   1.396   6.952
10789SOL    HW233267   6.454   1.418   0.058
10790SOL     OW33268   0.546   2.470   4.753
10790SOL    HW133269   0.633   2.467   4.803
10790SOL    HW233270   0.532   2.562   4.716
10791SOL     OW33271   1.926   1.524   2.638
10791SOL    HW133272   1.861   1.478   2.699
10791SOL    HW233273   2.007   1.467   2.626
10792SOL     OW33274   3.597   2.244   1.260
10792SOL    HW133275   3.501   2.256   1.237
10792SOL    HW233276   3.630   2.323   1.311
10793SOL     OW33277   5.093   1.706   4.637
10793SOL    HW133278   5.041   1.621   4.623
10793SOL    HW233279   5.119   1.713   4.733
10794SOL     OW33280   4.441   2.875   1.704
10794SOL    HW133281   4.498   2.925   1.769
10794SOL    HW233282   4.396   2.940   1.643
10795SOL     OW33283   0.136   3.627   2.850
10795SOL    HW133284   0.096   3.718   2.854
10795SOL    HW233285   0.228   3.632   2.810
10796SOL     OW33286   6.582   6.561   0.010
10796SOL    HW133287   6.601   6.609   6.948
10796SOL    HW233288   6.626   6.610   0.085
10797SOL     OW33289   4.139   2.822   0.440
10797SOL    HW133290   4.230   2.843   0.478
10797SOL    HW233291   4.119   2.725   0.453
10798SOL     OW33292   2.967   6.812   6.387
10798SOL    HW133293   2.898   6.787   6.320
10798SOL    HW233294   3.058   6.794   6.349
10799SOL     OW33295   3.023   1.437   2.359
10799SOL    HW133296   3.096   1.498   2.327
10799SOL    HW233297   2.962   1.487   2.420
10800SOL     OW33298   1.422   6.906   6.721
10800SOL    HW133299   1.400   6.819   6.677
10800SOL    HW233300   1.374   6.980   6.674
10801SOL     OW33301   1.506   5.669   6.131
10801SOL    HW133302   1.529   5.590   6.075
10801SOL    HW233303   1.590   5.709   6.169
10802SOL     OW33304   1.413   3.807   3.676
10802SOL    HW133305   1.398   3.727   3.618
10802SOL    HW233306   1.324   3.843   3.705
10803SOL     OW33307   6.261   4.787   5.341
10803SOL    HW133308   6.291   4.821   5.430
10803SOL    HW233309   6.163   4.768   5.343
10804SOL     OW33310   6.024   4.289   1.703
10804SOL    HW133311   6.030   4.221   1.631
10804SOL    HW233312   6.066   4.374   1.672
10805SOL     OW33313   4.160   6.531   0.634
10805SOL    HW133314   4.124   6.460   0.695
10805SOL    HW233315   4.088   6.561   0.571
10806SOL     OW33316   5.519   3.834   0.754
10806SOL    HW133317   5.444   3.796   0.808
10806SOL    HW233318   5.606   3.797   0.788
10807SOL     OW33319   3.359   5.660   3.214
10807SOL    HW133320   3.345   5.760   3.212
10807SOL    HW233321   3.449   5.638   3.177
10808SOL     OW33322   0.333   2.648   6.044
10808SOL    HW133323   0.361   2.725   5.987
10808SOL    HW233324   0.234   2.649   6.056
10809SOL     OW33325   2.983   0.725   4.062
10809SOL    HW133326   2.991   0.800   4.129
10809SOL    HW233327   2.916   0.750   3.993
10810SOL     OW33328   0.320   1.775   5.236
10810SOL    HW133329   0.266   1.762   5.152
10810SOL    HW233330   0.406   1.725   5.228
10811SOL     OW33331   4.246   5.309   5.509
10811SOL    HW133332   4.251   5.225   5.455
10811SOL    HW233333   4.212   5.384   5.452
10812SOL     OW33334   6.585   2.823   2.657
10812SOL    HW133335   6.571   2.854   2.751
10812SOL    HW233336   6.670   2.772   2.651
10813SOL     OW33337   2.914   6.232   2.089
10813SOL    HW133338   2.876   6.312   2.135
10813SOL    HW233339   2.992   6.198   2.141
10814SOL     OW33340   1.996   0.091   5.118
10814SOL    HW133341   2.005   0.102   5.217
10814SOL    HW233342   1.971   7.021   5.097
10815SOL     OW33343   5.463   4.053   3.036
10815SOL    HW133344   5.377   4.008   3.057
10815SOL    HW233345   5.483   4.044   2.938
10816SOL     OW33346   1.615   0.840   2.239
10816SOL    HW133347   1.660   0.890   2.312
10816SOL    HW233348   1.573   0.757   2.277
10817SOL     OW33349   4.971   0.369   2.966
10817SOL    HW133350   5.051   0.427   2.951
10817SOL    HW233351   4.999   0.273   2.967
10818SOL     OW33352   5.537   2.756   6.564
10818SOL    HW133353   5.507   2.848   6.587
10818SOL    HW233354   5.604   2.760   6.489
10819SOL     OW33355   0.489   4.667   6.401
10819SOL    HW133356   0.505   4.710   6.490
10819SOL    HW233357   0.394   4.683   6.373
10820SOL     OW33358   0.019   6.508   3.638
10820SOL    HW133359   0.102   6.518   3.584
10820SOL    HW233360   6.997   6.424   3.612
10821SOL     OW33361   6.941   0.359   1.819
10821SOL    HW133362   6.921   0.366   1.917
10821SOL    HW233363   6.855   0.367   1.767
10822SOL     OW33364   1.029   4.058   2.476
10822SOL    HW133365   1.017   3.983   2.542
10822SOL    HW233366   1.111   4.042   2.422
10823SOL     OW33367   2.305   5.831   1.038
10823SOL    HW133368   2.293   5.838   0.939
10823SOL    HW233369   2.337   5.919   1.074
10824SOL     OW33370   5.088   0.967   2.707
10824SOL    HW133371   5.179   0.999   2.734
10824SOL    HW233372   5.060   1.013   2.623
10825SOL     OW33373   3.401   1.221   0.930
10825SOL    HW133374   3.482   1.165   0.947
10825SOL    HW233375   3.322   1.161   0.916
10826SOL     OW33376   0.172   3.662   2.083
10826SOL    HW133377   0.199   3.627   1.993
10826SOL    HW233378   0.212   3.604   2.154
10827SOL     OW33379   0.045   3.385   4.413
10827SOL    HW133380   7.017   3.368   4.329
10827SOL    HW233381   0.024   3.315   4.481
10828SOL     OW33382   1.197   5.912   0.071
10828SOL    HW133383   1.142   5.870   7.024
10828SOL    HW233384   1.157   5.891   0.160
10829SOL     OW33385   3.111   3.974   1.984
10829SOL    HW133386   3.055   3.917   2.045
10829SOL    HW233387   3.191   4.007   2.033
10830SOL     OW33388   5.290   3.238   4.610
10830SOL    HW133389   5.299   3.146   4.572
10830SOL    HW233390   5.242   3.234   4.698
10831SOL     OW33391   5.556   1.238   2.591
10831SOL    HW133392   5.577   1.222   2.494
10831SOL    HW233393   5.499   1.163   2.625
10832SOL     OW33394   0.855   2.063   0.409
10832SOL    HW133395   0.860   1.966   0.386
10832SOL    HW233396   0.779   2.078   0.473
10833SOL     OW33397   2.526   0.916   4.391
10833SOL    HW133398   2.612   0.893   4.346
10833SOL    HW233399   2.541   0.922   4.490
10834SOL     OW33400   0.911   1.708   5.619
10834SOL    HW133401   1.009   1.690   5.632
10834SOL    HW233402   0.891   1.803   5.642
10835SOL     OW33403   5.966   1.923   2.220
10835SOL    HW133404   5.887   1.882   2.176
10835SOL    HW233405   5.992   2.006   2.171
10836SOL     OW33406   1.071   1.846   6.326
10836SOL    HW133407   1.011   1.863   6.403
10836SOL    HW233408   1.082   1.747   6.313
10837SOL     OW33409   0.157   4.559   0.488
10837SOL    HW133410   0.163   4.658   0.505
10837SOL    HW233411   0.136   4.512   0.573
10838SOL     OW33412   5.474   6.958   6.721
10838SOL    HW133413   5.422   6.993   6.799
10838SOL    HW233414   5.495   6.861   6.735
10839SOL     OW33415   2.196   1.747   6.895
10839SOL    HW133416   2.274   1.703   6.849
10839SOL    HW233417   2.133   1.678   6.929
10840SOL     OW33418   3.569   5.321   1.598
10840SOL    HW133419   3.553   5.318   1.697
10840SOL    HW233420   3.482   5.339   1.552
10841SOL     OW33421   4.057   5.905   5.973
10841SOL    HW133422   4.062   6.004   5.963
10841SOL    HW233423   3.985   5.869   5.913
10842SOL     OW33424   6.509   3.115   0.886
10842SOL    HW133425   6.460   3.034   0.852
10842SOL    HW233426   6.484   3.194   0.829
10843SOL     OW33427   0.783   1.680   2.145
10843SOL    HW133428   0.882   1.676   2.160
10843SOL    HW233429   0.744   1.752   2.202
10844SOL     OW33430   5.566   6.756   3.015
10844SOL    HW133431   5.527   6.665   3.001
10844SOL    HW233432   5.569   6.776   3.113
10845SOL     OW33433   1.232   0.753   1.424
10845SOL    HW133434   1.142   0.728   1.386
10845SOL    HW233435   1.229   0.847   1.457
10846SOL     OW33436   3.997   1.949   1.023
10846SOL    HW133437   4.047   2.026   0.984
10846SOL    HW233438   3.918   1.983   1.074
10847SOL     OW33439   3.507   2.493   5.841
10847SOL    HW133440   3.468   2.552   5.913
10847SOL    HW233441   3.473   2.400   5.854
10848SOL     OW33442   1.972   0.729   0.371
10848SOL    HW133443   2.003   0.754   0.279
10848SOL    HW233444   1.918   0.804   0.409
10849SOL     OW33445   2.803   4.971   4.665
10849SOL    HW133446   2.758   5.056   4.690
10849SOL    HW233447   2.806   4.911   4.745
10850SOL     OW33448   5.483   0.118   6.938
10850SOL    HW133449   5.573   0.087   6.909
10850SOL    HW233450   5.475   0.112   0.012
10851SOL     OW33451   2.831   2.468   6.533
10851SOL    HW133452   2.821   2.470   6.433
10851SOL    HW233453   2.741   2.461   6.575
10852SOL     OW33454   0.345   0.933   6.711
10852SOL    HW133455   0.279   0.971   6.776
10852SOL    HW233456   0.397   1.008   6.669
10853SOL     OW33457   2.881   1.513   4.474
10853SOL    HW133458   2.870   1.416   4.452
10853SOL    HW233459   2.808   1.541   4.536
10854SOL     OW33460   6.809   6.952   6.948
10854SOL    HW133461   6.769   6.895   6.877
10854SOL    HW233462   6.748   6.953   0.003
10855SOL     OW33463   1.869   6.313   1.922
10855SOL    HW133464   1.830   6.297   1.831
10855SOL    HW233465   1.967   6.330   1.913
10856SOL     OW33466   5.905   6.816   6.958
10856SOL    HW133467   5.996   6.793   6.990
10856SOL    HW233468   5.881   6.758   6.880
10857SOL     OW33469   6.428   1.477   3.427
10857SOL    HW133470   6.480   1.392   3.429
10857SOL    HW233471   6.335   1.461   3.463
10858SOL     OW33472   1.275   3.085   0.305
10858SOL    HW133473   1.361   3.037   0.318
10858SOL    HW233474   1.258   3.098   0.207
10859SOL     OW33475   0.595   4.788   3.437
10859SOL    HW133476   0.577   4.886   3.446
10859SOL    HW233477   0.550   4.754   3.354
10860SOL     OW33478   6.422   1.720   0.115
10860SOL    HW133479   6.409   1.622   0.134
10860SOL    HW233480   6.381   1.742   0.027
10861SOL     OW33481   2.922   2.713   1.588
10861SOL    HW133482   3.011   2.712   1.633
10861SOL    HW233483   2.933   2.687   1.492
10862SOL     OW33484   3.395   2.231   5.904
10862SOL    HW133485   3.311   2.266   5.863
10862SOL    HW233486   3.382   2.135   5.931
10863SOL     OW33487   2.409   0.967   3.097
10863SOL    HW133488   2.411   1.007   3.005
10863SOL    HW233489   2.454   0.878   3.096
10864SOL     OW33490   2.506   4.244   1.848
10864SOL    HW133491   2.468   4.325   1.893
10864SOL    HW233492   2.572   4.271   1.779
10865SOL     OW33493   5.117   2.878   3.220
10865SOL    HW133494   5.140   2.862   3.317
10865SOL    HW233495   5.130   2.974   3.198
10866SOL     OW33496   6.741   3.991   2.173
10866SOL    HW133497   6.821   3.933   2.184
10866SOL    HW233498   6.760   4.063   2.106
10867SOL     OW33499   3.268   2.462   0.436
10867SOL    HW133500   3.262   2.364   0.455
10867SOL    HW233501   3.237   2.480   0.343
10868SOL     OW33502   0.995   2.303   3.536
10868SOL    HW133503   0.970   2.383   3.589
10868SOL    HW233504   1.091   2.280   3.554
10869NA      NA33505   0.322   1.843   5.897
10870NA      NA33506   4.492   4.611   5.170
10871NA      NA33507   1.483   5.366   2.608
10872NA      NA33508   5.255   4.198   3.391
10873NA      NA33509   4.292   2.301   5.222
10874NA      NA33510   2.549   5.130   0.857
10875NA      NA33511   1.083   5.271   0.139
10876NA      NA33512   3.531   3.918   1.228
10877NA      NA33513   4.302   4.863   0.882
10878NA      NA33514   3.289   1.021   6.678
10879NA      NA33515   5.659   5.800   1.911
10880NA      NA33516   1.423   6.859   5.307
10881NA      NA33517   4.583   5.141   2.137
10882NA      NA33518   3.143   3.093   6.793
   7.02465   7.02465   7.02465
