Generated by trjconv : CNT in water t=  90.00000
33518
    1C        C    1   2.836   2.765   4.744
    1C        C    2   2.894   2.713   4.862
    1C        C    3   2.842   2.765   4.981
    1C        C    4   2.845   2.770   4.258
    1C        C    5   2.897   2.721   4.380
    1C        C    6   2.841   2.768   4.501
    1C        C    7   3.009   2.639   4.621
    1C        C    8   2.891   2.717   4.623
    1C        C    9   3.075   2.602   4.740
    1C        C   10   3.009   2.631   4.862
    1C        C   11   3.177   2.485   4.971
    1C        C   12   3.058   2.560   4.971
    1C        C   13   2.847   2.772   3.769
    1C        C   14   2.900   2.722   3.891
    1C        C   15   2.846   2.770   4.012
    1C        C   16   3.018   2.649   4.137
    1C        C   17   2.900   2.726   4.135
    1C        C   18   3.079   2.613   4.259
    1C        C   19   3.016   2.645   4.381
    1C        C   20   3.206   2.550   4.500
    1C        C   21   3.075   2.601   4.501
    1C        C   22   3.278   2.536   4.621
    1C        C   23   3.207   2.549   4.742
    1C        C   24   3.409   2.481   4.858
    1C        C   25   3.268   2.502   4.862
    1C        C   26   3.487   2.475   4.975
    1C        C   27   2.842   2.757   3.279
    1C        C   28   2.899   2.720   3.403
    1C        C   29   2.846   2.768   3.525
    1C        C   30   3.015   2.640   3.647
    1C        C   31   2.900   2.723   3.648
    1C        C   32   3.076   2.604   3.769
    1C        C   33   3.013   2.637   3.890
    1C        C   34   3.204   2.551   4.012
    1C        C   35   3.073   2.605   4.014
    1C        C   36   3.273   2.529   4.133
    1C        C   37   3.208   2.555   4.256
    1C        C   38   3.414   2.507   4.378
    1C        C   39   3.275   2.532   4.378
    1C        C   40   3.487   2.503   4.499
    1C        C   41   3.415   2.502   4.621
    1C        C   42   3.629   2.481   4.742
    1C        C   43   3.487   2.479   4.740
    1C        C   44   3.704   2.483   4.862
    1C        C   45   3.626   2.475   4.979
    1C        C   46   2.834   2.747   2.794
    1C        C   47   2.890   2.704   2.916
    1C        C   48   2.838   2.752   3.038
    1C        C   49   3.011   2.626   3.160
    1C        C   50   2.893   2.704   3.159
    1C        C   51   3.077   2.599   3.282
    1C        C   52   3.013   2.636   3.402
    1C        C   53   3.202   2.544   3.523
    1C        C   54   3.072   2.598   3.525
    1C        C   55   3.272   2.524   3.644
    1C        C   56   3.206   2.550   3.767
    1C        C   57   3.412   2.508   3.893
    1C        C   58   3.273   2.533   3.890
    1C        C   59   3.484   2.500   4.015
    1C        C   60   3.410   2.498   4.135
    1C        C   61   3.624   2.505   4.255
    1C        C   62   3.483   2.491   4.256
    1C        C   63   3.695   2.510   4.377
    1C        C   64   3.628   2.497   4.500
    1C        C   65   3.838   2.532   4.617
    1C        C   66   3.701   2.498   4.621
    1C        C   67   3.907   2.555   4.738
    1C        C   68   3.840   2.518   4.857
    1C        C   69   4.047   2.579   4.976
    1C        C   70   3.920   2.519   4.972
    1C        C   71   2.824   2.728   2.307
    1C        C   72   2.880   2.685   2.429
    1C        C   73   2.828   2.741   2.548
    1C        C   74   3.005   2.626   2.671
    1C        C   75   2.884   2.698   2.671
    1C        C   76   3.070   2.594   2.792
    1C        C   77   3.009   2.627   2.915
    1C        C   78   3.203   2.540   3.036
    1C        C   79   3.073   2.596   3.036
    1C        C   80   3.273   2.524   3.157
    1C        C   81   3.209   2.548   3.281
    1C        C   82   3.414   2.499   3.402
    1C        C   83   3.274   2.523   3.403
    1C        C   84   3.483   2.498   3.525
    1C        C   85   3.412   2.505   3.646
    1C        C   86   3.622   2.503   3.766
    1C        C   87   3.481   2.503   3.770
    1C        C   88   3.694   2.510   3.887
    1C        C   89   3.625   2.503   4.010
    1C        C   90   3.832   2.544   4.134
    1C        C   91   3.694   2.513   4.133
    1C        C   92   3.898   2.572   4.255
    1C        C   93   3.832   2.543   4.376
    1C        C   94   4.028   2.630   4.495
    1C        C   95   3.905   2.561   4.496
    1C        C   96   4.088   2.667   4.618
    1C        C   97   4.033   2.621   4.739
    1C        C   98   4.186   2.762   4.859
    1C        C   99   4.095   2.652   4.863
    1C        C  100   4.207   2.842   4.972
    1C        C  101   2.826   2.728   2.067
    1C        C  102   2.992   2.589   2.187
    1C        C  103   2.878   2.676   2.186
    1C        C  104   3.065   2.575   2.309
    1C        C  105   2.999   2.610   2.429
    1C        C  106   3.196   2.528   2.550
    1C        C  107   3.065   2.582   2.551
    1C        C  108   3.267   2.516   2.671
    1C        C  109   3.201   2.542   2.793
    1C        C  110   3.410   2.497   2.914
    1C        C  111   3.270   2.519   2.914
    1C        C  112   3.481   2.486   3.036
    1C        C  113   3.412   2.497   3.158
    1C        C  114   3.625   2.496   3.275
    1C        C  115   3.484   2.490   3.280
    1C        C  116   3.693   2.511   3.398
    1C        C  117   3.624   2.503   3.521
    1C        C  118   3.831   2.545   3.646
    1C        C  119   3.693   2.513   3.644
    1C        C  120   3.899   2.570   3.768
    1C        C  121   3.831   2.547   3.889
    1C        C  122   4.021   2.638   4.010
    1C        C  123   3.899   2.567   4.011
    1C        C  124   4.083   2.678   4.131
    1C        C  125   4.025   2.635   4.252
    1C        C  126   4.200   2.756   4.376
    1C        C  127   4.088   2.670   4.374
    1C        C  128   4.246   2.811   4.497
    1C        C  129   4.192   2.763   4.618
    1C        C  130   4.326   2.931   4.737
    1C        C  131   4.243   2.815   4.739
    1C        C  132   4.352   3.000   4.857
    1C        C  133   4.283   2.959   4.972
    1C        C  134   3.170   2.466   2.079
    1C        C  135   3.035   2.502   2.082
    1C        C  136   3.258   2.472   2.189
    1C        C  137   3.195   2.520   2.307
    1C        C  138   3.404   2.481   2.425
    1C        C  139   3.264   2.502   2.429
    1C        C  140   3.477   2.484   2.545
    1C        C  141   3.407   2.494   2.667
    1C        C  142   3.617   2.500   2.787
    1C        C  143   3.477   2.490   2.790
    1C        C  144   3.689   2.512   2.908
    1C        C  145   3.622   2.494   3.031
    1C        C  146   3.831   2.539   3.154
    1C        C  147   3.695   2.503   3.152
    1C        C  148   3.897   2.564   3.276
    1C        C  149   3.830   2.546   3.399
    1C        C  150   4.025   2.623   3.522
    1C        C  151   3.896   2.565   3.523
    1C        C  152   4.086   2.663   3.643
    1C        C  153   4.027   2.630   3.767
    1C        C  154   4.194   2.762   3.885
    1C        C  155   4.085   2.671   3.889
    1C        C  156   4.244   2.811   4.008
    1C        C  157   4.193   2.766   4.132
    1C        C  158   4.339   2.918   4.252
    1C        C  159   4.249   2.809   4.254
    1C        C  160   4.374   2.980   4.374
    1C        C  161   4.331   2.925   4.497
    1C        C  162   4.439   3.112   4.615
    1C        C  163   4.374   2.986   4.616
    1C        C  164   4.461   3.182   4.736
    1C        C  165   4.427   3.119   4.858
    1C        C  166   4.506   3.317   4.971
    1C        C  167   4.474   3.182   4.974
    1C        C  168   3.472   2.435   2.068
    1C        C  169   3.397   2.450   2.185
    1C        C  170   3.614   2.459   2.304
    1C        C  171   3.472   2.453   2.305
    1C        C  172   3.689   2.488   2.420
    1C        C  173   3.619   2.490   2.542
    1C        C  174   3.825   2.538   2.666
    1C        C  175   3.688   2.503   2.665
    1C        C  176   3.894   2.559   2.787
    1C        C  177   3.827   2.542   2.910
    1C        C  178   4.027   2.617   3.031
    1C        C  179   3.897   2.562   3.031
    1C        C  180   4.086   2.659   3.153
    1C        C  181   4.024   2.626   3.275
    1C        C  182   4.195   2.746   3.398
    1C        C  183   4.084   2.659   3.399
    1C        C  184   4.246   2.799   3.518
    1C        C  185   4.199   2.747   3.641
    1C        C  186   4.340   2.911   3.762
    1C        C  187   4.250   2.802   3.762
    1C        C  188   4.376   2.974   3.883
    1C        C  189   4.332   2.921   4.006
    1C        C  190   4.444   3.099   4.125
    1C        C  191   4.379   2.974   4.129
    1C        C  192   4.466   3.168   4.247
    1C        C  193   4.438   3.106   4.371
    1C        C  194   4.500   3.312   4.491
    1C        C  195   4.460   3.176   4.491
    1C        C  196   4.517   3.382   4.613
    1C        C  197   4.511   3.315   4.736
    1C        C  198   4.554   3.533   4.849
    1C        C  199   4.530   3.392   4.854
    1C        C  200   4.584   3.619   4.959
    1C        C  201   3.611   2.422   2.067
    1C        C  202   3.821   2.511   2.179
    1C        C  203   3.687   2.462   2.182
    1C        C  204   3.894   2.541   2.297
    1C        C  205   3.827   2.519   2.420
    1C        C  206   4.016   2.618   2.543
    1C        C  207   3.891   2.553   2.541
    1C        C  208   4.079   2.658   2.663
    1C        C  209   4.020   2.623   2.786
    1C        C  210   4.197   2.741   2.905
    1C        C  211   4.082   2.659   2.908
    1C        C  212   4.247   2.792   3.027
    1C        C  213   4.194   2.750   3.151
    1C        C  214   4.333   2.906   3.271
    1C        C  215   4.246   2.795   3.275
    1C        C  216   4.371   2.966   3.393
    1C        C  217   4.334   2.910   3.518
    1C        C  218   4.441   3.095   3.638
    1C        C  219   4.379   2.968   3.638
    1C        C  220   4.461   3.166   3.758
    1C        C  221   4.439   3.101   3.882
    1C        C  222   4.502   3.303   4.002
    1C        C  223   4.471   3.165   4.003
    1C        C  224   4.512   3.375   4.123
    1C        C  225   4.499   3.305   4.246
    1C        C  226   4.517   3.518   4.363
    1C        C  227   4.511   3.377   4.367
    1C        C  228   4.516   3.593   4.484
    1C        C  229   4.524   3.523   4.606
    1C        C  230   4.496   3.737   4.725
    1C        C  231   4.528   3.598   4.726
    1C        C  232   4.493   3.816   4.842
    1C        C  233   4.545   3.754   4.956
    1C        C  234   4.019   2.606   2.063
    1C        C  235   3.893   2.545   2.064
    1C        C  236   4.083   2.649   2.180
    1C        C  237   4.020   2.607   2.299
    1C        C  238   4.198   2.726   2.420
    1C        C  239   4.082   2.643   2.421
    1C        C  240   4.255   2.774   2.540
    1C        C  241   4.198   2.735   2.663
    1C        C  242   4.341   2.895   2.782
    1C        C  243   4.252   2.786   2.783
    1C        C  244   4.379   2.953   2.905
    1C        C  245   4.340   2.898   3.029
    1C        C  246   4.440   3.089   3.144
    1C        C  247   4.379   2.962   3.150
    1C        C  248   4.458   3.156   3.267
    1C        C  249   4.435   3.092   3.390
    1C        C  250   4.490   3.296   3.512
    1C        C  251   4.458   3.158   3.513
    1C        C  252   4.506   3.370   3.631
    1C        C  253   4.497   3.302   3.755
    1C        C  254   4.518   3.511   3.876
    1C        C  255   4.512   3.370   3.878
    1C        C  256   4.511   3.585   3.996
    1C        C  257   4.515   3.516   4.119
    1C        C  258   4.487   3.727   4.237
    1C        C  259   4.511   3.588   4.241
    1C        C  260   4.471   3.797   4.359
    1C        C  261   4.486   3.731   4.483
    1C        C  262   4.413   3.932   4.600
    1C        C  263   4.468   3.802   4.603
    1C        C  264   4.396   4.005   4.720
    1C        C  265   4.434   3.945   4.842
    1C        C  266   4.317   4.127   4.954
    1C        C  267   4.393   4.010   4.959
    1C        C  268   4.262   2.771   2.062
    1C        C  269   4.197   2.731   2.180
    1C        C  270   4.349   2.882   2.298
    1C        C  271   4.252   2.778   2.301
    1C        C  272   4.382   2.950   2.417
    1C        C  273   4.341   2.886   2.536
    1C        C  274   4.444   3.074   2.658
    1C        C  275   4.379   2.949   2.657
    1C        C  276   4.467   3.146   2.777
    1C        C  277   4.439   3.081   2.900
    1C        C  278   4.501   3.287   3.020
    1C        C  279   4.469   3.149   3.020
    1C        C  280   4.509   3.358   3.142
    1C        C  281   4.491   3.294   3.267
    1C        C  282   4.515   3.505   3.388
    1C        C  283   4.502   3.365   3.389
    1C        C  284   4.513   3.579   3.508
    1C        C  285   4.516   3.511   3.632
    1C        C  286   4.490   3.722   3.751
    1C        C  287   4.516   3.582   3.754
    1C        C  288   4.465   3.791   3.872
    1C        C  289   4.484   3.723   3.995
    1C        C  290   4.426   3.931   4.111
    1C        C  291   4.470   3.796   4.115
    1C        C  292   4.390   3.992   4.234
    1C        C  293   4.417   3.928   4.357
    1C        C  294   4.321   4.121   4.477
    1C        C  295   4.386   3.996   4.476
    1C        C  296   4.283   4.186   4.597
    1C        C  297   4.321   4.125   4.719
    1C        C  298   4.200   4.311   4.837
    1C        C  299   4.282   4.194   4.837
    1C        C  300   4.170   4.404   4.942
    1C        C  301   4.350   2.879   2.062
    1C        C  302   4.469   3.066   2.174
    1C        C  303   4.398   2.941   2.178
    1C        C  304   4.480   3.142   2.293
    1C        C  305   4.447   3.076   2.414
    1C        C  306   4.506   3.277   2.535
    1C        C  307   4.477   3.139   2.536
    1C        C  308   4.513   3.353   2.654
    1C        C  309   4.501   3.283   2.776
    1C        C  310   4.519   3.497   2.899
    1C        C  311   4.510   3.356   2.897
    1C        C  312   4.507   3.570   3.019
    1C        C  313   4.510   3.499   3.141
    1C        C  314   4.491   3.710   3.260
    1C        C  315   4.515   3.571   3.262
    1C        C  316   4.472   3.782   3.380
    1C        C  317   4.487   3.718   3.506
    1C        C  318   4.419   3.918   3.625
    1C        C  319   4.472   3.788   3.628
    1C        C  320   4.392   3.988   3.745
    1C        C  321   4.422   3.925   3.868
    1C        C  322   4.311   4.108   3.991
    1C        C  323   4.392   3.992   3.989
    1C        C  324   4.267   4.167   4.112
    1C        C  325   4.314   4.111   4.233
    1C        C  326   4.184   4.280   4.353
    1C        C  327   4.278   4.175   4.354
    1C        C  328   4.135   4.338   4.473
    1C        C  329   4.190   4.292   4.595
    1C        C  330   4.024   4.432   4.711
    1C        C  331   4.142   4.352   4.713
    1C        C  332   3.970   4.492   4.827
    1C        C  333   4.052   4.478   4.940
    1C        C  334   4.549   3.261   2.058
    1C        C  335   4.533   3.122   2.059
    1C        C  336   4.534   3.347   2.168
    1C        C  337   4.514   3.280   2.290
    1C        C  338   4.517   3.490   2.410
    1C        C  339   4.518   3.349   2.413
    1C        C  340   4.519   3.562   2.531
    1C        C  341   4.518   3.494   2.654
    1C        C  342   4.489   3.705   2.772
    1C        C  343   4.514   3.566   2.776
    1C        C  344   4.472   3.779   2.891
    1C        C  345   4.487   3.710   3.014
    1C        C  346   4.421   3.909   3.137
    1C        C  347   4.471   3.777   3.137
    1C        C  348   4.387   3.975   3.258
    1C        C  349   4.422   3.914   3.380
    1C        C  350   4.313   4.099   3.500
    1C        C  351   4.388   3.979   3.501
    1C        C  352   4.268   4.157   3.621
    1C        C  353   4.310   4.103   3.744
    1C        C  354   4.172   4.263   3.866
    1C        C  355   4.266   4.158   3.867
    1C        C  356   4.116   4.311   3.986
    1C        C  357   4.170   4.269   4.109
    1C        C  358   4.012   4.407   4.225
    1C        C  359   4.127   4.324   4.232
    1C        C  360   3.954   4.446   4.348
    1C        C  361   4.020   4.419   4.470
    1C        C  362   3.826   4.513   4.590
    1C        C  363   3.956   4.457   4.590
    1C        C  364   3.759   4.538   4.711
    1C        C  365   3.835   4.530   4.830
    1C        C  366   3.623   4.586   4.949
    1C        C  367   3.760   4.559   4.945
    1C        C  368   4.513   3.561   2.049
    1C        C  369   4.517   3.487   2.168
    1C        C  370   4.491   3.701   2.285
    1C        C  371   4.511   3.562   2.288
    1C        C  372   4.477   3.771   2.407
    1C        C  373   4.498   3.702   2.529
    1C        C  374   4.419   3.902   2.648
    1C        C  375   4.471   3.771   2.649
    1C        C  376   4.395   3.972   2.768
    1C        C  377   4.428   3.913   2.892
    1C        C  378   4.315   4.092   3.011
    1C        C  379   4.392   3.973   3.015
    1C        C  380   4.270   4.151   3.131
    1C        C  381   4.309   4.092   3.254
    1C        C  382   4.170   4.252   3.373
    1C        C  383   4.267   4.149   3.376
    1C        C  384   4.115   4.300   3.495
    1C        C  385   4.172   4.261   3.618
    1C        C  386   4.006   4.386   3.741
    1C        C  387   4.126   4.312   3.741
    1C        C  388   3.943   4.430   3.860
    1C        C  389   4.005   4.400   3.983
    1C        C  390   3.816   4.494   4.109
    1C        C  391   3.948   4.443   4.105
    1C        C  392   3.749   4.520   4.230
    1C        C  393   3.825   4.502   4.349
    1C        C  394   3.614   4.545   4.472
    1C        C  395   3.754   4.527   4.469
    1C        C  396   3.541   4.553   4.592
    1C        C  397   3.619   4.555   4.710
    1C        C  398   3.410   4.536   4.836
    1C        C  399   3.549   4.563   4.832
    1C        C  400   3.337   4.512   4.953
    1C        C  401   4.508   3.700   2.048
    1C        C  402   4.445   3.910   2.166
    1C        C  403   4.482   3.774   2.164
    1C        C  404   4.409   3.975   2.286
    1C        C  405   4.428   3.903   2.406
    1C        C  406   4.316   4.088   2.522
    1C        C  407   4.390   3.968   2.526
    1C        C  408   4.272   4.145   2.644
    1C        C  409   4.313   4.087   2.766
    1C        C  410   4.171   4.245   2.885
    1C        C  411   4.268   4.142   2.888
    1C        C  412   4.121   4.297   3.006
    1C        C  413   4.170   4.251   3.131
    1C        C  414   3.999   4.379   3.251
    1C        C  415   4.117   4.300   3.252
    1C        C  416   3.938   4.413   3.374
    1C        C  417   4.000   4.380   3.497
    1C        C  418   3.811   4.474   3.618
    1C        C  419   3.940   4.416   3.620
    1C        C  420   3.747   4.508   3.739
    1C        C  421   3.814   4.486   3.862
    1C        C  422   3.609   4.528   3.983
    1C        C  423   3.748   4.501   3.985
    1C        C  424   3.541   4.536   4.107
    1C        C  425   3.610   4.542   4.230
    1C        C  426   3.397   4.545   4.354
    1C        C  427   3.539   4.549   4.352
    1C        C  428   3.328   4.539   4.477
    1C        C  429   3.400   4.550   4.599
    1C        C  430   3.189   4.514   4.723
    1C        C  431   3.330   4.535   4.720
    1C        C  432   3.119   4.487   4.844
    1C        C  433   3.201   4.484   4.958
    1C        C  434   4.386   4.117   2.054
    1C        C  435   4.448   3.992   2.052
    1C        C  436   4.299   4.158   2.159
    1C        C  437   4.328   4.092   2.282
    1C        C  438   4.176   4.247   2.399
    1C        C  439   4.277   4.148   2.401
    1C        C  440   4.120   4.289   2.521
    1C        C  441   4.173   4.246   2.645
    1C        C  442   4.002   4.379   2.765
    1C        C  443   4.116   4.295   2.765
    1C        C  444   3.939   4.416   2.886
    1C        C  445   4.003   4.374   3.005
    1C        C  446   3.810   4.465   3.127
    1C        C  447   3.940   4.410   3.127
    1C        C  448   3.742   4.487   3.249
    1C        C  449   3.809   4.471   3.372
    1C        C  450   3.607   4.527   3.495
    1C        C  451   3.745   4.497   3.495
    1C        C  452   3.537   4.537   3.618
    1C        C  453   3.608   4.535   3.740
    1C        C  454   3.397   4.543   3.862
    1C        C  455   3.538   4.545   3.862
    1C        C  456   3.330   4.530   3.986
    1C        C  457   3.400   4.534   4.108
    1C        C  458   3.192   4.500   4.233
    1C        C  459   3.330   4.531   4.231
    1C        C  460   3.123   4.485   4.355
    1C        C  461   3.191   4.504   4.477
    1C        C  462   2.995   4.430   4.600
    1C        C  463   3.125   4.485   4.601
    1C        C  464   2.927   4.395   4.718
    1C        C  465   2.985   4.439   4.841
    1C        C  466   2.797   4.335   4.955
    1C        C  467   2.905   4.423   4.959
    1C        C  468   4.123   4.285   2.037
    1C        C  469   4.185   4.245   2.156
    1C        C  470   4.005   4.370   2.277
    1C        C  471   4.123   4.291   2.276
    1C        C  472   3.939   4.402   2.398
    1C        C  473   4.002   4.367   2.520
    1C        C  474   3.812   4.461   2.640
    1C        C  475   3.944   4.411   2.640
    1C        C  476   3.743   4.490   2.760
    1C        C  477   3.810   4.473   2.882
    1C        C  478   3.604   4.514   3.007
    1C        C  479   3.743   4.491   3.005
    1C        C  480   3.533   4.519   3.129
    1C        C  481   3.604   4.514   3.251
    1C        C  482   3.394   4.537   3.373
    1C        C  483   3.535   4.530   3.373
    1C        C  484   3.326   4.534   3.497
    1C        C  485   3.396   4.544   3.619
    1C        C  486   3.189   4.501   3.741
    1C        C  487   3.324   4.542   3.741
    1C        C  488   3.126   4.474   3.865
    1C        C  489   3.193   4.496   3.987
    1C        C  490   2.999   4.415   4.113
    1C        C  491   3.126   4.477   4.110
    1C        C  492   2.939   4.380   4.236
    1C        C  493   2.994   4.426   4.358
    1C        C  494   2.823   4.302   4.478
    1C        C  495   2.931   4.394   4.479
    1C        C  496   2.767   4.256   4.600
    1C        C  497   2.813   4.310   4.722
    1C        C  498   2.657   4.163   4.844
    1C        C  499   2.747   4.272   4.840
    1C        C  500   2.592   4.110   4.956
    1C        C  501   4.002   4.355   2.039
    1C        C  502   3.816   4.468   2.154
    1C        C  503   3.940   4.401   2.156
    1C        C  504   3.744   4.480   2.275
    1C        C  505   3.810   4.459   2.398
    1C        C  506   3.602   4.509   2.518
    1C        C  507   3.741   4.482   2.519
    1C        C  508   3.531   4.522   2.639
    1C        C  509   3.604   4.513   2.760
    1C        C  510   3.394   4.513   2.884
    1C        C  511   3.535   4.519   2.883
    1C        C  512   3.322   4.517   3.005
    1C        C  513   3.392   4.525   3.128
    1C        C  514   3.186   4.488   3.252
    1C        C  515   3.323   4.524   3.251
    1C        C  516   3.122   4.462   3.375
    1C        C  517   3.190   4.496   3.494
    1C        C  518   3.001   4.407   3.624
    1C        C  519   3.126   4.472   3.618
    1C        C  520   2.939   4.371   3.746
    1C        C  521   3.002   4.406   3.868
    1C        C  522   2.835   4.280   3.991
    1C        C  523   2.946   4.367   3.992
    1C        C  524   2.785   4.235   4.116
    1C        C  525   2.831   4.289   4.238
    1C        C  526   2.692   4.129   4.360
    1C        C  527   2.776   4.242   4.359
    1C        C  528   2.648   4.076   4.484
    1C        C  529   2.684   4.142   4.604
    1C        C  530   2.584   3.956   4.729
    1C        C  531   2.636   4.089   4.726
    1C        C  532   2.537   3.898   4.850
    1C        C  533   2.521   3.990   4.959
    1C        C  534   3.615   4.558   2.036
    1C        C  535   3.748   4.515   2.041
    1C        C  536   3.536   4.534   2.153
    1C        C  537   3.604   4.507   2.274
    1C        C  538   3.391   4.514   2.397
    1C        C  539   3.532   4.515   2.396
    1C        C  540   3.319   4.514   2.518
    1C        C  541   3.390   4.515   2.640
    1C        C  542   3.181   4.485   2.763
    1C        C  543   3.321   4.505   2.763
    1C        C  544   3.118   4.461   2.887
    1C        C  545   3.184   4.486   3.009
    1C        C  546   2.989   4.405   3.131
    1C        C  547   3.115   4.468   3.131
    1C        C  548   2.936   4.365   3.256
    1C        C  549   2.995   4.401   3.380
    1C        C  550   2.830   4.276   3.504
    1C        C  551   2.938   4.367   3.504
    1C        C  552   2.784   4.224   3.627
    1C        C  553   2.834   4.277   3.748
    1C        C  554   2.695   4.118   3.873
    1C        C  555   2.783   4.229   3.871
    1C        C  556   2.655   4.062   3.997
    1C        C  557   2.701   4.121   4.116
    1C        C  558   2.586   3.944   4.244
    1C        C  559   2.653   4.069   4.239
    1C        C  560   2.558   3.880   4.366
    1C        C  561   2.584   3.950   4.486
    1C        C  562   2.527   3.749   4.613
    1C        C  563   2.559   3.886   4.609
    1C        C  564   2.513   3.679   4.735
    1C        C  565   2.515   3.757   4.854
    1C        C  566   2.528   3.542   4.977
    1C        C  567   2.519   3.681   4.972
    1C        C  568   3.324   4.475   2.038
    1C        C  569   3.395   4.511   2.154
    1C        C  570   3.182   4.473   2.277
    1C        C  571   3.321   4.505   2.274
    1C        C  572   3.114   4.455   2.400
    1C        C  573   3.181   4.483   2.521
    1C        C  574   2.983   4.406   2.645
    1C        C  575   3.111   4.465   2.642
    1C        C  576   2.924   4.364   2.767
    1C        C  577   2.993   4.395   2.886
    1C        C  578   2.824   4.272   3.013
    1C        C  579   2.934   4.360   3.009
    1C        C  580   2.774   4.225   3.137
    1C        C  581   2.825   4.278   3.258
    1C        C  582   2.695   4.113   3.382
    1C        C  583   2.779   4.227   3.381
    1C        C  584   2.657   4.057   3.506
    1C        C  585   2.695   4.114   3.629
    1C        C  586   2.593   3.930   3.754
    1C        C  587   2.659   4.055   3.752
    1C        C  588   2.569   3.866   3.878
    1C        C  589   2.598   3.933   3.999
    1C        C  590   2.536   3.736   4.128
    1C        C  591   2.566   3.874   4.123
    1C        C  592   2.516   3.670   4.251
    1C        C  593   2.526   3.742   4.372
    1C        C  594   2.508   3.531   4.495
    1C        C  595   2.516   3.672   4.494
    1C        C  596   2.518   3.463   4.618
    1C        C  597   2.512   3.537   4.739
    1C        C  598   2.537   3.325   4.861
    1C        C  599   2.525   3.465   4.860
    1C        C  600   2.531   3.248   4.978
    1C        C  601   3.192   4.438   2.042
    1C        C  602   2.977   4.394   2.157
    1C        C  603   3.112   4.442   2.157
    1C        C  604   2.920   4.361   2.283
    1C        C  605   2.989   4.391   2.403
    1C        C  606   2.817   4.270   2.527
    1C        C  607   2.924   4.361   2.525
    1C        C  608   2.769   4.216   2.649
    1C        C  609   2.818   4.270   2.770
    1C        C  610   2.687   4.106   2.893
    1C        C  611   2.769   4.221   2.893
    1C        C  612   2.649   4.050   3.017
    1C        C  613   2.691   4.111   3.138
    1C        C  614   2.591   3.926   3.264
    1C        C  615   2.655   4.052   3.261
    1C        C  616   2.567   3.863   3.388
    1C        C  617   2.600   3.928   3.509
    1C        C  618   2.528   3.729   3.634
    1C        C  619   2.568   3.865   3.631
    1C        C  620   2.517   3.663   3.758
    1C        C  621   2.530   3.731   3.881
    1C        C  622   2.507   3.525   4.008
    1C        C  623   2.518   3.666   4.006
    1C        C  624   2.513   3.455   4.130
    1C        C  625   2.510   3.529   4.251
    1C        C  626   2.532   3.321   4.377
    1C        C  627   2.507   3.460   4.373
    1C        C  628   2.552   3.249   4.497
    1C        C  629   2.538   3.323   4.617
    1C        C  630   2.594   3.119   4.744
    1C        C  631   2.549   3.254   4.739
    1C        C  632   2.620   3.048   4.864
    1C        C  633   2.566   3.112   4.981
    1C        C  634   2.778   4.303   2.054
    1C        C  635   2.888   4.389   2.045
    1C        C  636   2.747   4.228   2.168
    1C        C  637   2.807   4.274   2.287
    1C        C  638   2.671   4.109   2.406
    1C        C  639   2.758   4.220   2.408
    1C        C  640   2.640   4.047   2.529
    1C        C  641   2.681   4.106   2.650
    1C        C  642   2.585   3.917   2.774
    1C        C  643   2.646   4.044   2.773
    1C        C  644   2.562   3.854   2.898
    1C        C  645   2.592   3.921   3.018
    1C        C  646   2.528   3.722   3.146
    1C        C  647   2.569   3.857   3.142
    1C        C  648   2.517   3.654   3.269
    1C        C  649   2.532   3.726   3.390
    1C        C  650   2.506   3.518   3.517
    1C        C  651   2.514   3.659   3.513
    1C        C  652   2.516   3.449   3.640
    1C        C  653   2.512   3.522   3.762
    1C        C  654   2.534   3.314   3.889
    1C        C  655   2.510   3.454   3.886
    1C        C  656   2.553   3.246   4.012
    1C        C  657   2.536   3.316   4.133
    1C        C  658   2.606   3.118   4.257
    1C        C  659   2.555   3.250   4.257
    1C        C  660   2.629   3.052   4.380
    1C        C  661   2.601   3.117   4.502
    1C        C  662   2.707   2.934   4.622
    1C        C  663   2.629   3.052   4.624
    1C        C  664   2.747   2.876   4.744
    1C        C  665   2.693   2.925   4.866
    1C        C  666   2.745   2.866   4.982
    1C        C  667   2.674   4.023   2.049
    1C        C  668   2.683   4.102   2.164
    1C        C  669   2.590   3.910   2.290
    1C        C  670   2.646   4.040   2.286
    1C        C  671   2.553   3.848   2.411
    1C        C  672   2.582   3.918   2.531
    1C        C  673   2.513   3.716   2.656
    1C        C  674   2.559   3.850   2.652
    1C        C  675   2.504   3.649   2.780
    1C        C  676   2.523   3.718   2.902
    1C        C  677   2.499   3.509   3.027
    1C        C  678   2.512   3.650   3.025
    1C        C  679   2.501   3.442   3.151
    1C        C  680   2.503   3.513   3.273
    1C        C  681   2.533   3.306   3.398
    1C        C  682   2.504   3.445   3.397
    1C        C  683   2.553   3.240   3.521
    1C        C  684   2.537   3.310   3.643
    1C        C  685   2.599   3.112   3.768
    1C        C  686   2.551   3.245   3.768
    1C        C  687   2.635   3.051   3.890
    1C        C  688   2.603   3.114   4.012
    1C        C  689   2.708   2.932   4.137
    1C        C  690   2.631   3.051   4.135
    1C        C  691   2.750   2.875   4.259
    1C        C  692   2.706   2.934   4.380
    1C        C  693   2.749   2.875   4.501
    1C        C  694   2.630   3.891   2.059
    1C        C  695   2.522   3.701   2.175
    1C        C  696   2.573   3.833   2.173
    1C        C  697   2.503   3.635   2.298
    1C        C  698   2.514   3.712   2.416
    1C        C  699   2.492   3.501   2.542
    1C        C  700   2.497   3.642   2.537
    1C        C  701   2.506   3.434   2.665
    1C        C  702   2.498   3.508   2.785
    1C        C  703   2.525   3.297   2.908
    1C        C  704   2.500   3.436   2.906
    1C        C  705   2.547   3.233   3.032
    1C        C  706   2.525   3.303   3.153
    1C        C  707   2.599   3.105   3.279
    1C        C  708   2.547   3.237   3.276
    1C        C  709   2.632   3.042   3.400
    1C        C  710   2.601   3.107   3.522
    1C        C  711   2.706   2.928   3.645
    1C        C  712   2.629   3.047   3.646
    1C        C  713   2.754   2.878   3.769
    1C        C  714   2.713   2.933   3.892
    1C        C  715   2.750   2.873   4.015
    1C        C  716   2.447   3.496   2.062
    1C        C  717   2.494   3.628   2.059
    1C        C  718   2.470   3.419   2.180
    1C        C  719   2.483   3.494   2.300
    1C        C  720   2.519   3.287   2.423
    1C        C  721   2.485   3.424   2.423
    1C        C  722   2.544   3.221   2.545
    1C        C  723   2.531   3.295   2.665
    1C        C  724   2.596   3.094   2.791
    1C        C  725   2.546   3.226   2.788
    1C        C  726   2.624   3.032   2.914
    1C        C  727   2.600   3.102   3.035
    1C        C  728   2.704   2.918   3.157
    1C        C  729   2.631   3.039   3.158
    1C        C  730   2.752   2.867   3.279
    1C        C  731   2.707   2.922   3.401
    1C        C  732   2.745   2.866   3.525
    1C        C  733   2.485   3.193   2.070
    1C        C  734   2.486   3.276   2.182
    1C        C  735   2.587   3.084   2.302
    1C        C  736   2.530   3.215   2.302
    1C        C  737   2.618   3.018   2.423
    1C        C  738   2.594   3.089   2.543
    1C        C  739   2.697   2.909   2.670
    1C        C  740   2.628   3.031   2.668
    1C        C  741   2.741   2.854   2.792
    1C        C  742   2.702   2.915   2.914
    1C        C  743   2.748   2.861   3.036
    1C        C  744   2.544   3.066   2.069
    1C        C  745   2.680   2.892   2.185
    1C        C  746   2.607   3.013   2.182
    1C        C  747   2.729   2.834   2.304
    1C        C  748   2.692   2.898   2.425
    1C        C  749   2.731   2.843   2.549
    1C        C  750   2.736   2.835   2.071
    1C        C  751   3.658   2.316   1.975
    1C        O  752   3.665   2.195   2.009
    1C        O  753   3.674   2.337   1.837
    1C        C  754   4.634   3.041   1.988
    1C        O  755   4.630   3.021   1.864
    1C        O  756   4.763   3.019   2.039
    1C        C  757   4.468   4.219   1.984
    1C        O  758   4.578   4.257   2.031
    1C        O  759   4.423   4.285   1.869
    1C        C  760   3.594   4.683   1.959
    1C        O  761   3.646   4.788   2.004
    1C        O  762   3.569   4.678   1.821
    1C        C  763   2.870   4.493   1.942
    1C        O  764   2.913   4.464   1.827
    1C        O  765   2.810   4.620   1.948
    1C        C  766   2.336   3.482   1.965
    1C        O  767   2.343   3.412   1.861
    1C        O  768   2.205   3.532   1.978
    1C        C  769   4.691   3.585   5.056
    1C        O  770   4.670   3.603   5.179
    1C        O  771   4.826   3.593   5.019
    1C        C  772   4.281   4.461   5.021
    1C        O  773   4.279   4.453   5.147
    1C        O  774   4.349   4.573   4.971
    1C        C  775   4.138   2.539   5.085
    1C        O  776   4.239   2.469   5.054
    1C        O  777   4.088   2.530   5.216
    1C        C  778   2.870   4.533   5.052
    1C        O  779   2.829   4.644   5.008
    1C        O  780   2.914   4.532   5.185
    1C        C  781   2.466   3.038   5.061
    1C        O  782   2.369   2.981   5.005
    1C        O  783   2.480   3.025   5.199
    1C        C  784   2.399   3.989   5.044
    1C        O  785   2.301   4.057   5.003
    1C        O  786   2.419   3.977   5.182
    1C        C  787   2.949   2.388   2.046
    1C        O  788   2.874   2.402   1.946
    1C        O  789   2.951   2.258   2.097
    1C        C  790   3.154   2.360   5.046
    1C        O  791   3.221   2.257   5.018
    1C        O  792   3.135   2.358   5.184
    1C        H  793   4.259   3.033   5.045
    1C        H  794   4.224   2.789   5.063
    1C        H  795   4.499   3.115   5.054
    1C        H  796   4.539   3.356   5.065
    1C        H  797   4.595   3.816   5.027
    1C        H  798   4.450   3.995   5.048
    1C        H  799   4.286   4.177   5.044
    1C        H  800   4.016   4.522   5.031
    1C        H  801   3.809   4.621   5.018
    1C        H  802   3.575   4.626   5.035
    1C        H  803   3.382   4.521   5.050
    1C        H  804   3.169   4.423   5.039
    1C        H  805   3.891   2.460   5.056
    1C        H  806   3.668   2.452   5.075
    1C        H  807   2.996   2.555   5.058
    1C        H  808   3.447   2.417   5.055
    1C        H  809   2.847   2.702   5.067
    1C        H  810   2.710   2.906   5.074
    1C        H  811   2.510   3.292   5.073
    1C        H  812   2.571   3.497   5.064
    1C        H  813   2.503   3.727   5.067
    1C        H  814   2.639   4.132   5.050
    1C        H  815   2.748   4.312   5.048
    1C        H  816   2.726   2.887   1.978
    1C        H  817   2.838   2.685   1.970
    1C        H  818   3.208   2.438   1.983
    1C        H  819   3.427   2.460   1.974
    1C        H  820   3.854   2.535   1.965
    1C        H  821   4.083   2.583   1.980
    1C        H  822   4.275   2.698   1.985
    1C        H  823   4.385   2.910   1.966
    1C        H  824   4.600   3.300   1.972
    1C        H  825   4.476   3.512   1.962
    1C        H  826   4.549   3.747   1.961
    1C        H  827   3.811   4.533   1.957
    1C        H  828   3.955   4.376   1.945
    1C        H  829   4.127   4.216   1.956
    1C        H  830   4.514   3.965   1.972
    1C        H  831   2.679   3.824   1.991
    1C        H  832   2.730   4.052   1.962
    1C        H  833   2.730   4.270   1.963
    1C        H  834   3.380   4.420   1.966
    1C        H  835   3.157   4.363   1.973
    1C        H  836   2.519   3.004   1.986
    1C        H  837   2.400   3.206   2.007
    1C        H  838   2.496   3.673   1.962
    2V3OU   H29  839   2.803   3.547   1.464
    2V3OU   C27  840   2.777   3.500   1.562
    2V3OU   H27  841   2.711   3.568   1.622
    2V3OU   H28  842   2.727   3.401   1.547
    2V3OU   O11  843   2.905   3.478   1.623
    2V3OU   C15  844   2.920   3.393   1.731
    2V3OU   C13  845   3.050   3.367   1.781
    2V3OU   C14  846   3.074   3.263   1.871
    2V3OU   C16  847   2.969   3.184   1.917
    2V3OU    H6  848   2.988   3.095   1.978
    2V3OU   C12  849   3.212   3.225   1.910
    2V3OU    O2  850   3.233   3.123   1.978
    2V3OU   C10  851   3.324   3.306   1.861
    2V3OU    C8  852   3.455   3.264   1.876
    2V3OU   O10  853   3.490   3.149   1.941
    2V3OU   H26  854   3.405   3.118   1.977
    2V3OU    C6  855   3.560   3.346   1.823
    2V3OU    C5  856   3.533   3.461   1.749
    2V3OU    C4  857   3.698   3.291   1.825
    2V3OU    H4  858   3.720   3.221   1.911
    2V3OU    H5  859   3.707   3.230   1.731
    2V3OU    C2  860   3.807   3.399   1.824
    2V3OU    O6  861   3.797   3.475   1.945
    2V3OU   H21  862   3.753   3.551   1.905
    2V3OU    C3  863   3.773   3.488   1.704
    2V3OU    H2  864   3.854   3.565   1.700
    2V3OU    H3  865   3.778   3.433   1.607
    2V3OU   C25  866   3.941   3.328   1.801
    2V3OU    O7  867   3.991   3.299   1.693
    2V3OU   C26  868   4.024   3.283   1.920
    2V3OU   H22  869   4.064   3.376   1.968
    2V3OU   H23  870   4.109   3.219   1.886
    2V3OU    O8  871   3.955   3.203   2.015
    2V3OU   H24  872   3.932   3.258   2.092
    2V3OU    C1  873   3.640   3.560   1.715
    2V3OU    H1  874   3.624   3.617   1.619
    2V3OU    O3  875   3.660   3.648   1.826
    2V3OU   C19  876   3.617   3.785   1.823
    2V3OU    H9  877   3.521   3.799   1.764
    2V3OU    O4  878   3.708   3.839   1.730
    2V3OU   C20  879   3.840   3.870   1.776
    2V3OU   H10  880   3.887   3.770   1.802
    2V3OU   C24  881   3.608   3.851   1.960
    2V3OU   H16  882   3.543   3.790   2.029
    2V3OU   H17  883   3.566   3.954   1.951
    2V3OU   C23  884   3.750   3.871   2.014
    2V3OU   H15  885   3.793   3.767   2.028
    2V3OU    N1  886   3.738   3.957   2.131
    2V3OU   H19  887   3.801   3.926   2.202
    2V3OU   H20  888   3.647   3.936   2.164
    2V3OU   C21  889   3.844   3.941   1.912
    2V3OU   H11  890   3.949   3.919   1.945
    2V3OU    O5  891   3.823   4.082   1.910
    2V3OU   H18  892   3.781   4.102   1.995
    2V3OU   C22  893   3.909   3.944   1.663
    2V3OU   H12  894   3.859   4.043   1.647
    2V3OU   H13  895   3.901   3.884   1.568
    2V3OU   H14  896   4.017   3.956   1.687
    2V3OU   C11  897   3.157   3.463   1.750
    2V3OU    O1  898   3.136   3.579   1.707
    2V3OU    C9  899   3.295   3.421   1.782
    2V3OU    C7  900   3.397   3.498   1.727
    2V3OU    O9  901   3.385   3.613   1.651
    2V3OU   H25  902   3.289   3.630   1.648
    2V3OU   C17  903   2.816   3.313   1.781
    2V3OU    H7  904   2.715   3.334   1.746
    2V3OU   C18  905   2.841   3.208   1.869
    2V3OU    H8  906   2.757   3.149   1.909
    3SOL     OW  907   1.432   3.238   1.607
    3SOL    HW1  908   1.400   3.302   1.537
    3SOL    HW2  909   1.528   3.216   1.591
    4SOL     OW  910   5.807   0.299   1.877
    4SOL    HW1  911   5.707   0.295   1.882
    4SOL    HW2  912   5.835   0.347   1.794
    5SOL     OW  913   3.862   1.845   0.880
    5SOL    HW1  914   3.766   1.857   0.855
    5SOL    HW2  915   3.868   1.802   0.970
    6SOL     OW  916   2.842   1.975   1.799
    6SOL    HW1  917   2.891   1.995   1.883
    6SOL    HW2  918   2.858   2.048   1.732
    7SOL     OW  919   5.732   1.691   2.232
    7SOL    HW1  920   5.790   1.772   2.237
    7SOL    HW2  921   5.676   1.696   2.149
    8SOL     OW  922   2.775   0.906   4.053
    8SOL    HW1  923   2.713   0.884   3.979
    8SOL    HW2  924   2.736   0.874   4.140
    9SOL     OW  925   1.395   3.955   5.764
    9SOL    HW1  926   1.327   3.915   5.825
    9SOL    HW2  927   1.455   4.016   5.816
   10SOL     OW  928   1.205   4.374   6.517
   10SOL    HW1  929   1.266   4.408   6.589
   10SOL    HW2  930   1.143   4.306   6.556
   11SOL     OW  931   4.090   6.829   0.265
   11SOL    HW1  932   4.036   6.857   0.186
   11SOL    HW2  933   4.178   6.876   0.264
   12SOL     OW  934   5.580   6.099   2.565
   12SOL    HW1  935   5.653   6.168   2.565
   12SOL    HW2  936   5.586   6.044   2.648
   13SOL     OW  937   2.611   6.210   3.509
   13SOL    HW1  938   2.585   6.293   3.558
   13SOL    HW2  939   2.609   6.227   3.411
   14SOL     OW  940   3.887   6.422   0.981
   14SOL    HW1  941   3.843   6.387   1.064
   14SOL    HW2  942   3.830   6.401   0.902
   15SOL     OW  943   1.454   6.789   6.791
   15SOL    HW1  944   1.414   6.700   6.812
   15SOL    HW2  945   1.471   6.839   6.876
   16SOL     OW  946   6.153   2.506   5.958
   16SOL    HW1  947   6.075   2.553   6.000
   16SOL    HW2  948   6.231   2.509   6.020
   17SOL     OW  949   5.222   6.563   4.286
   17SOL    HW1  950   5.204   6.624   4.208
   17SOL    HW2  951   5.151   6.493   4.290
   18SOL     OW  952   1.808   2.011   5.672
   18SOL    HW1  953   1.722   1.961   5.669
   18SOL    HW2  954   1.814   2.073   5.593
   19SOL     OW  955   0.568   6.988   2.402
   19SOL    HW1  956   0.538   6.943   2.486
   19SOL    HW2  957   0.532   0.064   2.399
   20SOL     OW  958   3.618   1.811   4.055
   20SOL    HW1  959   3.525   1.837   4.032
   20SOL    HW2  960   3.682   1.865   4.000
   21SOL     OW  961   2.853   2.017   1.506
   21SOL    HW1  962   2.883   1.922   1.508
   21SOL    HW2  963   2.830   2.044   1.413
   22SOL     OW  964   1.820   6.486   5.449
   22SOL    HW1  965   1.863   6.419   5.510
   22SOL    HW2  966   1.870   6.490   5.363
   23SOL     OW  967   4.408   6.238   4.482
   23SOL    HW1  968   4.417   6.181   4.564
   23SOL    HW2  969   4.397   6.334   4.508
   24SOL     OW  970   5.046   1.427   5.220
   24SOL    HW1  971   5.040   1.336   5.179
   24SOL    HW2  972   5.087   1.419   5.311
   25SOL     OW  973   3.744   5.772   0.555
   25SOL    HW1  974   3.828   5.756   0.606
   25SOL    HW2  975   3.667   5.734   0.606
   26SOL     OW  976   6.575   1.329   2.091
   26SOL    HW1  977   6.608   1.270   2.164
   26SOL    HW2  978   6.586   1.425   2.117
   27SOL     OW  979   6.239   0.050   2.602
   27SOL    HW1  980   6.334   0.068   2.577
   27SOL    HW2  981   6.192   0.006   2.526
   28SOL     OW  982   3.783   0.677   6.982
   28SOL    HW1  983   3.810   0.686   6.886
   28SOL    HW2  984   3.683   0.675   6.988
   29SOL     OW  985   4.542   2.464   1.331
   29SOL    HW1  986   4.515   2.502   1.243
   29SOL    HW2  987   4.635   2.426   1.323
   30SOL     OW  988   3.259   1.036   4.916
   30SOL    HW1  989   3.177   1.084   4.885
   30SOL    HW2  990   3.338   1.068   4.864
   31SOL     OW  991   0.755   1.001   5.247
   31SOL    HW1  992   0.821   0.987   5.321
   31SOL    HW2  993   0.800   1.048   5.171
   32SOL     OW  994   0.053   2.217   1.460
   32SOL    HW1  995   0.094   2.152   1.523
   32SOL    HW2  996   0.075   2.191   1.366
   33SOL     OW  997   1.786   2.626   6.277
   33SOL    HW1  998   1.831   2.671   6.355
   33SOL    HW2  999   1.760   2.695   6.210
   34SOL     OW 1000   1.757   0.183   4.579
   34SOL    HW1 1001   1.682   0.249   4.588
   34SOL    HW2 1002   1.755   0.120   4.656
   35SOL     OW 1003   5.173   1.538   6.905
   35SOL    HW1 1004   5.259   1.567   6.862
   35SOL    HW2 1005   5.191   1.504   6.997
   36SOL     OW 1006   1.899   1.633   5.155
   36SOL    HW1 1007   1.840   1.669   5.082
   36SOL    HW2 1008   1.952   1.708   5.195
   37SOL     OW 1009   3.301   6.735   1.528
   37SOL    HW1 1010   3.376   6.704   1.470
   37SOL    HW2 1011   3.315   6.832   1.550
   38SOL     OW 1012   7.009   6.531   3.054
   38SOL    HW1 1013   0.010   6.622   3.016
   38SOL    HW2 1014   0.067   6.503   3.112
   39SOL     OW 1015   6.870   3.119   5.183
   39SOL    HW1 1016   6.932   3.195   5.201
   39SOL    HW2 1017   6.808   3.144   5.109
   40SOL     OW 1018   6.496   0.961   2.162
   40SOL    HW1 1019   6.508   0.867   2.128
   40SOL    HW2 1020   6.410   0.966   2.213
   41SOL     OW 1021   1.199   6.624   5.265
   41SOL    HW1 1022   1.262   6.679   5.320
   41SOL    HW2 1023   1.138   6.572   5.324
   42SOL     OW 1024   3.441   0.450   0.190
   42SOL    HW1 1025   3.477   0.383   0.255
   42SOL    HW2 1026   3.373   0.407   0.131
   43SOL     OW 1027   5.543   6.446   5.503
   43SOL    HW1 1028   5.548   6.367   5.441
   43SOL    HW2 1029   5.635   6.481   5.521
   44SOL     OW 1030   0.785   2.819   6.321
   44SOL    HW1 1031   0.692   2.785   6.333
   44SOL    HW2 1032   0.844   2.782   6.393
   45SOL     OW 1033   2.334   0.671   1.699
   45SOL    HW1 1034   2.429   0.701   1.692
   45SOL    HW2 1035   2.311   0.651   1.794
   46SOL     OW 1036   1.534   4.224   4.621
   46SOL    HW1 1037   1.489   4.179   4.698
   46SOL    HW2 1038   1.587   4.302   4.654
   47SOL     OW 1039   6.849   4.435   3.581
   47SOL    HW1 1040   6.770   4.376   3.566
   47SOL    HW2 1041   6.870   4.440   3.679
   48SOL     OW 1042   0.507   2.058   5.039
   48SOL    HW1 1043   0.510   1.977   4.982
   48SOL    HW2 1044   0.415   2.070   5.076
   49SOL     OW 1045   4.535   2.747   0.652
   49SOL    HW1 1046   4.627   2.783   0.671
   49SOL    HW2 1047   4.494   2.714   0.738
   50SOL     OW 1048   6.566   3.990   4.375
   50SOL    HW1 1049   6.633   3.960   4.308
   50SOL    HW2 1050   6.609   4.056   4.438
   51SOL     OW 1051   3.378   4.874   2.780
   51SOL    HW1 1052   3.281   4.900   2.774
   51SOL    HW2 1053   3.407   4.836   2.692
   52SOL     OW 1054   2.225   1.741   2.048
   52SOL    HW1 1055   2.171   1.726   1.965
   52SOL    HW2 1056   2.209   1.834   2.081
   53SOL     OW 1057   4.935   6.627   4.409
   53SOL    HW1 1058   4.897   6.616   4.317
   53SOL    HW2 1059   4.990   6.711   4.412
   54SOL     OW 1060   3.877   5.051   5.782
   54SOL    HW1 1061   3.818   4.981   5.822
   54SOL    HW2 1062   3.973   5.023   5.789
   55SOL     OW 1063   3.981   2.287   6.472
   55SOL    HW1 1064   3.887   2.308   6.496
   55SOL    HW2 1065   4.012   2.207   6.523
   56SOL     OW 1066   0.924   0.206   2.499
   56SOL    HW1 1067   0.995   0.215   2.568
   56SOL    HW2 1068   0.956   0.146   2.425
   57SOL     OW 1069   5.446   1.037   0.308
   57SOL    HW1 1070   5.390   1.105   0.357
   57SOL    HW2 1071   5.537   1.033   0.350
   58SOL     OW 1072   0.501   6.018   6.964
   58SOL    HW1 1073   0.410   5.985   6.988
   58SOL    HW2 1074   0.558   5.940   6.935
   59SOL     OW 1075   1.488   0.351   6.093
   59SOL    HW1 1076   1.493   0.379   5.997
   59SOL    HW2 1077   1.533   0.419   6.150
   60SOL     OW 1078   4.079   0.406   5.266
   60SOL    HW1 1079   4.090   0.466   5.346
   60SOL    HW2 1080   4.069   0.312   5.297
   61SOL     OW 1081   4.771   0.219   4.222
   61SOL    HW1 1082   4.703   0.243   4.291
   61SOL    HW2 1083   4.752   0.268   4.137
   62SOL     OW 1084   1.850   0.464   4.157
   62SOL    HW1 1085   1.935   0.431   4.114
   62SOL    HW2 1086   1.822   0.400   4.229
   63SOL     OW 1087   6.900   2.634   3.174
   63SOL    HW1 1088   6.970   2.682   3.226
   63SOL    HW2 1089   6.942   2.588   3.095
   64SOL     OW 1090   6.410   3.916   6.508
   64SOL    HW1 1091   6.411   3.827   6.553
   64SOL    HW2 1092   6.395   3.903   6.410
   65SOL     OW 1093   6.800   4.905   5.112
   65SOL    HW1 1094   6.705   4.895   5.142
   65SOL    HW2 1095   6.801   4.935   5.017
   66SOL     OW 1096   3.035   0.659   6.951
   66SOL    HW1 1097   2.977   0.690   6.875
   66SOL    HW2 1098   2.979   0.608   7.016
   67SOL     OW 1099   5.172   5.683   4.858
   67SOL    HW1 1100   5.153   5.711   4.952
   67SOL    HW2 1101   5.131   5.749   4.794
   68SOL     OW 1102   6.057   2.224   5.939
   68SOL    HW1 1103   6.003   2.184   5.865
   68SOL    HW2 1104   6.030   2.319   5.952
   69SOL     OW 1105   2.877   4.115   6.208
   69SOL    HW1 1106   2.909   4.056   6.282
   69SOL    HW2 1107   2.806   4.176   6.244
   70SOL     OW 1108   0.077   5.269   3.074
   70SOL    HW1 1109   0.031   5.266   3.163
   70SOL    HW2 1110   0.086   5.176   3.038
   71SOL     OW 1111   1.889   3.233   3.386
   71SOL    HW1 1112   1.842   3.172   3.451
   71SOL    HW2 1113   1.875   3.200   3.293
   72SOL     OW 1114   2.569   5.662   3.901
   72SOL    HW1 1115   2.509   5.670   3.980
   72SOL    HW2 1116   2.543   5.728   3.831
   73SOL     OW 1117   3.922   1.973   0.435
   73SOL    HW1 1118   3.927   2.071   0.417
   73SOL    HW2 1119   3.876   1.928   0.358
   74SOL     OW 1120   5.238   6.325   6.525
   74SOL    HW1 1121   5.271   6.245   6.474
   74SOL    HW2 1122   5.270   6.408   6.480
   75SOL     OW 1123   3.760   5.563   5.628
   75SOL    HW1 1124   3.848   5.612   5.633
   75SOL    HW2 1125   3.768   5.475   5.675
   76SOL     OW 1126   2.627   2.611   1.428
   76SOL    HW1 1127   2.721   2.623   1.394
   76SOL    HW2 1128   2.584   2.535   1.380
   77SOL     OW 1129   5.870   5.038   5.199
   77SOL    HW1 1130   5.901   5.094   5.275
   77SOL    HW2 1131   5.906   4.945   5.209
   78SOL     OW 1132   6.600   6.486   5.311
   78SOL    HW1 1133   6.563   6.559   5.254
   78SOL    HW2 1134   6.527   6.422   5.335
   79SOL     OW 1135   3.627   6.990   0.689
   79SOL    HW1 1136   3.588   6.901   0.665
   79SOL    HW2 1137   3.653   6.991   0.785
   80SOL     OW 1138   0.203   1.622   4.501
   80SOL    HW1 1139   0.271   1.654   4.567
   80SOL    HW2 1140   0.231   1.649   4.409
   81SOL     OW 1141   1.734   0.979   2.748
   81SOL    HW1 1142   1.787   0.915   2.805
   81SOL    HW2 1143   1.639   0.977   2.777
   82SOL     OW 1144   6.720   4.852   6.185
   82SOL    HW1 1145   6.815   4.848   6.215
   82SOL    HW2 1146   6.664   4.893   6.258
   83SOL     OW 1147   0.417   6.571   0.274
   83SOL    HW1 1148   0.391   6.535   0.364
   83SOL    HW2 1149   0.334   6.590   0.221
   84SOL     OW 1150   5.313   3.837   1.528
   84SOL    HW1 1151   5.346   3.772   1.597
   84SOL    HW2 1152   5.296   3.925   1.572
   85SOL     OW 1153   1.092   2.033   5.609
   85SOL    HW1 1154   1.062   1.970   5.537
   85SOL    HW2 1155   1.013   2.062   5.663
   86SOL     OW 1156   0.848   0.576   5.775
   86SOL    HW1 1157   0.834   0.668   5.810
   86SOL    HW2 1158   0.801   0.566   5.687
   87SOL     OW 1159   4.511   2.027   0.530
   87SOL    HW1 1160   4.462   1.991   0.451
   87SOL    HW2 1161   4.446   2.049   0.603
   88SOL     OW 1162   5.600   1.258   0.750
   88SOL    HW1 1163   5.580   1.160   0.757
   88SOL    HW2 1164   5.516   1.310   0.765
   89SOL     OW 1165   1.754   2.707   6.588
   89SOL    HW1 1166   1.656   2.703   6.604
   89SOL    HW2 1167   1.791   2.792   6.627
   90SOL     OW 1168   5.231   5.937   4.018
   90SOL    HW1 1169   5.268   5.995   4.090
   90SOL    HW2 1170   5.305   5.882   3.978
   91SOL     OW 1171   5.030   4.701   5.197
   91SOL    HW1 1172   4.955   4.660   5.145
   91SOL    HW2 1173   5.060   4.638   5.268
   92SOL     OW 1174   3.315   4.635   1.207
   92SOL    HW1 1175   3.256   4.687   1.269
   92SOL    HW2 1176   3.389   4.593   1.259
   93SOL     OW 1177   3.582   5.124   5.984
   93SOL    HW1 1178   3.549   5.063   5.911
   93SOL    HW2 1179   3.591   5.217   5.947
   94SOL     OW 1180   3.005   5.725   0.141
   94SOL    HW1 1181   2.966   5.728   0.049
   94SOL    HW2 1182   3.104   5.738   0.136
   95SOL     OW 1183   0.362   0.246   3.963
   95SOL    HW1 1184   0.362   0.167   4.024
   95SOL    HW2 1185   0.395   0.219   3.873
   96SOL     OW 1186   2.248   0.414   5.391
   96SOL    HW1 1187   2.230   0.322   5.424
   96SOL    HW2 1188   2.162   0.463   5.378
   97SOL     OW 1189   6.052   3.315   4.165
   97SOL    HW1 1190   5.956   3.319   4.192
   97SOL    HW2 1191   6.083   3.220   4.164
   98SOL     OW 1192   5.155   2.363   5.973
   98SOL    HW1 1193   5.170   2.364   5.874
   98SOL    HW2 1194   5.239   2.334   6.019
   99SOL     OW 1195   4.335   2.217   1.020
   99SOL    HW1 1196   4.292   2.170   1.097
   99SOL    HW2 1197   4.280   2.298   0.996
  100SOL     OW 1198   0.875   6.056   6.523
  100SOL    HW1 1199   0.967   6.050   6.485
  100SOL    HW2 1200   0.811   6.087   6.453
  101SOL     OW 1201   1.441   5.939   4.023
  101SOL    HW1 1202   1.393   5.856   3.994
  101SOL    HW2 1203   1.508   5.915   4.094
  102SOL     OW 1204   3.517   0.481   3.345
  102SOL    HW1 1205   3.530   0.578   3.362
  102SOL    HW2 1206   3.472   0.468   3.256
  103SOL     OW 1207   4.055   2.423   1.394
  103SOL    HW1 1208   3.980   2.437   1.329
  103SOL    HW2 1209   4.030   2.463   1.482
  104SOL     OW 1210   6.956   5.788   2.242
  104SOL    HW1 1211   0.003   5.864   2.245
  104SOL    HW2 1212   6.994   5.710   2.292
  105SOL     OW 1213   5.964   0.716   6.523
  105SOL    HW1 1214   5.992   0.809   6.545
  105SOL    HW2 1215   5.864   0.710   6.526
  106SOL     OW 1216   2.992   6.423   6.647
  106SOL    HW1 1217   3.004   6.328   6.677
  106SOL    HW2 1218   3.030   6.433   6.555
  107SOL     OW 1219   2.078   2.614   0.855
  107SOL    HW1 1220   2.016   2.536   0.843
  107SOL    HW2 1221   2.101   2.652   0.765
  108SOL     OW 1222   4.716   4.604   6.032
  108SOL    HW1 1223   4.790   4.629   5.970
  108SOL    HW2 1224   4.682   4.513   6.007
  109SOL     OW 1225   6.936   0.341   0.344
  109SOL    HW1 1226   6.969   0.427   0.384
  109SOL    HW2 1227   6.843   0.354   0.310
  110SOL     OW 1228   3.523   5.857   5.641
  110SOL    HW1 1229   3.464   5.932   5.609
  110SOL    HW2 1230   3.497   5.773   5.593
  111SOL     OW 1231   4.201   0.953   3.153
  111SOL    HW1 1232   4.152   0.867   3.139
  111SOL    HW2 1233   4.293   0.934   3.187
  112SOL     OW 1234   6.524   6.086   5.595
  112SOL    HW1 1235   6.510   6.181   5.625
  112SOL    HW2 1236   6.505   6.024   5.672
  113SOL     OW 1237   0.116   4.325   3.752
  113SOL    HW1 1238   0.036   4.384   3.765
  113SOL    HW2 1239   0.154   4.299   3.841
  114SOL     OW 1240   0.820   6.693   0.223
  114SOL    HW1 1241   0.782   6.601   0.213
  114SOL    HW2 1242   0.752   6.753   0.264
  115SOL     OW 1243   4.971   1.565   4.358
  115SOL    HW1 1244   4.933   1.628   4.426
  115SOL    HW2 1245   5.066   1.591   4.339
  116SOL     OW 1246   6.377   4.575   1.919
  116SOL    HW1 1247   6.307   4.535   1.978
  116SOL    HW2 1248   6.348   4.666   1.891
  117SOL     OW 1249   1.377   0.420   6.387
  117SOL    HW1 1250   1.406   0.508   6.424
  117SOL    HW2 1251   1.413   0.409   6.294
  118SOL     OW 1252   0.281   0.737   2.062
  118SOL    HW1 1253   0.280   0.804   2.137
  118SOL    HW2 1254   0.369   0.692   2.059
  119SOL     OW 1255   6.621   2.524   5.863
  119SOL    HW1 1256   6.711   2.529   5.820
  119SOL    HW2 1257   6.550   2.550   5.798
  120SOL     OW 1258   5.818   6.629   1.025
  120SOL    HW1 1259   5.732   6.680   1.014
  120SOL    HW2 1260   5.806   6.536   0.990
  121SOL     OW 1261   2.279   3.394   6.168
  121SOL    HW1 1262   2.258   3.469   6.105
  121SOL    HW2 1263   2.366   3.351   6.143
  122SOL     OW 1264   0.355   3.549   4.627
  122SOL    HW1 1265   0.411   3.630   4.646
  122SOL    HW2 1266   0.390   3.471   4.679
  123SOL     OW 1267   0.435   1.479   1.283
  123SOL    HW1 1268   0.500   1.429   1.340
  123SOL    HW2 1269   0.397   1.556   1.335
  124SOL     OW 1270   4.842   3.203   0.433
  124SOL    HW1 1271   4.858   3.284   0.376
  124SOL    HW2 1272   4.912   3.198   0.504
  125SOL     OW 1273   1.721   2.456   2.102
  125SOL    HW1 1274   1.812   2.449   2.060
  125SOL    HW2 1275   1.705   2.550   2.130
  126SOL     OW 1276   2.976   4.625   1.071
  126SOL    HW1 1277   2.976   4.670   1.161
  126SOL    HW2 1278   2.970   4.695   1.000
  127SOL     OW 1279   6.912   5.508   6.032
  127SOL    HW1 1280   6.993   5.566   6.033
  127SOL    HW2 1281   6.832   5.563   6.059
  128SOL     OW 1282   4.637   2.605   1.617
  128SOL    HW1 1283   4.649   2.666   1.695
  128SOL    HW2 1284   4.539   2.589   1.602
  129SOL     OW 1285   3.448   3.714   6.588
  129SOL    HW1 1286   3.541   3.684   6.565
  129SOL    HW2 1287   3.387   3.693   6.511
  130SOL     OW 1288   0.767   1.069   4.154
  130SOL    HW1 1289   0.866   1.064   4.140
  130SOL    HW2 1290   0.720   1.025   4.077
  131SOL     OW 1291   4.734   1.483   3.108
  131SOL    HW1 1292   4.643   1.483   3.065
  131SOL    HW2 1293   4.804   1.498   3.039
  132SOL     OW 1294   1.196   2.748   1.662
  132SOL    HW1 1295   1.265   2.685   1.697
  132SOL    HW2 1296   1.105   2.711   1.680
  133SOL     OW 1297   6.374   6.123   2.606
  133SOL    HW1 1298   6.428   6.080   2.678
  133SOL    HW2 1299   6.432   6.139   2.526
  134SOL     OW 1300   0.242   3.485   2.940
  134SOL    HW1 1301   0.336   3.461   2.917
  134SOL    HW2 1302   0.186   3.486   2.857
  135SOL     OW 1303   5.206   1.903   4.058
  135SOL    HW1 1304   5.146   1.840   4.008
  135SOL    HW2 1305   5.167   1.922   4.148
  136SOL     OW 1306   5.138   3.994   5.409
  136SOL    HW1 1307   5.161   3.986   5.312
  136SOL    HW2 1308   5.051   4.042   5.419
  137SOL     OW 1309   4.859   6.909   5.941
  137SOL    HW1 1310   4.854   6.923   5.842
  137SOL    HW2 1311   4.846   6.996   5.988
  138SOL     OW 1312   6.617   5.117   4.627
  138SOL    HW1 1313   6.534   5.135   4.680
  138SOL    HW2 1314   6.591   5.094   4.533
  139SOL     OW 1315   3.019   4.846   5.053
  139SOL    HW1 1316   3.094   4.801   5.102
  139SOL    HW2 1317   2.947   4.780   5.034
  140SOL     OW 1318   5.645   5.096   4.163
  140SOL    HW1 1319   5.591   5.012   4.168
  140SOL    HW2 1320   5.641   5.144   4.251
  141SOL     OW 1321   1.242   1.811   4.686
  141SOL    HW1 1322   1.215   1.904   4.709
  141SOL    HW2 1323   1.336   1.795   4.716
  142SOL     OW 1324   1.743   5.980   1.455
  142SOL    HW1 1325   1.704   6.020   1.538
  142SOL    HW2 1326   1.842   5.971   1.465
  143SOL     OW 1327   5.298   4.841   2.567
  143SOL    HW1 1328   5.256   4.756   2.536
  143SOL    HW2 1329   5.294   4.845   2.667
  144SOL     OW 1330   1.947   6.574   6.763
  144SOL    HW1 1331   1.943   6.661   6.812
  144SOL    HW2 1332   2.014   6.580   6.689
  145SOL     OW 1333   0.345   5.640   0.970
  145SOL    HW1 1334   0.304   5.550   0.962
  145SOL    HW2 1335   0.445   5.632   0.965
  146SOL     OW 1336   5.510   6.158   1.173
  146SOL    HW1 1337   5.412   6.163   1.190
  146SOL    HW2 1338   5.557   6.135   1.258
  147SOL     OW 1339   0.057   2.424   0.677
  147SOL    HW1 1340   0.083   2.337   0.635
  147SOL    HW2 1341   0.102   2.499   0.630
  148SOL     OW 1342   1.081   5.417   5.776
  148SOL    HW1 1343   1.004   5.480   5.789
  148SOL    HW2 1344   1.098   5.407   5.678
  149SOL     OW 1345   2.984   1.337   4.477
  149SOL    HW1 1346   2.966   1.435   4.474
  149SOL    HW2 1347   3.077   1.322   4.512
  150SOL     OW 1348   6.795   5.027   6.862
  150SOL    HW1 1349   6.774   5.119   6.828
  150SOL    HW2 1350   6.836   4.973   6.789
  151SOL     OW 1351   4.352   1.515   1.521
  151SOL    HW1 1352   4.304   1.602   1.528
  151SOL    HW2 1353   4.315   1.462   1.445
  152SOL     OW 1354   2.930   0.888   4.501
  152SOL    HW1 1355   2.869   0.814   4.476
  152SOL    HW2 1356   2.922   0.962   4.434
  153SOL     OW 1357   2.021   1.089   3.000
  153SOL    HW1 1358   1.995   1.161   3.064
  153SOL    HW2 1359   1.959   1.011   3.011
  154SOL     OW 1360   0.007   1.996   1.889
  154SOL    HW1 1361   6.969   2.063   1.938
  154SOL    HW2 1362   6.979   1.907   1.889
  155SOL     OW 1363   0.198   0.870   2.813
  155SOL    HW1 1364   0.192   0.960   2.855
  155SOL    HW2 1365   0.259   0.811   2.867
  156SOL     OW 1366   6.516   1.813   1.106
  156SOL    HW1 1367   6.432   1.858   1.075
  156SOL    HW2 1368   6.595   1.871   1.088
  157SOL     OW 1369   6.081   3.387   2.843
  157SOL    HW1 1370   6.133   3.359   2.762
  157SOL    HW2 1371   6.143   3.397   2.921
  158SOL     OW 1372   2.428   1.099   2.900
  158SOL    HW1 1373   2.368   1.072   2.825
  158SOL    HW2 1374   2.375   1.107   2.985
  159SOL     OW 1375   4.722   4.135   1.810
  159SOL    HW1 1376   4.802   4.179   1.770
  159SOL    HW2 1377   4.672   4.200   1.867
  160SOL     OW 1378   6.634   4.242   5.738
  160SOL    HW1 1379   6.654   4.152   5.777
  160SOL    HW2 1380   6.620   4.233   5.639
  161SOL     OW 1381   2.248   5.026   5.044
  161SOL    HW1 1382   2.217   4.942   5.088
  161SOL    HW2 1383   2.329   5.006   4.989
  162SOL     OW 1384   4.633   6.010   1.253
  162SOL    HW1 1385   4.570   6.024   1.177
  162SOL    HW2 1386   4.643   6.095   1.305
  163SOL     OW 1387   4.527   0.063   2.193
  163SOL    HW1 1388   4.582   0.017   2.262
  163SOL    HW2 1389   4.480   7.013   2.137
  164SOL     OW 1390   6.304   3.680   0.769
  164SOL    HW1 1391   6.294   3.590   0.729
  164SOL    HW2 1392   6.334   3.745   0.699
  165SOL     OW 1393   4.969   3.174   6.560
  165SOL    HW1 1394   4.961   3.154   6.462
  165SOL    HW2 1395   4.943   3.269   6.576
  166SOL     OW 1396   0.142   6.984   2.397
  166SOL    HW1 1397   0.064   6.929   2.367
  166SOL    HW2 1398   0.226   6.949   2.357
  167SOL     OW 1399   6.375   2.531   0.107
  167SOL    HW1 1400   6.319   2.513   0.026
  167SOL    HW2 1401   6.471   2.517   0.084
  168SOL     OW 1402   2.313   5.455   1.014
  168SOL    HW1 1403   2.338   5.368   1.057
  168SOL    HW2 1404   2.371   5.528   1.050
  169SOL     OW 1405   2.068   0.487   2.226
  169SOL    HW1 1406   2.131   0.416   2.198
  169SOL    HW2 1407   2.119   0.571   2.247
  170SOL     OW 1408   6.997   1.638   3.351
  170SOL    HW1 1409   6.995   1.732   3.318
  170SOL    HW2 1410   6.906   1.610   3.379
  171SOL     OW 1411   3.883   3.788   0.236
  171SOL    HW1 1412   3.958   3.849   0.214
  171SOL    HW2 1413   3.826   3.829   0.307
  172SOL     OW 1414   6.533   2.240   5.381
  172SOL    HW1 1415   6.441   2.201   5.379
  172SOL    HW2 1416   6.553   2.283   5.293
  173SOL     OW 1417   6.990   6.726   4.762
  173SOL    HW1 1418   6.946   6.775   4.837
  173SOL    HW2 1419   7.007   6.789   4.686
  174SOL     OW 1420   2.345   5.050   3.504
  174SOL    HW1 1421   2.296   4.996   3.435
  174SOL    HW2 1422   2.439   5.018   3.510
  175SOL     OW 1423   1.941   5.964   2.007
  175SOL    HW1 1424   1.998   6.012   1.940
  175SOL    HW2 1425   1.996   5.896   2.056
  176SOL     OW 1426   2.141   3.996   1.220
  176SOL    HW1 1427   2.053   4.017   1.178
  176SOL    HW2 1428   2.127   3.934   1.297
  177SOL     OW 1429   5.032   2.365   2.483
  177SOL    HW1 1430   5.002   2.344   2.576
  177SOL    HW2 1431   4.978   2.441   2.447
  178SOL     OW 1432   5.186   4.798   6.881
  178SOL    HW1 1433   5.257   4.841   6.826
  178SOL    HW2 1434   5.217   4.708   6.912
  179SOL     OW 1435   2.986   0.438   0.718
  179SOL    HW1 1436   2.894   0.439   0.759
  179SOL    HW2 1437   3.028   0.528   0.727
  180SOL     OW 1438   0.678   1.340   6.433
  180SOL    HW1 1439   0.730   1.412   6.387
  180SOL    HW2 1440   0.739   1.284   6.488
  181SOL     OW 1441   3.587   2.771   5.863
  181SOL    HW1 1442   3.613   2.675   5.873
  181SOL    HW2 1443   3.488   2.777   5.852
  182SOL     OW 1444   4.065   1.997   4.935
  182SOL    HW1 1445   4.122   1.918   4.911
  182SOL    HW2 1446   4.058   2.057   4.855
  183SOL     OW 1447   4.913   1.155   1.814
  183SOL    HW1 1448   4.993   1.200   1.773
  183SOL    HW2 1449   4.943   1.081   1.874
  184SOL     OW 1450   0.899   4.857   3.308
  184SOL    HW1 1451   0.910   4.926   3.380
  184SOL    HW2 1452   0.989   4.825   3.279
  185SOL     OW 1453   1.518   3.800   6.400
  185SOL    HW1 1454   1.548   3.751   6.481
  185SOL    HW2 1455   1.597   3.828   6.347
  186SOL     OW 1456   5.650   0.149   3.339
  186SOL    HW1 1457   5.747   0.143   3.316
  186SOL    HW2 1458   5.639   0.155   3.438
  187SOL     OW 1459   5.538   0.797   4.063
  187SOL    HW1 1460   5.557   0.895   4.073
  187SOL    HW2 1461   5.460   0.772   4.120
  188SOL     OW 1462   5.759   2.482   3.303
  188SOL    HW1 1463   5.733   2.576   3.323
  188SOL    HW2 1464   5.681   2.422   3.321
  189SOL     OW 1465   2.158   4.783   2.569
  189SOL    HW1 1466   2.062   4.775   2.543
  189SOL    HW2 1467   2.168   4.767   2.667
  190SOL     OW 1468   4.016   1.061   5.265
  190SOL    HW1 1469   3.941   1.073   5.200
  190SOL    HW2 1470   4.099   1.033   5.216
  191SOL     OW 1471   6.047   5.794   6.424
  191SOL    HW1 1472   6.020   5.890   6.415
  191SOL    HW2 1473   6.147   5.788   6.430
  192SOL     OW 1474   6.664   0.525   1.884
  192SOL    HW1 1475   6.749   0.555   1.839
  192SOL    HW2 1476   6.679   0.522   1.983
  193SOL     OW 1477   5.211   3.758   0.053
  193SOL    HW1 1478   5.193   3.713   6.983
  193SOL    HW2 1479   5.127   3.801   0.086
  194SOL     OW 1480   3.536   0.919   3.496
  194SOL    HW1 1481   3.494   0.906   3.407
  194SOL    HW2 1482   3.628   0.959   3.485
  195SOL     OW 1483   1.514   5.373   3.522
  195SOL    HW1 1484   1.518   5.383   3.423
  195SOL    HW2 1485   1.433   5.320   3.547
  196SOL     OW 1486   1.550   1.887   0.058
  196SOL    HW1 1487   1.527   1.963   7.015
  196SOL    HW2 1488   1.470   1.827   0.066
  197SOL     OW 1489   1.661   0.593   1.226
  197SOL    HW1 1490   1.565   0.569   1.212
  197SOL    HW2 1491   1.685   0.671   1.167
  198SOL     OW 1492   4.078   1.875   3.211
  198SOL    HW1 1493   4.066   1.974   3.207
  198SOL    HW2 1494   4.045   1.834   3.126
  199SOL     OW 1495   0.840   2.395   3.785
  199SOL    HW1 1496   0.836   2.299   3.815
  199SOL    HW2 1497   0.803   2.454   3.857
  200SOL     OW 1498   0.174   2.607   0.297
  200SOL    HW1 1499   0.135   2.692   0.332
  200SOL    HW2 1500   0.122   2.529   0.332
  201SOL     OW 1501   0.602   0.665   6.030
  201SOL    HW1 1502   0.700   0.682   6.034
  201SOL    HW2 1503   0.578   0.587   6.088
  202SOL     OW 1504   4.782   0.116   6.500
  202SOL    HW1 1505   4.692   0.160   6.504
  202SOL    HW2 1506   4.776   0.035   6.442
  203SOL     OW 1507   5.470   2.638   5.337
  203SOL    HW1 1508   5.457   2.718   5.396
  203SOL    HW2 1509   5.565   2.635   5.306
  204SOL     OW 1510   6.560   0.709   5.893
  204SOL    HW1 1511   6.470   0.742   5.919
  204SOL    HW2 1512   6.581   0.739   5.800
  205SOL     OW 1513   0.886   2.882   1.964
  205SOL    HW1 1514   0.881   2.877   2.064
  205SOL    HW2 1515   0.982   2.885   1.936
  206SOL     OW 1516   0.600   2.969   0.645
  206SOL    HW1 1517   0.600   2.918   0.559
  206SOL    HW2 1518   0.556   3.058   0.631
  207SOL     OW 1519   4.971   2.211   3.846
  207SOL    HW1 1520   4.872   2.225   3.855
  207SOL    HW2 1521   4.989   2.151   3.768
  208SOL     OW 1522   0.960   3.832   4.471
  208SOL    HW1 1523   1.005   3.786   4.548
  208SOL    HW2 1524   0.916   3.916   4.504
  209SOL     OW 1525   6.714   4.076   2.623
  209SOL    HW1 1526   6.749   4.090   2.716
  209SOL    HW2 1527   6.746   4.149   2.564
  210SOL     OW 1528   4.923   2.168   0.010
  210SOL    HW1 1529   4.941   2.136   6.935
  210SOL    HW2 1530   4.847   2.233   0.010
  211SOL     OW 1531   0.337   0.699   3.284
  211SOL    HW1 1532   0.309   0.684   3.379
  211SOL    HW2 1533   0.369   0.794   3.274
  212SOL     OW 1534   1.920   3.843   3.308
  212SOL    HW1 1535   1.940   3.863   3.212
  212SOL    HW2 1536   1.822   3.848   3.324
  213SOL     OW 1537   1.983   4.966   1.075
  213SOL    HW1 1538   1.972   5.064   1.064
  213SOL    HW2 1539   2.079   4.941   1.059
  214SOL     OW 1540   4.153   5.890   2.483
  214SOL    HW1 1541   4.173   5.988   2.486
  214SOL    HW2 1542   4.217   5.841   2.543
  215SOL     OW 1543   2.312   4.372   2.085
  215SOL    HW1 1544   2.285   4.327   2.000
  215SOL    HW2 1545   2.387   4.435   2.067
  216SOL     OW 1546   1.381   6.587   2.453
  216SOL    HW1 1547   1.367   6.504   2.397
  216SOL    HW2 1548   1.326   6.662   2.415
  217SOL     OW 1549   1.551   4.059   6.694
  217SOL    HW1 1550   1.484   4.104   6.753
  217SOL    HW2 1551   1.538   3.960   6.698
  218SOL     OW 1552   0.667   2.438   5.179
  218SOL    HW1 1553   0.707   2.360   5.229
  218SOL    HW2 1554   0.610   2.491   5.242
  219SOL     OW 1555   3.933   1.416   0.757
  219SOL    HW1 1556   4.007   1.362   0.797
  219SOL    HW2 1557   3.846   1.370   0.772
  220SOL     OW 1558   3.291   6.714   0.760
  220SOL    HW1 1559   3.372   6.742   0.710
  220SOL    HW2 1560   3.275   6.616   0.747
  221SOL     OW 1561   5.094   5.806   1.405
  221SOL    HW1 1562   5.138   5.728   1.449
  221SOL    HW2 1563   5.143   5.829   1.321
  222SOL     OW 1564   2.123   4.404   6.073
  222SOL    HW1 1565   2.081   4.321   6.036
  222SOL    HW2 1566   2.119   4.402   6.173
  223SOL     OW 1567   6.272   2.114   5.332
  223SOL    HW1 1568   6.228   2.024   5.332
  223SOL    HW2 1569   6.279   2.148   5.238
  224SOL     OW 1570   1.999   1.909   6.218
  224SOL    HW1 1571   2.023   1.977   6.288
  224SOL    HW2 1572   1.922   1.943   6.164
  225SOL     OW 1573   4.505   4.731   6.300
  225SOL    HW1 1574   4.464   4.818   6.271
  225SOL    HW2 1575   4.600   4.746   6.325
  226SOL     OW 1576   1.104   1.946   6.629
  226SOL    HW1 1577   1.145   1.948   6.721
  226SOL    HW2 1578   1.171   1.907   6.565
  227SOL     OW 1579   1.830   3.755   1.933
  227SOL    HW1 1580   1.833   3.655   1.932
  227SOL    HW2 1581   1.735   3.786   1.924
  228SOL     OW 1582   1.601   0.114   2.705
  228SOL    HW1 1583   1.667   0.154   2.641
  228SOL    HW2 1584   1.533   0.060   2.655
  229SOL     OW 1585   5.177   5.219   6.313
  229SOL    HW1 1586   5.259   5.223   6.370
  229SOL    HW2 1587   5.150   5.124   6.300
  230SOL     OW 1588   4.785   6.049   5.240
  230SOL    HW1 1589   4.842   6.131   5.227
  230SOL    HW2 1590   4.763   6.010   5.151
  231SOL     OW 1591   5.268   1.310   6.780
  231SOL    HW1 1592   5.330   1.263   6.843
  231SOL    HW2 1593   5.219   1.382   6.829
  232SOL     OW 1594   1.602   2.555   5.996
  232SOL    HW1 1595   1.572   2.637   6.045
  232SOL    HW2 1596   1.568   2.474   6.044
  233SOL     OW 1597   2.487   1.329   3.213
  233SOL    HW1 1598   2.584   1.318   3.236
  233SOL    HW2 1599   2.440   1.241   3.223
  234SOL     OW 1600   4.727   1.363   6.539
  234SOL    HW1 1601   4.709   1.416   6.622
  234SOL    HW2 1602   4.699   1.416   6.460
  235SOL     OW 1603   4.912   2.581   2.365
  235SOL    HW1 1604   4.949   2.673   2.377
  235SOL    HW2 1605   4.816   2.580   2.392
  236SOL     OW 1606   4.285   4.176   6.290
  236SOL    HW1 1607   4.385   4.182   6.298
  236SOL    HW2 1608   4.244   4.260   6.324
  237SOL     OW 1609   6.229   3.905   2.777
  237SOL    HW1 1610   6.236   3.840   2.701
  237SOL    HW2 1611   6.319   3.917   2.819
  238SOL     OW 1612   6.521   1.437   0.420
  238SOL    HW1 1613   6.472   1.515   0.380
  238SOL    HW2 1614   6.611   1.467   0.450
  239SOL     OW 1615   1.021   3.570   0.403
  239SOL    HW1 1616   1.035   3.661   0.443
  239SOL    HW2 1617   1.084   3.505   0.446
  240SOL     OW 1618   6.214   2.933   3.312
  240SOL    HW1 1619   6.220   2.921   3.411
  240SOL    HW2 1620   6.304   2.919   3.271
  241SOL     OW 1621   2.600   1.207   3.719
  241SOL    HW1 1622   2.598   1.298   3.678
  241SOL    HW2 1623   2.688   1.193   3.764
  242SOL     OW 1624   3.841   3.955   3.930
  242SOL    HW1 1625   3.832   4.023   3.858
  242SOL    HW2 1626   3.786   3.874   3.907
  243SOL     OW 1627   4.790   2.669   6.183
  243SOL    HW1 1628   4.808   2.640   6.277
  243SOL    HW2 1629   4.714   2.733   6.181
  244SOL     OW 1630   6.186   3.750   5.765
  244SOL    HW1 1631   6.100   3.700   5.759
  244SOL    HW2 1632   6.186   3.806   5.848
  245SOL     OW 1633   3.440   1.596   2.417
  245SOL    HW1 1634   3.341   1.598   2.406
  245SOL    HW2 1635   3.484   1.591   2.327
  246SOL     OW 1636   5.992   1.751   3.404
  246SOL    HW1 1637   5.987   1.653   3.420
  246SOL    HW2 1638   5.960   1.772   3.312
  247SOL     OW 1639   2.043   1.139   0.849
  247SOL    HW1 1640   1.950   1.136   0.813
  247SOL    HW2 1641   2.066   1.233   0.875
  248SOL     OW 1642   1.733   1.289   1.964
  248SOL    HW1 1643   1.640   1.312   1.991
  248SOL    HW2 1644   1.798   1.331   2.027
  249SOL     OW 1645   5.933   6.720   4.950
  249SOL    HW1 1646   5.908   6.624   4.943
  249SOL    HW2 1647   5.895   6.758   5.034
  250SOL     OW 1648   3.230   2.784   0.879
  250SOL    HW1 1649   3.173   2.703   0.864
  250SOL    HW2 1650   3.182   2.847   0.940
  251SOL     OW 1651   4.244   3.600   5.737
  251SOL    HW1 1652   4.216   3.658   5.813
  251SOL    HW2 1653   4.163   3.573   5.684
  252SOL     OW 1654   6.100   6.326   5.496
  252SOL    HW1 1655   6.110   6.393   5.570
  252SOL    HW2 1656   6.010   6.285   5.500
  253SOL     OW 1657   4.426   5.432   5.942
  253SOL    HW1 1658   4.456   5.474   5.857
  253SOL    HW2 1659   4.479   5.470   6.018
  254SOL     OW 1660   5.963   2.789   4.452
  254SOL    HW1 1661   5.944   2.694   4.476
  254SOL    HW2 1662   5.984   2.841   4.534
  255SOL     OW 1663   1.978   4.652   5.884
  255SOL    HW1 1664   1.967   4.555   5.859
  255SOL    HW2 1665   2.003   4.659   5.981
  256SOL     OW 1666   4.910   3.083   5.620
  256SOL    HW1 1667   4.880   2.988   5.630
  256SOL    HW2 1668   4.849   3.143   5.671
  257SOL     OW 1669   4.837   5.982   2.889
  257SOL    HW1 1670   4.901   5.946   2.957
  257SOL    HW2 1671   4.867   6.073   2.860
  258SOL     OW 1672   2.256   3.960   6.078
  258SOL    HW1 1673   2.285   3.870   6.113
  258SOL    HW2 1674   2.175   3.949   6.021
  259SOL     OW 1675   3.903   0.361   2.933
  259SOL    HW1 1676   3.889   0.285   2.868
  259SOL    HW2 1677   3.961   0.430   2.890
  260SOL     OW 1678   4.077   5.485   3.223
  260SOL    HW1 1679   4.119   5.532   3.300
  260SOL    HW2 1680   4.124   5.397   3.209
  261SOL     OW 1681   4.595   4.989   0.637
  261SOL    HW1 1682   4.588   5.037   0.724
  261SOL    HW2 1683   4.666   4.920   0.643
  262SOL     OW 1684   1.974   4.320   0.288
  262SOL    HW1 1685   1.997   4.271   0.204
  262SOL    HW2 1686   2.036   4.292   0.361
  263SOL     OW 1687   1.273   6.570   4.102
  263SOL    HW1 1688   1.328   6.487   4.113
  263SOL    HW2 1689   1.334   6.647   4.079
  264SOL     OW 1690   6.802   3.006   6.767
  264SOL    HW1 1691   6.753   2.919   6.769
  264SOL    HW2 1692   6.877   3.004   6.835
  265SOL     OW 1693   6.007   0.117   4.135
  265SOL    HW1 1694   5.966   0.196   4.180
  265SOL    HW2 1695   6.021   0.137   4.038
  266SOL     OW 1696   4.335   1.808   5.746
  266SOL    HW1 1697   4.297   1.868   5.677
  266SOL    HW2 1698   4.261   1.768   5.800
  267SOL     OW 1699   1.210   0.556   5.402
  267SOL    HW1 1700   1.296   0.605   5.418
  267SOL    HW2 1701   1.226   0.458   5.407
  268SOL     OW 1702   3.783   1.105   0.979
  268SOL    HW1 1703   3.832   1.027   0.939
  268SOL    HW2 1704   3.829   1.134   1.062
  269SOL     OW 1705   3.828   2.090   6.973
  269SOL    HW1 1706   3.790   2.179   6.999
  269SOL    HW2 1707   3.927   2.091   6.985
  270SOL     OW 1708   6.865   6.761   0.122
  270SOL    HW1 1709   6.813   6.845   0.108
  270SOL    HW2 1710   6.927   6.746   0.046
  271SOL     OW 1711   0.146   2.527   6.129
  271SOL    HW1 1712   0.157   2.464   6.052
  271SOL    HW2 1713   0.166   2.620   6.099
  272SOL     OW 1714   3.192   6.307   3.686
  272SOL    HW1 1715   3.262   6.235   3.687
  272SOL    HW2 1716   3.115   6.280   3.744
  273SOL     OW 1717   2.178   5.264   5.205
  273SOL    HW1 1718   2.233   5.187   5.173
  273SOL    HW2 1719   2.238   5.333   5.245
  274SOL     OW 1720   4.224   0.642   3.988
  274SOL    HW1 1721   4.206   0.661   4.084
  274SOL    HW2 1722   4.295   0.704   3.955
  275SOL     OW 1723   6.993   6.561   2.752
  275SOL    HW1 1724   7.016   6.629   2.682
  275SOL    HW2 1725   6.901   6.579   2.787
  276SOL     OW 1726   0.019   0.573   4.635
  276SOL    HW1 1727   0.073   0.613   4.562
  276SOL    HW2 1728   0.009   0.639   4.710
  277SOL     OW 1729   1.960   3.182   0.561
  277SOL    HW1 1730   2.038   3.200   0.501
  277SOL    HW2 1731   1.886   3.140   0.508
  278SOL     OW 1732   0.694   2.747   2.434
  278SOL    HW1 1733   0.664   2.725   2.341
  278SOL    HW2 1734   0.794   2.755   2.435
  279SOL     OW 1735   5.774   2.857   4.248
  279SOL    HW1 1736   5.822   2.841   4.334
  279SOL    HW2 1737   5.811   2.939   4.204
  280SOL     OW 1738   2.166   4.539   2.251
  280SOL    HW1 1739   2.219   4.466   2.208
  280SOL    HW2 1740   2.228   4.613   2.278
  281SOL     OW 1741   2.333   3.665   0.680
  281SOL    HW1 1742   2.401   3.734   0.705
  281SOL    HW2 1743   2.358   3.623   0.593
  282SOL     OW 1744   3.351   1.769   6.201
  282SOL    HW1 1745   3.375   1.742   6.107
  282SOL    HW2 1746   3.337   1.868   6.203
  283SOL     OW 1747   5.064   2.615   6.483
  283SOL    HW1 1748   4.965   2.605   6.469
  283SOL    HW2 1749   5.089   2.711   6.478
  284SOL     OW 1750   0.691   3.548   3.798
  284SOL    HW1 1751   0.653   3.510   3.883
  284SOL    HW2 1752   0.742   3.631   3.819
  285SOL     OW 1753   5.525   4.245   3.813
  285SOL    HW1 1754   5.491   4.242   3.907
  285SOL    HW2 1755   5.495   4.163   3.764
  286SOL     OW 1756   3.843   3.781   6.867
  286SOL    HW1 1757   3.767   3.780   6.932
  286SOL    HW2 1758   3.918   3.835   6.906
  287SOL     OW 1759   2.054   3.659   0.737
  287SOL    HW1 1760   2.148   3.653   0.702
  287SOL    HW2 1761   2.047   3.737   0.799
  288SOL     OW 1762   4.869   1.851   6.955
  288SOL    HW1 1763   4.853   1.891   0.028
  288SOL    HW2 1764   4.890   1.923   6.890
  289SOL     OW 1765   2.732   4.908   6.332
  289SOL    HW1 1766   2.673   4.873   6.259
  289SOL    HW2 1767   2.706   4.866   6.419
  290SOL     OW 1768   0.081   2.025   5.772
  290SOL    HW1 1769   0.036   2.076   5.699
  290SOL    HW2 1770   0.178   2.046   5.772
  291SOL     OW 1771   6.374   2.293   2.590
  291SOL    HW1 1772   6.367   2.193   2.589
  291SOL    HW2 1773   6.364   2.326   2.683
  292SOL     OW 1774   1.644   0.704   3.207
  292SOL    HW1 1775   1.582   0.780   3.225
  292SOL    HW2 1776   1.686   0.674   3.293
  293SOL     OW 1777   3.846   5.272   3.968
  293SOL    HW1 1778   3.845   5.334   3.890
  293SOL    HW2 1779   3.809   5.183   3.941
  294SOL     OW 1780   4.880   6.058   6.861
  294SOL    HW1 1781   4.977   6.057   6.838
  294SOL    HW2 1782   4.832   6.126   6.805
  295SOL     OW 1783   5.093   0.636   4.664
  295SOL    HW1 1784   5.186   0.661   4.694
  295SOL    HW2 1785   5.029   0.708   4.692
  296SOL     OW 1786   2.955   2.180   3.732
  296SOL    HW1 1787   2.928   2.254   3.795
  296SOL    HW2 1788   2.901   2.098   3.752
  297SOL     OW 1789   1.303   4.367   3.053
  297SOL    HW1 1790   1.212   4.380   3.013
  297SOL    HW2 1791   1.303   4.398   3.148
  298SOL     OW 1792   6.474   5.104   0.998
  298SOL    HW1 1793   6.529   5.042   0.943
  298SOL    HW2 1794   6.456   5.188   0.946
  299SOL     OW 1795   6.617   2.381   4.480
  299SOL    HW1 1796   6.714   2.357   4.490
  299SOL    HW2 1797   6.561   2.299   4.494
  300SOL     OW 1798   6.269   0.133   2.918
  300SOL    HW1 1799   6.266   0.217   2.971
  300SOL    HW2 1800   6.321   0.148   2.834
  301SOL     OW 1801   5.464   3.821   6.227
  301SOL    HW1 1802   5.371   3.792   6.206
  301SOL    HW2 1803   5.529   3.759   6.182
  302SOL     OW 1804   0.484   0.007   3.509
  302SOL    HW1 1805   0.384   0.004   3.514
  302SOL    HW2 1806   0.514   6.984   3.423
  303SOL     OW 1807   5.312   0.871   3.855
  303SOL    HW1 1808   5.278   0.962   3.880
  303SOL    HW2 1809   5.340   0.822   3.938
  304SOL     OW 1810   2.608   6.985   3.352
  304SOL    HW1 1811   2.572   0.043   3.407
  304SOL    HW2 1812   2.630   0.001   3.260
  305SOL     OW 1813   1.589   3.575   1.220
  305SOL    HW1 1814   1.509   3.558   1.277
  305SOL    HW2 1815   1.587   3.515   1.140
  306SOL     OW 1816   1.784   0.656   3.533
  306SOL    HW1 1817   1.769   0.745   3.489
  306SOL    HW2 1818   1.709   0.637   3.596
  307SOL     OW 1819   3.743   0.275   1.279
  307SOL    HW1 1820   3.787   0.189   1.304
  307SOL    HW2 1821   3.653   0.279   1.322
  308SOL     OW 1822   0.700   5.421   4.027
  308SOL    HW1 1823   0.602   5.424   4.008
  308SOL    HW2 1824   0.744   5.358   3.962
  309SOL     OW 1825   4.019   5.240   5.147
  309SOL    HW1 1826   3.972   5.308   5.204
  309SOL    HW2 1827   3.953   5.196   5.087
  310SOL     OW 1828   0.441   6.594   6.046
  310SOL    HW1 1829   0.524   6.649   6.042
  310SOL    HW2 1830   0.361   6.654   6.050
  311SOL     OW 1831   0.660   0.308   0.955
  311SOL    HW1 1832   0.666   0.355   1.043
  311SOL    HW2 1833   0.608   0.223   0.965
  312SOL     OW 1834   4.492   2.002   4.936
  312SOL    HW1 1835   4.469   2.061   4.859
  312SOL    HW2 1836   4.417   1.939   4.954
  313SOL     OW 1837   1.360   4.039   1.421
  313SOL    HW1 1838   1.357   3.941   1.400
  313SOL    HW2 1839   1.347   4.052   1.519
  314SOL     OW 1840   4.144   6.354   0.893
  314SOL    HW1 1841   4.163   6.431   0.832
  314SOL    HW2 1842   4.050   6.359   0.926
  315SOL     OW 1843   0.645   2.497   3.102
  315SOL    HW1 1844   0.586   2.531   3.029
  315SOL    HW2 1845   0.601   2.514   3.191
  316SOL     OW 1846   2.914   2.185   4.217
  316SOL    HW1 1847   2.994   2.192   4.157
  316SOL    HW2 1848   2.943   2.188   4.312
  317SOL     OW 1849   0.137   1.740   6.668
  317SOL    HW1 1850   0.045   1.716   6.696
  317SOL    HW2 1851   0.134   1.803   6.591
  318SOL     OW 1852   2.359   4.728   0.621
  318SOL    HW1 1853   2.429   4.727   0.692
  318SOL    HW2 1854   2.403   4.731   0.531
  319SOL     OW 1855   1.482   6.205   0.529
  319SOL    HW1 1856   1.503   6.301   0.509
  319SOL    HW2 1857   1.492   6.189   0.627
  320SOL     OW 1858   5.745   3.547   0.639
  320SOL    HW1 1859   5.743   3.529   0.541
  320SOL    HW2 1860   5.727   3.462   0.689
  321SOL     OW 1861   2.036   1.885   0.861
  321SOL    HW1 1862   2.093   1.960   0.893
  321SOL    HW2 1863   2.093   1.820   0.810
  322SOL     OW 1864   3.569   2.908   4.901
  322SOL    HW1 1865   3.615   2.928   4.815
  322SOL    HW2 1866   3.633   2.923   4.977
  323SOL     OW 1867   0.540   4.359   1.746
  323SOL    HW1 1868   0.450   4.403   1.745
  323SOL    HW2 1869   0.609   4.424   1.713
  324SOL     OW 1870   0.608   2.879   4.683
  324SOL    HW1 1871   0.572   2.792   4.718
  324SOL    HW2 1872   0.565   2.900   4.596
  325SOL     OW 1873   2.364   2.626   2.258
  325SOL    HW1 1874   2.336   2.644   2.163
  325SOL    HW2 1875   2.447   2.569   2.257
  326SOL     OW 1876   1.841   5.166   6.148
  326SOL    HW1 1877   1.882   5.139   6.061
  326SOL    HW2 1878   1.834   5.085   6.207
  327SOL     OW 1879   6.209   5.334   5.182
  327SOL    HW1 1880   6.298   5.364   5.150
  327SOL    HW2 1881   6.208   5.234   5.187
  328SOL     OW 1882   3.111   5.836   2.323
  328SOL    HW1 1883   3.190   5.780   2.299
  328SOL    HW2 1884   3.089   5.823   2.419
  329SOL     OW 1885   3.386   3.537   3.112
  329SOL    HW1 1886   3.484   3.557   3.108
  329SOL    HW2 1887   3.338   3.589   3.042
  330SOL     OW 1888   3.458   0.824   1.794
  330SOL    HW1 1889   3.492   0.743   1.842
  330SOL    HW2 1890   3.510   0.904   1.824
  331SOL     OW 1891   5.005   5.160   6.072
  331SOL    HW1 1892   4.924   5.117   6.033
  331SOL    HW2 1893   5.072   5.176   6.000
  332SOL     OW 1894   3.774   1.801   2.861
  332SOL    HW1 1895   3.702   1.733   2.850
  332SOL    HW2 1896   3.757   1.878   2.800
  333SOL     OW 1897   3.787   6.239   6.612
  333SOL    HW1 1898   3.738   6.190   6.540
  333SOL    HW2 1899   3.876   6.268   6.578
  334SOL     OW 1900   4.239   0.163   2.809
  334SOL    HW1 1901   4.276   0.119   2.727
  334SOL    HW2 1902   4.140   0.151   2.811
  335SOL     OW 1903   2.877   6.896   3.486
  335SOL    HW1 1904   2.942   6.962   3.448
  335SOL    HW2 1905   2.788   6.908   3.441
  336SOL     OW 1906   3.036   0.798   4.015
  336SOL    HW1 1907   3.107   0.829   4.079
  336SOL    HW2 1908   2.949   0.840   4.040
  337SOL     OW 1909   6.442   4.095   1.399
  337SOL    HW1 1910   6.347   4.087   1.429
  337SOL    HW2 1911   6.490   4.158   1.461
  338SOL     OW 1912   3.229   2.584   1.459
  338SOL    HW1 1913   3.267   2.529   1.386
  338SOL    HW2 1914   3.303   2.627   1.511
  339SOL     OW 1915   4.307   6.594   3.232
  339SOL    HW1 1916   4.235   6.662   3.220
  339SOL    HW2 1917   4.393   6.630   3.197
  340SOL     OW 1918   4.705   4.202   4.306
  340SOL    HW1 1919   4.695   4.129   4.237
  340SOL    HW2 1920   4.742   4.163   4.390
  341SOL     OW 1921   5.167   5.232   4.676
  341SOL    HW1 1922   5.141   5.284   4.758
  341SOL    HW2 1923   5.139   5.137   4.686
  342SOL     OW 1924   6.227   4.228   0.730
  342SOL    HW1 1925   6.228   4.321   0.768
  342SOL    HW2 1926   6.278   4.167   0.791
  343SOL     OW 1927   3.033   0.491   2.647
  343SOL    HW1 1928   3.119   0.499   2.597
  343SOL    HW2 1929   2.965   0.553   2.607
  344SOL     OW 1930   3.207   5.491   0.341
  344SOL    HW1 1931   3.220   5.588   0.318
  344SOL    HW2 1932   3.114   5.463   0.316
  345SOL     OW 1933   0.676   6.801   5.221
  345SOL    HW1 1934   0.684   6.890   5.177
  345SOL    HW2 1935   0.690   6.729   5.153
  346SOL     OW 1936   1.162   6.993   3.006
  346SOL    HW1 1937   1.111   6.935   3.070
  346SOL    HW2 1938   1.240   6.942   2.971
  347SOL     OW 1939   5.002   6.175   6.572
  347SOL    HW1 1940   5.074   6.244   6.571
  347SOL    HW2 1941   5.041   6.086   6.593
  348SOL     OW 1942   3.432   5.621   2.042
  348SOL    HW1 1943   3.482   5.608   1.956
  348SOL    HW2 1944   3.481   5.576   2.116
  349SOL     OW 1945   1.572   5.168   2.118
  349SOL    HW1 1946   1.518   5.177   2.034
  349SOL    HW2 1947   1.668   5.153   2.095
  350SOL     OW 1948   4.729   2.871   1.227
  350SOL    HW1 1949   4.800   2.940   1.240
  350SOL    HW2 1950   4.747   2.793   1.286
  351SOL     OW 1951   3.640   2.088   0.564
  351SOL    HW1 1952   3.642   2.142   0.480
  351SOL    HW2 1953   3.723   2.105   0.617
  352SOL     OW 1954   2.850   0.802   6.366
  352SOL    HW1 1955   2.750   0.796   6.371
  352SOL    HW2 1956   2.889   0.762   6.449
  353SOL     OW 1957   2.361   6.503   1.545
  353SOL    HW1 1958   2.417   6.496   1.627
  353SOL    HW2 1959   2.370   6.595   1.506
  354SOL     OW 1960   4.663   1.280   1.813
  354SOL    HW1 1961   4.748   1.227   1.809
  354SOL    HW2 1962   4.656   1.339   1.733
  355SOL     OW 1963   0.803   2.345   1.829
  355SOL    HW1 1964   0.770   2.258   1.791
  355SOL    HW2 1965   0.759   2.362   1.917
  356SOL     OW 1966   4.387   5.498   3.633
  356SOL    HW1 1967   4.409   5.579   3.688
  356SOL    HW2 1968   4.397   5.416   3.689
  357SOL     OW 1969   0.522   5.299   5.226
  357SOL    HW1 1970   0.484   5.238   5.157
  357SOL    HW2 1971   0.622   5.297   5.222
  358SOL     OW 1972   5.688   0.827   1.658
  358SOL    HW1 1973   5.667   0.846   1.562
  358SOL    HW2 1974   5.776   0.780   1.663
  359SOL     OW 1975   1.041   1.253   1.801
  359SOL    HW1 1976   0.974   1.296   1.861
  359SOL    HW2 1977   1.083   1.176   1.848
  360SOL     OW 1978   4.209   6.564   0.727
  360SOL    HW1 1979   4.294   6.580   0.677
  360SOL    HW2 1980   4.148   6.641   0.714
  361SOL     OW 1981   4.557   0.461   2.820
  361SOL    HW1 1982   4.461   0.433   2.826
  361SOL    HW2 1983   4.568   0.528   2.747
  362SOL     OW 1984   2.705   3.275   0.889
  362SOL    HW1 1985   2.733   3.331   0.967
  362SOL    HW2 1986   2.760   3.299   0.809
  363SOL     OW 1987   4.541   5.123   4.181
  363SOL    HW1 1988   4.474   5.167   4.121
  363SOL    HW2 1989   4.611   5.190   4.207
  364SOL     OW 1990   1.737   5.416   5.795
  364SOL    HW1 1991   1.717   5.450   5.704
  364SOL    HW2 1992   1.790   5.331   5.788
  365SOL     OW 1993   4.574   6.189   2.750
  365SOL    HW1 1994   4.657   6.234   2.782
  365SOL    HW2 1995   4.580   6.175   2.651
  366SOL     OW 1996   5.964   0.345   6.902
  366SOL    HW1 1997   5.885   0.405   6.891
  366SOL    HW2 1998   6.026   0.384   6.970
  367SOL     OW 1999   5.215   2.505   1.112
  367SOL    HW1 2000   5.222   2.598   1.075
  367SOL    HW2 2001   5.180   2.508   1.205
  368SOL     OW 2002   0.807   4.830   5.210
  368SOL    HW1 2003   0.836   4.804   5.302
  368SOL    HW2 2004   0.860   4.779   5.142
  369SOL     OW 2005   1.011   4.027   1.949
  369SOL    HW1 2006   1.079   4.007   1.878
  369SOL    HW2 2007   1.039   3.985   2.035
  370SOL     OW 2008   3.730   1.050   6.272
  370SOL    HW1 2009   3.693   1.017   6.359
  370SOL    HW2 2010   3.801   0.986   6.240
  371SOL     OW 2011   4.320   2.984   6.475
  371SOL    HW1 2012   4.382   3.057   6.502
  371SOL    HW2 2013   4.330   2.966   6.377
  372SOL     OW 2014   1.495   5.797   5.835
  372SOL    HW1 2015   1.517   5.771   5.929
  372SOL    HW2 2016   1.437   5.727   5.793
  373SOL     OW 2017   0.001   6.775   0.349
  373SOL    HW1 2018   6.957   6.753   0.274
  373SOL    HW2 2019   7.004   6.711   0.424
  374SOL     OW 2020   3.427   0.839   1.489
  374SOL    HW1 2021   3.419   0.861   1.586
  374SOL    HW2 2022   3.339   0.805   1.456
  375SOL     OW 2023   0.023   4.762   2.855
  375SOL    HW1 2024   0.100   4.764   2.792
  375SOL    HW2 2025   7.003   4.854   2.865
  376SOL     OW 2026   2.054   2.538   3.953
  376SOL    HW1 2027   2.098   2.448   3.946
  376SOL    HW2 2028   1.968   2.537   3.903
  377SOL     OW 2029   4.765   1.890   3.812
  377SOL    HW1 2030   4.683   1.863   3.762
  377SOL    HW2 2031   4.810   1.965   3.763
  378SOL     OW 2032   5.088   2.598   4.516
  378SOL    HW1 2033   5.042   2.511   4.528
  378SOL    HW2 2034   5.146   2.593   4.434
  379SOL     OW 2035   6.502   3.377   1.050
  379SOL    HW1 2036   6.480   3.312   0.977
  379SOL    HW2 2037   6.512   3.469   1.011
  380SOL     OW 2038   1.058   2.166   0.318
  380SOL    HW1 2039   1.124   2.173   0.393
  380SOL    HW2 2040   0.986   2.100   0.342
  381SOL     OW 2041   3.453   3.755   0.318
  381SOL    HW1 2042   3.379   3.725   0.258
  381SOL    HW2 2043   3.421   3.758   0.413
  382SOL     OW 2044   2.692   5.739   0.518
  382SOL    HW1 2045   2.776   5.693   0.488
  382SOL    HW2 2046   2.637   5.762   0.439
  383SOL     OW 2047   6.138   2.759   7.007
  383SOL    HW1 2048   6.147   2.662   6.983
  383SOL    HW2 2049   6.227   2.804   6.998
  384SOL     OW 2050   2.096   5.785   4.963
  384SOL    HW1 2051   2.144   5.859   4.915
  384SOL    HW2 2052   2.084   5.707   4.901
  385SOL     OW 2053   5.102   5.458   0.984
  385SOL    HW1 2054   5.005   5.447   1.005
  385SOL    HW2 2055   5.141   5.528   1.044
  386SOL     OW 2056   3.396   6.495   5.205
  386SOL    HW1 2057   3.391   6.497   5.305
  386SOL    HW2 2058   3.492   6.497   5.177
  387SOL     OW 2059   0.143   0.250   5.403
  387SOL    HW1 2060   0.230   0.300   5.402
  387SOL    HW2 2061   0.083   0.286   5.331
  388SOL     OW 2062   0.264   2.003   5.138
  388SOL    HW1 2063   0.238   1.907   5.124
  388SOL    HW2 2064   0.202   2.045   5.203
  389SOL     OW 2065   4.147   4.483   1.581
  389SOL    HW1 2066   4.219   4.514   1.642
  389SOL    HW2 2067   4.073   4.441   1.634
  390SOL     OW 2068   3.953   2.241   0.410
  390SOL    HW1 2069   3.867   2.281   0.440
  390SOL    HW2 2070   4.027   2.308   0.422
  391SOL     OW 2071   3.519   4.093   4.836
  391SOL    HW1 2072   3.570   4.177   4.854
  391SOL    HW2 2073   3.578   4.014   4.854
  392SOL     OW 2074   1.430   3.733   1.703
  392SOL    HW1 2075   1.516   3.740   1.654
  392SOL    HW2 2076   1.430   3.796   1.780
  393SOL     OW 2077   1.299   4.507   1.294
  393SOL    HW1 2078   1.343   4.421   1.320
  393SOL    HW2 2079   1.304   4.571   1.371
  394SOL     OW 2080   6.583   1.104   6.389
  394SOL    HW1 2081   6.680   1.110   6.409
  394SOL    HW2 2082   6.556   1.178   6.328
  395SOL     OW 2083   5.646   4.973   0.967
  395SOL    HW1 2084   5.586   4.905   0.925
  395SOL    HW2 2085   5.693   4.933   1.046
  396SOL     OW 2086   1.631   0.259   1.325
  396SOL    HW1 2087   1.545   0.302   1.350
  396SOL    HW2 2088   1.707   0.320   1.346
  397SOL     OW 2089   4.123   2.246   5.562
  397SOL    HW1 2090   4.124   2.324   5.625
  397SOL    HW2 2091   4.061   2.176   5.596
  398SOL     OW 2092   1.263   1.095   4.007
  398SOL    HW1 2093   1.282   1.156   3.930
  398SOL    HW2 2094   1.344   1.088   4.065
  399SOL     OW 2095   5.509   6.180   3.984
  399SOL    HW1 2096   5.414   6.210   3.980
  399SOL    HW2 2097   5.535   6.160   4.078
  400SOL     OW 2098   5.779   0.510   4.145
  400SOL    HW1 2099   5.812   0.424   4.184
  400SOL    HW2 2100   5.836   0.585   4.179
  401SOL     OW 2101   0.443   5.457   5.826
  401SOL    HW1 2102   0.431   5.521   5.901
  401SOL    HW2 2103   0.371   5.387   5.829
  402SOL     OW 2104   5.932   1.465   3.421
  402SOL    HW1 2105   6.007   1.429   3.366
  402SOL    HW2 2106   5.872   1.390   3.449
  403SOL     OW 2107   3.045   1.137   5.320
  403SOL    HW1 2108   2.977   1.200   5.281
  403SOL    HW2 2109   3.009   1.096   5.404
  404SOL     OW 2110   3.644   5.200   3.494
  404SOL    HW1 2111   3.547   5.224   3.486
  404SOL    HW2 2112   3.656   5.103   3.472
  405SOL     OW 2113   2.037   4.876   4.206
  405SOL    HW1 2114   2.055   4.877   4.305
  405SOL    HW2 2115   2.110   4.923   4.158
  406SOL     OW 2116   0.148   6.416   5.735
  406SOL    HW1 2117   0.124   6.412   5.638
  406SOL    HW2 2118   0.219   6.348   5.754
  407SOL     OW 2119   2.024   2.942   4.445
  407SOL    HW1 2120   2.102   2.881   4.459
  407SOL    HW2 2121   2.057   3.036   4.434
  408SOL     OW 2122   2.041   1.432   3.462
  408SOL    HW1 2123   2.071   1.355   3.518
  408SOL    HW2 2124   2.098   1.512   3.481
  409SOL     OW 2125   0.364   3.647   2.579
  409SOL    HW1 2126   0.294   3.579   2.555
  409SOL    HW2 2127   0.448   3.628   2.528
  410SOL     OW 2128   1.557   1.475   1.274
  410SOL    HW1 2129   1.490   1.401   1.271
  410SOL    HW2 2130   1.539   1.539   1.200
  411SOL     OW 2131   0.057   2.684   1.529
  411SOL    HW1 2132   0.150   2.721   1.534
  411SOL    HW2 2133   0.050   2.603   1.586
  412SOL     OW 2134   1.422   4.975   2.432
  412SOL    HW1 2135   1.501   4.928   2.392
  412SOL    HW2 2136   1.346   4.973   2.368
  413SOL     OW 2137   5.954   6.058   2.406
  413SOL    HW1 2138   5.908   5.973   2.429
  413SOL    HW2 2139   5.997   6.097   2.488
  414SOL     OW 2140   1.846   6.788   2.728
  414SOL    HW1 2141   1.803   6.764   2.640
  414SOL    HW2 2142   1.880   6.882   2.724
  415SOL     OW 2143   6.070   0.933   0.339
  415SOL    HW1 2144   6.133   0.865   0.376
  415SOL    HW2 2145   6.036   0.902   0.250
  416SOL     OW 2146   5.565   3.653   5.533
  416SOL    HW1 2147   5.563   3.752   5.523
  416SOL    HW2 2148   5.639   3.615   5.477
  417SOL     OW 2149   1.720   2.072   6.419
  417SOL    HW1 2150   1.762   2.005   6.480
  417SOL    HW2 2151   1.677   2.024   6.342
  418SOL     OW 2152   3.621   0.103   4.545
  418SOL    HW1 2153   3.574   0.078   4.460
  418SOL    HW2 2154   3.678   0.183   4.529
  419SOL     OW 2155   6.952   0.119   0.505
  419SOL    HW1 2156   6.956   0.203   0.452
  419SOL    HW2 2157   0.020   0.068   0.495
  420SOL     OW 2158   4.015   0.563   0.043
  420SOL    HW1 2159   3.924   0.603   0.039
  420SOL    HW2 2160   4.077   0.614   7.002
  421SOL     OW 2161   4.820   4.156   2.172
  421SOL    HW1 2162   4.733   4.163   2.122
  421SOL    HW2 2163   4.879   4.090   2.126
  422SOL     OW 2164   5.400   3.008   1.606
  422SOL    HW1 2165   5.367   2.922   1.645
  422SOL    HW2 2166   5.332   3.043   1.541
  423SOL     OW 2167   3.570   0.580   6.229
  423SOL    HW1 2168   3.493   0.642   6.241
  423SOL    HW2 2169   3.656   0.632   6.237
  424SOL     OW 2170   1.078   3.781   4.013
  424SOL    HW1 2171   0.987   3.753   4.044
  424SOL    HW2 2172   1.102   3.730   3.930
  425SOL     OW 2173   3.232   1.014   6.772
  425SOL    HW1 2174   3.235   0.915   6.785
  425SOL    HW2 2175   3.171   1.055   6.840
  426SOL     OW 2176   2.633   2.082   4.285
  426SOL    HW1 2177   2.695   2.129   4.347
  426SOL    HW2 2178   2.685   2.020   4.226
  427SOL     OW 2179   4.272   2.283   3.141
  427SOL    HW1 2180   4.176   2.254   3.140
  427SOL    HW2 2181   4.325   2.225   3.080
  428SOL     OW 2182   2.526   2.199   6.255
  428SOL    HW1 2183   2.566   2.117   6.213
  428SOL    HW2 2184   2.563   2.281   6.211
  429SOL     OW 2185   6.576   5.376   4.126
  429SOL    HW1 2186   6.531   5.465   4.132
  429SOL    HW2 2187   6.519   5.306   4.169
  430SOL     OW 2188   1.495   7.011   3.886
  430SOL    HW1 2189   1.445   6.995   3.971
  430SOL    HW2 2190   1.593   7.012   3.905
  431SOL     OW 2191   2.262   1.848   1.783
  431SOL    HW1 2192   2.321   1.924   1.811
  431SOL    HW2 2193   2.170   1.881   1.764
  432SOL     OW 2194   4.924   2.109   1.092
  432SOL    HW1 2195   4.867   2.185   1.125
  432SOL    HW2 2196   4.866   2.037   1.055
  433SOL     OW 2197   1.784   4.817   0.886
  433SOL    HW1 2198   1.866   4.860   0.923
  433SOL    HW2 2199   1.796   4.718   0.884
  434SOL     OW 2200   5.205   5.198   3.503
  434SOL    HW1 2201   5.170   5.163   3.417
  434SOL    HW2 2202   5.129   5.215   3.566
  435SOL     OW 2203   3.399   2.364   5.738
  435SOL    HW1 2204   3.445   2.337   5.823
  435SOL    HW2 2205   3.356   2.283   5.697
  436SOL     OW 2206   4.790   6.837   2.999
  436SOL    HW1 2207   4.828   6.817   3.089
  436SOL    HW2 2208   4.859   6.883   2.943
  437SOL     OW 2209   6.282   0.547   4.914
  437SOL    HW1 2210   6.299   0.627   4.856
  437SOL    HW2 2211   6.245   0.577   5.002
  438SOL     OW 2212   0.542   4.888   2.327
  438SOL    HW1 2213   0.467   4.953   2.341
  438SOL    HW2 2214   0.619   4.935   2.285
  439SOL     OW 2215   0.058   0.776   4.810
  439SOL    HW1 2216   7.004   0.775   4.879
  439SOL    HW2 2217   0.043   0.853   4.748
  440SOL     OW 2218   4.233   1.347   0.465
  440SOL    HW1 2219   4.232   1.300   0.376
  440SOL    HW2 2220   4.186   1.435   0.457
  441SOL     OW 2221   0.516   4.621   2.367
  441SOL    HW1 2222   0.525   4.605   2.465
  441SOL    HW2 2223   0.534   4.717   2.347
  442SOL     OW 2224   5.157   2.852   5.683
  442SOL    HW1 2225   5.087   2.789   5.648
  442SOL    HW2 2226   5.161   2.933   5.624
  443SOL     OW 2227   5.200   3.198   1.871
  443SOL    HW1 2228   5.262   3.149   1.932
  443SOL    HW2 2229   5.125   3.137   1.845
  444SOL     OW 2230   4.601   1.609   1.926
  444SOL    HW1 2231   4.635   1.523   1.964
  444SOL    HW2 2232   4.676   1.659   1.883
  445SOL     OW 2233   1.566   5.235   2.403
  445SOL    HW1 2234   1.538   5.140   2.417
  445SOL    HW2 2235   1.612   5.245   2.315
  446SOL     OW 2236   5.611   0.167   1.581
  446SOL    HW1 2237   5.515   0.186   1.558
  446SOL    HW2 2238   5.663   0.156   1.497
  447SOL     OW 2239   5.941   4.685   1.020
  447SOL    HW1 2240   6.037   4.662   1.006
  447SOL    HW2 2241   5.899   4.711   0.932
  448SOL     OW 2242   3.209   6.844   3.828
  448SOL    HW1 2243   3.293   6.857   3.775
  448SOL    HW2 2244   3.141   6.795   3.772
  449SOL     OW 2245   1.568   3.573   4.826
  449SOL    HW1 2246   1.625   3.491   4.818
  449SOL    HW2 2247   1.570   3.623   4.739
  450SOL     OW 2248   0.050   4.669   3.285
  450SOL    HW1 2249   0.043   4.578   3.325
  450SOL    HW2 2250   0.092   4.731   3.351
  451SOL     OW 2251   0.933   2.021   0.964
  451SOL    HW1 2252   0.847   1.970   0.965
  451SOL    HW2 2253   0.997   1.981   1.029
  452SOL     OW 2254   5.093   5.451   2.687
  452SOL    HW1 2255   5.086   5.357   2.720
  452SOL    HW2 2256   5.073   5.453   2.589
  453SOL     OW 2257   3.285   0.750   6.777
  453SOL    HW1 2258   3.304   0.668   6.830
  453SOL    HW2 2259   3.294   0.729   6.680
  454SOL     OW 2260   6.579   3.554   6.246
  454SOL    HW1 2261   6.482   3.540   6.268
  454SOL    HW2 2262   6.601   3.651   6.252
  455SOL     OW 2263   5.341   4.944   5.719
  455SOL    HW1 2264   5.261   4.917   5.665
  455SOL    HW2 2265   5.424   4.934   5.665
  456SOL     OW 2266   2.615   1.205   2.557
  456SOL    HW1 2267   2.611   1.218   2.458
  456SOL    HW2 2268   2.638   1.110   2.577
  457SOL     OW 2269   2.433   6.458   0.311
  457SOL    HW1 2270   2.376   6.466   0.393
  457SOL    HW2 2271   2.472   6.547   0.289
  458SOL     OW 2272   3.080   1.200   3.071
  458SOL    HW1 2273   3.050   1.184   2.976
  458SOL    HW2 2274   3.017   1.263   3.115
  459SOL     OW 2275   3.047   0.393   3.346
  459SOL    HW1 2276   3.080   0.410   3.438
  459SOL    HW2 2277   3.122   0.405   3.281
  460SOL     OW 2278   0.861   1.813   6.531
  460SOL    HW1 2279   0.932   1.817   6.602
  460SOL    HW2 2280   0.786   1.755   6.562
  461SOL     OW 2281   1.138   5.056   5.615
  461SOL    HW1 2282   1.184   4.977   5.656
  461SOL    HW2 2283   1.164   5.062   5.518
  462SOL     OW 2284   3.885   4.089   5.027
  462SOL    HW1 2285   3.906   3.993   5.047
  462SOL    HW2 2286   3.931   4.117   4.943
  463SOL     OW 2287   5.246   6.288   3.991
  463SOL    HW1 2288   5.206   6.281   3.899
  463SOL    HW2 2289   5.173   6.284   4.059
  464SOL     OW 2290   3.204   5.113   6.638
  464SOL    HW1 2291   3.260   5.191   6.663
  464SOL    HW2 2292   3.243   5.069   6.556
  465SOL     OW 2293   0.664   4.165   1.060
  465SOL    HW1 2294   0.573   4.146   1.096
  465SOL    HW2 2295   0.660   4.242   0.997
  466SOL     OW 2296   3.788   5.387   4.512
  466SOL    HW1 2297   3.711   5.341   4.557
  466SOL    HW2 2298   3.777   5.380   4.412
  467SOL     OW 2299   6.383   0.355   2.330
  467SOL    HW1 2300   6.463   0.332   2.274
  467SOL    HW2 2301   6.313   0.397   2.272
  468SOL     OW 2302   2.789   6.165   6.619
  468SOL    HW1 2303   2.700   6.206   6.639
  468SOL    HW2 2304   2.812   6.180   6.523
  469SOL     OW 2305   3.202   4.867   4.818
  469SOL    HW1 2306   3.112   4.904   4.840
  469SOL    HW2 2307   3.205   4.770   4.840
  470SOL     OW 2308   2.431   4.713   2.690
  470SOL    HW1 2309   2.401   4.619   2.703
  470SOL    HW2 2310   2.364   4.763   2.636
  471SOL     OW 2311   1.479   2.306   4.169
  471SOL    HW1 2312   1.564   2.328   4.216
  471SOL    HW2 2313   1.500   2.258   4.083
  472SOL     OW 2314   5.143   3.390   6.369
  472SOL    HW1 2315   5.090   3.474   6.379
  472SOL    HW2 2316   5.218   3.405   6.305
  473SOL     OW 2317   6.295   2.963   2.133
  473SOL    HW1 2318   6.203   2.994   2.157
  473SOL    HW2 2319   6.291   2.869   2.100
  474SOL     OW 2320   4.943   5.918   4.482
  474SOL    HW1 2321   4.972   5.891   4.574
  474SOL    HW2 2322   4.955   5.841   4.420
  475SOL     OW 2323   5.653   2.060   0.577
  475SOL    HW1 2324   5.574   2.037   0.635
  475SOL    HW2 2325   5.732   2.078   0.635
  476SOL     OW 2326   1.183   3.893   0.287
  476SOL    HW1 2327   1.108   3.878   0.222
  476SOL    HW2 2328   1.152   3.870   0.379
  477SOL     OW 2329   1.751   4.753   3.689
  477SOL    HW1 2330   1.757   4.685   3.762
  477SOL    HW2 2331   1.741   4.844   3.728
  478SOL     OW 2332   5.296   6.120   2.391
  478SOL    HW1 2333   5.245   6.042   2.428
  478SOL    HW2 2334   5.376   6.138   2.449
  479SOL     OW 2335   3.656   4.169   3.406
  479SOL    HW1 2336   3.709   4.190   3.488
  479SOL    HW2 2337   3.598   4.089   3.423
  480SOL     OW 2338   1.006   0.628   2.410
  480SOL    HW1 2339   1.089   0.593   2.453
  480SOL    HW2 2340   0.966   0.700   2.467
  481SOL     OW 2341   0.185   0.213   0.737
  481SOL    HW1 2342   0.159   0.126   0.694
  481SOL    HW2 2343   0.274   0.242   0.702
  482SOL     OW 2344   4.175   4.765   2.254
  482SOL    HW1 2345   4.138   4.796   2.166
  482SOL    HW2 2346   4.108   4.781   2.326
  483SOL     OW 2347   5.823   2.259   4.179
  483SOL    HW1 2348   5.801   2.288   4.086
  483SOL    HW2 2349   5.922   2.268   4.193
  484SOL     OW 2350   2.550   4.570   3.750
  484SOL    HW1 2351   2.466   4.587   3.698
  484SOL    HW2 2352   2.590   4.484   3.721
  485SOL     OW 2353   5.610   2.795   1.416
  485SOL    HW1 2354   5.575   2.880   1.455
  485SOL    HW2 2355   5.688   2.763   1.471
  486SOL     OW 2356   5.852   6.107   6.134
  486SOL    HW1 2357   5.864   6.204   6.155
  486SOL    HW2 2358   5.770   6.095   6.079
  487SOL     OW 2359   0.250   6.785   6.008
  487SOL    HW1 2360   0.204   6.808   6.094
  487SOL    HW2 2361   0.265   6.868   5.955
  488SOL     OW 2362   2.177   5.286   3.464
  488SOL    HW1 2363   2.249   5.223   3.492
  488SOL    HW2 2364   2.198   5.378   3.499
  489SOL     OW 2365   2.140   5.579   5.683
  489SOL    HW1 2366   2.091   5.530   5.611
  489SOL    HW2 2367   2.238   5.579   5.663
  490SOL     OW 2368   0.726   4.341   4.471
  490SOL    HW1 2369   0.683   4.362   4.384
  490SOL    HW2 2370   0.794   4.268   4.458
  491SOL     OW 2371   0.296   2.920   0.720
  491SOL    HW1 2372   0.378   2.969   0.750
  491SOL    HW2 2373   0.254   2.969   0.644
  492SOL     OW 2374   1.304   2.973   5.777
  492SOL    HW1 2375   1.339   2.895   5.830
  492SOL    HW2 2376   1.335   3.058   5.819
  493SOL     OW 2377   1.920   5.135   4.829
  493SOL    HW1 2378   2.018   5.125   4.809
  493SOL    HW2 2379   1.909   5.167   4.923
  494SOL     OW 2380   2.580   6.860   4.401
  494SOL    HW1 2381   2.520   6.789   4.437
  494SOL    HW2 2382   2.626   6.907   4.476
  495SOL     OW 2383   4.069   4.132   6.688
  495SOL    HW1 2384   4.000   4.146   6.758
  495SOL    HW2 2385   4.028   4.085   6.610
  496SOL     OW 2386   4.942   1.777   3.514
  496SOL    HW1 2387   4.923   1.706   3.446
  496SOL    HW2 2388   5.006   1.844   3.476
  497SOL     OW 2389   4.915   1.223   0.253
  497SOL    HW1 2390   4.947   1.177   0.170
  497SOL    HW2 2391   4.968   1.306   0.269
  498SOL     OW 2392   6.952   6.947   1.436
  498SOL    HW1 2393   0.019   6.981   1.396
  498SOL    HW2 2394   6.882   7.017   1.430
  499SOL     OW 2395   2.523   5.693   0.230
  499SOL    HW1 2396   2.471   5.625   0.282
  499SOL    HW2 2397   2.522   5.780   0.278
  500SOL     OW 2398   5.575   1.857   6.799
  500SOL    HW1 2399   5.535   1.856   6.890
  500SOL    HW2 2400   5.571   1.950   6.762
  501SOL     OW 2401   1.437   1.133   4.724
  501SOL    HW1 2402   1.490   1.057   4.684
  501SOL    HW2 2403   1.343   1.102   4.742
  502SOL     OW 2404   2.617   4.275   0.024
  502SOL    HW1 2405   2.696   4.313   0.072
  502SOL    HW2 2406   2.533   4.315   0.061
  503SOL     OW 2407   4.067   5.685   1.166
  503SOL    HW1 2408   3.987   5.715   1.114
  503SOL    HW2 2409   4.117   5.616   1.114
  504SOL     OW 2410   6.592   5.844   1.571
  504SOL    HW1 2411   6.587   5.935   1.529
  504SOL    HW2 2412   6.531   5.840   1.650
  505SOL     OW 2413   4.993   5.709   5.296
  505SOL    HW1 2414   4.999   5.786   5.360
  505SOL    HW2 2415   5.045   5.632   5.332
  506SOL     OW 2416   3.542   5.105   2.811
  506SOL    HW1 2417   3.499   5.018   2.785
  506SOL    HW2 2418   3.569   5.102   2.907
  507SOL     OW 2419   3.024   0.866   1.597
  507SOL    HW1 2420   3.065   0.850   1.687
  507SOL    HW2 2421   3.075   0.937   1.549
  508SOL     OW 2422   0.413   4.463   3.210
  508SOL    HW1 2423   0.351   4.416   3.147
  508SOL    HW2 2424   0.420   4.559   3.185
  509SOL     OW 2425   4.431   6.872   6.064
  509SOL    HW1 2426   4.364   6.825   6.120
  509SOL    HW2 2427   4.502   6.808   6.036
  510SOL     OW 2428   6.543   4.025   0.123
  510SOL    HW1 2429   6.485   4.044   0.044
  510SOL    HW2 2430   6.505   4.069   0.204
  511SOL     OW 2431   0.683   1.651   0.235
  511SOL    HW1 2432   0.589   1.674   0.260
  511SOL    HW2 2433   0.731   1.617   0.316
  512SOL     OW 2434   0.526   2.426   3.903
  512SOL    HW1 2435   0.497   2.488   3.830
  512SOL    HW2 2436   0.547   2.336   3.865
  513SOL     OW 2437   5.065   0.732   3.600
  513SOL    HW1 2438   5.083   0.642   3.559
  513SOL    HW2 2439   4.972   0.760   3.578
  514SOL     OW 2440   5.370   0.861   5.260
  514SOL    HW1 2441   5.452   0.885   5.208
  514SOL    HW2 2442   5.365   0.762   5.272
  515SOL     OW 2443   3.873   0.160   6.216
  515SOL    HW1 2444   3.924   0.113   6.143
  515SOL    HW2 2445   3.905   0.127   6.305
  516SOL     OW 2446   1.934   6.084   2.238
  516SOL    HW1 2447   1.909   6.031   2.157
  516SOL    HW2 2448   1.952   6.179   2.212
  517SOL     OW 2449   3.110   5.815   1.439
  517SOL    HW1 2450   3.115   5.762   1.523
  517SOL    HW2 2451   3.103   5.753   1.360
  518SOL     OW 2452   1.593   4.260   4.341
  518SOL    HW1 2453   1.599   4.181   4.280
  518SOL    HW2 2454   1.611   4.232   4.435
  519SOL     OW 2455   0.165   0.379   2.240
  519SOL    HW1 2456   0.143   0.475   2.259
  519SOL    HW2 2457   0.257   0.360   2.273
  520SOL     OW 2458   2.174   3.951   0.683
  520SOL    HW1 2459   2.267   3.958   0.645
  520SOL    HW2 2460   2.179   3.951   0.782
  521SOL     OW 2461   6.586   6.097   4.752
  521SOL    HW1 2462   6.637   6.025   4.800
  521SOL    HW2 2463   6.544   6.058   4.670
  522SOL     OW 2464   4.011   4.118   0.852
  522SOL    HW1 2465   3.936   4.060   0.884
  522SOL    HW2 2466   4.058   4.157   0.931
  523SOL     OW 2467   0.817   7.012   0.176
  523SOL    HW1 2468   0.765   6.970   0.250
  523SOL    HW2 2469   0.773   6.992   0.089
  524SOL     OW 2470   6.940   1.756   1.082
  524SOL    HW1 2471   0.017   1.774   1.111
  524SOL    HW2 2472   6.929   1.658   1.064
  525SOL     OW 2473   0.607   3.453   4.074
  525SOL    HW1 2474   0.524   3.431   4.124
  525SOL    HW2 2475   0.656   3.368   4.052
  526SOL     OW 2476   3.672   0.255   3.686
  526SOL    HW1 2477   3.642   0.217   3.773
  526SOL    HW2 2478   3.592   0.287   3.635
  527SOL     OW 2479   0.412   1.406   0.732
  527SOL    HW1 2480   0.316   1.381   0.720
  527SOL    HW2 2481   0.418   1.492   0.782
  528SOL     OW 2482   6.957   2.712   4.629
  528SOL    HW1 2483   0.002   2.790   4.640
  528SOL    HW2 2484   6.867   2.745   4.602
  529SOL     OW 2485   2.208   0.053   6.971
  529SOL    HW1 2486   2.167   0.144   6.979
  529SOL    HW2 2487   2.173   7.012   0.025
  530SOL     OW 2488   3.616   4.950   1.049
  530SOL    HW1 2489   3.545   5.019   1.058
  530SOL    HW2 2490   3.629   4.903   1.136
  531SOL     OW 2491   1.775   0.104   0.528
  531SOL    HW1 2492   1.824   0.053   0.599
  531SOL    HW2 2493   1.706   0.044   0.486
  532SOL     OW 2494   1.747   2.169   5.912
  532SOL    HW1 2495   1.720   2.120   5.828
  532SOL    HW2 2496   1.831   2.220   5.894
  533SOL     OW 2497   4.029   0.505   3.863
  533SOL    HW1 2498   3.938   0.535   3.893
  533SOL    HW2 2499   4.098   0.554   3.917
  534SOL     OW 2500   1.881   3.935   2.162
  534SOL    HW1 2501   1.979   3.951   2.176
  534SOL    HW2 2502   1.867   3.887   2.076
  535SOL     OW 2503   4.884   3.173   4.129
  535SOL    HW1 2504   4.972   3.128   4.116
  535SOL    HW2 2505   4.813   3.103   4.144
  536SOL     OW 2506   6.082   6.633   1.732
  536SOL    HW1 2507   6.098   6.565   1.660
  536SOL    HW2 2508   6.062   6.722   1.691
  537SOL     OW 2509   2.908   1.639   3.505
  537SOL    HW1 2510   2.960   1.683   3.432
  537SOL    HW2 2511   2.969   1.620   3.583
  538SOL     OW 2512   3.356   4.944   5.042
  538SOL    HW1 2513   3.305   4.927   4.957
  538SOL    HW2 2514   3.310   4.899   5.118
  539SOL     OW 2515   0.927   0.395   6.888
  539SOL    HW1 2516   0.953   0.471   6.829
  539SOL    HW2 2517   0.982   0.315   6.866
  540SOL     OW 2518   1.481   0.435   4.747
  540SOL    HW1 2519   1.454   0.339   4.750
  540SOL    HW2 2520   1.508   0.459   4.653
  541SOL     OW 2521   4.895   6.105   3.714
  541SOL    HW1 2522   4.828   6.151   3.772
  541SOL    HW2 2523   4.982   6.155   3.717
  542SOL     OW 2524   3.647   0.244   5.337
  542SOL    HW1 2525   3.730   0.214   5.290
  542SOL    HW2 2526   3.603   0.165   5.380
  543SOL     OW 2527   6.554   2.035   3.785
  543SOL    HW1 2528   6.505   2.000   3.865
  543SOL    HW2 2529   6.631   2.091   3.815
  544SOL     OW 2530   1.501   3.504   1.846
  544SOL    HW1 2531   1.438   3.442   1.893
  544SOL    HW2 2532   1.449   3.580   1.806
  545SOL     OW 2533   6.212   6.774   1.306
  545SOL    HW1 2534   6.266   6.844   1.259
  545SOL    HW2 2535   6.149   6.732   1.241
  546SOL     OW 2536   0.175   4.522   2.317
  546SOL    HW1 2537   0.264   4.556   2.350
  546SOL    HW2 2538   0.146   4.445   2.373
  547SOL     OW 2539   5.247   0.531   6.119
  547SOL    HW1 2540   5.156   0.557   6.150
  547SOL    HW2 2541   5.244   0.503   6.023
  548SOL     OW 2542   4.232   2.192   0.277
  548SOL    HW1 2543   4.157   2.201   0.212
  548SOL    HW2 2544   4.196   2.194   0.371
  549SOL     OW 2545   5.580   1.330   1.543
  549SOL    HW1 2546   5.560   1.237   1.574
  549SOL    HW2 2547   5.528   1.396   1.598
  550SOL     OW 2548   0.154   6.177   3.379
  550SOL    HW1 2549   0.130   6.102   3.317
  550SOL    HW2 2550   0.250   6.168   3.406
  551SOL     OW 2551   6.429   0.529   0.320
  551SOL    HW1 2552   6.488   0.606   0.294
  551SOL    HW2 2553   6.339   0.564   0.346
  552SOL     OW 2554   0.221   6.204   5.545
  552SOL    HW1 2555   0.297   6.178   5.486
  552SOL    HW2 2556   0.144   6.233   5.488
  553SOL     OW 2557   3.095   1.176   6.961
  553SOL    HW1 2558   3.012   1.140   7.005
  553SOL    HW2 2559   3.111   1.270   6.990
  554SOL     OW 2560   5.932   6.411   1.250
  554SOL    HW1 2561   6.024   6.379   1.228
  554SOL    HW2 2562   5.891   6.452   1.169
  555SOL     OW 2563   1.741   3.898   5.633
  555SOL    HW1 2564   1.739   3.823   5.700
  555SOL    HW2 2565   1.828   3.895   5.583
  556SOL     OW 2566   5.823   0.482   3.872
  556SOL    HW1 2567   5.824   0.498   3.971
  556SOL    HW2 2568   5.743   0.527   3.832
  557SOL     OW 2569   6.552   4.364   6.720
  557SOL    HW1 2570   6.602   4.395   6.639
  557SOL    HW2 2571   6.474   4.423   6.736
  558SOL     OW 2572   3.195   4.024   2.405
  558SOL    HW1 2573   3.180   4.051   2.500
  558SOL    HW2 2574   3.208   3.925   2.400
  559SOL     OW 2575   6.307   6.785   5.167
  559SOL    HW1 2576   6.298   6.884   5.171
  559SOL    HW2 2577   6.327   6.756   5.074
  560SOL     OW 2578   0.086   3.344   4.157
  560SOL    HW1 2579   0.135   3.309   4.237
  560SOL    HW2 2580   7.014   3.377   4.185
  561SOL     OW 2581   0.623   2.893   0.380
  561SOL    HW1 2582   0.550   2.897   0.312
  561SOL    HW2 2583   0.674   2.979   0.380
  562SOL     OW 2584   4.083   0.172   5.017
  562SOL    HW1 2585   4.163   0.201   4.965
  562SOL    HW2 2586   4.001   0.211   4.975
  563SOL     OW 2587   1.201   0.544   3.950
  563SOL    HW1 2588   1.224   0.621   4.009
  563SOL    HW2 2589   1.106   0.519   3.964
  564SOL     OW 2590   6.680   1.781   6.499
  564SOL    HW1 2591   6.599   1.795   6.556
  564SOL    HW2 2592   6.687   1.684   6.475
  565SOL     OW 2593   3.451   3.553   3.569
  565SOL    HW1 2594   3.373   3.494   3.590
  565SOL    HW2 2595   3.464   3.619   3.644
  566SOL     OW 2596   3.107   0.792   3.752
  566SOL    HW1 2597   3.052   0.709   3.749
  566SOL    HW2 2598   3.091   0.839   3.839
  567SOL     OW 2599   2.471   2.674   5.588
  567SOL    HW1 2600   2.464   2.576   5.602
  567SOL    HW2 2601   2.562   2.697   5.554
  568SOL     OW 2602   0.797   6.512   6.796
  568SOL    HW1 2603   0.830   6.569   6.871
  568SOL    HW2 2604   0.874   6.488   6.736
  569SOL     OW 2605   5.944   3.538   0.198
  569SOL    HW1 2606   5.898   3.618   0.160
  569SOL    HW2 2607   6.003   3.565   0.273
  570SOL     OW 2608   2.471   0.549   6.022
  570SOL    HW1 2609   2.539   0.565   6.094
  570SOL    HW2 2610   2.488   0.461   5.978
  571SOL     OW 2611   1.870   4.742   1.183
  571SOL    HW1 2612   1.939   4.812   1.167
  571SOL    HW2 2613   1.793   4.757   1.121
  572SOL     OW 2614   2.949   0.215   4.502
  572SOL    HW1 2615   2.887   0.216   4.424
  572SOL    HW2 2616   3.040   0.189   4.471
  573SOL     OW 2617   0.246   0.853   5.379
  573SOL    HW1 2618   0.238   0.816   5.286
  573SOL    HW2 2619   0.250   0.778   5.445
  574SOL     OW 2620   2.301   1.814   5.371
  574SOL    HW1 2621   2.223   1.865   5.333
  574SOL    HW2 2622   2.334   1.861   5.453
  575SOL     OW 2623   4.023   3.307   0.236
  575SOL    HW1 2624   3.931   3.268   0.230
  575SOL    HW2 2625   4.018   3.397   0.278
  576SOL     OW 2626   2.081   2.332   2.666
  576SOL    HW1 2627   1.986   2.351   2.689
  576SOL    HW2 2628   2.086   2.275   2.584
  577SOL     OW 2629   0.338   0.829   1.419
  577SOL    HW1 2630   0.283   0.853   1.499
  577SOL    HW2 2631   0.283   0.839   1.336
  578SOL     OW 2632   3.372   6.667   6.491
  578SOL    HW1 2633   3.394   6.733   6.563
  578SOL    HW2 2634   3.444   6.668   6.422
  579SOL     OW 2635   2.120   3.746   1.878
  579SOL    HW1 2636   2.029   3.762   1.918
  579SOL    HW2 2637   2.157   3.661   1.915
  580SOL     OW 2638   4.780   5.727   5.151
  580SOL    HW1 2639   4.787   5.740   5.052
  580SOL    HW2 2640   4.871   5.729   5.192
  581SOL     OW 2641   1.835   2.896   4.789
  581SOL    HW1 2642   1.761   2.866   4.850
  581SOL    HW2 2643   1.902   2.822   4.780
  582SOL     OW 2644   4.837   5.231   3.974
  582SOL    HW1 2645   4.922   5.282   3.955
  582SOL    HW2 2646   4.837   5.146   3.922
  583SOL     OW 2647   4.059   6.080   5.941
  583SOL    HW1 2648   4.017   6.116   6.025
  583SOL    HW2 2649   4.140   6.027   5.965
  584SOL     OW 2650   4.604   0.852   5.243
  584SOL    HW1 2651   4.634   0.905   5.322
  584SOL    HW2 2652   4.522   0.799   5.268
  585SOL     OW 2653   3.084   0.552   1.838
  585SOL    HW1 2654   3.123   0.644   1.838
  585SOL    HW2 2655   3.104   0.507   1.751
  586SOL     OW 2656   3.719   0.752   0.939
  586SOL    HW1 2657   3.692   0.661   0.907
  586SOL    HW2 2658   3.661   0.779   1.016
  587SOL     OW 2659   4.842   2.071   1.610
  587SOL    HW1 2660   4.918   2.095   1.671
  587SOL    HW2 2661   4.765   2.038   1.664
  588SOL     OW 2662   1.516   5.208   3.087
  588SOL    HW1 2663   1.437   5.150   3.074
  588SOL    HW2 2664   1.495   5.278   3.155
  589SOL     OW 2665   3.219   5.563   0.705
  589SOL    HW1 2666   3.125   5.537   0.680
  589SOL    HW2 2667   3.279   5.484   0.694
  590SOL     OW 2668   4.087   2.041   0.899
  590SOL    HW1 2669   4.032   2.036   0.982
  590SOL    HW2 2670   4.038   1.999   0.824
  591SOL     OW 2671   3.232   6.032   4.012
  591SOL    HW1 2672   3.327   6.012   3.989
  591SOL    HW2 2673   3.229   6.102   4.084
  592SOL     OW 2674   3.769   2.162   4.480
  592SOL    HW1 2675   3.749   2.085   4.420
  592SOL    HW2 2676   3.700   2.167   4.552
  593SOL     OW 2677   2.789   1.936   6.700
  593SOL    HW1 2678   2.729   1.934   6.780
  593SOL    HW2 2679   2.733   1.941   6.617
  594SOL     OW 2680   5.017   0.940   1.942
  594SOL    HW1 2681   4.950   0.875   1.977
  594SOL    HW2 2682   5.080   0.966   2.015
  595SOL     OW 2683   5.844   5.572   2.427
  595SOL    HW1 2684   5.867   5.476   2.412
  595SOL    HW2 2685   5.771   5.599   2.364
  596SOL     OW 2686   6.179   4.626   4.358
  596SOL    HW1 2687   6.178   4.608   4.457
  596SOL    HW2 2688   6.136   4.549   4.311
  597SOL     OW 2689   3.004   0.395   6.514
  597SOL    HW1 2690   3.071   0.322   6.517
  597SOL    HW2 2691   2.927   0.368   6.455
  598SOL     OW 2692   3.097   4.026   4.201
  598SOL    HW1 2693   3.086   4.026   4.300
  598SOL    HW2 2694   3.026   3.969   4.159
  599SOL     OW 2695   1.142   4.847   1.476
  599SOL    HW1 2696   1.206   4.782   1.516
  599SOL    HW2 2697   1.183   4.938   1.475
  600SOL     OW 2698   6.319   3.657   5.161
  600SOL    HW1 2699   6.410   3.698   5.155
  600SOL    HW2 2700   6.272   3.692   5.242
  601SOL     OW 2701   1.381   6.457   5.699
  601SOL    HW1 2702   1.443   6.490   5.770
  601SOL    HW2 2703   1.378   6.357   5.700
  602SOL     OW 2704   2.018   0.194   3.491
  602SOL    HW1 2705   1.971   0.179   3.404
  602SOL    HW2 2706   2.084   0.269   3.480
  603SOL     OW 2707   1.458   1.488   4.599
  603SOL    HW1 2708   1.543   1.520   4.557
  603SOL    HW2 2709   1.453   1.388   4.591
  604SOL     OW 2710   6.333   2.232   1.778
  604SOL    HW1 2711   6.254   2.171   1.788
  604SOL    HW2 2712   6.400   2.212   1.850
  605SOL     OW 2713   6.622   6.492   1.546
  605SOL    HW1 2714   6.632   6.398   1.514
  605SOL    HW2 2715   6.712   6.531   1.563
  606SOL     OW 2716   3.512   0.044   4.297
  606SOL    HW1 2717   3.574   6.988   4.267
  606SOL    HW2 2718   3.418   0.012   4.292
  607SOL     OW 2719   1.586   3.663   6.024
  607SOL    HW1 2720   1.522   3.592   6.053
  607SOL    HW2 2721   1.610   3.720   6.103
  608SOL     OW 2722   3.386   1.134   5.879
  608SOL    HW1 2723   3.390   1.061   5.810
  608SOL    HW2 2724   3.300   1.184   5.870
  609SOL     OW 2725   3.098   2.812   1.813
  609SOL    HW1 2726   3.157   2.857   1.881
  609SOL    HW2 2727   3.086   2.716   1.838
  610SOL     OW 2728   4.534   3.594   1.687
  610SOL    HW1 2729   4.567   3.688   1.691
  610SOL    HW2 2730   4.603   3.536   1.645
  611SOL     OW 2731   3.201   0.679   3.141
  611SOL    HW1 2732   3.225   0.582   3.132
  611SOL    HW2 2733   3.140   0.706   3.067
  612SOL     OW 2734   4.238   5.107   4.608
  612SOL    HW1 2735   4.229   5.013   4.575
  612SOL    HW2 2736   4.333   5.136   4.601
  613SOL     OW 2737   4.128   4.685   5.252
  613SOL    HW1 2738   4.120   4.587   5.238
  613SOL    HW2 2739   4.080   4.711   5.336
  614SOL     OW 2740   3.269   5.555   6.104
  614SOL    HW1 2741   3.327   5.627   6.067
  614SOL    HW2 2742   3.237   5.496   6.030
  615SOL     OW 2743   0.799   5.051   2.322
  615SOL    HW1 2744   0.863   4.976   2.336
  615SOL    HW2 2745   0.821   5.125   2.386
  616SOL     OW 2746   6.012   3.400   3.561
  616SOL    HW1 2747   6.028   3.408   3.659
  616SOL    HW2 2748   6.008   3.304   3.536
  617SOL     OW 2749   3.278   6.365   5.933
  617SOL    HW1 2750   3.228   6.279   5.928
  617SOL    HW2 2751   3.283   6.396   6.028
  618SOL     OW 2752   1.717   1.120   2.249
  618SOL    HW1 2753   1.796   1.156   2.198
  618SOL    HW2 2754   1.724   1.147   2.345
  619SOL     OW 2755   0.381   1.329   6.815
  619SOL    HW1 2756   0.409   1.235   6.797
  619SOL    HW2 2757   0.446   1.372   6.878
  620SOL     OW 2758   4.232   3.485   1.372
  620SOL    HW1 2759   4.245   3.565   1.431
  620SOL    HW2 2760   4.183   3.512   1.289
  621SOL     OW 2761   0.663   4.885   1.038
  621SOL    HW1 2762   0.739   4.868   0.976
  621SOL    HW2 2763   0.662   4.982   1.063
  622SOL     OW 2764   1.090   0.614   6.460
  622SOL    HW1 2765   1.153   0.644   6.388
  622SOL    HW2 2766   1.002   0.660   6.447
  623SOL     OW 2767   0.417   4.738   6.232
  623SOL    HW1 2768   0.462   4.695   6.153
  623SOL    HW2 2769   0.369   4.669   6.285
  624SOL     OW 2770   1.063   2.055   1.821
  624SOL    HW1 2771   1.098   2.140   1.783
  624SOL    HW2 2772   0.964   2.064   1.838
  625SOL     OW 2773   1.614   1.168   1.648
  625SOL    HW1 2774   1.669   1.117   1.714
  625SOL    HW2 2775   1.568   1.104   1.586
  626SOL     OW 2776   3.243   7.011   4.193
  626SOL    HW1 2777   3.294   6.926   4.177
  626SOL    HW2 2778   3.145   6.993   4.186
  627SOL     OW 2779   4.566   0.767   7.012
  627SOL    HW1 2780   4.504   0.711   0.049
  627SOL    HW2 2781   4.635   0.807   0.054
  628SOL     OW 2782   5.514   4.038   3.561
  628SOL    HW1 2783   5.587   4.007   3.621
  628SOL    HW2 2784   5.514   3.984   3.477
  629SOL     OW 2785   1.825   6.470   0.287
  629SOL    HW1 2786   1.869   6.479   0.198
  629SOL    HW2 2787   1.746   6.531   0.292
  630SOL     OW 2788   3.561   1.610   1.345
  630SOL    HW1 2789   3.475   1.615   1.397
  630SOL    HW2 2790   3.550   1.659   1.259
  631SOL     OW 2791   2.187   6.851   4.402
  631SOL    HW1 2792   2.159   6.845   4.306
  631SOL    HW2 2793   2.230   6.940   4.418
  632SOL     OW 2794   2.286   1.118   1.130
  632SOL    HW1 2795   2.198   1.164   1.139
  632SOL    HW2 2796   2.360   1.183   1.144
  633SOL     OW 2797   2.400   6.619   5.735
  633SOL    HW1 2798   2.374   6.555   5.807
  633SOL    HW2 2799   2.498   6.636   5.739
  634SOL     OW 2800   3.335   6.241   0.948
  634SOL    HW1 2801   3.349   6.151   0.907
  634SOL    HW2 2802   3.331   6.232   1.048
  635SOL     OW 2803   2.774   0.735   2.758
  635SOL    HW1 2804   2.823   0.672   2.818
  635SOL    HW2 2805   2.689   0.765   2.804
  636SOL     OW 2806   5.158   5.336   0.225
  636SOL    HW1 2807   5.058   5.348   0.222
  636SOL    HW2 2808   5.185   5.273   0.152
  637SOL     OW 2809   5.481   4.768   0.911
  637SOL    HW1 2810   5.430   4.805   0.988
  637SOL    HW2 2811   5.459   4.671   0.900
  638SOL     OW 2812   5.477   1.275   2.482
  638SOL    HW1 2813   5.403   1.220   2.523
  638SOL    HW2 2814   5.565   1.236   2.508
  639SOL     OW 2815   4.556   4.340   2.309
  639SOL    HW1 2816   4.526   4.324   2.215
  639SOL    HW2 2817   4.648   4.379   2.309
  640SOL     OW 2818   2.892   4.059   5.757
  640SOL    HW1 2819   2.962   4.116   5.714
  640SOL    HW2 2820   2.806   4.068   5.708
  641SOL     OW 2821   6.973   5.955   5.071
  641SOL    HW1 2822   6.987   5.991   4.979
  641SOL    HW2 2823   6.973   5.855   5.068
  642SOL     OW 2824   1.682   4.696   5.974
  642SOL    HW1 2825   1.617   4.763   6.010
  642SOL    HW2 2826   1.775   4.721   6.001
  643SOL     OW 2827   5.456   6.084   4.594
  643SOL    HW1 2828   5.502   6.171   4.612
  643SOL    HW2 2829   5.388   6.067   4.665
  644SOL     OW 2830   2.088   6.097   1.839
  644SOL    HW1 2831   2.018   6.142   1.785
  644SOL    HW2 2832   2.173   6.090   1.786
  645SOL     OW 2833   5.817   3.301   3.913
  645SOL    HW1 2834   5.769   3.245   3.846
  645SOL    HW2 2835   5.754   3.367   3.953
  646SOL     OW 2836   1.117   1.527   4.408
  646SOL    HW1 2837   1.206   1.559   4.442
  646SOL    HW2 2838   1.077   1.598   4.350
  647SOL     OW 2839   5.130   3.018   0.430
  647SOL    HW1 2840   5.171   3.023   0.521
  647SOL    HW2 2841   5.167   3.091   0.373
  648SOL     OW 2842   5.420   2.233   3.114
  648SOL    HW1 2843   5.510   2.210   3.152
  648SOL    HW2 2844   5.358   2.257   3.189
  649SOL     OW 2845   4.340   4.553   2.079
  649SOL    HW1 2846   4.305   4.529   1.989
  649SOL    HW2 2847   4.264   4.562   2.144
  650SOL     OW 2848   4.235   3.711   1.006
  650SOL    HW1 2849   4.169   3.649   1.050
  650SOL    HW2 2850   4.328   3.687   1.034
  651SOL     OW 2851   1.496   5.605   6.040
  651SOL    HW1 2852   1.473   5.662   6.119
  651SOL    HW2 2853   1.531   5.517   6.072
  652SOL     OW 2854   4.457   1.433   2.422
  652SOL    HW1 2855   4.547   1.391   2.406
  652SOL    HW2 2856   4.446   1.512   2.362
  653SOL     OW 2857   4.083   5.141   3.597
  653SOL    HW1 2858   4.173   5.113   3.563
  653SOL    HW2 2859   4.043   5.208   3.534
  654SOL     OW 2860   6.436   5.192   0.392
  654SOL    HW1 2861   6.500   5.237   0.331
  654SOL    HW2 2862   6.388   5.260   0.447
  655SOL     OW 2863   0.475   0.723   6.829
  655SOL    HW1 2864   0.507   0.761   6.916
  655SOL    HW2 2865   0.547   0.667   6.789
  656SOL     OW 2866   2.864   6.219   2.059
  656SOL    HW1 2867   2.893   6.217   2.155
  656SOL    HW2 2868   2.775   6.264   2.052
  657SOL     OW 2869   4.180   1.506   6.773
  657SOL    HW1 2870   4.102   1.543   6.823
  657SOL    HW2 2871   4.148   1.463   6.688
  658SOL     OW 2872   3.403   5.162   6.194
  658SOL    HW1 2873   3.421   5.260   6.208
  658SOL    HW2 2874   3.446   5.133   6.108
  659SOL     OW 2875   2.780   0.265   6.672
  659SOL    HW1 2876   2.744   0.293   6.583
  659SOL    HW2 2877   2.880   0.271   6.671
  660SOL     OW 2878   3.810   5.332   3.047
  660SOL    HW1 2879   3.863   5.328   3.132
  660SOL    HW2 2880   3.848   5.402   2.988
  661SOL     OW 2881   5.464   5.760   2.874
  661SOL    HW1 2882   5.547   5.709   2.854
  661SOL    HW2 2883   5.384   5.702   2.855
  662SOL     OW 2884   3.644   1.261   0.540
  662SOL    HW1 2885   3.704   1.182   0.552
  662SOL    HW2 2886   3.638   1.312   0.626
  663SOL     OW 2887   2.282   4.692   4.923
  663SOL    HW1 2888   2.350   4.764   4.931
  663SOL    HW2 2889   2.325   4.603   4.938
  664SOL     OW 2890   6.382   1.048   6.896
  664SOL    HW1 2891   6.460   1.074   6.838
  664SOL    HW2 2892   6.300   1.039   6.840
  665SOL     OW 2893   1.914   4.843   2.432
  665SOL    HW1 2894   1.889   4.936   2.461
  665SOL    HW2 2895   1.880   4.827   2.340
  666SOL     OW 2896   3.920   1.125   1.233
  666SOL    HW1 2897   3.871   1.187   1.295
  666SOL    HW2 2898   3.987   1.073   1.286
  667SOL     OW 2899   1.164   6.166   2.492
  667SOL    HW1 2900   1.097   6.114   2.440
  667SOL    HW2 2901   1.129   6.183   2.584
  668SOL     OW 2902   5.408   3.783   0.485
  668SOL    HW1 2903   5.491   3.826   0.522
  668SOL    HW2 2904   5.351   3.750   0.560
  669SOL     OW 2905   4.973   1.262   2.554
  669SOL    HW1 2906   4.924   1.339   2.595
  669SOL    HW2 2907   4.918   1.179   2.563
  670SOL     OW 2908   3.282   2.016   3.140
  670SOL    HW1 2909   3.255   2.028   3.045
  670SOL    HW2 2910   3.279   1.919   3.164
  671SOL     OW 2911   3.044   6.686   1.459
  671SOL    HW1 2912   3.135   6.717   1.485
  671SOL    HW2 2913   3.024   6.714   1.365
  672SOL     OW 2914   1.501   6.658   1.990
  672SOL    HW1 2915   1.555   6.709   2.057
  672SOL    HW2 2916   1.539   6.566   1.979
  673SOL     OW 2917   5.676   6.597   0.742
  673SOL    HW1 2918   5.619   6.592   0.823
  673SOL    HW2 2919   5.716   6.507   0.723
  674SOL     OW 2920   6.389   1.244   4.281
  674SOL    HW1 2921   6.461   1.269   4.346
  674SOL    HW2 2922   6.349   1.326   4.242
  675SOL     OW 2923   0.367   2.974   3.023
  675SOL    HW1 2924   0.331   2.988   3.115
  675SOL    HW2 2925   0.310   3.023   2.957
  676SOL     OW 2926   2.944   6.406   6.133
  676SOL    HW1 2927   2.887   6.479   6.171
  676SOL    HW2 2928   2.967   6.427   6.038
  677SOL     OW 2929   5.209   1.344   1.032
  677SOL    HW1 2930   5.246   1.372   1.121
  677SOL    HW2 2931   5.109   1.345   1.037
  678SOL     OW 2932   1.452   4.812   4.369
  678SOL    HW1 2933   1.520   4.885   4.366
  678SOL    HW2 2934   1.444   4.778   4.462
  679SOL     OW 2935   4.840   2.192   5.284
  679SOL    HW1 2936   4.931   2.217   5.250
  679SOL    HW2 2937   4.780   2.173   5.207
  680SOL     OW 2938   5.478   6.503   4.441
  680SOL    HW1 2939   5.396   6.541   4.400
  680SOL    HW2 2940   5.511   6.427   4.386
  681SOL     OW 2941   4.652   5.087   2.515
  681SOL    HW1 2942   4.573   5.125   2.468
  681SOL    HW2 2943   4.657   4.988   2.499
  682SOL     OW 2944   0.444   0.942   3.265
  682SOL    HW1 2945   0.517   0.889   3.221
  682SOL    HW2 2946   0.484   1.018   3.316
  683SOL     OW 2947   3.514   3.873   1.458
  683SOL    HW1 2948   3.469   3.917   1.536
  683SOL    HW2 2949   3.559   3.942   1.402
  684SOL     OW 2950   6.474   0.819   6.281
  684SOL    HW1 2951   6.394   0.792   6.335
  684SOL    HW2 2952   6.451   0.896   6.222
  685SOL     OW 2953   3.236   0.374   3.120
  685SOL    HW1 2954   3.168   0.392   3.049
  685SOL    HW2 2955   3.268   0.279   3.111
  686SOL     OW 2956   4.340   0.411   4.684
  686SOL    HW1 2957   4.366   0.491   4.630
  686SOL    HW2 2958   4.409   0.394   4.755
  687SOL     OW 2959   0.470   1.930   3.609
  687SOL    HW1 2960   0.554   1.919   3.556
  687SOL    HW2 2961   0.444   1.842   3.648
  688SOL     OW 2962   6.695   1.123   6.900
  688SOL    HW1 2963   6.642   1.199   6.862
  688SOL    HW2 2964   6.756   1.157   6.972
  689SOL     OW 2965   1.652   5.499   5.541
  689SOL    HW1 2966   1.726   5.443   5.505
  689SOL    HW2 2967   1.660   5.592   5.506
  690SOL     OW 2968   5.181   3.386   2.577
  690SOL    HW1 2969   5.178   3.313   2.645
  690SOL    HW2 2970   5.090   3.427   2.568
  691SOL     OW 2971   5.600   1.369   1.048
  691SOL    HW1 2972   5.550   1.423   0.980
  691SOL    HW2 2973   5.628   1.282   1.007
  692SOL     OW 2974   2.028   0.324   4.491
  692SOL    HW1 2975   1.964   0.281   4.554
  692SOL    HW2 2976   2.120   0.319   4.529
  693SOL     OW 2977   5.590   6.176   3.414
  693SOL    HW1 2978   5.511   6.122   3.444
  693SOL    HW2 2979   5.673   6.140   3.456
  694SOL     OW 2980   4.457   6.633   5.345
  694SOL    HW1 2981   4.371   6.665   5.305
  694SOL    HW2 2982   4.453   6.643   5.445
  695SOL     OW 2983   3.844   0.062   3.990
  695SOL    HW1 2984   3.863   0.142   4.047
  695SOL    HW2 2985   3.745   0.054   3.975
  696SOL     OW 2986   5.654   4.209   3.264
  696SOL    HW1 2987   5.735   4.219   3.322
  696SOL    HW2 2988   5.600   4.292   3.268
  697SOL     OW 2989   1.225   6.399   1.827
  697SOL    HW1 2990   1.321   6.376   1.837
  697SOL    HW2 2991   1.214   6.498   1.823
  698SOL     OW 2992   5.764   6.577   0.162
  698SOL    HW1 2993   5.777   6.510   0.089
  698SOL    HW2 2994   5.852   6.601   0.201
  699SOL     OW 2995   2.908   2.621   1.395
  699SOL    HW1 2996   2.993   2.596   1.441
  699SOL    HW2 2997   2.926   2.695   1.330
  700SOL     OW 2998   3.554   0.284   4.166
  700SOL    HW1 2999   3.484   0.322   4.105
  700SOL    HW2 3000   3.532   0.188   4.186
  701SOL     OW 3001   5.057   5.205   1.509
  701SOL    HW1 3002   5.118   5.251   1.445
  701SOL    HW2 3003   5.071   5.106   1.503
  702SOL     OW 3004   3.360   1.169   3.863
  702SOL    HW1 3005   3.290   1.167   3.935
  702SOL    HW2 3006   3.317   1.155   3.774
  703SOL     OW 3007   3.255   1.951   6.560
  703SOL    HW1 3008   3.260   2.043   6.598
  703SOL    HW2 3009   3.185   1.898   6.609
  704SOL     OW 3010   1.626   2.644   5.497
  704SOL    HW1 3011   1.596   2.650   5.592
  704SOL    HW2 3012   1.697   2.574   5.488
  705SOL     OW 3013   0.167   6.598   5.274
  705SOL    HW1 3014   0.161   6.636   5.366
  705SOL    HW2 3015   0.080   6.613   5.226
  706SOL     OW 3016   4.439   1.354   5.556
  706SOL    HW1 3017   4.446   1.454   5.558
  706SOL    HW2 3018   4.378   1.327   5.482
  707SOL     OW 3019   3.245   5.381   4.384
  707SOL    HW1 3020   3.237   5.479   4.369
  707SOL    HW2 3021   3.342   5.357   4.395
  708SOL     OW 3022   4.317   6.078   3.892
  708SOL    HW1 3023   4.257   6.061   3.814
  708SOL    HW2 3024   4.388   6.008   3.896
  709SOL     OW 3025   2.913   6.955   1.340
  709SOL    HW1 3026   2.985   6.988   1.401
  709SOL    HW2 3027   2.840   0.006   1.336
  710SOL     OW 3028   4.692   2.777   1.796
  710SOL    HW1 3029   4.650   2.866   1.818
  710SOL    HW2 3030   4.751   2.748   1.870
  711SOL     OW 3031   6.858   2.349   6.537
  711SOL    HW1 3032   6.870   2.369   6.440
  711SOL    HW2 3033   6.761   2.334   6.557
  712SOL     OW 3034   5.146   4.432   0.663
  712SOL    HW1 3035   5.049   4.441   0.689
  712SOL    HW2 3036   5.167   4.335   0.646
  713SOL     OW 3037   3.979   2.987   5.466
  713SOL    HW1 3038   3.891   2.940   5.466
  713SOL    HW2 3039   3.965   3.086   5.470
  714SOL     OW 3040   5.183   5.919   2.845
  714SOL    HW1 3041   5.134   5.926   2.932
  714SOL    HW2 3042   5.248   5.843   2.851
  715SOL     OW 3043   6.387   5.306   5.513
  715SOL    HW1 3044   6.332   5.224   5.496
  715SOL    HW2 3045   6.349   5.356   5.592
  716SOL     OW 3046   1.812   1.972   3.066
  716SOL    HW1 3047   1.841   2.043   3.003
  716SOL    HW2 3048   1.752   2.011   3.135
  717SOL     OW 3049   5.232   4.558   3.962
  717SOL    HW1 3050   5.208   4.521   4.052
  717SOL    HW2 3051   5.168   4.630   3.937
  718SOL     OW 3052   5.729   1.694   5.279
  718SOL    HW1 3053   5.790   1.759   5.324
  718SOL    HW2 3054   5.710   1.725   5.186
  719SOL     OW 3055   5.342   0.124   3.514
  719SOL    HW1 3056   5.307   0.113   3.421
  719SOL    HW2 3057   5.403   0.047   3.536
  720SOL     OW 3058   2.867   1.614   0.766
  720SOL    HW1 3059   2.780   1.660   0.788
  720SOL    HW2 3060   2.858   1.517   0.785
  721SOL     OW 3061   6.925   1.771   2.677
  721SOL    HW1 3062   6.969   1.683   2.696
  721SOL    HW2 3063   6.924   1.827   2.761
  722SOL     OW 3064   4.835   6.522   1.116
  722SOL    HW1 3065   4.776   6.442   1.107
  722SOL    HW2 3066   4.931   6.492   1.117
  723SOL     OW 3067   2.327   5.603   4.121
  723SOL    HW1 3068   2.274   5.688   4.117
  723SOL    HW2 3069   2.291   5.545   4.194
  724SOL     OW 3070   0.972   1.441   4.118
  724SOL    HW1 3071   1.031   1.500   4.064
  724SOL    HW2 3072   0.908   1.394   4.057
  725SOL     OW 3073   1.362   4.081   3.027
  725SOL    HW1 3074   1.278   4.034   3.056
  725SOL    HW2 3075   1.347   4.179   3.028
  726SOL     OW 3076   1.560   3.975   0.861
  726SOL    HW1 3077   1.496   3.957   0.935
  726SOL    HW2 3078   1.540   3.915   0.784
  727SOL     OW 3079   3.860   5.810   5.343
  727SOL    HW1 3080   3.798   5.732   5.339
  727SOL    HW2 3081   3.944   5.789   5.293
  728SOL     OW 3082   6.563   3.560   3.945
  728SOL    HW1 3083   6.644   3.532   3.893
  728SOL    HW2 3084   6.497   3.485   3.948
  729SOL     OW 3085   0.336   4.241   0.948
  729SOL    HW1 3086   0.265   4.307   0.925
  729SOL    HW2 3087   0.328   4.216   1.044
  730SOL     OW 3088   4.327   0.626   3.371
  730SOL    HW1 3089   4.343   0.536   3.331
  730SOL    HW2 3090   4.229   0.644   3.377
  731SOL     OW 3091   4.656   4.927   5.548
  731SOL    HW1 3092   4.598   4.945   5.627
  731SOL    HW2 3093   4.657   5.007   5.488
  732SOL     OW 3094   4.124   1.639   5.096
  732SOL    HW1 3095   4.142   1.545   5.066
  732SOL    HW2 3096   4.056   1.638   5.170
  733SOL     OW 3097   5.824   5.818   2.874
  733SOL    HW1 3098   5.779   5.729   2.863
  733SOL    HW2 3099   5.887   5.833   2.799
  734SOL     OW 3100   6.172   6.609   2.350
  734SOL    HW1 3101   6.155   6.610   2.251
  734SOL    HW2 3102   6.108   6.546   2.394
  735SOL     OW 3103   4.537   0.630   2.292
  735SOL    HW1 3104   4.629   0.662   2.272
  735SOL    HW2 3105   4.516   0.552   2.233
  736SOL     OW 3106   1.696   1.265   3.979
  736SOL    HW1 3107   1.663   1.346   3.931
  736SOL    HW2 3108   1.751   1.209   3.917
  737SOL     OW 3109   4.148   0.947   6.127
  737SOL    HW1 3110   4.086   1.006   6.075
  737SOL    HW2 3111   4.237   0.991   6.136
  738SOL     OW 3112   1.679   4.599   0.420
  738SOL    HW1 3113   1.761   4.595   0.363
  738SOL    HW2 3114   1.673   4.516   0.475
  739SOL     OW 3115   2.977   0.004   4.194
  739SOL    HW1 3116   2.900   6.961   4.214
  739SOL    HW2 3117   2.952   0.098   4.217
  740SOL     OW 3118   4.913   3.472   2.590
  740SOL    HW1 3119   4.887   3.417   2.511
  740SOL    HW2 3120   4.915   3.569   2.564
  741SOL     OW 3121   2.328   1.083   3.165
  741SOL    HW1 3122   2.373   1.003   3.206
  741SOL    HW2 3123   2.230   1.068   3.160
  742SOL     OW 3124   2.280   6.725   1.891
  742SOL    HW1 3125   2.363   6.779   1.882
  742SOL    HW2 3126   2.212   6.756   1.825
  743SOL     OW 3127   0.640   6.629   3.109
  743SOL    HW1 3128   0.727   6.583   3.089
  743SOL    HW2 3129   0.568   6.588   3.053
  744SOL     OW 3130   5.051   1.999   0.436
  744SOL    HW1 3131   5.104   2.078   0.466
  744SOL    HW2 3132   4.995   2.024   0.357
  745SOL     OW 3133   2.605   0.112   4.823
  745SOL    HW1 3134   2.661   0.183   4.781
  745SOL    HW2 3135   2.657   0.066   4.894
  746SOL     OW 3136   6.663   4.914   5.690
  746SOL    HW1 3137   6.698   5.001   5.655
  746SOL    HW2 3138   6.733   4.870   5.746
  747SOL     OW 3139   5.017   5.920   3.067
  747SOL    HW1 3140   5.041   6.004   3.117
  747SOL    HW2 3141   4.994   5.848   3.133
  748SOL     OW 3142   5.282   5.153   1.980
  748SOL    HW1 3143   5.352   5.126   2.046
  748SOL    HW2 3144   5.325   5.200   1.903
  749SOL     OW 3145   4.853   3.806   4.060
  749SOL    HW1 3146   4.924   3.818   4.130
  749SOL    HW2 3147   4.781   3.747   4.096
  750SOL     OW 3148   2.340   2.070   2.375
  750SOL    HW1 3149   2.432   2.061   2.337
  750SOL    HW2 3150   2.313   2.166   2.374
  751SOL     OW 3151   3.674   0.487   0.886
  751SOL    HW1 3152   3.678   0.415   0.817
  751SOL    HW2 3153   3.696   0.449   0.976
  752SOL     OW 3154   3.531   2.300   5.427
  752SOL    HW1 3155   3.512   2.263   5.337
  752SOL    HW2 3156   3.623   2.271   5.456
  753SOL     OW 3157   3.732   3.882   4.864
  753SOL    HW1 3158   3.745   3.864   4.961
  753SOL    HW2 3159   3.807   3.938   4.829
  754SOL     OW 3160   6.145   0.603   0.221
  754SOL    HW1 3161   6.187   0.539   0.156
  754SOL    HW2 3162   6.162   0.697   0.190
  755SOL     OW 3163   4.040   4.433   5.317
  755SOL    HW1 3164   4.127   4.384   5.315
  755SOL    HW2 3165   3.968   4.376   5.278
  756SOL     OW 3166   2.266   5.503   6.215
  756SOL    HW1 3167   2.186   5.506   6.156
  756SOL    HW2 3168   2.243   5.458   6.301
  757SOL     OW 3169   2.619   6.133   2.472
  757SOL    HW1 3170   2.537   6.077   2.484
  757SOL    HW2 3171   2.697   6.086   2.513
  758SOL     OW 3172   4.143   0.836   4.210
  758SOL    HW1 3173   4.213   0.902   4.237
  758SOL    HW2 3174   4.131   0.768   4.282
  759SOL     OW 3175   0.529   3.089   3.910
  759SOL    HW1 3176   0.601   3.106   3.842
  759SOL    HW2 3177   0.440   3.101   3.866
  760SOL     OW 3178   6.071   5.607   2.925
  760SOL    HW1 3179   6.062   5.645   3.016
  760SOL    HW2 3180   6.137   5.661   2.872
  761SOL     OW 3181   4.147   3.794   6.369
  761SOL    HW1 3182   4.099   3.880   6.389
  761SOL    HW2 3183   4.087   3.734   6.316
  762SOL     OW 3184   3.086   5.782   3.984
  762SOL    HW1 3185   2.995   5.798   4.022
  762SOL    HW2 3186   3.147   5.858   4.009
  763SOL     OW 3187   5.750   0.511   6.919
  763SOL    HW1 3188   5.715   0.518   6.826
  763SOL    HW2 3189   5.700   0.439   6.968
  764SOL     OW 3190   5.634   0.166   5.938
  764SOL    HW1 3191   5.692   0.187   5.860
  764SOL    HW2 3192   5.543   0.205   5.924
  765SOL     OW 3193   0.058   6.730   0.782
  765SOL    HW1 3194   7.016   6.668   0.834
  765SOL    HW2 3195   0.045   6.714   0.684
  766SOL     OW 3196   2.334   2.234   5.182
  766SOL    HW1 3197   2.281   2.274   5.108
  766SOL    HW2 3198   2.364   2.306   5.245
  767SOL     OW 3199   6.057   5.638   4.359
  767SOL    HW1 3200   6.051   5.697   4.279
  767SOL    HW2 3201   6.132   5.669   4.417
  768SOL     OW 3202   2.213   5.252   2.722
  768SOL    HW1 3203   2.255   5.163   2.741
  768SOL    HW2 3204   2.113   5.242   2.721
  769SOL     OW 3205   3.072   1.835   4.851
  769SOL    HW1 3206   2.973   1.823   4.845
  769SOL    HW2 3207   3.116   1.746   4.844
  770SOL     OW 3208   1.508   4.979   5.591
  770SOL    HW1 3209   1.487   4.910   5.522
  770SOL    HW2 3210   1.436   4.980   5.661
  771SOL     OW 3211   1.341   5.343   2.514
  771SOL    HW1 3212   1.407   5.280   2.474
  771SOL    HW2 3213   1.279   5.293   2.574
  772SOL     OW 3214   5.800   4.563   0.477
  772SOL    HW1 3215   5.865   4.523   0.542
  772SOL    HW2 3216   5.757   4.643   0.519
  773SOL     OW 3217   0.900   3.900   3.575
  773SOL    HW1 3218   0.863   3.880   3.485
  773SOL    HW2 3219   0.852   3.979   3.614
  774SOL     OW 3220   2.318   0.320   3.659
  774SOL    HW1 3221   2.225   0.329   3.695
  774SOL    HW2 3222   2.353   0.410   3.635
  775SOL     OW 3223   1.608   4.325   2.369
  775SOL    HW1 3224   1.612   4.396   2.298
  775SOL    HW2 3225   1.594   4.236   2.325
  776SOL     OW 3226   2.503   5.373   6.588
  776SOL    HW1 3227   2.499   5.443   6.660
  776SOL    HW2 3228   2.585   5.317   6.601
  777SOL     OW 3229   1.960   4.134   0.067
  777SOL    HW1 3230   1.927   4.051   0.113
  777SOL    HW2 3231   2.041   4.112   0.014
  778SOL     OW 3232   2.772   6.174   0.135
  778SOL    HW1 3233   2.814   6.232   0.205
  778SOL    HW2 3234   2.809   6.081   0.142
  779SOL     OW 3235   0.097   2.440   3.472
  779SOL    HW1 3236   0.153   2.362   3.501
  779SOL    HW2 3237   0.074   2.496   3.552
  780SOL     OW 3238   0.491   2.075   4.123
  780SOL    HW1 3239   0.584   2.108   4.142
  780SOL    HW2 3240   0.496   1.993   4.066
  781SOL     OW 3241   0.782   4.418   6.977
  781SOL    HW1 3242   0.842   4.353   0.006
  781SOL    HW2 3243   0.778   4.394   6.880
  782SOL     OW 3244   1.590   3.214   5.011
  782SOL    HW1 3245   1.543   3.285   5.063
  782SOL    HW2 3246   1.618   3.141   5.072
  783SOL     OW 3247   6.534   4.629   6.937
  783SOL    HW1 3248   6.457   4.598   6.881
  783SOL    HW2 3249   6.519   4.603   0.015
  784SOL     OW 3250   2.496   6.014   0.769
  784SOL    HW1 3251   2.539   6.063   0.845
  784SOL    HW2 3252   2.398   6.033   0.769
  785SOL     OW 3253   1.201   0.434   4.790
  785SOL    HW1 3254   1.299   0.411   4.795
  785SOL    HW2 3255   1.189   0.515   4.733
  786SOL     OW 3256   6.046   1.554   4.147
  786SOL    HW1 3257   6.135   1.508   4.152
  786SOL    HW2 3258   6.051   1.630   4.083
  787SOL     OW 3259   2.320   6.925   0.704
  787SOL    HW1 3260   2.419   6.912   0.710
  787SOL    HW2 3261   2.290   6.989   0.776
  788SOL     OW 3262   1.896   2.229   1.512
  788SOL    HW1 3263   1.797   2.214   1.508
  788SOL    HW2 3264   1.915   2.327   1.515
  789SOL     OW 3265   4.507   4.815   2.270
  789SOL    HW1 3266   4.544   4.787   2.182
  789SOL    HW2 3267   4.579   4.807   2.340
  790SOL     OW 3268   0.798   2.083   2.511
  790SOL    HW1 3269   0.864   2.149   2.547
  790SOL    HW2 3270   0.843   1.994   2.500
  791SOL     OW 3271   2.919   5.825   4.277
  791SOL    HW1 3272   2.842   5.839   4.340
  791SOL    HW2 3273   3.004   5.855   4.321
  792SOL     OW 3274   1.912   0.877   0.114
  792SOL    HW1 3275   1.890   0.781   0.094
  792SOL    HW2 3276   1.857   0.936   0.056
  793SOL     OW 3277   2.849   6.136   4.116
  793SOL    HW1 3278   2.810   6.044   4.122
  793SOL    HW2 3279   2.898   6.146   4.030
  794SOL     OW 3280   3.728   3.265   2.683
  794SOL    HW1 3281   3.652   3.230   2.629
  794SOL    HW2 3282   3.710   3.252   2.780
  795SOL     OW 3283   3.942   0.409   6.130
  795SOL    HW1 3284   3.869   0.456   6.082
  795SOL    HW2 3285   3.907   0.323   6.168
  796SOL     OW 3286   0.955   2.945   0.867
  796SOL    HW1 3287   0.975   2.932   0.770
  796SOL    HW2 3288   0.883   3.013   0.878
  797SOL     OW 3289   4.681   0.003   0.416
  797SOL    HW1 3290   4.750   0.065   0.377
  797SOL    HW2 3291   4.651   0.039   0.504
  798SOL     OW 3292   4.467   6.535   0.870
  798SOL    HW1 3293   4.552   6.525   0.819
  798SOL    HW2 3294   4.438   6.446   0.906
  799SOL     OW 3295   2.107   2.188   5.870
  799SOL    HW1 3296   2.168   2.155   5.942
  799SOL    HW2 3297   2.098   2.117   5.799
  800SOL     OW 3298   6.488   3.385   2.767
  800SOL    HW1 3299   6.582   3.356   2.785
  800SOL    HW2 3300   6.431   3.367   2.847
  801SOL     OW 3301   2.564   5.898   5.840
  801SOL    HW1 3302   2.647   5.953   5.839
  801SOL    HW2 3303   2.498   5.938   5.903
  802SOL     OW 3304   5.351   2.362   6.659
  802SOL    HW1 3305   5.396   2.452   6.660
  802SOL    HW2 3306   5.252   2.375   6.661
  803SOL     OW 3307   2.854   1.493   4.897
  803SOL    HW1 3308   2.901   1.447   4.973
  803SOL    HW2 3309   2.792   1.562   4.934
  804SOL     OW 3310   5.519   0.604   2.779
  804SOL    HW1 3311   5.482   0.656   2.702
  804SOL    HW2 3312   5.542   0.668   2.853
  805SOL     OW 3313   3.774   1.158   3.462
  805SOL    HW1 3314   3.860   1.207   3.477
  805SOL    HW2 3315   3.760   1.092   3.536
  806SOL     OW 3316   2.433   6.273   5.405
  806SOL    HW1 3317   2.394   6.362   5.428
  806SOL    HW2 3318   2.522   6.263   5.450
  807SOL     OW 3319   1.181   6.215   5.957
  807SOL    HW1 3320   1.255   6.188   6.019
  807SOL    HW2 3321   1.121   6.280   6.004
  808SOL     OW 3322   5.501   2.529   6.394
  808SOL    HW1 3323   5.480   2.566   6.303
  808SOL    HW2 3324   5.426   2.551   6.456
  809SOL     OW 3325   2.283   4.962   0.240
  809SOL    HW1 3326   2.308   4.989   0.334
  809SOL    HW2 3327   2.184   4.953   0.233
  810SOL     OW 3328   3.630   3.201   6.849
  810SOL    HW1 3329   3.566   3.269   6.883
  810SOL    HW2 3330   3.614   3.186   6.751
  811SOL     OW 3331   6.291   4.866   4.615
  811SOL    HW1 3332   6.259   4.960   4.628
  811SOL    HW2 3333   6.223   4.802   4.650
  812SOL     OW 3334   0.426   3.023   1.908
  812SOL    HW1 3335   0.467   2.995   1.821
  812SOL    HW2 3336   0.331   2.993   1.911
  813SOL     OW 3337   1.332   1.728   5.003
  813SOL    HW1 3338   1.301   1.638   4.972
  813SOL    HW2 3339   1.377   1.776   4.928
  814SOL     OW 3340   1.008   5.279   3.048
  814SOL    HW1 3341   0.956   5.207   3.096
  814SOL    HW2 3342   0.946   5.331   2.989
  815SOL     OW 3343   4.770   1.890   4.914
  815SOL    HW1 3344   4.698   1.953   4.944
  815SOL    HW2 3345   4.758   1.802   4.959
  816SOL     OW 3346   5.722   4.946   6.398
  816SOL    HW1 3347   5.797   4.883   6.377
  816SOL    HW2 3348   5.740   5.035   6.356
  817SOL     OW 3349   0.497   4.520   6.736
  817SOL    HW1 3350   0.503   4.537   6.834
  817SOL    HW2 3351   0.455   4.431   6.721
  818SOL     OW 3352   6.606   2.133   4.958
  818SOL    HW1 3353   6.546   2.143   4.879
  818SOL    HW2 3354   6.673   2.208   4.959
  819SOL     OW 3355   5.099   2.782   1.467
  819SOL    HW1 3356   5.005   2.799   1.495
  819SOL    HW2 3357   5.112   2.684   1.448
  820SOL     OW 3358   2.429   1.788   5.072
  820SOL    HW1 3359   2.478   1.704   5.047
  820SOL    HW2 3360   2.401   1.783   5.168
  821SOL     OW 3361   4.810   3.414   6.267
  821SOL    HW1 3362   4.849   3.479   6.333
  821SOL    HW2 3363   4.740   3.461   6.212
  822SOL     OW 3364   0.508   4.946   3.444
  822SOL    HW1 3365   0.507   4.883   3.522
  822SOL    HW2 3366   0.417   4.948   3.402
  823SOL     OW 3367   1.069   3.049   5.062
  823SOL    HW1 3368   1.141   2.990   5.025
  823SOL    HW2 3369   1.091   3.144   5.044
  824SOL     OW 3370   5.258   0.924   6.704
  824SOL    HW1 3371   5.296   1.001   6.653
  824SOL    HW2 3372   5.303   0.839   6.676
  825SOL     OW 3373   5.719   5.499   0.957
  825SOL    HW1 3374   5.752   5.406   0.975
  825SOL    HW2 3375   5.726   5.553   1.040
  826SOL     OW 3376   3.932   2.433   6.790
  826SOL    HW1 3377   4.024   2.398   6.807
  826SOL    HW2 3378   3.934   2.532   6.787
  827SOL     OW 3379   4.248   3.868   5.580
  827SOL    HW1 3380   4.242   3.968   5.581
  827SOL    HW2 3381   4.157   3.829   5.574
  828SOL     OW 3382   6.653   6.195   6.062
  828SOL    HW1 3383   6.747   6.165   6.046
  828SOL    HW2 3384   6.605   6.199   5.974
  829SOL     OW 3385   3.224   3.543   2.823
  829SOL    HW1 3386   3.267   3.623   2.865
  829SOL    HW2 3387   3.295   3.478   2.796
  830SOL     OW 3388   6.465   4.585   0.184
  830SOL    HW1 3389   6.536   4.522   0.213
  830SOL    HW2 3390   6.380   4.563   0.232
  831SOL     OW 3391   4.888   7.013   1.763
  831SOL    HW1 3392   4.948   0.041   1.828
  831SOL    HW2 3393   4.908   0.027   1.671
  832SOL     OW 3394   2.965   1.619   4.505
  832SOL    HW1 3395   2.891   1.684   4.493
  832SOL    HW2 3396   3.053   1.664   4.488
  833SOL     OW 3397   3.445   2.343   0.229
  833SOL    HW1 3398   3.452   2.421   0.166
  833SOL    HW2 3399   3.349   2.328   0.252
  834SOL     OW 3400   5.930   3.076   0.513
  834SOL    HW1 3401   6.020   3.079   0.556
  834SOL    HW2 3402   5.911   2.983   0.482
  835SOL     OW 3403   0.328   0.000   4.090
  835SOL    HW1 3404   0.353   6.948   4.157
  835SOL    HW2 3405   0.241   6.993   4.047
  836SOL     OW 3406   4.690   1.004   4.696
  836SOL    HW1 3407   4.757   0.981   4.768
  836SOL    HW2 3408   4.623   0.930   4.689
  837SOL     OW 3409   1.587   0.886   0.503
  837SOL    HW1 3410   1.492   0.868   0.531
  837SOL    HW2 3411   1.647   0.877   0.583
  838SOL     OW 3412   1.271   5.299   3.618
  838SOL    HW1 3413   1.295   5.203   3.607
  838SOL    HW2 3414   1.295   5.330   3.710
  839SOL     OW 3415   1.679   1.778   0.430
  839SOL    HW1 3416   1.664   1.725   0.346
  839SOL    HW2 3417   1.664   1.875   0.411
  840SOL     OW 3418   4.919   5.156   6.764
  840SOL    HW1 3419   4.873   5.101   6.694
  840SOL    HW2 3420   5.003   5.196   6.726
  841SOL     OW 3421   3.152   4.922   0.267
  841SOL    HW1 3422   3.184   4.878   0.183
  841SOL    HW2 3423   3.092   4.860   0.316
  842SOL     OW 3424   3.953   5.893   0.702
  842SOL    HW1 3425   3.985   5.952   0.776
  842SOL    HW2 3426   4.005   5.808   0.702
  843SOL     OW 3427   1.063   0.997   2.275
  843SOL    HW1 3428   1.108   0.916   2.237
  843SOL    HW2 3429   0.993   0.968   2.341
  844SOL     OW 3430   6.706   0.682   1.177
  844SOL    HW1 3431   6.742   0.633   1.257
  844SOL    HW2 3432   6.731   0.779   1.184
  845SOL     OW 3433   3.480   1.107   2.263
  845SOL    HW1 3434   3.452   1.159   2.343
  845SOL    HW2 3435   3.575   1.130   2.240
  846SOL     OW 3436   3.122   1.483   1.009
  846SOL    HW1 3437   3.090   1.426   0.934
  846SOL    HW2 3438   3.202   1.536   0.979
  847SOL     OW 3439   2.867   4.125   1.549
  847SOL    HW1 3440   2.813   4.050   1.586
  847SOL    HW2 3441   2.930   4.159   1.618
  848SOL     OW 3442   7.002   5.885   0.234
  848SOL    HW1 3443   7.013   5.849   0.327
  848SOL    HW2 3444   6.961   5.976   0.238
  849SOL     OW 3445   6.055   3.705   6.602
  849SOL    HW1 3446   6.020   3.780   6.546
  849SOL    HW2 3447   6.085   3.630   6.544
  850SOL     OW 3448   1.016   0.518   4.925
  850SOL    HW1 3449   1.077   0.476   4.858
  850SOL    HW2 3450   1.067   0.535   5.009
  851SOL     OW 3451   5.707   3.692   6.094
  851SOL    HW1 3452   5.692   3.692   5.995
  851SOL    HW2 3453   5.780   3.627   6.116
  852SOL     OW 3454   0.324   3.830   2.135
  852SOL    HW1 3455   0.261   3.789   2.071
  852SOL    HW2 3456   0.398   3.876   2.085
  853SOL     OW 3457   2.775   2.433   0.261
  853SOL    HW1 3458   2.733   2.425   0.351
  853SOL    HW2 3459   2.783   2.529   0.235
  854SOL     OW 3460   5.608   6.187   6.368
  854SOL    HW1 3461   5.677   6.195   6.439
  854SOL    HW2 3462   5.518   6.177   6.410
  855SOL     OW 3463   5.399   1.420   0.390
  855SOL    HW1 3464   5.328   1.350   0.395
  855SOL    HW2 3465   5.370   1.493   0.327
  856SOL     OW 3466   2.144   5.166   1.429
  856SOL    HW1 3467   2.222   5.218   1.464
  856SOL    HW2 3468   2.073   5.229   1.397
  857SOL     OW 3469   6.492   5.732   5.384
  857SOL    HW1 3470   6.541   5.746   5.470
  857SOL    HW2 3471   6.552   5.689   5.317
  858SOL     OW 3472   4.689   3.118   0.217
  858SOL    HW1 3473   4.739   3.167   0.289
  858SOL    HW2 3474   4.736   3.032   0.197
  859SOL     OW 3475   4.793   6.614   5.298
  859SOL    HW1 3476   4.887   6.611   5.333
  859SOL    HW2 3477   4.782   6.546   5.226
  860SOL     OW 3478   5.178   3.226   6.106
  860SOL    HW1 3479   5.129   3.230   6.019
  860SOL    HW2 3480   5.206   3.132   6.125
  861SOL     OW 3481   1.931   5.737   1.611
  861SOL    HW1 3482   1.894   5.656   1.567
  861SOL    HW2 3483   1.952   5.807   1.542
  862SOL     OW 3484   0.377   3.772   3.381
  862SOL    HW1 3485   0.373   3.855   3.327
  862SOL    HW2 3486   0.287   3.729   3.383
  863SOL     OW 3487   6.555   0.438   0.549
  863SOL    HW1 3488   6.512   0.478   0.468
  863SOL    HW2 3489   6.501   0.459   0.630
  864SOL     OW 3490   5.576   6.688   4.623
  864SOL    HW1 3491   5.559   6.666   4.527
  864SOL    HW2 3492   5.568   6.786   4.637
  865SOL     OW 3493   1.812   6.336   4.903
  865SOL    HW1 3494   1.728   6.390   4.917
  865SOL    HW2 3495   1.788   6.239   4.897
  866SOL     OW 3496   3.875   6.957   2.120
  866SOL    HW1 3497   3.813   7.008   2.060
  866SOL    HW2 3498   3.840   6.960   2.214
  867SOL     OW 3499   5.754   2.603   6.305
  867SOL    HW1 3500   5.662   2.578   6.334
  867SOL    HW2 3501   5.814   2.609   6.384
  868SOL     OW 3502   6.824   2.125   2.632
  868SOL    HW1 3503   6.828   2.180   2.548
  868SOL    HW2 3504   6.813   2.186   2.710
  869SOL     OW 3505   6.778   3.912   3.900
  869SOL    HW1 3506   6.740   3.834   3.850
  869SOL    HW2 3507   6.812   3.980   3.835
  870SOL     OW 3508   3.294   5.322   2.224
  870SOL    HW1 3509   3.318   5.229   2.197
  870SOL    HW2 3510   3.324   5.386   2.153
  871SOL     OW 3511   4.443   1.598   3.290
  871SOL    HW1 3512   4.362   1.619   3.235
  871SOL    HW2 3513   4.501   1.534   3.240
  872SOL     OW 3514   0.041   2.572   4.931
  872SOL    HW1 3515   6.966   2.591   4.964
  872SOL    HW2 3516   0.040   2.566   4.831
  873SOL     OW 3517   4.627   6.677   5.950
  873SOL    HW1 3518   4.698   6.715   5.891
  873SOL    HW2 3519   4.666   6.604   6.006
  874SOL     OW 3520   4.559   4.069   1.003
  874SOL    HW1 3521   4.500   4.074   0.922
  874SOL    HW2 3522   4.502   4.057   1.085
  875SOL     OW 3523   5.398   5.474   1.128
  875SOL    HW1 3524   5.441   5.556   1.092
  875SOL    HW2 3525   5.426   5.395   1.074
  876SOL     OW 3526   6.941   6.655   1.280
  876SOL    HW1 3527   6.964   6.733   1.338
  876SOL    HW2 3528   7.006   6.582   1.296
  877SOL     OW 3529   2.304   2.829   6.558
  877SOL    HW1 3530   2.217   2.800   6.519
  877SOL    HW2 3531   2.300   2.927   6.578
  878SOL     OW 3532   4.527   6.227   4.005
  878SOL    HW1 3533   4.501   6.269   4.092
  878SOL    HW2 3534   4.451   6.172   3.970
  879SOL     OW 3535   5.922   0.441   0.249
  879SOL    HW1 3536   5.999   0.504   0.261
  879SOL    HW2 3537   5.951   0.348   0.272
  880SOL     OW 3538   2.892   3.683   2.879
  880SOL    HW1 3539   2.877   3.588   2.852
  880SOL    HW2 3540   2.954   3.686   2.957
  881SOL     OW 3541   4.090   1.665   0.165
  881SOL    HW1 3542   4.008   1.641   0.113
  881SOL    HW2 3543   4.170   1.624   0.122
  882SOL     OW 3544   1.123   3.946   4.275
  882SOL    HW1 3545   1.060   3.898   4.336
  882SOL    HW2 3546   1.099   3.928   4.180
  883SOL     OW 3547   2.548   0.512   2.645
  883SOL    HW1 3548   2.591   0.601   2.656
  883SOL    HW2 3549   2.524   0.475   2.735
  884SOL     OW 3550   4.768   3.332   5.574
  884SOL    HW1 3551   4.672   3.350   5.593
  884SOL    HW2 3552   4.803   3.402   5.511
  885SOL     OW 3553   3.595   2.513   5.950
  885SOL    HW1 3554   3.665   2.519   6.021
  885SOL    HW2 3555   3.513   2.469   5.987
  886SOL     OW 3556   3.584   0.030   6.596
  886SOL    HW1 3557   3.533   0.115   6.610
  886SOL    HW2 3558   3.521   6.971   6.588
  887SOL     OW 3559   4.753   1.809   4.279
  887SOL    HW1 3560   4.826   1.878   4.280
  887SOL    HW2 3561   4.774   1.739   4.210
  888SOL     OW 3562   6.751   0.164   3.158
  888SOL    HW1 3563   6.653   0.164   3.137
  888SOL    HW2 3564   6.769   0.099   3.232
  889SOL     OW 3565   0.505   3.431   6.714
  889SOL    HW1 3566   0.444   3.387   6.780
  889SOL    HW2 3567   0.600   3.414   6.740
  890SOL     OW 3568   2.895   5.190   4.141
  890SOL    HW1 3569   2.870   5.195   4.238
  890SOL    HW2 3570   2.815   5.160   4.088
  891SOL     OW 3571   5.675   5.610   1.208
  891SOL    HW1 3572   5.618   5.646   1.282
  891SOL    HW2 3573   5.745   5.549   1.247
  892SOL     OW 3574   2.997   4.611   0.110
  892SOL    HW1 3575   2.929   4.618   0.037
  892SOL    HW2 3576   3.003   4.697   0.160
  893SOL     OW 3577   2.249   6.458   2.571
  893SOL    HW1 3578   2.208   6.489   2.657
  893SOL    HW2 3579   2.198   6.378   2.537
  894SOL     OW 3580   1.182   3.904   1.145
  894SOL    HW1 3581   1.241   3.983   1.128
  894SOL    HW2 3582   1.129   3.919   1.229
  895SOL     OW 3583   0.420   5.921   4.105
  895SOL    HW1 3584   0.410   6.000   4.165
  895SOL    HW2 3585   0.451   5.951   4.014
  896SOL     OW 3586   6.918   6.603   5.087
  896SOL    HW1 3587   6.866   6.675   5.132
  896SOL    HW2 3588   6.864   6.563   5.014
  897SOL     OW 3589   5.471   1.152   6.882
  897SOL    HW1 3590   5.559   1.184   6.915
  897SOL    HW2 3591   5.450   1.063   6.924
  898SOL     OW 3592   3.920   6.009   3.233
  898SOL    HW1 3593   3.993   6.058   3.185
  898SOL    HW2 3594   3.931   5.911   3.217
  899SOL     OW 3595   0.153   5.017   0.063
  899SOL    HW1 3596   0.062   5.021   0.105
  899SOL    HW2 3597   0.154   4.944   7.012
  900SOL     OW 3598   4.925   5.559   0.563
  900SOL    HW1 3599   4.857   5.593   0.628
  900SOL    HW2 3600   5.012   5.545   0.610
  901SOL     OW 3601   1.803   0.830   2.299
  901SOL    HW1 3602   1.723   0.790   2.254
  901SOL    HW2 3603   1.808   0.927   2.276
  902SOL     OW 3604   6.534   4.198   2.008
  902SOL    HW1 3605   6.523   4.171   2.104
  902SOL    HW2 3606   6.631   4.218   1.990
  903SOL     OW 3607   0.200   2.688   0.638
  903SOL    HW1 3608   0.112   2.733   0.657
  903SOL    HW2 3609   0.275   2.751   0.658
  904SOL     OW 3610   2.752   1.511   2.349
  904SOL    HW1 3611   2.823   1.552   2.293
  904SOL    HW2 3612   2.673   1.572   2.352
  905SOL     OW 3613   6.134   2.770   6.537
  905SOL    HW1 3614   6.211   2.760   6.474
  905SOL    HW2 3615   6.155   2.840   6.605
  906SOL     OW 3616   6.202   3.629   6.845
  906SOL    HW1 3617   6.166   3.662   6.757
  906SOL    HW2 3618   6.144   3.556   6.880
  907SOL     OW 3619   5.073   3.811   6.778
  907SOL    HW1 3620   5.006   3.825   6.706
  907SOL    HW2 3621   5.121   3.897   6.796
  908SOL     OW 3622   2.124   4.433   2.629
  908SOL    HW1 3623   2.084   4.394   2.546
  908SOL    HW2 3624   2.051   4.460   2.692
  909SOL     OW 3625   5.392   5.190   6.486
  909SOL    HW1 3626   5.448   5.202   6.404
  909SOL    HW2 3627   5.451   5.177   6.565
  910SOL     OW 3628   2.464   3.560   1.326
  910SOL    HW1 3629   2.430   3.599   1.412
  910SOL    HW2 3630   2.527   3.624   1.284
  911SOL     OW 3631   1.210   5.367   6.419
  911SOL    HW1 3632   1.167   5.438   6.475
  911SOL    HW2 3633   1.168   5.366   6.328
  912SOL     OW 3634   4.889   2.282   2.705
  912SOL    HW1 3635   4.885   2.182   2.708
  912SOL    HW2 3636   4.918   2.316   2.794
  913SOL     OW 3637   4.752   6.781   3.561
  913SOL    HW1 3638   4.717   6.841   3.488
  913SOL    HW2 3639   4.675   6.743   3.612
  914SOL     OW 3640   2.915   6.598   0.294
  914SOL    HW1 3641   3.006   6.622   0.329
  914SOL    HW2 3642   2.856   6.678   0.295
  915SOL     OW 3643   6.135   5.760   0.646
  915SOL    HW1 3644   6.174   5.668   0.647
  915SOL    HW2 3645   6.200   5.824   0.604
  916SOL     OW 3646   0.830   2.153   2.192
  916SOL    HW1 3647   0.918   2.195   2.214
  916SOL    HW2 3648   0.787   2.119   2.275
  917SOL     OW 3649   6.507   6.771   0.888
  917SOL    HW1 3650   6.448   6.725   0.953
  917SOL    HW2 3651   6.581   6.818   0.936
  918SOL     OW 3652   1.959   5.492   0.192
  918SOL    HW1 3653   1.915   5.424   0.134
  918SOL    HW2 3654   1.890   5.558   0.224
  919SOL     OW 3655   6.042   2.193   4.838
  919SOL    HW1 3656   6.082   2.285   4.841
  919SOL    HW2 3657   5.948   2.199   4.806
  920SOL     OW 3658   2.929   4.788   2.143
  920SOL    HW1 3659   2.889   4.734   2.069
  920SOL    HW2 3660   2.900   4.751   2.231
  921SOL     OW 3661   4.944   5.145   4.995
  921SOL    HW1 3662   5.007   5.152   5.072
  921SOL    HW2 3663   4.991   5.104   4.917
  922SOL     OW 3664   3.412   2.875   3.640
  922SOL    HW1 3665   3.342   2.935   3.601
  922SOL    HW2 3666   3.481   2.930   3.686
  923SOL     OW 3667   2.301   3.513   5.276
  923SOL    HW1 3668   2.377   3.453   5.301
  923SOL    HW2 3669   2.238   3.463   5.217
  924SOL     OW 3670   0.177   3.981   2.897
  924SOL    HW1 3671   0.152   3.946   2.807
  924SOL    HW2 3672   0.275   3.970   2.911
  925SOL     OW 3673   6.783   1.682   0.071
  925SOL    HW1 3674   6.743   1.712   0.157
  925SOL    HW2 3675   6.799   1.761   0.012
  926SOL     OW 3676   0.951   1.649   2.030
  926SOL    HW1 3677   0.887   1.711   1.984
  926SOL    HW2 3678   1.024   1.624   1.968
  927SOL     OW 3679   6.047   3.860   3.600
  927SOL    HW1 3680   6.084   3.871   3.692
  927SOL    HW2 3681   6.075   3.771   3.563
  928SOL     OW 3682   2.645   4.852   6.576
  928SOL    HW1 3683   2.553   4.881   6.548
  928SOL    HW2 3684   2.660   4.878   6.672
  929SOL     OW 3685   6.924   1.352   5.322
  929SOL    HW1 3686   6.843   1.374   5.375
  929SOL    HW2 3687   6.953   1.432   5.270
  930SOL     OW 3688   5.608   4.950   6.036
  930SOL    HW1 3689   5.509   4.965   6.026
  930SOL    HW2 3690   5.624   4.858   6.070
  931SOL     OW 3691   6.588   2.102   3.302
  931SOL    HW1 3692   6.531   2.171   3.345
  931SOL    HW2 3693   6.611   2.131   3.209
  932SOL     OW 3694   4.040   0.376   3.179
  932SOL    HW1 3695   4.014   0.361   3.083
  932SOL    HW2 3696   3.958   0.375   3.236
  933SOL     OW 3697   1.242   5.109   1.448
  933SOL    HW1 3698   1.280   5.175   1.512
  933SOL    HW2 3699   1.313   5.080   1.383
  934SOL     OW 3700   1.544   3.886   0.063
  934SOL    HW1 3701   1.496   3.972   0.052
  934SOL    HW2 3702   1.483   3.810   0.039
  935SOL     OW 3703   5.787   3.364   4.240
  935SOL    HW1 3704   5.769   3.323   4.330
  935SOL    HW2 3705   5.774   3.463   4.246
  936SOL     OW 3706   1.782   6.852   5.956
  936SOL    HW1 3707   1.683   6.856   5.958
  936SOL    HW2 3708   1.812   6.759   5.980
  937SOL     OW 3709   4.274   1.827   6.079
  937SOL    HW1 3710   4.240   1.782   5.997
  937SOL    HW2 3711   4.369   1.800   6.095
  938SOL     OW 3712   5.671   5.702   4.061
  938SOL    HW1 3713   5.715   5.612   4.065
  938SOL    HW2 3714   5.629   5.722   4.150
  939SOL     OW 3715   0.280   6.649   5.781
  939SOL    HW1 3716   0.240   6.557   5.777
  939SOL    HW2 3717   0.259   6.691   5.870
  940SOL     OW 3718   1.981   4.861   0.417
  940SOL    HW1 3719   1.975   4.941   0.357
  940SOL    HW2 3720   1.977   4.778   0.363
  941SOL     OW 3721   3.629   0.396   6.867
  941SOL    HW1 3722   3.592   0.445   6.945
  941SOL    HW2 3723   3.691   0.456   6.816
  942SOL     OW 3724   0.086   5.362   0.292
  942SOL    HW1 3725   0.135   5.291   0.343
  942SOL    HW2 3726   0.151   5.421   0.245
  943SOL     OW 3727   3.052   5.569   2.663
  943SOL    HW1 3728   3.113   5.641   2.630
  943SOL    HW2 3729   3.040   5.579   2.762
  944SOL     OW 3730   6.510   6.800   4.360
  944SOL    HW1 3731   6.603   6.765   4.373
  944SOL    HW2 3732   6.512   6.875   4.295
  945SOL     OW 3733   0.904   5.685   0.231
  945SOL    HW1 3734   0.825   5.731   0.191
  945SOL    HW2 3735   0.894   5.684   0.331
  946SOL     OW 3736   4.762   2.878   3.762
  946SOL    HW1 3737   4.728   2.788   3.789
  946SOL    HW2 3738   4.770   2.882   3.662
  947SOL     OW 3739   3.814   4.048   4.173
  947SOL    HW1 3740   3.718   4.052   4.202
  947SOL    HW2 3741   3.819   4.033   4.074
  948SOL     OW 3742   4.093   0.820   2.703
  948SOL    HW1 3743   4.070   0.817   2.606
  948SOL    HW2 3744   4.171   0.881   2.717
  949SOL     OW 3745   2.812   6.666   6.207
  949SOL    HW1 3746   2.799   6.716   6.292
  949SOL    HW2 3747   2.870   6.720   6.145
  950SOL     OW 3748   0.091   0.246   2.025
  950SOL    HW1 3749   0.127   0.284   2.109
  950SOL    HW2 3750   0.105   0.311   1.950
  951SOL     OW 3751   1.998   6.530   3.095
  951SOL    HW1 3752   1.939   6.518   3.175
  951SOL    HW2 3753   2.091   6.549   3.125
  952SOL     OW 3754   2.948   1.304   2.358
  952SOL    HW1 3755   3.026   1.297   2.420
  952SOL    HW2 3756   2.908   1.395   2.363
  953SOL     OW 3757   6.386   4.544   5.736
  953SOL    HW1 3758   6.402   4.622   5.797
  953SOL    HW2 3759   6.306   4.493   5.768
  954SOL     OW 3760   4.297   5.824   2.702
  954SOL    HW1 3761   4.249   5.779   2.777
  954SOL    HW2 3762   4.368   5.763   2.667
  955SOL     OW 3763   1.543   4.840   6.755
  955SOL    HW1 3764   1.449   4.809   6.763
  955SOL    HW2 3765   1.554   4.892   6.670
  956SOL     OW 3766   5.507   0.492   1.295
  956SOL    HW1 3767   5.443   0.489   1.372
  956SOL    HW2 3768   5.509   0.583   1.255
  957SOL     OW 3769   5.895   0.896   3.306
  957SOL    HW1 3770   5.984   0.938   3.323
  957SOL    HW2 3771   5.838   0.905   3.387
  958SOL     OW 3772   5.146   6.822   1.865
  958SOL    HW1 3773   5.174   6.868   1.949
  958SOL    HW2 3774   5.060   6.861   1.833
  959SOL     OW 3775   4.131   6.954   4.544
  959SOL    HW1 3776   4.172   6.969   4.454
  959SOL    HW2 3777   4.032   6.963   4.537
  960SOL     OW 3778   1.609   0.203   6.683
  960SOL    HW1 3779   1.704   0.191   6.713
  960SOL    HW2 3780   1.576   0.118   6.641
  961SOL     OW 3781   3.264   0.091   3.036
  961SOL    HW1 3782   3.203   0.127   2.965
  961SOL    HW2 3783   3.212   0.030   3.096
  962SOL     OW 3784   6.107   0.914   5.063
  962SOL    HW1 3785   6.127   0.848   5.135
  962SOL    HW2 3786   6.139   0.879   4.975
  963SOL     OW 3787   5.464   3.220   1.022
  963SOL    HW1 3788   5.485   3.317   1.014
  963SOL    HW2 3789   5.488   3.188   1.114
  964SOL     OW 3790   4.718   4.660   5.485
  964SOL    HW1 3791   4.696   4.744   5.534
  964SOL    HW2 3792   4.641   4.597   5.490
  965SOL     OW 3793   6.043   2.730   3.579
  965SOL    HW1 3794   5.970   2.673   3.616
  965SOL    HW2 3795   6.033   2.824   3.612
  966SOL     OW 3796   4.706   1.643   5.006
  966SOL    HW1 3797   4.687   1.627   4.909
  966SOL    HW2 3798   4.668   1.568   5.060
  967SOL     OW 3799   4.959   3.699   5.965
  967SOL    HW1 3800   5.020   3.740   5.898
  967SOL    HW2 3801   4.868   3.687   5.925
  968SOL     OW 3802   3.959   0.539   1.735
  968SOL    HW1 3803   3.946   0.582   1.824
  968SOL    HW2 3804   3.946   0.440   1.744
  969SOL     OW 3805   3.541   3.972   6.630
  969SOL    HW1 3806   3.530   3.875   6.651
  969SOL    HW2 3807   3.518   3.988   6.534
  970SOL     OW 3808   5.715   7.017   6.166
  970SOL    HW1 3809   5.734   0.001   6.068
  970SOL    HW2 3810   5.735   0.089   6.206
  971SOL     OW 3811   5.786   3.987   3.163
  971SOL    HW1 3812   5.803   3.951   3.255
  971SOL    HW2 3813   5.715   4.057   3.167
  972SOL     OW 3814   0.127   3.059   0.520
  972SOL    HW1 3815   0.040   3.070   0.568
  972SOL    HW2 3816   0.144   3.140   0.464
  973SOL     OW 3817   0.113   3.138   6.290
  973SOL    HW1 3818   0.170   3.159   6.211
  973SOL    HW2 3819   0.115   3.216   6.354
  974SOL     OW 3820   6.858   4.981   2.903
  974SOL    HW1 3821   6.865   4.973   3.003
  974SOL    HW2 3822   6.853   5.077   2.877
  975SOL     OW 3823   2.712   0.731   2.051
  975SOL    HW1 3824   2.693   0.826   2.027
  975SOL    HW2 3825   2.637   0.695   2.108
  976SOL     OW 3826   6.878   3.179   3.007
  976SOL    HW1 3827   6.900   3.085   3.031
  976SOL    HW2 3828   6.789   3.182   2.962
  977SOL     OW 3829   6.699   0.721   2.527
  977SOL    HW1 3830   6.609   0.762   2.541
  977SOL    HW2 3831   6.762   0.755   2.596
  978SOL     OW 3832   5.232   3.403   1.694
  978SOL    HW1 3833   5.167   3.371   1.625
  978SOL    HW2 3834   5.259   3.326   1.753
  979SOL     OW 3835   0.727   4.017   6.741
  979SOL    HW1 3836   0.734   4.115   6.726
  979SOL    HW2 3837   0.650   3.997   6.801
  980SOL     OW 3838   3.414   1.125   4.247
  980SOL    HW1 3839   3.496   1.183   4.247
  980SOL    HW2 3840   3.338   1.176   4.205
  981SOL     OW 3841   6.779   6.775   5.266
  981SOL    HW1 3842   6.793   6.719   5.347
  981SOL    HW2 3843   6.741   6.863   5.293
  982SOL     OW 3844   6.189   1.121   5.527
  982SOL    HW1 3845   6.096   1.157   5.520
  982SOL    HW2 3846   6.226   1.142   5.618
  983SOL     OW 3847   0.236   4.778   4.218
  983SOL    HW1 3848   0.165   4.794   4.150
  983SOL    HW2 3849   0.203   4.713   4.286
  984SOL     OW 3850   0.166   3.343   3.564
  984SOL    HW1 3851   0.190   3.368   3.470
  984SOL    HW2 3852   0.202   3.412   3.627
  985SOL     OW 3853   6.770   4.587   5.482
  985SOL    HW1 3854   6.850   4.628   5.526
  985SOL    HW2 3855   6.735   4.650   5.412
  986SOL     OW 3856   5.493   4.994   1.310
  986SOL    HW1 3857   5.522   5.089   1.320
  986SOL    HW2 3858   5.498   4.948   1.399
  987SOL     OW 3859   4.648   4.689   4.176
  987SOL    HW1 3860   4.552   4.687   4.206
  987SOL    HW2 3861   4.681   4.595   4.165
  988SOL     OW 3862   2.645   4.285   1.555
  988SOL    HW1 3863   2.662   4.359   1.620
  988SOL    HW2 3864   2.726   4.228   1.546
  989SOL     OW 3865   1.106   1.284   0.675
  989SOL    HW1 3866   1.093   1.381   0.698
  989SOL    HW2 3867   1.031   1.230   0.714
  990SOL     OW 3868   3.952   6.618   3.795
  990SOL    HW1 3869   3.898   6.581   3.870
  990SOL    HW2 3870   3.985   6.710   3.819
  991SOL     OW 3871   6.949   5.369   3.298
  991SOL    HW1 3872   6.991   5.384   3.388
  991SOL    HW2 3873   6.849   5.379   3.306
  992SOL     OW 3874   0.121   2.182   0.533
  992SOL    HW1 3875   0.066   2.101   0.517
  992SOL    HW2 3876   0.218   2.157   0.536
  993SOL     OW 3877   1.394   5.168   6.873
  993SOL    HW1 3878   1.488   5.202   6.867
  993SOL    HW2 3879   1.363   5.171   6.968
  994SOL     OW 3880   3.349   6.384   0.120
  994SOL    HW1 3881   3.426   6.320   0.122
  994SOL    HW2 3882   3.287   6.364   0.195
  995SOL     OW 3883   6.063   4.133   5.918
  995SOL    HW1 3884   6.132   4.135   5.845
  995SOL    HW2 3885   5.990   4.198   5.896
  996SOL     OW 3886   3.360   5.982   5.141
  996SOL    HW1 3887   3.370   6.062   5.082
  996SOL    HW2 3888   3.425   5.911   5.112
  997SOL     OW 3889   1.538   5.948   2.974
  997SOL    HW1 3890   1.540   5.918   3.069
  997SOL    HW2 3891   1.443   5.965   2.946
  998SOL     OW 3892   5.955   0.765   6.218
  998SOL    HW1 3893   5.990   0.687   6.270
  998SOL    HW2 3894   5.895   0.820   6.276
  999SOL     OW 3895   4.775   3.957   2.591
  999SOL    HW1 3896   4.755   4.055   2.582
  999SOL    HW2 3897   4.818   3.924   2.508
 1000SOL     OW 3898   4.760   2.317   1.183
 1000SOL    HW1 3899   4.799   2.318   1.275
 1000SOL    HW2 3900   4.766   2.408   1.143
 1001SOL     OW 3901   2.943   6.950   2.399
 1001SOL    HW1 3902   2.999   6.880   2.354
 1001SOL    HW2 3903   2.853   6.953   2.355
 1002SOL     OW 3904   5.205   2.606   0.817
 1002SOL    HW1 3905   5.291   2.637   0.777
 1002SOL    HW2 3906   5.207   2.507   0.828
 1003SOL     OW 3907   0.850   0.661   2.919
 1003SOL    HW1 3908   0.901   0.746   2.934
 1003SOL    HW2 3909   0.899   0.584   2.960
 1004SOL     OW 3910   5.586   1.875   3.708
 1004SOL    HW1 3911   5.644   1.911   3.635
 1004SOL    HW2 3912   5.491   1.901   3.691
 1005SOL     OW 3913   1.360   4.561   2.126
 1005SOL    HW1 3914   1.391   4.564   2.221
 1005SOL    HW2 3915   1.360   4.654   2.089
 1006SOL     OW 3916   2.642   3.730   0.776
 1006SOL    HW1 3917   2.575   3.700   0.843
 1006SOL    HW2 3918   2.726   3.676   0.787
 1007SOL     OW 3919   4.871   0.965   6.726
 1007SOL    HW1 3920   4.904   1.057   6.748
 1007SOL    HW2 3921   4.884   0.947   6.629
 1008SOL     OW 3922   0.407   4.820   5.391
 1008SOL    HW1 3923   0.484   4.883   5.383
 1008SOL    HW2 3924   0.323   4.868   5.366
 1009SOL     OW 3925   0.122   5.324   6.279
 1009SOL    HW1 3926   0.149   5.257   6.348
 1009SOL    HW2 3927   0.077   5.276   6.203
 1010SOL     OW 3928   3.000   3.040   0.965
 1010SOL    HW1 3929   2.970   2.966   1.025
 1010SOL    HW2 3930   2.933   3.053   0.893
 1011SOL     OW 3931   6.965   5.438   2.161
 1011SOL    HW1 3932   0.034   5.402   2.127
 1011SOL    HW2 3933   6.980   5.485   2.248
 1012SOL     OW 3934   4.546   6.989   3.468
 1012SOL    HW1 3935   4.499   6.971   3.381
 1012SOL    HW2 3936   4.615   0.043   3.455
 1013SOL     OW 3937   0.264   6.201   6.448
 1013SOL    HW1 3938   0.333   6.204   6.521
 1013SOL    HW2 3939   0.307   6.225   6.361
 1014SOL     OW 3940   1.041   4.500   5.492
 1014SOL    HW1 3941   1.088   4.557   5.425
 1014SOL    HW2 3942   0.953   4.471   5.455
 1015SOL     OW 3943   2.958   6.267   6.945
 1015SOL    HW1 3944   2.924   6.240   6.855
 1015SOL    HW2 3945   2.937   6.363   6.962
 1016SOL     OW 3946   6.138   4.251   1.867
 1016SOL    HW1 3947   6.180   4.286   1.951
 1016SOL    HW2 3948   6.195   4.178   1.829
 1017SOL     OW 3949   2.005   1.659   1.898
 1017SOL    HW1 3950   1.945   1.597   1.847
 1017SOL    HW2 3951   2.005   1.749   1.854
 1018SOL     OW 3952   6.153   6.336   3.965
 1018SOL    HW1 3953   6.209   6.274   4.019
 1018SOL    HW2 3954   6.060   6.337   4.001
 1019SOL     OW 3955   6.240   4.477   0.841
 1019SOL    HW1 3956   6.223   4.532   0.923
 1019SOL    HW2 3957   6.169   4.497   0.773
 1020SOL     OW 3958   5.939   1.276   0.962
 1020SOL    HW1 3959   5.955   1.280   0.863
 1020SOL    HW2 3960   5.854   1.226   0.980
 1021SOL     OW 3961   0.305   6.387   1.140
 1021SOL    HW1 3962   0.346   6.458   1.082
 1021SOL    HW2 3963   0.340   6.297   1.112
 1022SOL     OW 3964   2.563   5.740   6.986
 1022SOL    HW1 3965   2.480   5.790   6.960
 1022SOL    HW2 3966   2.558   5.716   0.065
 1023SOL     OW 3967   0.796   1.111   3.231
 1023SOL    HW1 3968   0.755   1.065   3.152
 1023SOL    HW2 3969   0.724   1.143   3.292
 1024SOL     OW 3970   1.684   1.560   4.505
 1024SOL    HW1 3971   1.755   1.557   4.435
 1024SOL    HW2 3972   1.699   1.638   4.566
 1025SOL     OW 3973   4.501   3.756   0.184
 1025SOL    HW1 3974   4.577   3.728   0.243
 1025SOL    HW2 3975   4.506   3.705   0.098
 1026SOL     OW 3976   3.171   2.585   1.135
 1026SOL    HW1 3977   3.199   2.549   1.224
 1026SOL    HW2 3978   3.174   2.512   1.067
 1027SOL     OW 3979   0.638   6.847   0.826
 1027SOL    HW1 3980   0.587   6.931   0.806
 1027SOL    HW2 3981   0.727   6.870   0.865
 1028SOL     OW 3982   1.420   6.105   1.980
 1028SOL    HW1 3983   1.464   6.055   2.054
 1028SOL    HW2 3984   1.321   6.101   1.990
 1029SOL     OW 3985   0.618   1.172   6.099
 1029SOL    HW1 3986   0.709   1.206   6.123
 1029SOL    HW2 3987   0.558   1.250   6.077
 1030SOL     OW 3988   3.323   3.143   1.593
 1030SOL    HW1 3989   3.395   3.111   1.654
 1030SOL    HW2 3990   3.354   3.227   1.548
 1031SOL     OW 3991   3.748   3.188   1.125
 1031SOL    HW1 3992   3.729   3.166   1.030
 1031SOL    HW2 3993   3.710   3.116   1.184
 1032SOL     OW 3994   2.198   1.559   6.519
 1032SOL    HW1 3995   2.151   1.550   6.607
 1032SOL    HW2 3996   2.235   1.651   6.510
 1033SOL     OW 3997   0.542   6.271   1.711
 1033SOL    HW1 3998   0.602   6.198   1.679
 1033SOL    HW2 3999   0.583   6.314   1.792
 1034SOL     OW 4000   3.169   0.460   4.229
 1034SOL    HW1 4001   3.088   0.505   4.191
 1034SOL    HW2 4002   3.232   0.437   4.155
 1035SOL     OW 4003   1.494   1.923   6.248
 1035SOL    HW1 4004   1.494   1.825   6.267
 1035SOL    HW2 4005   1.433   1.943   6.172
 1036SOL     OW 4006   5.148   1.747   1.023
 1036SOL    HW1 4007   5.150   1.814   1.097
 1036SOL    HW2 4008   5.055   1.712   1.012
 1037SOL     OW 4009   1.308   2.936   2.002
 1037SOL    HW1 4010   1.224   2.942   1.948
 1037SOL    HW2 4011   1.376   2.999   1.964
 1038SOL     OW 4012   2.668   6.239   6.925
 1038SOL    HW1 4013   2.731   6.220   7.001
 1038SOL    HW2 4014   2.587   6.181   6.935
 1039SOL     OW 4015   3.613   2.864   3.134
 1039SOL    HW1 4016   3.551   2.890   3.208
 1039SOL    HW2 4017   3.706   2.892   3.156
 1040SOL     OW 4018   3.535   1.511   3.056
 1040SOL    HW1 4019   3.549   1.529   2.958
 1040SOL    HW2 4020   3.581   1.425   3.080
 1041SOL     OW 4021   6.547   5.681   6.412
 1041SOL    HW1 4022   6.449   5.698   6.415
 1041SOL    HW2 4023   6.595   5.766   6.388
 1042SOL     OW 4024   5.361   4.748   2.995
 1042SOL    HW1 4025   5.448   4.762   2.949
 1042SOL    HW2 4026   5.295   4.708   2.931
 1043SOL     OW 4027   3.204   2.161   3.614
 1043SOL    HW1 4028   3.207   2.184   3.516
 1043SOL    HW2 4029   3.114   2.183   3.651
 1044SOL     OW 4030   5.469   4.605   1.730
 1044SOL    HW1 4031   5.470   4.544   1.651
 1044SOL    HW2 4032   5.561   4.611   1.769
 1045SOL     OW 4033   2.056   0.705   2.733
 1045SOL    HW1 4034   1.985   0.658   2.784
 1045SOL    HW2 4035   2.015   0.774   2.673
 1046SOL     OW 4036   3.379   1.233   0.841
 1046SOL    HW1 4037   3.403   1.283   0.924
 1046SOL    HW2 4038   3.452   1.169   0.818
 1047SOL     OW 4039   3.947   6.282   4.056
 1047SOL    HW1 4040   3.956   6.293   3.957
 1047SOL    HW2 4041   3.993   6.198   4.084
 1048SOL     OW 4042   1.728   5.879   2.480
 1048SOL    HW1 4043   1.703   5.862   2.576
 1048SOL    HW2 4044   1.747   5.977   2.468
 1049SOL     OW 4045   4.179   6.343   5.212
 1049SOL    HW1 4046   4.274   6.368   5.196
 1049SOL    HW2 4047   4.172   6.245   5.232
 1050SOL     OW 4048   3.304   5.621   2.935
 1050SOL    HW1 4049   3.355   5.663   3.010
 1050SOL    HW2 4050   3.367   5.568   2.878
 1051SOL     OW 4051   0.870   6.999   6.381
 1051SOL    HW1 4052   0.806   0.044   6.426
 1051SOL    HW2 4053   0.938   0.035   6.330
 1052SOL     OW 4054   3.353   1.094   0.069
 1052SOL    HW1 4055   3.308   1.130   7.005
 1052SOL    HW2 4056   3.429   1.035   0.042
 1053SOL     OW 4057   5.634   2.706   3.406
 1053SOL    HW1 4058   5.557   2.743   3.458
 1053SOL    HW2 4059   5.660   2.770   3.334
 1054SOL     OW 4060   3.273   4.753   6.203
 1054SOL    HW1 4061   3.359   4.789   6.167
 1054SOL    HW2 4062   3.204   4.753   6.130
 1055SOL     OW 4063   5.033   6.006   6.310
 1055SOL    HW1 4064   4.981   5.951   6.376
 1055SOL    HW2 4065   5.095   6.067   6.360
 1056SOL     OW 4066   3.060   3.808   6.688
 1056SOL    HW1 4067   3.011   3.866   6.623
 1056SOL    HW2 4068   3.148   3.849   6.711
 1057SOL     OW 4069   2.409   1.822   1.125
 1057SOL    HW1 4070   2.415   1.737   1.178
 1057SOL    HW2 4071   2.469   1.816   1.046
 1058SOL     OW 4072   2.820   2.216   2.657
 1058SOL    HW1 4073   2.790   2.286   2.722
 1058SOL    HW2 4074   2.897   2.166   2.695
 1059SOL     OW 4075   2.505   6.842   2.111
 1059SOL    HW1 4076   2.417   6.810   2.145
 1059SOL    HW2 4077   2.503   6.846   2.011
 1060SOL     OW 4078   5.904   6.420   4.965
 1060SOL    HW1 4079   5.892   6.408   5.063
 1060SOL    HW2 4080   5.914   6.331   4.921
 1061SOL     OW 4081   0.181   3.979   6.963
 1061SOL    HW1 4082   0.167   3.980   6.864
 1061SOL    HW2 4083   0.127   4.053   7.005
 1062SOL     OW 4084   3.728   6.881   4.839
 1062SOL    HW1 4085   3.781   6.800   4.860
 1062SOL    HW2 4086   3.654   6.857   4.776
 1063SOL     OW 4087   3.146   6.928   5.537
 1063SOL    HW1 4088   3.178   7.002   5.596
 1063SOL    HW2 4089   3.047   6.936   5.523
 1064SOL     OW 4090   1.897   3.718   0.519
 1064SOL    HW1 4091   1.924   3.663   0.440
 1064SOL    HW2 4092   1.958   3.698   0.595
 1065SOL     OW 4093   4.332   0.983   4.608
 1065SOL    HW1 4094   4.311   0.902   4.554
 1065SOL    HW2 4095   4.367   1.055   4.548
 1066SOL     OW 4096   5.429   6.634   1.799
 1066SOL    HW1 4097   5.510   6.579   1.778
 1066SOL    HW2 4098   5.397   6.613   1.891
 1067SOL     OW 4099   2.748   1.854   0.139
 1067SOL    HW1 4100   2.749   1.953   0.135
 1067SOL    HW2 4101   2.703   1.817   0.058
 1068SOL     OW 4102   6.752   3.299   1.484
 1068SOL    HW1 4103   6.700   3.236   1.542
 1068SOL    HW2 4104   6.716   3.391   1.495
 1069SOL     OW 4105   6.686   3.588   1.784
 1069SOL    HW1 4106   6.654   3.680   1.806
 1069SOL    HW2 4107   6.629   3.521   1.829
 1070SOL     OW 4108   1.177   6.587   2.187
 1070SOL    HW1 4109   1.189   6.605   2.090
 1070SOL    HW2 4110   1.243   6.519   2.218
 1071SOL     OW 4111   0.253   3.236   5.582
 1071SOL    HW1 4112   0.213   3.149   5.609
 1071SOL    HW2 4113   0.197   3.311   5.620
 1072SOL     OW 4114   1.901   1.469   2.116
 1072SOL    HW1 4115   1.868   1.450   2.208
 1072SOL    HW2 4116   1.917   1.567   2.106
 1073SOL     OW 4117   4.541   2.154   3.510
 1073SOL    HW1 4118   4.449   2.129   3.480
 1073SOL    HW2 4119   4.604   2.079   3.491
 1074SOL     OW 4120   2.689   4.530   1.687
 1074SOL    HW1 4121   2.749   4.510   1.764
 1074SOL    HW2 4122   2.631   4.609   1.710
 1075SOL     OW 4123   5.898   3.864   5.472
 1075SOL    HW1 4124   5.894   3.764   5.469
 1075SOL    HW2 4125   5.868   3.902   5.384
 1076SOL     OW 4126   2.282   4.316   4.881
 1076SOL    HW1 4127   2.369   4.361   4.898
 1076SOL    HW2 4128   2.283   4.225   4.922
 1077SOL     OW 4129   0.427   6.849   0.079
 1077SOL    HW1 4130   0.468   6.790   0.010
 1077SOL    HW2 4131   0.499   6.898   0.128
 1078SOL     OW 4132   6.250   6.765   4.242
 1078SOL    HW1 4133   6.186   6.700   4.283
 1078SOL    HW2 4134   6.335   6.767   4.295
 1079SOL     OW 4135   0.675   0.190   2.212
 1079SOL    HW1 4136   0.611   0.202   2.288
 1079SOL    HW2 4137   0.712   0.097   2.215
 1080SOL     OW 4138   3.239   5.955   6.344
 1080SOL    HW1 4139   3.249   5.888   6.418
 1080SOL    HW2 4140   3.268   6.045   6.377
 1081SOL     OW 4141   6.767   5.581   4.280
 1081SOL    HW1 4142   6.713   5.502   4.249
 1081SOL    HW2 4143   6.835   5.604   4.211
 1082SOL     OW 4144   4.534   6.366   6.450
 1082SOL    HW1 4145   4.596   6.297   6.486
 1082SOL    HW2 4146   4.587   6.435   6.399
 1083SOL     OW 4147   5.537   3.943   1.438
 1083SOL    HW1 4148   5.459   3.895   1.478
 1083SOL    HW2 4149   5.536   3.933   1.339
 1084SOL     OW 4150   6.381   0.561   5.392
 1084SOL    HW1 4151   6.444   0.483   5.391
 1084SOL    HW2 4152   6.353   0.579   5.486
 1085SOL     OW 4153   1.347   4.043   4.428
 1085SOL    HW1 4154   1.358   4.142   4.429
 1085SOL    HW2 4155   1.273   4.018   4.366
 1086SOL     OW 4156   5.859   5.297   0.760
 1086SOL    HW1 4157   5.870   5.397   0.756
 1086SOL    HW2 4158   5.821   5.272   0.850
 1087SOL     OW 4159   3.529   0.492   5.350
 1087SOL    HW1 4160   3.594   0.553   5.395
 1087SOL    HW2 4161   3.566   0.399   5.348
 1088SOL     OW 4162   6.889   4.887   3.174
 1088SOL    HW1 4163   6.948   4.807   3.170
 1088SOL    HW2 4164   6.914   4.943   3.253
 1089SOL     OW 4165   6.672   4.441   4.413
 1089SOL    HW1 4166   6.592   4.450   4.353
 1089SOL    HW2 4167   6.727   4.524   4.407
 1090SOL     OW 4168   5.410   1.823   5.102
 1090SOL    HW1 4169   5.429   1.768   5.182
 1090SOL    HW2 4170   5.311   1.835   5.092
 1091SOL     OW 4171   2.517   2.583   3.069
 1091SOL    HW1 4172   2.592   2.535   3.114
 1091SOL    HW2 4173   2.455   2.619   3.139
 1092SOL     OW 4174   0.554   5.569   1.352
 1092SOL    HW1 4175   0.634   5.511   1.367
 1092SOL    HW2 4176   0.481   5.514   1.311
 1093SOL     OW 4177   1.892   0.111   2.475
 1093SOL    HW1 4178   1.848   0.138   2.390
 1093SOL    HW2 4179   1.915   0.014   2.472
 1094SOL     OW 4180   0.603   0.335   2.912
 1094SOL    HW1 4181   0.542   0.315   2.989
 1094SOL    HW2 4182   0.696   0.350   2.947
 1095SOL     OW 4183   5.289   3.329   0.626
 1095SOL    HW1 4184   5.190   3.340   0.621
 1095SOL    HW2 4185   5.331   3.361   0.541
 1096SOL     OW 4186   2.827   6.015   1.468
 1096SOL    HW1 4187   2.909   6.024   1.411
 1096SOL    HW2 4188   2.826   6.086   1.538
 1097SOL     OW 4189   3.431   5.653   4.502
 1097SOL    HW1 4190   3.408   5.703   4.418
 1097SOL    HW2 4191   3.529   5.660   4.518
 1098SOL     OW 4192   6.070   4.975   0.737
 1098SOL    HW1 4193   6.040   4.995   0.831
 1098SOL    HW2 4194   6.156   4.925   0.739
 1099SOL     OW 4195   4.473   6.989   5.671
 1099SOL    HW1 4196   4.398   0.023   5.710
 1099SOL    HW2 4197   4.544   6.977   5.740
 1100SOL     OW 4198   3.365   1.886   4.111
 1100SOL    HW1 4199   3.289   1.828   4.139
 1100SOL    HW2 4200   3.439   1.879   4.178
 1101SOL     OW 4201   5.894   3.121   6.401
 1101SOL    HW1 4202   5.841   3.202   6.376
 1101SOL    HW2 4203   5.982   3.149   6.439
 1102SOL     OW 4204   2.462   1.436   3.607
 1102SOL    HW1 4205   2.406   1.358   3.579
 1102SOL    HW2 4206   2.416   1.521   3.580
 1103SOL     OW 4207   2.554   0.065   0.221
 1103SOL    HW1 4208   2.639   0.094   0.177
 1103SOL    HW2 4209   2.518   7.002   0.174
 1104SOL     OW 4210   0.710   3.200   4.091
 1104SOL    HW1 4211   0.619   3.163   4.072
 1104SOL    HW2 4212   0.771   3.126   4.119
 1105SOL     OW 4213   5.476   1.091   5.585
 1105SOL    HW1 4214   5.413   1.014   5.600
 1105SOL    HW2 4215   5.445   1.169   5.638
 1106SOL     OW 4216   0.073   1.805   0.694
 1106SOL    HW1 4217   0.141   1.737   0.669
 1106SOL    HW2 4218   0.040   1.851   0.612
 1107SOL     OW 4219   0.889   1.209   6.551
 1107SOL    HW1 4220   0.919   1.153   6.628
 1107SOL    HW2 4221   0.935   1.297   6.553
 1108SOL     OW 4222   2.536   6.728   3.281
 1108SOL    HW1 4223   2.575   6.820   3.293
 1108SOL    HW2 4224   2.496   6.697   3.367
 1109SOL     OW 4225   4.582   2.131   4.475
 1109SOL    HW1 4226   4.510   2.099   4.537
 1109SOL    HW2 4227   4.668   2.084   4.496
 1110SOL     OW 4228   2.932   0.729   2.209
 1110SOL    HW1 4229   2.851   0.720   2.152
 1110SOL    HW2 4230   2.939   0.823   2.243
 1111SOL     OW 4231   5.561   4.267   6.373
 1111SOL    HW1 4232   5.523   4.176   6.389
 1111SOL    HW2 4233   5.638   4.282   6.435
 1112SOL     OW 4234   5.102   0.105   2.424
 1112SOL    HW1 4235   5.189   0.131   2.466
 1112SOL    HW2 4236   5.087   0.007   2.436
 1113SOL     OW 4237   5.554   4.575   2.650
 1113SOL    HW1 4238   5.472   4.523   2.629
 1113SOL    HW2 4239   5.625   4.556   2.582
 1114SOL     OW 4240   3.768   3.642   5.247
 1114SOL    HW1 4241   3.694   3.666   5.310
 1114SOL    HW2 4242   3.849   3.615   5.299
 1115SOL     OW 4243   2.911   4.349   5.852
 1115SOL    HW1 4244   2.967   4.401   5.916
 1115SOL    HW2 4245   2.904   4.254   5.883
 1116SOL     OW 4246   4.530   6.900   6.547
 1116SOL    HW1 4247   4.452   6.838   6.539
 1116SOL    HW2 4248   4.587   6.894   6.465
 1117SOL     OW 4249   1.362   2.495   1.500
 1117SOL    HW1 4250   1.355   2.557   1.579
 1117SOL    HW2 4251   1.270   2.476   1.465
 1118SOL     OW 4252   3.558   4.976   0.482
 1118SOL    HW1 4253   3.592   5.067   0.457
 1118SOL    HW2 4254   3.547   4.970   0.581
 1119SOL     OW 4255   2.879   4.954   4.635
 1119SOL    HW1 4256   2.804   4.889   4.645
 1119SOL    HW2 4257   2.843   5.044   4.611
 1120SOL     OW 4258   6.623   4.361   0.781
 1120SOL    HW1 4259   6.598   4.284   0.723
 1120SOL    HW2 4260   6.721   4.381   0.771
 1121SOL     OW 4261   6.868   4.637   4.344
 1121SOL    HW1 4262   6.912   4.570   4.284
 1121SOL    HW2 4263   6.891   4.729   4.313
 1122SOL     OW 4264   5.684   2.670   1.838
 1122SOL    HW1 4265   5.674   2.571   1.825
 1122SOL    HW2 4266   5.597   2.708   1.871
 1123SOL     OW 4267   3.839   1.493   2.894
 1123SOL    HW1 4268   3.746   1.525   2.875
 1123SOL    HW2 4269   3.838   1.394   2.909
 1124SOL     OW 4270   2.368   2.734   4.569
 1124SOL    HW1 4271   2.353   2.798   4.644
 1124SOL    HW2 4272   2.346   2.778   4.482
 1125SOL     OW 4273   1.957   3.941   3.707
 1125SOL    HW1 4274   1.955   3.842   3.719
 1125SOL    HW2 4275   2.023   3.965   3.635
 1126SOL     OW 4276   3.411   5.330   4.759
 1126SOL    HW1 4277   3.490   5.285   4.801
 1126SOL    HW2 4278   3.332   5.321   4.818
 1127SOL     OW 4279   5.905   6.951   2.413
 1127SOL    HW1 4280   5.873   6.885   2.345
 1127SOL    HW2 4281   5.853   6.940   2.498
 1128SOL     OW 4282   5.239   1.617   3.899
 1128SOL    HW1 4283   5.214   1.575   3.986
 1128SOL    HW2 4284   5.334   1.647   3.902
 1129SOL     OW 4285   1.879   0.951   0.655
 1129SOL    HW1 4286   1.872   0.851   0.658
 1129SOL    HW2 4287   1.889   0.981   0.560
 1130SOL     OW 4288   2.083   4.521   1.820
 1130SOL    HW1 4289   2.109   4.425   1.827
 1130SOL    HW2 4290   2.028   4.534   1.738
 1131SOL     OW 4291   1.358   5.384   4.483
 1131SOL    HW1 4292   1.289   5.438   4.434
 1131SOL    HW2 4293   1.343   5.287   4.465
 1132SOL     OW 4294   2.274   1.524   2.295
 1132SOL    HW1 4295   2.212   1.603   2.292
 1132SOL    HW2 4296   2.250   1.460   2.222
 1133SOL     OW 4297   0.687   0.007   5.086
 1133SOL    HW1 4298   0.752   0.047   5.151
 1133SOL    HW2 4299   0.703   0.046   4.995
 1134SOL     OW 4300   3.568   6.887   1.551
 1134SOL    HW1 4301   3.630   6.930   1.617
 1134SOL    HW2 4302   3.546   6.951   1.478
 1135SOL     OW 4303   1.920   5.724   3.596
 1135SOL    HW1 4304   1.922   5.765   3.505
 1135SOL    HW2 4305   1.906   5.625   3.587
 1136SOL     OW 4306   1.796   5.534   1.536
 1136SOL    HW1 4307   1.775   5.468   1.608
 1136SOL    HW2 4308   1.720   5.539   1.472
 1137SOL     OW 4309   0.723   5.184   5.537
 1137SOL    HW1 4310   0.688   5.273   5.566
 1137SOL    HW2 4311   0.789   5.150   5.604
 1138SOL     OW 4312   1.715   2.977   4.530
 1138SOL    HW1 4313   1.769   2.998   4.611
 1138SOL    HW2 4314   1.671   2.888   4.540
 1139SOL     OW 4315   2.686   5.614   4.857
 1139SOL    HW1 4316   2.724   5.675   4.787
 1139SOL    HW2 4317   2.726   5.523   4.847
 1140SOL     OW 4318   1.357   1.467   0.610
 1140SOL    HW1 4319   1.367   1.374   0.646
 1140SOL    HW2 4320   1.432   1.487   0.547
 1141SOL     OW 4321   6.399   4.734   5.939
 1141SOL    HW1 4322   6.454   4.817   5.948
 1141SOL    HW2 4323   6.302   4.758   5.940
 1142SOL     OW 4324   2.083   6.281   2.426
 1142SOL    HW1 4325   2.124   6.190   2.433
 1142SOL    HW2 4326   1.996   6.282   2.476
 1143SOL     OW 4327   1.571   3.863   1.931
 1143SOL    HW1 4328   1.513   3.802   1.986
 1143SOL    HW2 4329   1.537   3.957   1.938
 1144SOL     OW 4330   5.635   4.496   1.304
 1144SOL    HW1 4331   5.648   4.593   1.325
 1144SOL    HW2 4332   5.706   4.466   1.241
 1145SOL     OW 4333   6.342   0.853   0.861
 1145SOL    HW1 4334   6.404   0.844   0.939
 1145SOL    HW2 4335   6.388   0.904   0.788
 1146SOL     OW 4336   0.591   0.906   1.324
 1146SOL    HW1 4337   0.578   0.868   1.233
 1146SOL    HW2 4338   0.502   0.914   1.370
 1147SOL     OW 4339   3.089   6.487   1.889
 1147SOL    HW1 4340   3.025   6.465   1.816
 1147SOL    HW2 4341   3.071   6.429   1.968
 1148SOL     OW 4342   4.852   5.347   3.480
 1148SOL    HW1 4343   4.833   5.387   3.390
 1148SOL    HW2 4344   4.870   5.420   3.546
 1149SOL     OW 4345   4.682   3.258   1.462
 1149SOL    HW1 4346   4.648   3.195   1.392
 1149SOL    HW2 4347   4.666   3.352   1.432
 1150SOL     OW 4348   1.713   4.174   0.304
 1150SOL    HW1 4349   1.791   4.236   0.313
 1150SOL    HW2 4350   1.694   4.131   0.393
 1151SOL     OW 4351   6.065   5.879   3.714
 1151SOL    HW1 4352   6.012   5.960   3.736
 1151SOL    HW2 4353   6.007   5.798   3.720
 1152SOL     OW 4354   4.140   6.226   6.908
 1152SOL    HW1 4355   4.126   6.252   7.003
 1152SOL    HW2 4356   4.061   6.174   6.875
 1153SOL     OW 4357   5.864   0.105   1.317
 1153SOL    HW1 4358   5.821   0.194   1.306
 1153SOL    HW2 4359   5.814   0.037   1.263
 1154SOL     OW 4360   2.117   2.422   1.231
 1154SOL    HW1 4361   2.030   2.455   1.266
 1154SOL    HW2 4362   2.149   2.482   1.157
 1155SOL     OW 4363   2.978   6.911   4.665
 1155SOL    HW1 4364   3.061   6.935   4.615
 1155SOL    HW2 4365   2.990   6.822   4.709
 1156SOL     OW 4366   2.531   1.881   3.799
 1156SOL    HW1 4367   2.516   1.933   3.715
 1156SOL    HW2 4368   2.515   1.784   3.782
 1157SOL     OW 4369   3.596   0.680   6.583
 1157SOL    HW1 4370   3.676   0.623   6.604
 1157SOL    HW2 4371   3.618   0.775   6.601
 1158SOL     OW 4372   5.994   5.240   2.924
 1158SOL    HW1 4373   6.077   5.290   2.948
 1158SOL    HW2 4374   5.954   5.280   2.842
 1159SOL     OW 4375   6.341   5.752   1.261
 1159SOL    HW1 4376   6.411   5.692   1.221
 1159SOL    HW2 4377   6.373   5.847   1.256
 1160SOL     OW 4378   5.395   1.645   0.591
 1160SOL    HW1 4379   5.379   1.567   0.531
 1160SOL    HW2 4380   5.357   1.728   0.550
 1161SOL     OW 4381   0.792   5.097   0.793
 1161SOL    HW1 4382   0.851   5.062   0.866
 1161SOL    HW2 4383   0.751   5.020   0.744
 1162SOL     OW 4384   2.766   2.338   4.515
 1162SOL    HW1 4385   2.740   2.317   4.609
 1162SOL    HW2 4386   2.691   2.388   4.471
 1163SOL     OW 4387   5.617   3.346   1.838
 1163SOL    HW1 4388   5.580   3.256   1.816
 1163SOL    HW2 4389   5.712   3.337   1.869
 1164SOL     OW 4390   4.719   1.940   5.410
 1164SOL    HW1 4391   4.661   1.910   5.334
 1164SOL    HW2 4392   4.782   2.010   5.378
 1165SOL     OW 4393   4.192   6.481   3.661
 1165SOL    HW1 4394   4.213   6.422   3.583
 1165SOL    HW2 4395   4.171   6.574   3.628
 1166SOL     OW 4396   2.752   4.869   6.848
 1166SOL    HW1 4397   2.835   4.914   6.882
 1166SOL    HW2 4398   2.676   4.890   6.909
 1167SOL     OW 4399   5.696   4.695   2.363
 1167SOL    HW1 4400   5.759   4.771   2.345
 1167SOL    HW2 4401   5.602   4.729   2.364
 1168SOL     OW 4402   6.354   1.255   3.519
 1168SOL    HW1 4403   6.375   1.352   3.530
 1168SOL    HW2 4404   6.270   1.233   3.568
 1169SOL     OW 4405   5.669   1.074   5.383
 1169SOL    HW1 4406   5.620   1.064   5.470
 1169SOL    HW2 4407   5.759   1.114   5.400
 1170SOL     OW 4408   5.015   6.372   4.302
 1170SOL    HW1 4409   4.944   6.434   4.335
 1170SOL    HW2 4410   4.977   6.312   4.232
 1171SOL     OW 4411   0.862   0.080   1.081
 1171SOL    HW1 4412   0.789   0.145   1.060
 1171SOL    HW2 4413   0.866   0.009   1.011
 1172SOL     OW 4414   6.773   3.184   6.508
 1172SOL    HW1 4415   6.836   3.249   6.551
 1172SOL    HW2 4416   6.825   3.123   6.447
 1173SOL     OW 4417   3.627   1.528   0.336
 1173SOL    HW1 4418   3.674   1.472   0.269
 1173SOL    HW2 4419   3.681   1.532   0.420
 1174SOL     OW 4420   2.881   3.353   0.701
 1174SOL    HW1 4421   2.861   3.313   0.611
 1174SOL    HW2 4422   2.967   3.315   0.736
 1175SOL     OW 4423   3.060   3.105   4.024
 1175SOL    HW1 4424   3.096   3.050   3.949
 1175SOL    HW2 4425   3.098   3.072   4.111
 1176SOL     OW 4426   5.718   3.849   6.508
 1176SOL    HW1 4427   5.755   3.829   6.418
 1176SOL    HW2 4428   5.683   3.764   6.549
 1177SOL     OW 4429   6.902   2.046   4.800
 1177SOL    HW1 4430   6.856   2.135   4.806
 1177SOL    HW2 4431   6.852   1.979   4.854
 1178SOL     OW 4432   3.397   5.306   0.630
 1178SOL    HW1 4433   3.345   5.236   0.582
 1178SOL    HW2 4434   3.463   5.348   0.567
 1179SOL     OW 4435   2.204   5.754   0.253
 1179SOL    HW1 4436   2.150   5.835   0.227
 1179SOL    HW2 4437   2.215   5.751   0.352
 1180SOL     OW 4438   3.559   5.628   0.733
 1180SOL    HW1 4439   3.585   5.575   0.814
 1180SOL    HW2 4440   3.490   5.578   0.681
 1181SOL     OW 4441   0.613   5.653   0.924
 1181SOL    HW1 4442   0.612   5.569   0.869
 1181SOL    HW2 4443   0.635   5.731   0.866
 1182SOL     OW 4444   4.605   4.851   2.915
 1182SOL    HW1 4445   4.639   4.787   2.984
 1182SOL    HW2 4446   4.515   4.823   2.884
 1183SOL     OW 4447   2.155   3.139   5.823
 1183SOL    HW1 4448   2.073   3.121   5.768
 1183SOL    HW2 4449   2.159   3.237   5.844
 1184SOL     OW 4450   0.938   6.944   5.485
 1184SOL    HW1 4451   0.961   6.847   5.482
 1184SOL    HW2 4452   0.996   6.990   5.553
 1185SOL     OW 4453   0.084   1.273   6.550
 1185SOL    HW1 4454   0.146   1.352   6.547
 1185SOL    HW2 4455   0.128   1.194   6.506
 1186SOL     OW 4456   5.412   6.036   5.010
 1186SOL    HW1 4457   5.399   6.063   5.106
 1186SOL    HW2 4458   5.432   5.938   5.005
 1187SOL     OW 4459   5.798   0.542   5.865
 1187SOL    HW1 4460   5.834   0.621   5.815
 1187SOL    HW2 4461   5.702   0.528   5.840
 1188SOL     OW 4462   2.688   6.619   5.692
 1188SOL    HW1 4463   2.723   6.552   5.756
 1188SOL    HW2 4464   2.747   6.700   5.693
 1189SOL     OW 4465   5.805   3.184   3.383
 1189SOL    HW1 4466   5.791   3.100   3.331
 1189SOL    HW2 4467   5.722   3.239   3.382
 1190SOL     OW 4468   1.834   6.127   2.476
 1190SOL    HW1 4469   1.776   6.205   2.457
 1190SOL    HW2 4470   1.884   6.101   2.393
 1191SOL     OW 4471   4.288   5.571   2.500
 1191SOL    HW1 4472   4.299   5.589   2.402
 1191SOL    HW2 4473   4.366   5.609   2.549
 1192SOL     OW 4474   5.137   6.267   3.734
 1192SOL    HW1 4475   5.130   6.349   3.676
 1192SOL    HW2 4476   5.165   6.189   3.679
 1193SOL     OW 4477   6.410   5.578   4.065
 1193SOL    HW1 4478   6.362   5.663   4.087
 1193SOL    HW2 4479   6.344   5.505   4.048
 1194SOL     OW 4480   4.139   0.922   1.350
 1194SOL    HW1 4481   4.043   0.900   1.334
 1194SOL    HW2 4482   4.195   0.841   1.335
 1195SOL     OW 4483   5.690   2.080   3.128
 1195SOL    HW1 4484   5.786   2.098   3.151
 1195SOL    HW2 4485   5.682   1.990   3.087
 1196SOL     OW 4486   6.164   6.505   4.356
 1196SOL    HW1 4487   6.193   6.418   4.398
 1196SOL    HW2 4488   6.085   6.541   4.406
 1197SOL     OW 4489   2.638   6.343   0.526
 1197SOL    HW1 4490   2.595   6.426   0.562
 1197SOL    HW2 4491   2.584   6.263   0.554
 1198SOL     OW 4492   1.331   2.342   0.378
 1198SOL    HW1 4493   1.379   2.419   0.420
 1198SOL    HW2 4494   1.305   2.277   0.449
 1199SOL     OW 4495   5.122   4.164   2.263
 1199SOL    HW1 4496   5.204   4.179   2.209
 1199SOL    HW2 4497   5.041   4.170   2.204
 1200SOL     OW 4498   3.128   3.469   2.130
 1200SOL    HW1 4499   3.107   3.564   2.155
 1200SOL    HW2 4500   3.043   3.418   2.120
 1201SOL     OW 4501   1.515   1.843   4.818
 1201SOL    HW1 4502   1.584   1.847   4.745
 1201SOL    HW2 4503   1.521   1.926   4.874
 1202SOL     OW 4504   0.200   5.312   6.663
 1202SOL    HW1 4505   0.223   5.277   6.753
 1202SOL    HW2 4506   0.190   5.236   6.598
 1203SOL     OW 4507   4.645   5.921   5.673
 1203SOL    HW1 4508   4.705   5.930   5.752
 1203SOL    HW2 4509   4.691   5.865   5.603
 1204SOL     OW 4510   1.770   0.214   2.168
 1204SOL    HW1 4511   1.692   0.249   2.220
 1204SOL    HW2 4512   1.828   0.290   2.139
 1205SOL     OW 4513   5.279   4.063   1.703
 1205SOL    HW1 4514   5.290   4.160   1.724
 1205SOL    HW2 4515   5.182   4.041   1.694
 1206SOL     OW 4516   3.069   3.378   5.439
 1206SOL    HW1 4517   3.048   3.283   5.414
 1206SOL    HW2 4518   3.145   3.379   5.503
 1207SOL     OW 4519   1.904   6.507   1.972
 1207SOL    HW1 4520   1.970   6.505   1.897
 1207SOL    HW2 4521   1.938   6.568   2.044
 1208SOL     OW 4522   3.207   3.896   6.335
 1208SOL    HW1 4523   3.284   3.950   6.302
 1208SOL    HW2 4524   3.203   3.902   6.435
 1209SOL     OW 4525   3.909   6.819   5.640
 1209SOL    HW1 4526   4.007   6.826   5.622
 1209SOL    HW2 4527   3.859   6.869   5.569
 1210SOL     OW 4528   3.333   1.058   2.977
 1210SOL    HW1 4529   3.249   1.100   3.011
 1210SOL    HW2 4530   3.311   0.988   2.910
 1211SOL     OW 4531   1.100   3.815   0.521
 1211SOL    HW1 4532   1.020   3.838   0.575
 1211SOL    HW2 4533   1.172   3.778   0.580
 1212SOL     OW 4534   1.106   6.374   6.827
 1212SOL    HW1 4535   1.026   6.389   6.885
 1212SOL    HW2 4536   1.150   6.289   6.855
 1213SOL     OW 4537   5.271   2.767   1.043
 1213SOL    HW1 4538   5.370   2.776   1.052
 1213SOL    HW2 4539   5.249   2.732   0.952
 1214SOL     OW 4540   0.381   2.381   1.656
 1214SOL    HW1 4541   0.431   2.465   1.679
 1214SOL    HW2 4542   0.363   2.380   1.558
 1215SOL     OW 4543   1.030   5.424   4.599
 1215SOL    HW1 4544   1.112   5.460   4.554
 1215SOL    HW2 4545   1.050   5.334   4.637
 1216SOL     OW 4546   4.215   6.845   6.808
 1216SOL    HW1 4547   4.235   6.778   6.880
 1216SOL    HW2 4548   4.152   6.914   6.842
 1217SOL     OW 4549   2.694   4.670   0.236
 1217SOL    HW1 4550   2.727   4.760   0.265
 1217SOL    HW2 4551   2.618   4.642   0.296
 1218SOL     OW 4552   1.914   4.095   3.925
 1218SOL    HW1 4553   1.919   4.040   3.841
 1218SOL    HW2 4554   1.878   4.039   4.000
 1219SOL     OW 4555   4.313   6.117   2.675
 1219SOL    HW1 4556   4.285   6.021   2.687
 1219SOL    HW2 4557   4.411   6.125   2.695
 1220SOL     OW 4558   1.374   4.709   2.705
 1220SOL    HW1 4559   1.384   4.782   2.638
 1220SOL    HW2 4560   1.294   4.653   2.682
 1221SOL     OW 4561   5.864   3.852   6.291
 1221SOL    HW1 4562   5.810   3.817   6.214
 1221SOL    HW2 4563   5.880   3.950   6.279
 1222SOL     OW 4564   6.982   6.239   6.968
 1222SOL    HW1 4565   0.057   6.202   6.966
 1222SOL    HW2 4566   6.941   6.222   0.039
 1223SOL     OW 4567   3.671   6.289   0.758
 1223SOL    HW1 4568   3.754   6.305   0.706
 1223SOL    HW2 4569   3.601   6.250   0.698
 1224SOL     OW 4570   2.982   0.149   2.210
 1224SOL    HW1 4571   2.958   0.235   2.254
 1224SOL    HW2 4572   2.953   0.072   2.268
 1225SOL     OW 4573   2.723   4.065   6.906
 1225SOL    HW1 4574   2.788   4.024   6.971
 1225SOL    HW2 4575   2.659   4.124   6.955
 1226SOL     OW 4576   2.062   4.662   0.910
 1226SOL    HW1 4577   1.994   4.590   0.890
 1226SOL    HW2 4578   2.031   4.748   0.869
 1227SOL     OW 4579   0.154   3.315   6.484
 1227SOL    HW1 4580   0.134   3.409   6.459
 1227SOL    HW2 4581   0.082   3.280   6.544
 1228SOL     OW 4582   4.127   1.693   5.847
 1228SOL    HW1 4583   4.092   1.678   5.755
 1228SOL    HW2 4584   4.054   1.678   5.914
 1229SOL     OW 4585   3.503   4.454   6.131
 1229SOL    HW1 4586   3.427   4.400   6.095
 1229SOL    HW2 4587   3.496   4.460   6.230
 1230SOL     OW 4588   4.672   6.357   3.199
 1230SOL    HW1 4589   4.727   6.321   3.274
 1230SOL    HW2 4590   4.596   6.410   3.237
 1231SOL     OW 4591   1.641   4.040   4.183
 1231SOL    HW1 4592   1.580   4.030   4.104
 1231SOL    HW2 4593   1.736   4.022   4.155
 1232SOL     OW 4594   2.072   2.168   4.410
 1232SOL    HW1 4595   2.049   2.078   4.446
 1232SOL    HW2 4596   2.011   2.236   4.451
 1233SOL     OW 4597   0.798   3.467   4.281
 1233SOL    HW1 4598   0.790   3.380   4.330
 1233SOL    HW2 4599   0.748   3.461   4.195
 1234SOL     OW 4600   6.428   4.471   4.285
 1234SOL    HW1 4601   6.449   4.517   4.198
 1234SOL    HW2 4602   6.374   4.532   4.343
 1235SOL     OW 4603   6.571   5.989   4.430
 1235SOL    HW1 4604   6.507   5.978   4.355
 1235SOL    HW2 4605   6.639   6.059   4.407
 1236SOL     OW 4606   5.202   0.405   0.131
 1236SOL    HW1 4607   5.121   0.444   0.086
 1236SOL    HW2 4608   5.283   0.456   0.103
 1237SOL     OW 4609   3.148   4.452   6.803
 1237SOL    HW1 4610   3.215   4.425   6.733
 1237SOL    HW2 4611   3.075   4.504   6.759
 1238SOL     OW 4612   1.585   1.795   1.120
 1238SOL    HW1 4613   1.569   1.877   1.174
 1238SOL    HW2 4614   1.681   1.790   1.095
 1239SOL     OW 4615   0.195   6.347   6.709
 1239SOL    HW1 4616   0.203   6.401   6.793
 1239SOL    HW2 4617   0.250   6.264   6.718
 1240SOL     OW 4618   4.963   6.053   1.860
 1240SOL    HW1 4619   5.009   6.141   1.870
 1240SOL    HW2 4620   4.951   6.033   1.763
 1241SOL     OW 4621   6.351   3.304   3.838
 1241SOL    HW1 4622   6.316   3.281   3.747
 1241SOL    HW2 4623   6.428   3.244   3.860
 1242SOL     OW 4624   2.130   3.776   0.021
 1242SOL    HW1 4625   2.192   3.784   0.099
 1242SOL    HW2 4626   2.165   3.831   6.962
 1243SOL     OW 4627   2.853   5.324   5.488
 1243SOL    HW1 4628   2.806   5.399   5.443
 1243SOL    HW2 4629   2.936   5.301   5.438
 1244SOL     OW 4630   0.727   0.768   3.751
 1244SOL    HW1 4631   0.701   0.725   3.837
 1244SOL    HW2 4632   0.679   0.723   3.676
 1245SOL     OW 4633   2.911   3.573   6.650
 1245SOL    HW1 4634   2.969   3.493   6.634
 1245SOL    HW2 4635   2.969   3.652   6.670
 1246SOL     OW 4636   1.421   6.116   2.437
 1246SOL    HW1 4637   1.322   6.127   2.451
 1246SOL    HW2 4638   1.441   6.021   2.415
 1247SOL     OW 4639   2.100   6.278   6.175
 1247SOL    HW1 4640   2.140   6.332   6.102
 1247SOL    HW2 4641   2.059   6.195   6.137
 1248SOL     OW 4642   1.855   5.478   3.543
 1248SOL    HW1 4643   1.885   5.425   3.464
 1248SOL    HW2 4644   1.767   5.444   3.576
 1249SOL     OW 4645   6.339   3.266   3.245
 1249SOL    HW1 4646   6.353   3.362   3.273
 1249SOL    HW2 4647   6.259   3.230   3.293
 1250SOL     OW 4648   0.908   5.092   4.874
 1250SOL    HW1 4649   0.863   5.151   4.807
 1250SOL    HW2 4650   0.849   5.081   4.954
 1251SOL     OW 4651   3.779   0.440   4.917
 1251SOL    HW1 4652   3.727   0.356   4.928
 1251SOL    HW2 4653   3.760   0.479   4.827
 1252SOL     OW 4654   3.564   3.829   6.226
 1252SOL    HW1 4655   3.638   3.796   6.284
 1252SOL    HW2 4656   3.600   3.855   6.136
 1253SOL     OW 4657   3.925   5.536   2.855
 1253SOL    HW1 4658   3.854   5.607   2.848
 1253SOL    HW2 4659   4.013   5.580   2.872
 1254SOL     OW 4660   6.338   2.229   2.886
 1254SOL    HW1 4661   6.436   2.217   2.899
 1254SOL    HW2 4662   6.297   2.267   2.969
 1255SOL     OW 4663   6.358   6.795   6.848
 1255SOL    HW1 4664   6.425   6.725   6.869
 1255SOL    HW2 4665   6.404   6.882   6.829
 1256SOL     OW 4666   4.675   1.207   3.734
 1256SOL    HW1 4667   4.620   1.193   3.651
 1256SOL    HW2 4668   4.723   1.122   3.756
 1257SOL     OW 4669   6.010   1.772   3.970
 1257SOL    HW1 4670   6.047   1.820   4.049
 1257SOL    HW2 4671   5.911   1.779   3.969
 1258SOL     OW 4672   0.034   6.807   3.061
 1258SOL    HW1 4673   6.997   6.890   3.052
 1258SOL    HW2 4674   0.102   6.820   3.133
 1259SOL     OW 4675   4.338   2.349   5.269
 1259SOL    HW1 4676   4.304   2.392   5.185
 1259SOL    HW2 4677   4.260   2.319   5.324
 1260SOL     OW 4678   1.437   1.047   6.589
 1260SOL    HW1 4679   1.503   1.103   6.540
 1260SOL    HW2 4680   1.380   1.105   6.647
 1261SOL     OW 4681   6.451   4.351   1.059
 1261SOL    HW1 4682   6.474   4.313   0.970
 1261SOL    HW2 4683   6.353   4.342   1.077
 1262SOL     OW 4684   5.441   6.142   2.042
 1262SOL    HW1 4685   5.481   6.122   2.131
 1262SOL    HW2 4686   5.392   6.061   2.008
 1263SOL     OW 4687   0.954   2.125   3.245
 1263SOL    HW1 4688   1.008   2.187   3.188
 1263SOL    HW2 4689   0.876   2.090   3.193
 1264SOL     OW 4690   0.941   2.474   5.384
 1264SOL    HW1 4691   0.968   2.571   5.385
 1264SOL    HW2 4692   1.022   2.418   5.364
 1265SOL     OW 4693   5.904   5.952   4.751
 1265SOL    HW1 4694   5.918   5.993   4.661
 1265SOL    HW2 4695   5.895   5.853   4.742
 1266SOL     OW 4696   1.841   0.945   4.799
 1266SOL    HW1 4697   1.938   0.967   4.808
 1266SOL    HW2 4698   1.794   0.970   4.883
 1267SOL     OW 4699   3.462   0.221   3.473
 1267SOL    HW1 4700   3.472   0.313   3.434
 1267SOL    HW2 4701   3.500   0.154   3.410
 1268SOL     OW 4702   4.409   2.792   5.713
 1268SOL    HW1 4703   4.400   2.839   5.801
 1268SOL    HW2 4704   4.505   2.792   5.685
 1269SOL     OW 4705   6.178   2.181   4.114
 1269SOL    HW1 4706   6.276   2.188   4.134
 1269SOL    HW2 4707   6.154   2.249   4.044
 1270SOL     OW 4708   6.666   5.729   2.634
 1270SOL    HW1 4709   6.688   5.661   2.564
 1270SOL    HW2 4710   6.675   5.821   2.594
 1271SOL     OW 4711   1.796   1.539   0.942
 1271SOL    HW1 4712   1.790   1.632   0.980
 1271SOL    HW2 4713   1.726   1.527   0.872
 1272SOL     OW 4714   6.098   3.818   6.037
 1272SOL    HW1 4715   6.041   3.737   6.050
 1272SOL    HW2 4716   6.089   3.878   6.116
 1273SOL     OW 4717   0.926   4.668   5.041
 1273SOL    HW1 4718   0.883   4.577   5.040
 1273SOL    HW2 4719   0.940   4.700   4.948
 1274SOL     OW 4720   0.079   5.563   3.090
 1274SOL    HW1 4721   0.071   5.465   3.109
 1274SOL    HW2 4722   0.175   5.590   3.097
 1275SOL     OW 4723   2.119   1.456   3.043
 1275SOL    HW1 4724   2.121   1.405   3.129
 1275SOL    HW2 4725   2.193   1.425   2.983
 1276SOL     OW 4726   5.496   4.870   4.187
 1276SOL    HW1 4727   5.399   4.891   4.186
 1276SOL    HW2 4728   5.520   4.817   4.105
 1277SOL     OW 4729   0.828   6.106   0.313
 1277SOL    HW1 4730   0.782   6.103   0.402
 1277SOL    HW2 4731   0.759   6.103   0.241
 1278SOL     OW 4732   1.066   5.910   2.937
 1278SOL    HW1 4733   1.011   5.914   3.020
 1278SOL    HW2 4734   1.010   5.934   2.858
 1279SOL     OW 4735   2.757   2.647   1.691
 1279SOL    HW1 4736   2.833   2.582   1.690
 1279SOL    HW2 4737   2.705   2.639   1.606
 1280SOL     OW 4738   2.188   2.304   3.953
 1280SOL    HW1 4739   2.193   2.235   4.025
 1280SOL    HW2 4740   2.268   2.298   3.894
 1281SOL     OW 4741   4.769   6.377   4.924
 1281SOL    HW1 4742   4.867   6.372   4.903
 1281SOL    HW2 4743   4.749   6.465   4.967
 1282SOL     OW 4744   6.878   2.400   0.873
 1282SOL    HW1 4745   6.947   2.398   0.800
 1282SOL    HW2 4746   6.920   2.436   0.957
 1283SOL     OW 4747   0.076   2.947   4.729
 1283SOL    HW1 4748   0.137   2.958   4.807
 1283SOL    HW2 4749   7.001   2.974   4.754
 1284SOL     OW 4750   4.158   2.135   1.874
 1284SOL    HW1 4751   4.146   2.048   1.825
 1284SOL    HW2 4752   4.150   2.119   1.972
 1285SOL     OW 4753   4.435   1.114   5.242
 1285SOL    HW1 4754   4.386   1.047   5.185
 1285SOL    HW2 4755   4.374   1.190   5.262
 1286SOL     OW 4756   5.333   2.340   1.377
 1286SOL    HW1 4757   5.319   2.318   1.474
 1286SOL    HW2 4758   5.423   2.309   1.348
 1287SOL     OW 4759   6.495   4.749   4.529
 1287SOL    HW1 4760   6.533   4.811   4.461
 1287SOL    HW2 4761   6.419   4.794   4.577
 1288SOL     OW 4762   4.683   4.248   0.112
 1288SOL    HW1 4763   4.586   4.260   0.136
 1288SOL    HW2 4764   4.708   4.311   0.039
 1289SOL     OW 4765   0.070   0.322   1.473
 1289SOL    HW1 4766   0.064   0.401   1.413
 1289SOL    HW2 4767   0.160   0.279   1.463
 1290SOL     OW 4768   1.933   6.795   5.733
 1290SOL    HW1 4769   1.977   6.712   5.768
 1290SOL    HW2 4770   1.884   6.841   5.807
 1291SOL     OW 4771   6.500   4.644   3.218
 1291SOL    HW1 4772   6.518   4.557   3.172
 1291SOL    HW2 4773   6.509   4.719   3.152
 1292SOL     OW 4774   1.010   6.698   1.675
 1292SOL    HW1 4775   0.928   6.648   1.646
 1292SOL    HW2 4776   1.055   6.736   1.594
 1293SOL     OW 4777   4.164   1.314   6.972
 1293SOL    HW1 4778   4.105   1.234   6.965
 1293SOL    HW2 4779   4.159   1.367   6.888
 1294SOL     OW 4780   1.995   3.762   5.071
 1294SOL    HW1 4781   2.064   3.775   5.142
 1294SOL    HW2 4782   1.909   3.803   5.102
 1295SOL     OW 4783   6.032   4.571   0.663
 1295SOL    HW1 4784   6.000   4.633   0.735
 1295SOL    HW2 4785   6.072   4.625   0.589
 1296SOL     OW 4786   5.441   6.894   5.755
 1296SOL    HW1 4787   5.356   6.842   5.770
 1296SOL    HW2 4788   5.418   6.990   5.736
 1297SOL     OW 4789   0.602   0.570   2.248
 1297SOL    HW1 4790   0.532   0.520   2.196
 1297SOL    HW2 4791   0.651   0.632   2.187
 1298SOL     OW 4792   5.315   6.606   2.393
 1298SOL    HW1 4793   5.231   6.602   2.338
 1298SOL    HW2 4794   5.311   6.537   2.465
 1299SOL     OW 4795   0.610   3.718   4.708
 1299SOL    HW1 4796   0.672   3.794   4.688
 1299SOL    HW2 4797   0.657   3.650   4.764
 1300SOL     OW 4798   1.208   4.716   1.816
 1300SOL    HW1 4799   1.262   4.764   1.885
 1300SOL    HW2 4800   1.129   4.673   1.861
 1301SOL     OW 4801   0.649   0.304   0.458
 1301SOL    HW1 4802   0.608   0.227   0.408
 1301SOL    HW2 4803   0.741   0.320   0.423
 1302SOL     OW 4804   5.641   0.158   4.639
 1302SOL    HW1 4805   5.630   0.255   4.618
 1302SOL    HW2 4806   5.737   0.133   4.634
 1303SOL     OW 4807   3.951   6.273   2.070
 1303SOL    HW1 4808   3.951   6.191   2.013
 1303SOL    HW2 4809   3.942   6.354   2.013
 1304SOL     OW 4810   0.768   0.897   0.506
 1304SOL    HW1 4811   0.681   0.933   0.542
 1304SOL    HW2 4812   0.814   0.968   0.453
 1305SOL     OW 4813   4.950   3.148   6.255
 1305SOL    HW1 4814   4.911   3.240   6.268
 1305SOL    HW2 4815   5.047   3.156   6.234
 1306SOL     OW 4816   2.652   5.409   4.122
 1306SOL    HW1 4817   2.645   5.463   4.038
 1306SOL    HW2 4818   2.639   5.313   4.101
 1307SOL     OW 4819   2.670   1.826   3.548
 1307SOL    HW1 4820   2.760   1.782   3.552
 1307SOL    HW2 4821   2.673   1.903   3.485
 1308SOL     OW 4822   0.826   4.604   6.049
 1308SOL    HW1 4823   0.883   4.680   6.017
 1308SOL    HW2 4824   0.732   4.636   6.060
 1309SOL     OW 4825   5.699   4.386   6.863
 1309SOL    HW1 4826   5.679   4.322   6.789
 1309SOL    HW2 4827   5.614   4.416   6.906
 1310SOL     OW 4828   1.162   3.962   3.413
 1310SOL    HW1 4829   1.168   3.868   3.445
 1310SOL    HW2 4830   1.074   4.001   3.441
 1311SOL     OW 4831   6.687   5.597   0.737
 1311SOL    HW1 4832   6.622   5.603   0.813
 1311SOL    HW2 4833   6.636   5.592   0.650
 1312SOL     OW 4834   2.571   1.093   5.939
 1312SOL    HW1 4835   2.617   1.005   5.926
 1312SOL    HW2 4836   2.472   1.080   5.937
 1313SOL     OW 4837   6.441   6.211   2.304
 1313SOL    HW1 4838   6.402   6.281   2.244
 1313SOL    HW2 4839   6.529   6.243   2.340
 1314SOL     OW 4840   2.637   1.595   5.012
 1314SOL    HW1 4841   2.603   1.501   5.013
 1314SOL    HW2 4842   2.669   1.620   5.103
 1315SOL     OW 4843   6.283   1.756   3.450
 1315SOL    HW1 4844   6.312   1.732   3.357
 1315SOL    HW2 4845   6.187   1.780   3.450
 1316SOL     OW 4846   4.536   0.702   5.534
 1316SOL    HW1 4847   4.477   0.688   5.454
 1316SOL    HW2 4848   4.620   0.649   5.523
 1317SOL     OW 4849   2.995   3.744   6.188
 1317SOL    HW1 4850   3.057   3.812   6.226
 1317SOL    HW2 4851   3.042   3.693   6.116
 1318SOL     OW 4852   1.880   2.456   6.075
 1318SOL    HW1 4853   1.876   2.369   6.125
 1318SOL    HW2 4854   1.830   2.526   6.127
 1319SOL     OW 4855   6.885   6.615   1.018
 1319SOL    HW1 4856   6.788   6.637   1.023
 1319SOL    HW2 4857   6.929   6.637   1.106
 1320SOL     OW 4858   3.329   3.212   5.870
 1320SOL    HW1 4859   3.314   3.141   5.939
 1320SOL    HW2 4860   3.312   3.302   5.911
 1321SOL     OW 4861   5.882   2.815   0.440
 1321SOL    HW1 4862   5.827   2.738   0.409
 1321SOL    HW2 4863   5.974   2.808   0.402
 1322SOL     OW 4864   3.442   1.872   0.521
 1322SOL    HW1 4865   3.376   1.827   0.580
 1322SOL    HW2 4866   3.465   1.961   0.558
 1323SOL     OW 4867   3.853   0.105   0.563
 1323SOL    HW1 4868   3.787   0.055   0.620
 1323SOL    HW2 4869   3.945   0.072   0.582
 1324SOL     OW 4870   1.463   3.187   0.111
 1324SOL    HW1 4871   1.499   3.239   0.034
 1324SOL    HW2 4872   1.364   3.176   0.100
 1325SOL     OW 4873   2.935   5.387   5.765
 1325SOL    HW1 4874   2.909   5.314   5.702
 1325SOL    HW2 4875   2.862   5.455   5.769
 1326SOL     OW 4876   4.591   2.655   3.604
 1326SOL    HW1 4877   4.582   2.573   3.547
 1326SOL    HW2 4878   4.610   2.734   3.546
 1327SOL     OW 4879   5.722   5.474   1.764
 1327SOL    HW1 4880   5.684   5.442   1.851
 1327SOL    HW2 4881   5.722   5.574   1.763
 1328SOL     OW 4882   2.168   3.183   5.095
 1328SOL    HW1 4883   2.129   3.218   5.010
 1328SOL    HW2 4884   2.256   3.139   5.076
 1329SOL     OW 4885   1.119   2.993   3.614
 1329SOL    HW1 4886   1.055   2.996   3.536
 1329SOL    HW2 4887   1.072   3.025   3.696
 1330SOL     OW 4888   6.451   2.745   1.479
 1330SOL    HW1 4889   6.491   2.770   1.567
 1330SOL    HW2 4890   6.485   2.655   1.451
 1331SOL     OW 4891   4.716   1.925   3.502
 1331SOL    HW1 4892   4.644   1.882   3.556
 1331SOL    HW2 4893   4.800   1.871   3.509
 1332SOL     OW 4894   1.649   6.279   0.038
 1332SOL    HW1 4895   1.577   6.270   6.987
 1332SOL    HW2 4896   1.634   6.361   0.093
 1333SOL     OW 4897   3.913   3.987   3.333
 1333SOL    HW1 4898   3.863   3.948   3.410
 1333SOL    HW2 4899   3.869   4.072   3.304
 1334SOL     OW 4900   6.792   3.417   2.054
 1334SOL    HW1 4901   6.770   3.384   2.146
 1334SOL    HW2 4902   6.771   3.345   1.988
 1335SOL     OW 4903   1.278   3.709   2.478
 1335SOL    HW1 4904   1.198   3.767   2.488
 1335SOL    HW2 4905   1.293   3.689   2.381
 1336SOL     OW 4906   3.007   0.757   5.066
 1336SOL    HW1 4907   2.976   0.699   4.990
 1336SOL    HW2 4908   2.991   0.853   5.043
 1337SOL     OW 4909   6.638   1.189   3.619
 1337SOL    HW1 4910   6.700   1.263   3.645
 1337SOL    HW2 4911   6.571   1.223   3.552
 1338SOL     OW 4912   6.532   3.802   5.369
 1338SOL    HW1 4913   6.548   3.880   5.430
 1338SOL    HW2 4914   6.435   3.795   5.350
 1339SOL     OW 4915   0.461   0.090   6.870
 1339SOL    HW1 4916   0.404   0.101   6.789
 1339SOL    HW2 4917   0.404   0.066   6.948
 1340SOL     OW 4918   4.147   2.589   1.722
 1340SOL    HW1 4919   4.084   2.527   1.770
 1340SOL    HW2 4920   4.109   2.682   1.723
 1341SOL     OW 4921   5.023   6.637   0.207
 1341SOL    HW1 4922   5.023   6.677   0.299
 1341SOL    HW2 4923   4.932   6.646   0.167
 1342SOL     OW 4924   2.758   6.705   1.739
 1342SOL    HW1 4925   2.817   6.626   1.719
 1342SOL    HW2 4926   2.803   6.789   1.709
 1343SOL     OW 4927   5.749   5.956   3.109
 1343SOL    HW1 4928   5.826   5.991   3.163
 1343SOL    HW2 4929   5.783   5.917   3.024
 1344SOL     OW 4930   0.602   0.467   5.066
 1344SOL    HW1 4931   0.556   0.390   5.109
 1344SOL    HW2 4932   0.657   0.434   4.989
 1345SOL     OW 4933   0.276   6.047   0.484
 1345SOL    HW1 4934   0.253   6.108   0.409
 1345SOL    HW2 4935   0.271   6.097   0.571
 1346SOL     OW 4936   3.037   5.485   5.088
 1346SOL    HW1 4937   3.082   5.535   5.162
 1346SOL    HW2 4938   2.944   5.462   5.116
 1347SOL     OW 4939   1.074   0.122   6.234
 1347SOL    HW1 4940   1.065   0.219   6.256
 1347SOL    HW2 4941   1.163   0.089   6.267
 1348SOL     OW 4942   0.782   6.503   5.522
 1348SOL    HW1 4943   0.696   6.545   5.497
 1348SOL    HW2 4944   0.840   6.569   5.569
 1349SOL     OW 4945   4.780   2.928   4.061
 1349SOL    HW1 4946   4.731   2.845   4.088
 1349SOL    HW2 4947   4.791   2.929   3.961
 1350SOL     OW 4948   4.062   3.938   0.011
 1350SOL    HW1 4949   3.979   3.987   0.039
 1350SOL    HW2 4950   4.133   4.004   7.006
 1351SOL     OW 4951   6.838   2.486   5.464
 1351SOL    HW1 4952   6.906   2.548   5.425
 1351SOL    HW2 4953   6.754   2.537   5.483
 1352SOL     OW 4954   6.822   0.232   2.082
 1352SOL    HW1 4955   6.921   0.227   2.068
 1352SOL    HW2 4956   6.803   0.246   2.179
 1353SOL     OW 4957   0.503   1.069   0.008
 1353SOL    HW1 4958   0.542   1.121   0.084
 1353SOL    HW2 4959   0.522   0.972   0.021
 1354SOL     OW 4960   5.394   5.151   2.633
 1354SOL    HW1 4961   5.297   5.128   2.642
 1354SOL    HW2 4962   5.404   5.250   2.625
 1355SOL     OW 4963   5.936   3.553   6.140
 1355SOL    HW1 4964   5.994   3.560   6.221
 1355SOL    HW2 4965   5.944   3.461   6.101
 1356SOL     OW 4966   3.135   3.251   0.744
 1356SOL    HW1 4967   3.184   3.232   0.829
 1356SOL    HW2 4968   3.190   3.310   0.686
 1357SOL     OW 4969   0.290   3.640   5.040
 1357SOL    HW1 4970   0.299   3.614   5.136
 1357SOL    HW2 4971   0.261   3.560   4.987
 1358SOL     OW 4972   1.774   6.564   6.551
 1358SOL    HW1 4973   1.698   6.499   6.540
 1358SOL    HW2 4974   1.830   6.537   6.629
 1359SOL     OW 4975   0.106   4.279   1.672
 1359SOL    HW1 4976   0.142   4.234   1.590
 1359SOL    HW2 4977   0.020   4.326   1.649
 1360SOL     OW 4978   2.415   2.432   0.384
 1360SOL    HW1 4979   2.321   2.449   0.414
 1360SOL    HW2 4980   2.465   2.518   0.381
 1361SOL     OW 4981   0.168   5.385   5.129
 1361SOL    HW1 4982   0.106   5.396   5.207
 1361SOL    HW2 4983   0.195   5.289   5.122
 1362SOL     OW 4984   3.000   3.206   3.060
 1362SOL    HW1 4985   3.028   3.276   2.994
 1362SOL    HW2 4986   2.900   3.199   3.062
 1363SOL     OW 4987   1.337   5.832   4.469
 1363SOL    HW1 4988   1.262   5.839   4.404
 1363SOL    HW2 4989   1.305   5.860   4.560
 1364SOL     OW 4990   3.835   3.748   1.086
 1364SOL    HW1 4991   3.822   3.651   1.065
 1364SOL    HW2 4992   3.909   3.758   1.153
 1365SOL     OW 4993   0.323   3.328   6.909
 1365SOL    HW1 4994   0.289   3.241   6.871
 1365SOL    HW2 4995   0.254   3.399   6.895
 1366SOL     OW 4996   3.210   0.349   5.402
 1366SOL    HW1 4997   3.274   0.380   5.332
 1366SOL    HW2 4998   3.161   0.427   5.441
 1367SOL     OW 4999   2.171   1.003   2.783
 1367SOL    HW1 5000   2.139   1.033   2.873
 1367SOL    HW2 5001   2.101   1.024   2.714
 1368SOL     OW 5002   5.308   6.790   3.500
 1368SOL    HW1 5003   5.347   6.706   3.536
 1368SOL    HW2 5004   5.209   6.791   3.517
 1369SOL     OW 5005   1.057   0.963   3.297
 1369SOL    HW1 5006   1.076   0.910   3.214
 1369SOL    HW2 5007   0.973   1.016   3.285
 1370SOL     OW 5008   2.733   0.419   1.441
 1370SOL    HW1 5009   2.640   0.443   1.415
 1370SOL    HW2 5010   2.795   0.493   1.418
 1371SOL     OW 5011   4.274   0.539   6.729
 1371SOL    HW1 5012   4.252   0.601   6.804
 1371SOL    HW2 5013   4.306   0.452   6.765
 1372SOL     OW 5014   3.123   1.845   1.905
 1372SOL    HW1 5015   3.057   1.901   1.955
 1372SOL    HW2 5016   3.158   1.772   1.964
 1373SOL     OW 5017   1.324   6.023   0.984
 1373SOL    HW1 5018   1.258   5.969   0.930
 1373SOL    HW2 5019   1.390   6.066   0.922
 1374SOL     OW 5020   4.873   2.811   0.451
 1374SOL    HW1 5021   4.920   2.725   0.474
 1374SOL    HW2 5022   4.938   2.887   0.456
 1375SOL     OW 5023   0.494   4.039   5.244
 1375SOL    HW1 5024   0.468   4.124   5.288
 1375SOL    HW2 5025   0.585   4.049   5.203
 1376SOL     OW 5026   4.927   1.639   2.729
 1376SOL    HW1 5027   4.886   1.583   2.657
 1376SOL    HW2 5028   4.990   1.705   2.689
 1377SOL     OW 5029   0.594   5.809   4.723
 1377SOL    HW1 5030   0.513   5.866   4.735
 1377SOL    HW2 5031   0.615   5.762   4.809
 1378SOL     OW 5032   2.172   2.008   6.964
 1378SOL    HW1 5033   2.096   1.962   6.918
 1378SOL    HW2 5034   2.232   2.049   6.895
 1379SOL     OW 5035   3.828   6.025   1.371
 1379SOL    HW1 5036   3.775   5.957   1.320
 1379SOL    HW2 5037   3.822   6.113   1.325
 1380SOL     OW 5038   6.504   6.758   2.626
 1380SOL    HW1 5039   6.481   6.661   2.641
 1380SOL    HW2 5040   6.601   6.767   2.604
 1381SOL     OW 5041   6.086   0.430   1.362
 1381SOL    HW1 5042   6.113   0.369   1.287
 1381SOL    HW2 5043   6.040   0.511   1.324
 1382SOL     OW 5044   6.935   5.044   6.188
 1382SOL    HW1 5045   6.955   5.130   6.141
 1382SOL    HW2 5046   6.926   5.061   6.286
 1383SOL     OW 5047   2.572   6.914   0.773
 1383SOL    HW1 5048   2.569   6.941   0.869
 1383SOL    HW2 5049   2.655   6.952   0.730
 1384SOL     OW 5050   2.914   1.622   2.163
 1384SOL    HW1 5051   2.883   1.716   2.175
 1384SOL    HW2 5052   2.879   1.586   2.076
 1385SOL     OW 5053   5.776   2.976   2.998
 1385SOL    HW1 5054   5.679   2.954   2.988
 1385SOL    HW2 5055   5.793   3.067   2.960
 1386SOL     OW 5056   2.131   2.568   4.205
 1386SOL    HW1 5057   2.046   2.586   4.255
 1386SOL    HW2 5058   2.113   2.569   4.107
 1387SOL     OW 5059   2.476   0.447   4.962
 1387SOL    HW1 5060   2.482   0.430   4.863
 1387SOL    HW2 5061   2.568   0.446   5.001
 1388SOL     OW 5062   6.217   1.160   4.979
 1388SOL    HW1 5063   6.170   1.080   5.016
 1388SOL    HW2 5064   6.303   1.174   5.028
 1389SOL     OW 5065   6.780   1.218   4.312
 1389SOL    HW1 5066   6.733   1.159   4.377
 1389SOL    HW2 5067   6.797   1.307   4.355
 1390SOL     OW 5068   4.515   2.475   2.041
 1390SOL    HW1 5069   4.511   2.476   2.141
 1390SOL    HW2 5070   4.607   2.450   2.011
 1391SOL     OW 5071   5.614   1.459   4.581
 1391SOL    HW1 5072   5.614   1.545   4.633
 1391SOL    HW2 5073   5.671   1.392   4.628
 1392SOL     OW 5074   4.481   5.944   5.918
 1392SOL    HW1 5075   4.504   6.008   5.845
 1392SOL    HW2 5076   4.445   5.860   5.879
 1393SOL     OW 5077   5.444   0.437   6.562
 1393SOL    HW1 5078   5.402   0.528   6.567
 1393SOL    HW2 5079   5.434   0.401   6.469
 1394SOL     OW 5080   4.253   0.126   4.005
 1394SOL    HW1 5081   4.251   0.189   3.927
 1394SOL    HW2 5082   4.235   0.177   4.089
 1395SOL     OW 5083   1.342   5.417   2.051
 1395SOL    HW1 5084   1.382   5.326   2.048
 1395SOL    HW2 5085   1.331   5.452   1.958
 1396SOL     OW 5086   1.797   1.528   3.621
 1396SOL    HW1 5087   1.796   1.441   3.670
 1396SOL    HW2 5088   1.878   1.533   3.563
 1397SOL     OW 5089   0.715   5.394   4.885
 1397SOL    HW1 5090   0.644   5.464   4.872
 1397SOL    HW2 5091   0.699   5.319   4.821
 1398SOL     OW 5092   1.918   6.790   6.961
 1398SOL    HW1 5093   1.842   6.838   7.005
 1398SOL    HW2 5094   1.970   6.740   0.013
 1399SOL     OW 5095   4.017   0.313   0.177
 1399SOL    HW1 5096   3.936   0.261   0.148
 1399SOL    HW2 5097   4.013   0.405   0.138
 1400SOL     OW 5098   0.476   0.881   5.136
 1400SOL    HW1 5099   0.567   0.917   5.157
 1400SOL    HW2 5100   0.472   0.785   5.163
 1401SOL     OW 5101   5.621   0.331   2.772
 1401SOL    HW1 5102   5.643   0.287   2.685
 1401SOL    HW2 5103   5.590   0.424   2.755
 1402SOL     OW 5104   6.986   4.524   2.726
 1402SOL    HW1 5105   6.968   4.438   2.774
 1402SOL    HW2 5106   6.990   4.599   2.793
 1403SOL     OW 5107   3.160   3.404   6.315
 1403SOL    HW1 5108   3.067   3.420   6.348
 1403SOL    HW2 5109   3.186   3.310   6.335
 1404SOL     OW 5110   4.258   6.143   0.684
 1404SOL    HW1 5111   4.297   6.209   0.621
 1404SOL    HW2 5112   4.226   6.189   0.767
 1405SOL     OW 5113   0.644   3.733   0.798
 1405SOL    HW1 5114   0.703   3.675   0.853
 1405SOL    HW2 5115   0.600   3.801   0.856
 1406SOL     OW 5116   1.691   3.390   0.239
 1406SOL    HW1 5117   1.611   3.342   0.203
 1406SOL    HW2 5118   1.688   3.390   0.339
 1407SOL     OW 5119   0.231   3.394   1.497
 1407SOL    HW1 5120   0.221   3.433   1.589
 1407SOL    HW2 5121   0.318   3.422   1.458
 1408SOL     OW 5122   5.577   6.721   0.970
 1408SOL    HW1 5123   5.584   6.757   0.877
 1408SOL    HW2 5124   5.492   6.754   1.012
 1409SOL     OW 5125   6.239   1.403   5.941
 1409SOL    HW1 5126   6.166   1.373   6.003
 1409SOL    HW2 5127   6.287   1.481   5.982
 1410SOL     OW 5128   3.475   0.273   6.647
 1410SOL    HW1 5129   3.505   0.344   6.583
 1410SOL    HW2 5130   3.497   0.300   6.740
 1411SOL     OW 5131   3.534   4.686   0.038
 1411SOL    HW1 5132   3.556   4.689   6.959
 1411SOL    HW2 5133   3.497   4.596   0.061
 1412SOL     OW 5134   2.720   2.139   0.149
 1412SOL    HW1 5135   2.640   2.129   0.208
 1412SOL    HW2 5136   2.756   2.232   0.157
 1413SOL     OW 5137   2.149   2.044   5.269
 1413SOL    HW1 5138   2.232   2.094   5.244
 1413SOL    HW2 5139   2.081   2.108   5.304
 1414SOL     OW 5140   0.510   4.607   2.643
 1414SOL    HW1 5141   0.474   4.610   2.736
 1414SOL    HW2 5142   0.560   4.691   2.623
 1415SOL     OW 5143   3.057   1.526   4.741
 1415SOL    HW1 5144   3.005   1.559   4.661
 1415SOL    HW2 5145   2.994   1.510   4.817
 1416SOL     OW 5146   4.554   0.426   4.850
 1416SOL    HW1 5147   4.579   0.461   4.941
 1416SOL    HW2 5148   4.632   0.377   4.811
 1417SOL     OW 5149   3.806   3.424   5.056
 1417SOL    HW1 5150   3.890   3.370   5.065
 1417SOL    HW2 5151   3.800   3.489   5.131
 1418SOL     OW 5152   3.715   3.975   6.036
 1418SOL    HW1 5153   3.809   3.961   6.006
 1418SOL    HW2 5154   3.711   4.054   6.097
 1419SOL     OW 5155   1.724   6.001   1.733
 1419SOL    HW1 5156   1.726   5.952   1.821
 1419SOL    HW2 5157   1.791   6.075   1.735
 1420SOL     OW 5158   2.665   6.479   2.622
 1420SOL    HW1 5159   2.763   6.467   2.602
 1420SOL    HW2 5160   2.623   6.389   2.636
 1421SOL     OW 5161   1.226   4.997   6.055
 1421SOL    HW1 5162   1.193   5.023   6.146
 1421SOL    HW2 5163   1.228   5.077   5.996
 1422SOL     OW 5164   1.882   2.955   6.675
 1422SOL    HW1 5165   1.938   3.020   6.624
 1422SOL    HW2 5166   1.942   2.890   6.722
 1423SOL     OW 5167   4.276   0.960   5.085
 1423SOL    HW1 5168   4.279   1.024   5.009
 1423SOL    HW2 5169   4.303   0.869   5.054
 1424SOL     OW 5170   6.650   2.937   0.988
 1424SOL    HW1 5171   6.577   2.902   1.048
 1424SOL    HW2 5172   6.735   2.942   1.040
 1425SOL     OW 5173   5.602   0.695   3.803
 1425SOL    HW1 5174   5.582   0.734   3.893
 1425SOL    HW2 5175   5.518   0.690   3.749
 1426SOL     OW 5176   3.963   1.074   6.946
 1426SOL    HW1 5177   4.032   1.039   6.882
 1426SOL    HW2 5178   3.872   1.069   6.904
 1427SOL     OW 5179   1.834   0.263   3.833
 1427SOL    HW1 5180   1.742   0.298   3.849
 1427SOL    HW2 5181   1.867   0.217   3.916
 1428SOL     OW 5182   1.272   3.316   4.258
 1428SOL    HW1 5183   1.284   3.313   4.358
 1428SOL    HW2 5184   1.299   3.406   4.224
 1429SOL     OW 5185   6.302   0.569   2.116
 1429SOL    HW1 5186   6.392   0.581   2.156
 1429SOL    HW2 5187   6.311   0.540   2.021
 1430SOL     OW 5188   2.051   3.315   4.888
 1430SOL    HW1 5189   2.058   3.246   4.816
 1430SOL    HW2 5190   2.066   3.406   4.850
 1431SOL     OW 5191   2.853   1.375   0.226
 1431SOL    HW1 5192   2.875   1.284   0.260
 1431SOL    HW2 5193   2.884   1.444   0.292
 1432SOL     OW 5194   3.658   0.251   2.219
 1432SOL    HW1 5195   3.650   0.210   2.310
 1432SOL    HW2 5196   3.599   0.332   2.215
 1433SOL     OW 5197   2.895   1.152   4.078
 1433SOL    HW1 5198   2.828   1.212   4.122
 1433SOL    HW2 5199   2.853   1.062   4.062
 1434SOL     OW 5200   5.530   4.134   0.265
 1434SOL    HW1 5201   5.462   4.202   0.290
 1434SOL    HW2 5202   5.484   4.054   0.227
 1435SOL     OW 5203   1.341   6.993   3.652
 1435SOL    HW1 5204   1.391   6.977   3.737
 1435SOL    HW2 5205   1.250   0.009   3.673
 1436SOL     OW 5206   5.623   1.327   0.477
 1436SOL    HW1 5207   5.538   1.374   0.451
 1436SOL    HW2 5208   5.619   1.302   0.574
 1437SOL     OW 5209   3.539   0.937   0.499
 1437SOL    HW1 5210   3.612   0.998   0.531
 1437SOL    HW2 5211   3.528   0.861   0.564
 1438SOL     OW 5212   2.540   0.835   2.834
 1438SOL    HW1 5213   2.473   0.809   2.764
 1438SOL    HW2 5214   2.516   0.925   2.871
 1439SOL     OW 5215   6.884   4.996   0.111
 1439SOL    HW1 5216   6.811   4.947   0.159
 1439SOL    HW2 5217   6.861   5.003   0.014
 1440SOL     OW 5218   3.425   3.029   3.011
 1440SOL    HW1 5219   3.498   2.967   3.039
 1440SOL    HW2 5220   3.337   2.985   3.026
 1441SOL     OW 5221   6.369   2.173   4.817
 1441SOL    HW1 5222   6.347   2.090   4.766
 1441SOL    HW2 5223   6.325   2.251   4.773
 1442SOL     OW 5224   5.525   6.914   0.335
 1442SOL    HW1 5225   5.445   6.973   0.346
 1442SOL    HW2 5226   5.504   6.843   0.268
 1443SOL     OW 5227   1.105   2.391   3.321
 1443SOL    HW1 5228   1.008   2.386   3.297
 1443SOL    HW2 5229   1.114   2.399   3.420
 1444SOL     OW 5230   5.413   0.141   5.661
 1444SOL    HW1 5231   5.388   0.119   5.566
 1444SOL    HW2 5232   5.412   0.240   5.674
 1445SOL     OW 5233   6.621   2.002   0.682
 1445SOL    HW1 5234   6.523   2.006   0.701
 1445SOL    HW2 5235   6.668   1.959   0.759
 1446SOL     OW 5236   3.966   6.910   0.873
 1446SOL    HW1 5237   3.985   6.853   0.793
 1446SOL    HW2 5238   3.978   7.007   0.849
 1447SOL     OW 5239   5.615   1.393   5.090
 1447SOL    HW1 5240   5.707   1.393   5.128
 1447SOL    HW2 5241   5.557   1.331   5.143
 1448SOL     OW 5242   5.399   0.691   6.790
 1448SOL    HW1 5243   5.413   0.626   6.865
 1448SOL    HW2 5244   5.437   0.780   6.815
 1449SOL     OW 5245   5.053   5.786   0.883
 1449SOL    HW1 5246   4.962   5.750   0.861
 1449SOL    HW2 5247   5.091   5.832   0.803
 1450SOL     OW 5248   5.777   2.585   3.634
 1450SOL    HW1 5249   5.729   2.620   3.553
 1450SOL    HW2 5250   5.715   2.525   3.685
 1451SOL     OW 5251   1.722   6.891   1.928
 1451SOL    HW1 5252   1.781   6.898   2.008
 1451SOL    HW2 5253   1.637   6.940   1.945
 1452SOL     OW 5254   4.350   0.699   5.005
 1452SOL    HW1 5255   4.332   0.601   5.015
 1452SOL    HW2 5256   4.396   0.716   4.918
 1453SOL     OW 5257   4.388   4.692   4.303
 1453SOL    HW1 5258   4.367   4.784   4.269
 1453SOL    HW2 5259   4.315   4.629   4.278
 1454SOL     OW 5260   4.887   4.638   1.209
 1454SOL    HW1 5261   4.916   4.698   1.284
 1454SOL    HW2 5262   4.966   4.588   1.173
 1455SOL     OW 5263   2.314   2.332   1.858
 1455SOL    HW1 5264   2.359   2.355   1.771
 1455SOL    HW2 5265   2.377   2.348   1.933
 1456SOL     OW 5266   6.066   5.628   3.994
 1456SOL    HW1 5267   6.117   5.708   4.025
 1456SOL    HW2 5268   6.000   5.656   3.924
 1457SOL     OW 5269   1.913   6.895   3.721
 1457SOL    HW1 5270   2.006   6.932   3.731
 1457SOL    HW2 5271   1.871   6.933   3.638
 1458SOL     OW 5272   0.233   5.823   0.136
 1458SOL    HW1 5273   0.248   5.756   0.064
 1458SOL    HW2 5274   0.140   5.815   0.172
 1459SOL     OW 5275   2.580   6.995   1.026
 1459SOL    HW1 5276   2.547   0.055   1.079
 1459SOL    HW2 5277   2.552   6.910   1.070
 1460SOL     OW 5278   1.102   6.777   0.269
 1460SOL    HW1 5279   1.018   6.738   0.231
 1460SOL    HW2 5280   1.089   6.874   0.286
 1461SOL     OW 5281   4.590   4.995   2.000
 1461SOL    HW1 5282   4.623   4.901   1.984
 1461SOL    HW2 5283   4.667   5.058   1.991
 1462SOL     OW 5284   5.179   0.522   5.545
 1462SOL    HW1 5285   5.136   0.600   5.591
 1462SOL    HW2 5286   5.112   0.475   5.488
 1463SOL     OW 5287   0.500   1.314   5.216
 1463SOL    HW1 5288   0.513   1.229   5.267
 1463SOL    HW2 5289   0.587   1.345   5.180
 1464SOL     OW 5290   0.004   0.619   1.610
 1464SOL    HW1 5291   0.049   0.610   1.521
 1464SOL    HW2 5292   0.022   0.710   1.648
 1465SOL     OW 5293   0.372   0.121   4.733
 1465SOL    HW1 5294   0.402   0.214   4.756
 1465SOL    HW2 5295   0.278   0.108   4.763
 1466SOL     OW 5296   5.293   4.922   4.462
 1466SOL    HW1 5297   5.265   4.886   4.372
 1466SOL    HW2 5298   5.300   5.021   4.457
 1467SOL     OW 5299   5.951   3.684   2.972
 1467SOL    HW1 5300   6.006   3.604   2.947
 1467SOL    HW2 5301   5.965   3.705   3.069
 1468SOL     OW 5302   5.647   6.939   2.566
 1468SOL    HW1 5303   5.641   6.935   2.665
 1468SOL    HW2 5304   5.653   6.845   2.530
 1469SOL     OW 5305   0.495   0.974   2.130
 1469SOL    HW1 5306   0.518   1.055   2.183
 1469SOL    HW2 5307   0.492   0.996   2.033
 1470SOL     OW 5308   6.759   0.853   3.412
 1470SOL    HW1 5309   6.725   0.885   3.500
 1470SOL    HW2 5310   6.709   0.771   3.385
 1471SOL     OW 5311   6.453   0.271   0.831
 1471SOL    HW1 5312   6.509   0.232   0.904
 1471SOL    HW2 5313   6.485   0.236   0.743
 1472SOL     OW 5314   4.040   5.801   5.058
 1472SOL    HW1 5315   3.991   5.779   4.973
 1472SOL    HW2 5316   4.106   5.729   5.079
 1473SOL     OW 5317   6.077   3.905   3.194
 1473SOL    HW1 5318   6.073   3.968   3.272
 1473SOL    HW2 5319   6.060   3.956   3.110
 1474SOL     OW 5320   4.372   5.271   3.787
 1474SOL    HW1 5321   4.391   5.173   3.783
 1474SOL    HW2 5322   4.285   5.286   3.832
 1475SOL     OW 5323   6.403   0.988   3.442
 1475SOL    HW1 5324   6.383   1.082   3.468
 1475SOL    HW2 5325   6.337   0.927   3.486
 1476SOL     OW 5326   6.422   2.110   1.541
 1476SOL    HW1 5327   6.413   2.191   1.599
 1476SOL    HW2 5328   6.348   2.046   1.561
 1477SOL     OW 5329   2.854   6.124   3.598
 1477SOL    HW1 5330   2.784   6.153   3.533
 1477SOL    HW2 5331   2.913   6.056   3.554
 1478SOL     OW 5332   0.010   4.570   1.540
 1478SOL    HW1 5333   0.107   4.563   1.516
 1478SOL    HW2 5334   7.008   4.509   1.617
 1479SOL     OW 5335   0.670   4.890   0.668
 1479SOL    HW1 5336   0.687   4.791   0.659
 1479SOL    HW2 5337   0.670   4.931   0.577
 1480SOL     OW 5338   3.138   0.858   0.139
 1480SOL    HW1 5339   3.187   0.945   0.137
 1480SOL    HW2 5340   3.146   0.813   0.050
 1481SOL     OW 5341   6.528   2.793   6.144
 1481SOL    HW1 5342   6.515   2.890   6.162
 1481SOL    HW2 5343   6.621   2.777   6.110
 1482SOL     OW 5344   5.406   1.136   6.600
 1482SOL    HW1 5345   5.336   1.202   6.630
 1482SOL    HW2 5346   5.476   1.128   6.671
 1483SOL     OW 5347   6.277   2.459   6.624
 1483SOL    HW1 5348   6.362   2.511   6.616
 1483SOL    HW2 5349   6.236   2.475   6.714
 1484SOL     OW 5350   0.044   6.809   2.613
 1484SOL    HW1 5351   0.070   6.883   2.551
 1484SOL    HW2 5352   6.967   6.823   2.643
 1485SOL     OW 5353   5.743   2.643   4.069
 1485SOL    HW1 5354   5.734   2.711   4.142
 1485SOL    HW2 5355   5.660   2.588   4.065
 1486SOL     OW 5356   5.283   2.749   1.731
 1486SOL    HW1 5357   5.185   2.763   1.719
 1486SOL    HW2 5358   5.319   2.701   1.651
 1487SOL     OW 5359   6.264   1.148   5.813
 1487SOL    HW1 5360   6.356   1.136   5.776
 1487SOL    HW2 5361   6.258   1.237   5.859
 1488SOL     OW 5362   4.789   1.798   3.100
 1488SOL    HW1 5363   4.782   1.700   3.118
 1488SOL    HW2 5364   4.886   1.825   3.094
 1489SOL     OW 5365   4.001   5.336   4.848
 1489SOL    HW1 5366   3.901   5.340   4.849
 1489SOL    HW2 5367   4.032   5.293   4.763
 1490SOL     OW 5368   2.447   2.464   1.211
 1490SOL    HW1 5369   2.361   2.504   1.179
 1490SOL    HW2 5370   2.432   2.368   1.236
 1491SOL     OW 5371   6.601   2.065   5.606
 1491SOL    HW1 5372   6.669   2.124   5.563
 1491SOL    HW2 5373   6.569   2.107   5.691
 1492SOL     OW 5374   5.813   2.960   1.798
 1492SOL    HW1 5375   5.805   2.872   1.750
 1492SOL    HW2 5376   5.821   3.034   1.732
 1493SOL     OW 5377   5.868   1.482   5.162
 1493SOL    HW1 5378   5.939   1.514   5.099
 1493SOL    HW2 5379   5.817   1.561   5.198
 1494SOL     OW 5380   5.760   2.322   4.466
 1494SOL    HW1 5381   5.776   2.284   4.375
 1494SOL    HW2 5382   5.663   2.345   4.476
 1495SOL     OW 5383   1.240   2.459   2.937
 1495SOL    HW1 5384   1.222   2.557   2.935
 1495SOL    HW2 5385   1.296   2.437   3.016
 1496SOL     OW 5386   1.088   0.570   3.279
 1496SOL    HW1 5387   1.067   0.590   3.375
 1496SOL    HW2 5388   1.073   0.652   3.224
 1497SOL     OW 5389   5.103   4.350   5.596
 1497SOL    HW1 5390   5.064   4.264   5.628
 1497SOL    HW2 5391   5.163   4.333   5.519
 1498SOL     OW 5392   2.264   5.560   0.078
 1498SOL    HW1 5393   2.244   5.632   0.145
 1498SOL    HW2 5394   2.362   5.543   0.076
 1499SOL     OW 5395   0.496   4.641   4.810
 1499SOL    HW1 5396   0.580   4.627   4.758
 1499SOL    HW2 5397   0.511   4.708   4.883
 1500SOL     OW 5398   4.476   0.013   5.338
 1500SOL    HW1 5399   4.382   6.997   5.334
 1500SOL    HW2 5400   4.486   0.075   5.416
 1501SOL     OW 5401   4.386   0.300   6.810
 1501SOL    HW1 5402   4.373   0.228   6.742
 1501SOL    HW2 5403   4.424   0.261   6.894
 1502SOL     OW 5404   0.342   6.285   0.012
 1502SOL    HW1 5405   0.282   6.207   7.013
 1502SOL    HW2 5406   0.421   6.279   6.969
 1503SOL     OW 5407   3.363   4.169   5.197
 1503SOL    HW1 5408   3.267   4.143   5.210
 1503SOL    HW2 5409   3.403   4.114   5.124
 1504SOL     OW 5410   2.774   6.572   4.402
 1504SOL    HW1 5411   2.752   6.562   4.499
 1504SOL    HW2 5412   2.830   6.654   4.390
 1505SOL     OW 5413   5.058   5.605   2.402
 1505SOL    HW1 5414   5.061   5.598   2.302
 1505SOL    HW2 5415   5.049   5.701   2.429
 1506SOL     OW 5416   0.924   6.241   2.965
 1506SOL    HW1 5417   0.961   6.264   3.055
 1506SOL    HW2 5418   0.997   6.247   2.897
 1507SOL     OW 5419   2.782   1.810   6.427
 1507SOL    HW1 5420   2.703   1.760   6.463
 1507SOL    HW2 5421   2.863   1.752   6.432
 1508SOL     OW 5422   4.250   0.373   0.440
 1508SOL    HW1 5423   4.196   0.456   0.427
 1508SOL    HW2 5424   4.347   0.397   0.441
 1509SOL     OW 5425   5.285   1.609   0.161
 1509SOL    HW1 5426   5.237   1.686   0.121
 1509SOL    HW2 5427   5.383   1.621   0.150
 1510SOL     OW 5428   0.242   1.836   3.079
 1510SOL    HW1 5429   0.307   1.913   3.075
 1510SOL    HW2 5430   0.188   1.842   3.163
 1511SOL     OW 5431   1.885   2.388   0.779
 1511SOL    HW1 5432   1.800   2.423   0.738
 1511SOL    HW2 5433   1.865   2.355   0.871
 1512SOL     OW 5434   6.247   0.895   2.279
 1512SOL    HW1 5435   6.202   0.835   2.212
 1512SOL    HW2 5436   6.199   0.890   2.366
 1513SOL     OW 5437   3.780   1.067   2.266
 1513SOL    HW1 5438   3.833   1.106   2.191
 1513SOL    HW2 5439   3.843   1.029   2.334
 1514SOL     OW 5440   4.928   0.980   6.462
 1514SOL    HW1 5441   4.987   1.050   6.504
 1514SOL    HW2 5442   4.856   1.024   6.409
 1515SOL     OW 5443   6.391   5.230   4.731
 1515SOL    HW1 5444   6.317   5.261   4.790
 1515SOL    HW2 5445   6.380   5.268   4.639
 1516SOL     OW 5446   0.498   0.855   0.859
 1516SOL    HW1 5447   0.509   0.767   0.813
 1516SOL    HW2 5448   0.573   0.869   0.924
 1517SOL     OW 5449   3.730   4.900   3.324
 1517SOL    HW1 5450   3.817   4.912   3.372
 1517SOL    HW2 5451   3.724   4.807   3.289
 1518SOL     OW 5452   0.935   4.919   0.967
 1518SOL    HW1 5453   1.018   4.915   0.911
 1518SOL    HW2 5454   0.959   4.900   1.062
 1519SOL     OW 5455   6.790   4.067   1.476
 1519SOL    HW1 5456   6.870   4.085   1.420
 1519SOL    HW2 5457   6.708   4.105   1.432
 1520SOL     OW 5458   1.621   2.541   2.607
 1520SOL    HW1 5459   1.672   2.593   2.539
 1520SOL    HW2 5460   1.681   2.522   2.685
 1521SOL     OW 5461   2.944   4.291   5.313
 1521SOL    HW1 5462   2.936   4.382   5.273
 1521SOL    HW2 5463   2.977   4.226   5.244
 1522SOL     OW 5464   1.199   2.797   6.387
 1522SOL    HW1 5465   1.118   2.763   6.434
 1522SOL    HW2 5466   1.173   2.839   6.300
 1523SOL     OW 5467   6.848   1.381   0.680
 1523SOL    HW1 5468   6.810   1.319   0.611
 1523SOL    HW2 5469   6.801   1.367   0.767
 1524SOL     OW 5470   6.094   1.055   3.073
 1524SOL    HW1 5471   6.153   0.985   3.113
 1524SOL    HW2 5472   6.055   1.112   3.145
 1525SOL     OW 5473   4.543   1.273   6.274
 1525SOL    HW1 5474   4.587   1.287   6.185
 1525SOL    HW2 5475   4.552   1.356   6.329
 1526SOL     OW 5476   6.866   1.525   6.798
 1526SOL    HW1 5477   6.945   1.514   6.858
 1526SOL    HW2 5478   6.865   1.617   6.760
 1527SOL     OW 5479   2.651   1.732   5.965
 1527SOL    HW1 5480   2.596   1.669   6.020
 1527SOL    HW2 5481   2.608   1.746   5.877
 1528SOL     OW 5482   4.835   5.665   4.056
 1528SOL    HW1 5483   4.825   5.604   3.977
 1528SOL    HW2 5484   4.861   5.756   4.025
 1529SOL     OW 5485   3.278   1.087   5.185
 1529SOL    HW1 5486   3.200   1.093   5.247
 1529SOL    HW2 5487   3.246   1.066   5.093
 1530SOL     OW 5488   3.345   0.036   2.422
 1530SOL    HW1 5489   3.356   7.007   2.334
 1530SOL    HW2 5490   3.403   7.008   2.490
 1531SOL     OW 5491   6.024   0.349   5.970
 1531SOL    HW1 5492   5.975   0.383   6.051
 1531SOL    HW2 5493   5.999   0.405   5.891
 1532SOL     OW 5494   3.257   2.382   5.431
 1532SOL    HW1 5495   3.230   2.368   5.335
 1532SOL    HW2 5496   3.345   2.337   5.447
 1533SOL     OW 5497   5.727   2.689   6.960
 1533SOL    HW1 5498   5.752   2.761   0.008
 1533SOL    HW2 5499   5.628   2.677   6.960
 1534SOL     OW 5500   6.735   0.051   1.667
 1534SOL    HW1 5501   6.667   0.024   1.598
 1534SOL    HW2 5502   6.777   0.138   1.639
 1535SOL     OW 5503   4.801   4.986   3.851
 1535SOL    HW1 5504   4.724   4.951   3.904
 1535SOL    HW2 5505   4.777   4.989   3.754
 1536SOL     OW 5506   2.888   5.310   3.377
 1536SOL    HW1 5507   2.898   5.408   3.363
 1536SOL    HW2 5508   2.933   5.283   3.462
 1537SOL     OW 5509   2.261   5.784   4.389
 1537SOL    HW1 5510   2.269   5.771   4.487
 1537SOL    HW2 5511   2.337   5.841   4.357
 1538SOL     OW 5512   3.255   4.759   6.630
 1538SOL    HW1 5513   3.318   4.692   6.590
 1538SOL    HW2 5514   3.238   4.833   6.565
 1539SOL     OW 5515   3.490   5.175   1.644
 1539SOL    HW1 5516   3.449   5.139   1.728
 1539SOL    HW2 5517   3.577   5.220   1.666
 1540SOL     OW 5518   6.079   0.190   5.658
 1540SOL    HW1 5519   6.147   0.200   5.731
 1540SOL    HW2 5520   6.123   0.150   5.578
 1541SOL     OW 5521   4.769   1.746   0.579
 1541SOL    HW1 5522   4.726   1.835   0.594
 1541SOL    HW2 5523   4.798   1.708   0.667
 1542SOL     OW 5524   0.977   6.224   0.610
 1542SOL    HW1 5525   0.987   6.207   0.708
 1542SOL    HW2 5526   1.057   6.190   0.561
 1543SOL     OW 5527   3.546   4.159   3.828
 1543SOL    HW1 5528   3.564   4.135   3.923
 1543SOL    HW2 5529   3.520   4.255   3.822
 1544SOL     OW 5530   3.498   3.853   2.722
 1544SOL    HW1 5531   3.458   3.817   2.807
 1544SOL    HW2 5532   3.487   3.953   2.720
 1545SOL     OW 5533   6.392   0.680   4.382
 1545SOL    HW1 5534   6.384   0.581   4.394
 1545SOL    HW2 5535   6.475   0.700   4.330
 1546SOL     OW 5536   6.882   6.575   6.188
 1546SOL    HW1 5537   6.852   6.572   6.093
 1546SOL    HW2 5538   6.982   6.574   6.191
 1547SOL     OW 5539   3.745   5.986   7.016
 1547SOL    HW1 5540   3.781   6.022   6.930
 1547SOL    HW2 5541   3.794   5.903   0.023
 1548SOL     OW 5542   5.931   4.294   3.931
 1548SOL    HW1 5543   5.994   4.372   3.935
 1548SOL    HW2 5544   5.883   4.286   4.019
 1549SOL     OW 5545   6.701   1.967   0.961
 1549SOL    HW1 5546   6.798   1.974   0.941
 1549SOL    HW2 5547   6.659   2.058   0.955
 1550SOL     OW 5548   2.272   5.654   2.646
 1550SOL    HW1 5549   2.225   5.606   2.720
 1550SOL    HW2 5550   2.241   5.619   2.558
 1551SOL     OW 5551   0.777   3.589   1.081
 1551SOL    HW1 5552   0.814   3.678   1.107
 1551SOL    HW2 5553   0.849   3.520   1.085
 1552SOL     OW 5554   0.874   6.982   1.389
 1552SOL    HW1 5555   0.860   0.007   1.300
 1552SOL    HW2 5556   0.941   0.018   1.441
 1553SOL     OW 5557   5.774   1.716   5.989
 1553SOL    HW1 5558   5.729   1.805   5.983
 1553SOL    HW2 5559   5.708   1.647   6.018
 1554SOL     OW 5560   2.424   1.965   1.448
 1554SOL    HW1 5561   2.394   2.038   1.509
 1554SOL    HW2 5562   2.491   1.908   1.494
 1555SOL     OW 5563   3.617   0.980   6.517
 1555SOL    HW1 5564   3.649   1.000   6.609
 1555SOL    HW2 5565   3.518   0.987   6.514
 1556SOL     OW 5566   4.073   2.090   0.037
 1556SOL    HW1 5567   4.158   2.113   7.006
 1556SOL    HW2 5568   4.090   2.015   0.100
 1557SOL     OW 5569   1.765   3.009   0.422
 1557SOL    HW1 5570   1.830   2.953   0.370
 1557SOL    HW2 5571   1.690   3.037   0.362
 1558SOL     OW 5572   5.086   2.879   6.452
 1558SOL    HW1 5573   5.146   2.958   6.462
 1558SOL    HW2 5574   4.995   2.909   6.425
 1559SOL     OW 5575   3.458   5.363   2.746
 1559SOL    HW1 5576   3.493   5.285   2.799
 1559SOL    HW2 5577   3.375   5.336   2.699
 1560SOL     OW 5578   3.815   2.380   1.240
 1560SOL    HW1 5579   3.755   2.381   1.320
 1560SOL    HW2 5580   3.809   2.292   1.194
 1561SOL     OW 5581   5.750   6.379   0.983
 1561SOL    HW1 5582   5.653   6.355   0.993
 1561SOL    HW2 5583   5.793   6.315   0.920
 1562SOL     OW 5584   3.230   0.419   2.467
 1562SOL    HW1 5585   3.232   0.431   2.368
 1562SOL    HW2 5586   3.212   0.323   2.489
 1563SOL     OW 5587   2.235   2.133   4.155
 1563SOL    HW1 5588   2.287   2.177   4.229
 1563SOL    HW2 5589   2.299   2.094   4.089
 1564SOL     OW 5590   0.457   0.947   2.919
 1564SOL    HW1 5591   0.391   1.021   2.934
 1564SOL    HW2 5592   0.409   0.859   2.923
 1565SOL     OW 5593   4.038   1.148   4.616
 1565SOL    HW1 5594   4.055   1.060   4.660
 1565SOL    HW2 5595   4.121   1.179   4.569
 1566SOL     OW 5596   5.790   4.248   3.696
 1566SOL    HW1 5597   5.691   4.247   3.706
 1566SOL    HW2 5598   5.832   4.275   3.783
 1567SOL     OW 5599   5.338   0.595   5.315
 1567SOL    HW1 5600   5.292   0.565   5.398
 1567SOL    HW2 5601   5.290   0.559   5.235
 1568SOL     OW 5602   2.968   4.675   1.359
 1568SOL    HW1 5603   3.044   4.656   1.422
 1568SOL    HW2 5604   2.911   4.593   1.351
 1569SOL     OW 5605   2.984   1.125   2.785
 1569SOL    HW1 5606   2.884   1.125   2.796
 1569SOL    HW2 5607   3.013   1.037   2.748
 1570SOL     OW 5608   3.016   6.096   6.194
 1570SOL    HW1 5609   3.077   6.044   6.255
 1570SOL    HW2 5610   3.047   6.191   6.189
 1571SOL     OW 5611   0.167   3.686   4.073
 1571SOL    HW1 5612   0.201   3.698   4.166
 1571SOL    HW2 5613   0.086   3.627   4.074
 1572SOL     OW 5614   2.874   5.637   2.906
 1572SOL    HW1 5615   2.813   5.668   2.979
 1572SOL    HW2 5616   2.868   5.538   2.897
 1573SOL     OW 5617   5.150   5.868   6.929
 1573SOL    HW1 5618   5.136   5.877   0.009
 1573SOL    HW2 5619   5.174   5.774   6.906
 1574SOL     OW 5620   0.863   4.501   3.143
 1574SOL    HW1 5621   0.881   4.449   3.226
 1574SOL    HW2 5622   0.939   4.564   3.126
 1575SOL     OW 5623   6.872   2.804   0.375
 1575SOL    HW1 5624   6.874   2.707   0.397
 1575SOL    HW2 5625   6.788   2.826   0.324
 1576SOL     OW 5626   1.800   6.371   1.255
 1576SOL    HW1 5627   1.748   6.444   1.300
 1576SOL    HW2 5628   1.743   6.327   1.186
 1577SOL     OW 5629   3.897   5.809   4.715
 1577SOL    HW1 5630   3.961   5.736   4.740
 1577SOL    HW2 5631   3.826   5.773   4.655
 1578SOL     OW 5632   5.166   1.254   1.764
 1578SOL    HW1 5633   5.173   1.298   1.675
 1578SOL    HW2 5634   5.247   1.277   1.819
 1579SOL     OW 5635   1.503   2.737   2.084
 1579SOL    HW1 5636   1.433   2.799   2.049
 1579SOL    HW2 5637   1.562   2.707   2.008
 1580SOL     OW 5638   2.966   3.793   2.635
 1580SOL    HW1 5639   2.898   3.758   2.571
 1580SOL    HW2 5640   2.938   3.772   2.729
 1581SOL     OW 5641   6.325   4.560   5.289
 1581SOL    HW1 5642   6.390   4.510   5.347
 1581SOL    HW2 5643   6.261   4.610   5.347
 1582SOL     OW 5644   4.502   6.113   5.274
 1582SOL    HW1 5645   4.463   6.046   5.211
 1582SOL    HW2 5646   4.600   6.096   5.285
 1583SOL     OW 5647   1.145   5.425   5.496
 1583SOL    HW1 5648   1.177   5.393   5.407
 1583SOL    HW2 5649   1.071   5.491   5.483
 1584SOL     OW 5650   6.981   4.072   0.327
 1584SOL    HW1 5651   6.904   4.098   0.385
 1584SOL    HW2 5652   6.958   4.090   0.231
 1585SOL     OW 5653   4.182   6.771   3.589
 1585SOL    HW1 5654   4.086   6.757   3.612
 1585SOL    HW2 5655   4.199   6.867   3.570
 1586SOL     OW 5656   3.821   6.099   3.467
 1586SOL    HW1 5657   3.856   6.065   3.379
 1586SOL    HW2 5658   3.840   6.032   3.538
 1587SOL     OW 5659   2.659   6.603   6.530
 1587SOL    HW1 5660   2.672   6.541   6.606
 1587SOL    HW2 5661   2.603   6.559   6.459
 1588SOL     OW 5662   6.541   1.619   3.793
 1588SOL    HW1 5663   6.588   1.592   3.877
 1588SOL    HW2 5664   6.604   1.669   3.734
 1589SOL     OW 5665   6.434   4.189   3.851
 1589SOL    HW1 5666   6.355   4.140   3.814
 1589SOL    HW2 5667   6.418   4.212   3.947
 1590SOL     OW 5668   6.873   2.298   3.704
 1590SOL    HW1 5669   6.928   2.218   3.680
 1590SOL    HW2 5670   6.904   2.334   3.793
 1591SOL     OW 5671   1.466   5.912   1.393
 1591SOL    HW1 5672   1.429   5.854   1.320
 1591SOL    HW2 5673   1.566   5.910   1.391
 1592SOL     OW 5674   0.088   3.564   6.438
 1592SOL    HW1 5675   0.069   3.632   6.367
 1592SOL    HW2 5676   0.180   3.579   6.474
 1593SOL     OW 5677   3.610   6.719   0.025
 1593SOL    HW1 5678   3.699   6.714   0.070
 1593SOL    HW2 5679   3.574   6.812   0.033
 1594SOL     OW 5680   6.153   0.754   2.525
 1594SOL    HW1 5681   6.135   0.739   2.623
 1594SOL    HW2 5682   6.117   0.676   2.473
 1595SOL     OW 5683   0.507   3.383   0.120
 1595SOL    HW1 5684   0.593   3.409   0.078
 1595SOL    HW2 5685   0.438   3.367   0.049
 1596SOL     OW 5686   4.659   4.987   3.347
 1596SOL    HW1 5687   4.611   4.905   3.317
 1596SOL    HW2 5688   4.644   5.000   3.445
 1597SOL     OW 5689   4.041   5.803   0.264
 1597SOL    HW1 5690   4.116   5.739   0.244
 1597SOL    HW2 5691   3.993   5.826   0.179
 1598SOL     OW 5692   1.157   5.073   6.325
 1598SOL    HW1 5693   1.175   4.977   6.350
 1598SOL    HW2 5694   1.219   5.133   6.375
 1599SOL     OW 5695   4.458   5.047   3.042
 1599SOL    HW1 5696   4.524   4.990   2.993
 1599SOL    HW2 5697   4.429   5.123   2.983
 1600SOL     OW 5698   3.882   0.559   2.012
 1600SOL    HW1 5699   3.944   0.514   2.076
 1600SOL    HW2 5700   3.814   0.493   1.981
 1601SOL     OW 5701   6.590   0.893   5.031
 1601SOL    HW1 5702   6.552   0.985   5.046
 1601SOL    HW2 5703   6.599   0.846   5.118
 1602SOL     OW 5704   4.067   6.039   4.093
 1602SOL    HW1 5705   4.090   6.039   4.190
 1602SOL    HW2 5706   4.149   6.060   4.039
 1603SOL     OW 5707   3.092   4.978   3.218
 1603SOL    HW1 5708   3.055   5.054   3.165
 1603SOL    HW2 5709   3.192   4.984   3.220
 1604SOL     OW 5710   4.417   5.205   2.401
 1604SOL    HW1 5711   4.482   5.273   2.367
 1604SOL    HW2 5712   4.332   5.250   2.429
 1605SOL     OW 5713   4.960   5.223   0.703
 1605SOL    HW1 5714   4.989   5.213   0.608
 1605SOL    HW2 5715   5.037   5.203   0.763
 1606SOL     OW 5716   3.129   6.028   4.407
 1606SOL    HW1 5717   3.162   6.094   4.340
 1606SOL    HW2 5718   3.037   6.054   4.437
 1607SOL     OW 5719   4.349   5.083   3.511
 1607SOL    HW1 5720   4.417   5.060   3.580
 1607SOL    HW2 5721   4.384   5.155   3.452
 1608SOL     OW 5722   5.015   1.970   3.693
 1608SOL    HW1 5723   5.011   2.037   3.619
 1608SOL    HW2 5724   4.984   1.881   3.659
 1609SOL     OW 5725   2.657   6.701   1.300
 1609SOL    HW1 5726   2.657   6.639   1.378
 1609SOL    HW2 5727   2.715   6.664   1.227
 1610SOL     OW 5728   5.704   0.281   0.970
 1610SOL    HW1 5729   5.640   0.244   0.902
 1610SOL    HW2 5730   5.666   0.267   1.061
 1611SOL     OW 5731   1.517   4.634   0.024
 1611SOL    HW1 5732   1.462   4.682   6.974
 1611SOL    HW2 5733   1.484   4.657   0.116
 1612SOL     OW 5734   4.590   0.519   2.538
 1612SOL    HW1 5735   4.570   0.553   2.446
 1612SOL    HW2 5736   4.687   0.532   2.558
 1613SOL     OW 5737   6.456   5.371   2.313
 1613SOL    HW1 5738   6.389   5.443   2.295
 1613SOL    HW2 5739   6.420   5.308   2.382
 1614SOL     OW 5740   6.242   1.238   6.307
 1614SOL    HW1 5741   6.170   1.262   6.241
 1614SOL    HW2 5742   6.329   1.227   6.258
 1615SOL     OW 5743   6.991   3.925   6.558
 1615SOL    HW1 5744   6.938   4.008   6.539
 1615SOL    HW2 5745   6.929   3.852   6.586
 1616SOL     OW 5746   0.888   0.654   4.177
 1616SOL    HW1 5747   0.958   0.585   4.197
 1616SOL    HW2 5748   0.899   0.732   4.238
 1617SOL     OW 5749   5.949   6.404   3.298
 1617SOL    HW1 5750   5.951   6.306   3.278
 1617SOL    HW2 5751   6.042   6.438   3.309
 1618SOL     OW 5752   3.238   5.405   3.375
 1618SOL    HW1 5753   3.241   5.400   3.275
 1618SOL    HW2 5754   3.292   5.330   3.414
 1619SOL     OW 5755   1.092   4.413   7.000
 1619SOL    HW1 5756   1.139   4.444   0.065
 1619SOL    HW2 5757   1.042   4.329   0.001
 1620SOL     OW 5758   3.366   5.990   4.725
 1620SOL    HW1 5759   3.396   6.052   4.797
 1620SOL    HW2 5760   3.398   6.023   4.636
 1621SOL     OW 5761   5.057   5.857   0.581
 1621SOL    HW1 5762   5.146   5.823   0.551
 1621SOL    HW2 5763   4.986   5.821   0.520
 1622SOL     OW 5764   6.684   4.216   4.572
 1622SOL    HW1 5765   6.737   4.253   4.648
 1622SOL    HW2 5766   6.649   4.291   4.515
 1623SOL     OW 5767   6.845   1.823   3.123
 1623SOL    HW1 5768   6.882   1.844   3.032
 1623SOL    HW2 5769   6.916   1.836   3.192
 1624SOL     OW 5770   3.666   2.884   1.025
 1624SOL    HW1 5771   3.661   2.788   0.998
 1624SOL    HW2 5772   3.742   2.896   1.089
 1625SOL     OW 5773   0.542   6.768   1.109
 1625SOL    HW1 5774   0.596   6.749   1.027
 1625SOL    HW2 5775   0.596   6.746   1.190
 1626SOL     OW 5776   2.561   1.968   1.910
 1626SOL    HW1 5777   2.573   1.945   1.813
 1626SOL    HW2 5778   2.623   2.042   1.935
 1627SOL     OW 5779   3.531   2.010   5.794
 1627SOL    HW1 5780   3.480   2.059   5.723
 1627SOL    HW2 5781   3.468   1.950   5.843
 1628SOL     OW 5782   5.367   6.717   1.241
 1628SOL    HW1 5783   5.396   6.622   1.236
 1628SOL    HW2 5784   5.279   6.728   1.194
 1629SOL     OW 5785   1.513   0.234   3.597
 1629SOL    HW1 5786   1.442   0.164   3.588
 1629SOL    HW2 5787   1.600   0.198   3.562
 1630SOL     OW 5788   0.356   3.955   6.134
 1630SOL    HW1 5789   0.362   3.897   6.052
 1630SOL    HW2 5790   0.408   4.039   6.118
 1631SOL     OW 5791   6.499   3.806   0.278
 1631SOL    HW1 5792   6.463   3.727   0.228
 1631SOL    HW2 5793   6.532   3.875   0.213
 1632SOL     OW 5794   6.661   5.965   2.525
 1632SOL    HW1 5795   6.620   5.930   2.440
 1632SOL    HW2 5796   6.665   6.065   2.520
 1633SOL     OW 5797   5.524   3.673   4.999
 1633SOL    HW1 5798   5.601   3.734   4.980
 1633SOL    HW2 5799   5.454   3.723   5.051
 1634SOL     OW 5800   6.695   1.969   5.329
 1634SOL    HW1 5801   6.668   2.036   5.398
 1634SOL    HW2 5802   6.625   1.964   5.257
 1635SOL     OW 5803   3.630   6.094   3.256
 1635SOL    HW1 5804   3.692   6.079   3.179
 1635SOL    HW2 5805   3.683   6.128   3.334
 1636SOL     OW 5806   6.140   6.183   1.307
 1636SOL    HW1 5807   6.112   6.174   1.211
 1636SOL    HW2 5808   6.239   6.190   1.312
 1637SOL     OW 5809   0.951   0.857   2.597
 1637SOL    HW1 5810   1.006   0.931   2.637
 1637SOL    HW2 5811   0.870   0.842   2.654
 1638SOL     OW 5812   5.950   2.649   1.942
 1638SOL    HW1 5813   5.933   2.551   1.941
 1638SOL    HW2 5814   5.868   2.697   1.910
 1639SOL     OW 5815   5.580   2.709   2.231
 1639SOL    HW1 5816   5.549   2.765   2.153
 1639SOL    HW2 5817   5.509   2.709   2.301
 1640SOL     OW 5818   6.508   0.094   6.560
 1640SOL    HW1 5819   6.414   0.127   6.558
 1640SOL    HW2 5820   6.560   0.136   6.485
 1641SOL     OW 5821   5.931   2.316   3.114
 1641SOL    HW1 5822   5.877   2.385   3.161
 1641SOL    HW2 5823   5.924   2.229   3.162
 1642SOL     OW 5824   0.162   2.825   6.200
 1642SOL    HW1 5825   0.073   2.779   6.191
 1642SOL    HW2 5826   0.191   2.822   6.295
 1643SOL     OW 5827   2.308   5.691   3.742
 1643SOL    HW1 5828   2.395   5.693   3.692
 1643SOL    HW2 5829   2.281   5.785   3.764
 1644SOL     OW 5830   6.162   2.697   1.778
 1644SOL    HW1 5831   6.072   2.682   1.820
 1644SOL    HW2 5832   6.197   2.786   1.805
 1645SOL     OW 5833   2.521   0.589   5.582
 1645SOL    HW1 5834   2.474   0.623   5.501
 1645SOL    HW2 5835   2.507   0.652   5.658
 1646SOL     OW 5836   1.395   4.902   0.367
 1646SOL    HW1 5837   1.431   4.944   0.450
 1646SOL    HW2 5838   1.296   4.897   0.372
 1647SOL     OW 5839   5.248   3.083   4.405
 1647SOL    HW1 5840   5.329   3.054   4.352
 1647SOL    HW2 5841   5.196   3.002   4.432
 1648SOL     OW 5842   5.508   6.028   1.411
 1648SOL    HW1 5843   5.456   6.026   1.497
 1648SOL    HW2 5844   5.455   5.983   1.339
 1649SOL     OW 5845   3.825   0.935   2.825
 1649SOL    HW1 5846   3.890   0.902   2.756
 1649SOL    HW2 5847   3.851   0.900   2.915
 1650SOL     OW 5848   2.690   4.293   6.300
 1650SOL    HW1 5849   2.733   4.378   6.270
 1650SOL    HW2 5850   2.590   4.305   6.299
 1651SOL     OW 5851   0.760   2.848   4.107
 1651SOL    HW1 5852   0.840   2.891   4.066
 1651SOL    HW2 5853   0.788   2.794   4.187
 1652SOL     OW 5854   0.499   3.261   1.751
 1652SOL    HW1 5855   0.525   3.293   1.659
 1652SOL    HW2 5856   0.573   3.204   1.788
 1653SOL     OW 5857   0.218   4.744   2.638
 1653SOL    HW1 5858   0.278   4.665   2.622
 1653SOL    HW2 5859   0.260   4.805   2.704
 1654SOL     OW 5860   0.267   2.908   2.220
 1654SOL    HW1 5861   0.351   2.947   2.184
 1654SOL    HW2 5862   0.236   2.961   2.299
 1655SOL     OW 5863   6.745   0.522   5.002
 1655SOL    HW1 5864   6.703   0.485   5.085
 1655SOL    HW2 5865   6.825   0.468   4.979
 1656SOL     OW 5866   1.683   4.563   3.261
 1656SOL    HW1 5867   1.690   4.626   3.338
 1656SOL    HW2 5868   1.740   4.482   3.277
 1657SOL     OW 5869   0.461   6.791   5.659
 1657SOL    HW1 5870   0.401   6.730   5.709
 1657SOL    HW2 5871   0.507   6.741   5.585
 1658SOL     OW 5872   5.768   6.766   6.166
 1658SOL    HW1 5873   5.752   6.737   6.072
 1658SOL    HW2 5874   5.739   6.861   6.177
 1659SOL     OW 5875   4.261   6.748   6.273
 1659SOL    HW1 5876   4.280   6.717   6.366
 1659SOL    HW2 5877   4.164   6.734   6.252
 1660SOL     OW 5878   2.156   0.918   1.971
 1660SOL    HW1 5879   2.140   0.977   1.892
 1660SOL    HW2 5880   2.092   0.841   1.969
 1661SOL     OW 5881   5.080   4.363   2.877
 1661SOL    HW1 5882   5.032   4.349   2.791
 1661SOL    HW2 5883   5.020   4.339   2.953
 1662SOL     OW 5884   0.383   1.696   3.719
 1662SOL    HW1 5885   0.410   1.641   3.798
 1662SOL    HW2 5886   0.297   1.660   3.682
 1663SOL     OW 5887   5.267   5.021   0.393
 1663SOL    HW1 5888   5.315   4.990   0.474
 1663SOL    HW2 5889   5.328   5.018   0.314
 1664SOL     OW 5890   1.051   0.044   5.964
 1664SOL    HW1 5891   1.029   0.020   6.058
 1664SOL    HW2 5892   1.142   0.084   5.960
 1665SOL     OW 5893   3.076   4.098   0.235
 1665SOL    HW1 5894   3.094   4.171   0.301
 1665SOL    HW2 5895   3.115   4.123   0.146
 1666SOL     OW 5896   5.294   6.559   5.812
 1666SOL    HW1 5897   5.284   6.656   5.788
 1666SOL    HW2 5898   5.210   6.528   5.856
 1667SOL     OW 5899   0.084   6.348   1.285
 1667SOL    HW1 5900   0.033   6.264   1.269
 1667SOL    HW2 5901   0.165   6.350   1.227
 1668SOL     OW 5902   5.833   4.172   2.583
 1668SOL    HW1 5903   5.733   4.177   2.574
 1668SOL    HW2 5904   5.858   4.085   2.627
 1669SOL     OW 5905   6.619   3.497   5.515
 1669SOL    HW1 5906   6.697   3.553   5.489
 1669SOL    HW2 5907   6.541   3.555   5.537
 1670SOL     OW 5908   2.348   4.555   6.088
 1670SOL    HW1 5909   2.391   4.492   6.153
 1670SOL    HW2 5910   2.255   4.524   6.069
 1671SOL     OW 5911   6.184   2.008   1.228
 1671SOL    HW1 5912   6.192   2.092   1.281
 1671SOL    HW2 5913   6.127   1.943   1.278
 1672SOL     OW 5914   0.628   2.881   0.911
 1672SOL    HW1 5915   0.713   2.929   0.931
 1672SOL    HW2 5916   0.595   2.907   0.821
 1673SOL     OW 5917   1.769   0.303   4.346
 1673SOL    HW1 5918   1.798   0.251   4.427
 1673SOL    HW2 5919   1.703   0.373   4.374
 1674SOL     OW 5920   4.984   1.983   2.784
 1674SOL    HW1 5921   4.920   1.931   2.841
 1674SOL    HW2 5922   5.051   2.028   2.842
 1675SOL     OW 5923   5.089   0.376   1.645
 1675SOL    HW1 5924   5.031   0.309   1.599
 1675SOL    HW2 5925   5.031   0.441   1.694
 1676SOL     OW 5926   1.021   2.454   2.610
 1676SOL    HW1 5927   1.023   2.355   2.594
 1676SOL    HW2 5928   1.087   2.478   2.681
 1677SOL     OW 5929   3.768   2.969   3.572
 1677SOL    HW1 5930   3.727   3.035   3.509
 1677SOL    HW2 5931   3.864   2.954   3.546
 1678SOL     OW 5932   1.458   0.365   0.916
 1678SOL    HW1 5933   1.540   0.398   0.870
 1678SOL    HW2 5934   1.425   0.283   0.870
 1679SOL     OW 5935   0.380   2.052   6.663
 1679SOL    HW1 5936   0.463   2.015   6.620
 1679SOL    HW2 5937   0.377   2.151   6.647
 1680SOL     OW 5938   5.399   2.583   3.531
 1680SOL    HW1 5939   5.485   2.563   3.484
 1680SOL    HW2 5940   5.416   2.594   3.629
 1681SOL     OW 5941   2.677   6.597   4.663
 1681SOL    HW1 5942   2.608   6.668   4.652
 1681SOL    HW2 5943   2.749   6.631   4.725
 1682SOL     OW 5944   3.648   6.921   3.726
 1682SOL    HW1 5945   3.721   6.967   3.675
 1682SOL    HW2 5946   3.683   6.836   3.766
 1683SOL     OW 5947   6.230   4.246   3.118
 1683SOL    HW1 5948   6.244   4.320   3.052
 1683SOL    HW2 5949   6.191   4.167   3.071
 1684SOL     OW 5950   2.519   4.529   2.032
 1684SOL    HW1 5951   2.616   4.550   2.044
 1684SOL    HW2 5952   2.476   4.601   1.977
 1685SOL     OW 5953   0.020   0.779   5.660
 1685SOL    HW1 5954   0.019   0.870   5.618
 1685SOL    HW2 5955   0.089   0.722   5.616
 1686SOL     OW 5956   4.670   5.185   2.756
 1686SOL    HW1 5957   4.737   5.132   2.808
 1686SOL    HW2 5958   4.672   5.156   2.661
 1687SOL     OW 5959   5.120   4.371   1.647
 1687SOL    HW1 5960   5.101   4.343   1.553
 1687SOL    HW2 5961   5.033   4.390   1.694
 1688SOL     OW 5962   1.511   0.880   2.404
 1688SOL    HW1 5963   1.465   0.857   2.318
 1688SOL    HW2 5964   1.573   0.957   2.389
 1689SOL     OW 5965   4.491   0.336   1.686
 1689SOL    HW1 5966   4.516   0.358   1.780
 1689SOL    HW2 5967   4.407   0.384   1.661
 1690SOL     OW 5968   0.383   5.594   3.724
 1690SOL    HW1 5969   0.457   5.565   3.663
 1690SOL    HW2 5970   0.295   5.584   3.678
 1691SOL     OW 5971   4.212   2.664   5.402
 1691SOL    HW1 5972   4.164   2.666   5.489
 1691SOL    HW2 5973   4.172   2.595   5.343
 1692SOL     OW 5974   4.979   4.828   1.639
 1692SOL    HW1 5975   4.975   4.903   1.705
 1692SOL    HW2 5976   5.017   4.862   1.552
 1693SOL     OW 5977   5.695   6.845   5.296
 1693SOL    HW1 5978   5.688   6.940   5.328
 1693SOL    HW2 5979   5.653   6.784   5.363
 1694SOL     OW 5980   4.550   1.770   6.142
 1694SOL    HW1 5981   4.584   1.677   6.129
 1694SOL    HW2 5982   4.625   1.829   6.173
 1695SOL     OW 5983   3.892   0.836   6.687
 1695SOL    HW1 5984   3.988   0.860   6.676
 1695SOL    HW2 5985   3.841   0.915   6.721
 1696SOL     OW 5986   5.205   6.430   0.658
 1696SOL    HW1 5987   5.219   6.474   0.569
 1696SOL    HW2 5988   5.116   6.456   0.694
 1697SOL     OW 5989   4.953   3.052   1.857
 1697SOL    HW1 5990   4.907   3.072   1.770
 1697SOL    HW2 5991   4.885   3.035   1.928
 1698SOL     OW 5992   4.450   0.699   1.594
 1698SOL    HW1 5993   4.489   0.645   1.668
 1698SOL    HW2 5994   4.468   0.796   1.610
 1699SOL     OW 5995   2.498   0.044   0.492
 1699SOL    HW1 5996   2.537   0.068   0.403
 1699SOL    HW2 5997   2.572   0.020   0.555
 1700SOL     OW 5998   5.522   2.907   2.966
 1700SOL    HW1 5999   5.540   2.814   2.932
 1700SOL    HW2 6000   5.456   2.952   2.907
 1701SOL     OW 6001   6.832   6.381   5.221
 1701SOL    HW1 6002   6.882   6.455   5.177
 1701SOL    HW2 6003   6.738   6.411   5.240
 1702SOL     OW 6004   2.332   2.125   6.767
 1702SOL    HW1 6005   2.287   2.203   6.724
 1702SOL    HW2 6006   2.401   2.157   6.831
 1703SOL     OW 6007   1.697   1.594   1.690
 1703SOL    HW1 6008   1.617   1.534   1.699
 1703SOL    HW2 6009   1.675   1.685   1.726
 1704SOL     OW 6010   3.254   1.893   1.143
 1704SOL    HW1 6011   3.300   1.971   1.100
 1704SOL    HW2 6012   3.159   1.890   1.112
 1705SOL     OW 6013   4.151   2.608   0.927
 1705SOL    HW1 6014   4.215   2.549   0.878
 1705SOL    HW2 6015   4.099   2.554   0.992
 1706SOL     OW 6016   5.880   2.278   6.497
 1706SOL    HW1 6017   5.856   2.364   6.543
 1706SOL    HW2 6018   5.806   2.213   6.508
 1707SOL     OW 6019   4.513   1.882   1.963
 1707SOL    HW1 6020   4.539   1.894   1.868
 1707SOL    HW2 6021   4.539   1.790   1.993
 1708SOL     OW 6022   3.387   5.066   2.192
 1708SOL    HW1 6023   3.420   5.019   2.274
 1708SOL    HW2 6024   3.448   5.047   2.115
 1709SOL     OW 6025   4.758   5.388   0.798
 1709SOL    HW1 6026   4.823   5.325   0.755
 1709SOL    HW2 6027   4.696   5.336   0.857
 1710SOL     OW 6028   4.933   4.605   2.798
 1710SOL    HW1 6029   4.929   4.565   2.890
 1710SOL    HW2 6030   4.860   4.567   2.742
 1711SOL     OW 6031   3.884   4.903   6.872
 1711SOL    HW1 6032   3.796   4.916   6.918
 1711SOL    HW2 6033   3.940   4.986   6.883
 1712SOL     OW 6034   0.745   1.790   1.940
 1712SOL    HW1 6035   0.668   1.763   1.881
 1712SOL    HW2 6036   0.720   1.873   1.991
 1713SOL     OW 6037   3.840   1.230   2.825
 1713SOL    HW1 6038   3.921   1.178   2.798
 1713SOL    HW2 6039   3.781   1.174   2.883
 1714SOL     OW 6040   3.219   3.664   0.200
 1714SOL    HW1 6041   3.155   3.718   0.255
 1714SOL    HW2 6042   3.190   3.667   0.104
 1715SOL     OW 6043   2.320   6.410   2.291
 1715SOL    HW1 6044   2.269   6.435   2.374
 1715SOL    HW2 6045   2.300   6.316   2.266
 1716SOL     OW 6046   4.397   1.188   3.573
 1716SOL    HW1 6047   4.406   1.177   3.474
 1716SOL    HW2 6048   4.353   1.276   3.592
 1717SOL     OW 6049   3.090   6.369   4.792
 1717SOL    HW1 6050   3.154   6.382   4.868
 1717SOL    HW2 6051   3.140   6.353   4.708
 1718SOL     OW 6052   1.183   2.998   1.528
 1718SOL    HW1 6053   1.258   3.008   1.462
 1718SOL    HW2 6054   1.182   2.904   1.562
 1719SOL     OW 6055   0.979   5.606   2.704
 1719SOL    HW1 6056   0.978   5.574   2.609
 1719SOL    HW2 6057   1.067   5.650   2.723
 1720SOL     OW 6058   0.722   3.503   5.619
 1720SOL    HW1 6059   0.671   3.427   5.661
 1720SOL    HW2 6060   0.819   3.482   5.618
 1721SOL     OW 6061   1.871   2.682   0.442
 1721SOL    HW1 6062   1.856   2.586   0.417
 1721SOL    HW2 6063   1.853   2.740   0.363
 1722SOL     OW 6064   2.672   2.351   4.033
 1722SOL    HW1 6065   2.735   2.307   4.097
 1722SOL    HW2 6066   2.610   2.411   4.084
 1723SOL     OW 6067   5.837   4.452   1.140
 1723SOL    HW1 6068   5.908   4.519   1.117
 1723SOL    HW2 6069   5.837   4.380   1.070
 1724SOL     OW 6070   6.010   2.786   1.365
 1724SOL    HW1 6071   5.972   2.872   1.333
 1724SOL    HW2 6072   6.027   2.725   1.288
 1725SOL     OW 6073   1.724   6.210   6.106
 1725SOL    HW1 6074   1.808   6.232   6.156
 1725SOL    HW2 6075   1.691   6.120   6.135
 1726SOL     OW 6076   5.500   4.262   2.967
 1726SOL    HW1 6077   5.462   4.206   2.894
 1726SOL    HW2 6078   5.528   4.351   2.930
 1727SOL     OW 6079   3.258   4.115   3.239
 1727SOL    HW1 6080   3.292   4.195   3.288
 1727SOL    HW2 6081   3.229   4.045   3.305
 1728SOL     OW 6082   5.356   2.571   4.346
 1728SOL    HW1 6083   5.300   2.502   4.298
 1728SOL    HW2 6084   5.371   2.649   4.286
 1729SOL     OW 6085   1.178   2.727   2.901
 1729SOL    HW1 6086   1.089   2.702   2.941
 1729SOL    HW2 6087   1.202   2.820   2.928
 1730SOL     OW 6088   2.020   5.293   4.167
 1730SOL    HW1 6089   2.025   5.392   4.181
 1730SOL    HW2 6090   1.977   5.250   4.247
 1731SOL     OW 6091   6.232   5.163   3.184
 1731SOL    HW1 6092   6.229   5.066   3.158
 1731SOL    HW2 6093   6.139   5.198   3.194
 1732SOL     OW 6094   2.374   3.290   5.576
 1732SOL    HW1 6095   2.430   3.331   5.504
 1732SOL    HW2 6096   2.418   3.305   5.665
 1733SOL     OW 6097   1.858   3.223   5.861
 1733SOL    HW1 6098   1.925   3.289   5.894
 1733SOL    HW2 6099   1.829   3.247   5.768
 1734SOL     OW 6100   6.700   2.850   0.739
 1734SOL    HW1 6101   6.605   2.854   0.707
 1734SOL    HW2 6102   6.708   2.897   0.827
 1735SOL     OW 6103   3.854   5.302   6.493
 1735SOL    HW1 6104   3.823   5.308   6.398
 1735SOL    HW2 6105   3.774   5.298   6.554
 1736SOL     OW 6106   5.112   2.347   0.368
 1736SOL    HW1 6107   5.054   2.426   0.351
 1736SOL    HW2 6108   5.085   2.303   0.454
 1737SOL     OW 6109   4.001   1.619   5.602
 1737SOL    HW1 6110   3.908   1.609   5.636
 1737SOL    HW2 6111   4.000   1.655   5.509
 1738SOL     OW 6112   2.162   3.190   4.209
 1738SOL    HW1 6113   2.161   3.273   4.153
 1738SOL    HW2 6114   2.152   3.214   4.305
 1739SOL     OW 6115   5.912   0.353   3.437
 1739SOL    HW1 6116   5.926   0.278   3.373
 1739SOL    HW2 6117   5.866   0.319   3.520
 1740SOL     OW 6118   6.242   3.203   4.796
 1740SOL    HW1 6119   6.143   3.190   4.801
 1740SOL    HW2 6120   6.263   3.278   4.733
 1741SOL     OW 6121   0.160   1.770   4.868
 1741SOL    HW1 6122   0.124   1.826   4.794
 1741SOL    HW2 6123   0.085   1.740   4.927
 1742SOL     OW 6124   6.382   6.547   6.692
 1742SOL    HW1 6125   6.423   6.479   6.632
 1742SOL    HW2 6126   6.380   6.636   6.646
 1743SOL     OW 6127   1.495   1.386   2.173
 1743SOL    HW1 6128   1.524   1.292   2.185
 1743SOL    HW2 6129   1.470   1.425   2.261
 1744SOL     OW 6130   3.621   2.067   5.028
 1744SOL    HW1 6131   3.664   2.059   4.938
 1744SOL    HW2 6132   3.600   2.163   5.047
 1745SOL     OW 6133   5.734   6.657   1.288
 1745SOL    HW1 6134   5.730   6.575   1.345
 1745SOL    HW2 6135   5.775   6.634   1.199
 1746SOL     OW 6136   2.676   4.650   3.278
 1746SOL    HW1 6137   2.763   4.696   3.262
 1746SOL    HW2 6138   2.642   4.613   3.192
 1747SOL     OW 6139   4.279   0.448   2.787
 1747SOL    HW1 6140   4.215   0.501   2.843
 1747SOL    HW2 6141   4.257   0.351   2.795
 1748SOL     OW 6142   6.798   2.553   4.787
 1748SOL    HW1 6143   6.703   2.580   4.768
 1748SOL    HW2 6144   6.860   2.615   4.740
 1749SOL     OW 6145   0.724   4.983   1.813
 1749SOL    HW1 6146   0.762   5.075   1.799
 1749SOL    HW2 6147   0.771   4.939   1.890
 1750SOL     OW 6148   3.495   6.960   6.960
 1750SOL    HW1 6149   3.497   6.984   0.039
 1750SOL    HW2 6150   3.560   0.000   6.910
 1751SOL     OW 6151   6.034   3.058   5.210
 1751SOL    HW1 6152   6.045   2.969   5.166
 1751SOL    HW2 6153   6.087   3.060   5.295
 1752SOL     OW 6154   6.915   1.114   2.179
 1752SOL    HW1 6155   6.900   1.069   2.091
 1752SOL    HW2 6156   6.827   1.130   2.224
 1753SOL     OW 6157   6.060   1.330   1.523
 1753SOL    HW1 6158   5.963   1.344   1.503
 1753SOL    HW2 6159   6.105   1.419   1.531
 1754SOL     OW 6160   2.911   5.790   3.733
 1754SOL    HW1 6161   2.944   5.734   3.809
 1754SOL    HW2 6162   2.890   5.731   3.655
 1755SOL     OW 6163   6.192   6.595   4.659
 1755SOL    HW1 6164   6.279   6.558   4.691
 1755SOL    HW2 6165   6.130   6.520   4.634
 1756SOL     OW 6166   4.961   5.985   0.203
 1756SOL    HW1 6167   4.907   5.903   0.222
 1756SOL    HW2 6168   4.972   6.037   0.288
 1757SOL     OW 6169   2.665   4.809   5.106
 1757SOL    HW1 6170   2.704   4.854   5.186
 1757SOL    HW2 6171   2.722   4.731   5.081
 1758SOL     OW 6172   1.668   5.877   4.178
 1758SOL    HW1 6173   1.602   5.826   4.232
 1758SOL    HW2 6174   1.703   5.954   4.231
 1759SOL     OW 6175   1.326   6.253   0.145
 1759SOL    HW1 6176   1.287   6.244   0.053
 1759SOL    HW2 6177   1.388   6.332   0.147
 1760SOL     OW 6178   0.076   1.302   4.805
 1760SOL    HW1 6179   0.059   1.237   4.879
 1760SOL    HW2 6180   0.168   1.340   4.815
 1761SOL     OW 6181   5.660   1.225   2.818
 1761SOL    HW1 6182   5.715   1.236   2.735
 1761SOL    HW2 6183   5.576   1.279   2.809
 1762SOL     OW 6184   0.930   1.414   5.751
 1762SOL    HW1 6185   0.945   1.386   5.656
 1762SOL    HW2 6186   1.004   1.475   5.780
 1763SOL     OW 6187   1.139   4.445   3.814
 1763SOL    HW1 6188   1.057   4.486   3.774
 1763SOL    HW2 6189   1.149   4.478   3.909
 1764SOL     OW 6190   1.607   5.669   3.444
 1764SOL    HW1 6191   1.703   5.657   3.469
 1764SOL    HW2 6192   1.553   5.686   3.526
 1765SOL     OW 6193   5.356   3.482   2.172
 1765SOL    HW1 6194   5.347   3.570   2.220
 1765SOL    HW2 6195   5.421   3.424   2.220
 1766SOL     OW 6196   4.164   4.782   3.824
 1766SOL    HW1 6197   4.173   4.760   3.727
 1766SOL    HW2 6198   4.107   4.863   3.835
 1767SOL     OW 6199   0.383   5.138   2.363
 1767SOL    HW1 6200   0.380   5.157   2.461
 1767SOL    HW2 6201   0.292   5.108   2.333
 1768SOL     OW 6202   5.579   4.716   2.029
 1768SOL    HW1 6203   5.544   4.663   2.106
 1768SOL    HW2 6204   5.671   4.685   2.006
 1769SOL     OW 6205   5.679   0.371   0.631
 1769SOL    HW1 6206   5.623   0.315   0.570
 1769SOL    HW2 6207   5.629   0.455   0.654
 1770SOL     OW 6208   1.748   5.056   0.365
 1770SOL    HW1 6209   1.728   5.044   0.462
 1770SOL    HW2 6210   1.662   5.053   0.313
 1771SOL     OW 6211   2.030   3.002   6.030
 1771SOL    HW1 6212   1.938   2.966   6.019
 1771SOL    HW2 6213   2.054   3.058   5.950
 1772SOL     OW 6214   2.277   4.083   2.767
 1772SOL    HW1 6215   2.270   3.992   2.808
 1772SOL    HW2 6216   2.243   4.080   2.673
 1773SOL     OW 6217   2.580   6.142   6.143
 1773SOL    HW1 6218   2.490   6.111   6.112
 1773SOL    HW2 6219   2.596   6.109   6.236
 1774SOL     OW 6220   5.448   5.768   0.998
 1774SOL    HW1 6221   5.491   5.696   0.945
 1774SOL    HW2 6222   5.404   5.834   0.937
 1775SOL     OW 6223   1.856   5.233   0.751
 1775SOL    HW1 6224   1.909   5.159   0.710
 1775SOL    HW2 6225   1.895   5.321   0.723
 1776SOL     OW 6226   4.571   2.433   5.923
 1776SOL    HW1 6227   4.551   2.376   5.844
 1776SOL    HW2 6228   4.498   2.501   5.935
 1777SOL     OW 6229   4.448   6.630   0.245
 1777SOL    HW1 6230   4.546   6.622   0.263
 1777SOL    HW2 6231   4.422   6.564   0.174
 1778SOL     OW 6232   6.249   0.063   4.255
 1778SOL    HW1 6233   6.164   0.064   4.203
 1778SOL    HW2 6234   6.239   0.003   4.334
 1779SOL     OW 6235   5.501   0.473   4.160
 1779SOL    HW1 6236   5.597   0.498   4.148
 1779SOL    HW2 6237   5.445   0.555   4.167
 1780SOL     OW 6238   2.686   4.982   5.387
 1780SOL    HW1 6239   2.597   4.945   5.362
 1780SOL    HW2 6240   2.696   5.074   5.350
 1781SOL     OW 6241   4.181   0.619   5.645
 1781SOL    HW1 6242   4.144   0.673   5.720
 1781SOL    HW2 6243   4.201   0.678   5.568
 1782SOL     OW 6244   5.907   1.868   2.385
 1782SOL    HW1 6245   5.820   1.890   2.429
 1782SOL    HW2 6246   5.982   1.904   2.440
 1783SOL     OW 6247   1.742   3.972   6.889
 1783SOL    HW1 6248   1.704   4.004   6.801
 1783SOL    HW2 6249   1.668   3.936   6.945
 1784SOL     OW 6250   2.976   6.847   2.107
 1784SOL    HW1 6251   2.898   6.832   2.168
 1784SOL    HW2 6252   2.957   6.925   2.047
 1785SOL     OW 6253   1.241   6.683   5.008
 1785SOL    HW1 6254   1.302   6.623   4.956
 1785SOL    HW2 6255   1.237   6.652   5.103
 1786SOL     OW 6256   0.934   6.641   1.104
 1786SOL    HW1 6257   0.861   6.608   1.044
 1786SOL    HW2 6258   0.994   6.565   1.130
 1787SOL     OW 6259   1.901   3.243   5.576
 1787SOL    HW1 6260   1.944   3.167   5.625
 1787SOL    HW2 6261   1.951   3.260   5.491
 1788SOL     OW 6262   4.751   3.507   0.707
 1788SOL    HW1 6263   4.802   3.580   0.752
 1788SOL    HW2 6264   4.668   3.545   0.666
 1789SOL     OW 6265   6.194   3.539   2.445
 1789SOL    HW1 6266   6.152   3.521   2.356
 1789SOL    HW2 6267   6.162   3.626   2.481
 1790SOL     OW 6268   1.593   2.082   4.932
 1790SOL    HW1 6269   1.539   2.116   5.009
 1790SOL    HW2 6270   1.687   2.068   4.960
 1791SOL     OW 6271   4.827   0.646   3.857
 1791SOL    HW1 6272   4.922   0.676   3.867
 1791SOL    HW2 6273   4.771   0.721   3.822
 1792SOL     OW 6274   0.285   2.382   6.573
 1792SOL    HW1 6275   0.280   2.439   6.491
 1792SOL    HW2 6276   0.373   2.398   6.619
 1793SOL     OW 6277   6.650   0.728   5.617
 1793SOL    HW1 6278   6.714   0.653   5.633
 1793SOL    HW2 6279   6.700   0.815   5.619
 1794SOL     OW 6280   0.481   0.584   6.361
 1794SOL    HW1 6281   0.497   0.683   6.357
 1794SOL    HW2 6282   0.404   0.560   6.301
 1795SOL     OW 6283   5.168   4.548   1.052
 1795SOL    HW1 6284   5.241   4.595   1.004
 1795SOL    HW2 6285   5.197   4.455   1.074
 1796SOL     OW 6286   0.156   6.987   0.392
 1796SOL    HW1 6287   0.098   6.906   0.383
 1796SOL    HW2 6288   0.143   0.029   0.313
 1797SOL     OW 6289   2.650   5.251   5.652
 1797SOL    HW1 6290   2.714   5.249   5.576
 1797SOL    HW2 6291   2.688   5.201   5.729
 1798SOL     OW 6292   2.231   3.813   5.231
 1798SOL    HW1 6293   2.290   3.740   5.264
 1798SOL    HW2 6294   2.287   3.891   5.202
 1799SOL     OW 6295   3.150   1.054   1.448
 1799SOL    HW1 6296   3.142   1.077   1.351
 1799SOL    HW2 6297   3.195   1.129   1.497
 1800SOL     OW 6298   5.817   2.907   5.398
 1800SOL    HW1 6299   5.867   2.962   5.331
 1800SOL    HW2 6300   5.778   2.967   5.468
 1801SOL     OW 6301   0.673   0.793   3.203
 1801SOL    HW1 6302   0.756   0.804   3.148
 1801SOL    HW2 6303   0.620   0.716   3.167
 1802SOL     OW 6304   6.714   5.232   3.929
 1802SOL    HW1 6305   6.682   5.296   4.000
 1802SOL    HW2 6306   6.635   5.198   3.878
 1803SOL     OW 6307   0.506   0.340   3.251
 1803SOL    HW1 6308   0.552   0.302   3.331
 1803SOL    HW2 6309   0.407   0.345   3.268
 1804SOL     OW 6310   2.303   3.101   6.444
 1804SOL    HW1 6311   2.298   3.062   6.352
 1804SOL    HW2 6312   2.262   3.192   6.444
 1805SOL     OW 6313   6.611   4.609   0.952
 1805SOL    HW1 6314   6.650   4.519   0.933
 1805SOL    HW2 6315   6.520   4.599   0.992
 1806SOL     OW 6316   0.026   0.905   0.936
 1806SOL    HW1 6317   0.024   0.964   1.016
 1806SOL    HW2 6318   0.100   0.934   0.875
 1807SOL     OW 6319   6.516   2.724   2.540
 1807SOL    HW1 6320   6.480   2.756   2.628
 1807SOL    HW2 6321   6.440   2.701   2.479
 1808SOL     OW 6322   5.187   1.656   6.586
 1808SOL    HW1 6323   5.152   1.744   6.620
 1808SOL    HW2 6324   5.259   1.623   6.647
 1809SOL     OW 6325   5.069   0.070   5.472
 1809SOL    HW1 6326   5.018   0.147   5.432
 1809SOL    HW2 6327   5.021   0.039   5.554
 1810SOL     OW 6328   0.926   0.368   3.968
 1810SOL    HW1 6329   0.923   0.268   3.966
 1810SOL    HW2 6330   0.837   0.403   3.998
 1811SOL     OW 6331   3.528   6.052   2.150
 1811SOL    HW1 6332   3.507   6.128   2.089
 1811SOL    HW2 6333   3.457   5.983   2.143
 1812SOL     OW 6334   4.530   6.063   6.697
 1812SOL    HW1 6335   4.530   6.029   6.603
 1812SOL    HW2 6336   4.621   6.097   6.720
 1813SOL     OW 6337   4.939   3.759   2.023
 1813SOL    HW1 6338   4.950   3.725   1.930
 1813SOL    HW2 6339   4.907   3.684   2.082
 1814SOL     OW 6340   6.747   5.887   0.437
 1814SOL    HW1 6341   6.811   5.847   0.502
 1814SOL    HW2 6342   6.712   5.816   0.376
 1815SOL     OW 6343   5.713   6.122   1.544
 1815SOL    HW1 6344   5.641   6.107   1.476
 1815SOL    HW2 6345   5.678   6.102   1.636
 1816SOL     OW 6346   4.301   4.936   5.069
 1816SOL    HW1 6347   4.296   5.003   5.144
 1816SOL    HW2 6348   4.239   4.964   4.995
 1817SOL     OW 6349   0.374   2.560   3.686
 1817SOL    HW1 6350   0.388   2.501   3.606
 1817SOL    HW2 6351   0.426   2.645   3.674
 1818SOL     OW 6352   2.484   1.213   0.864
 1818SOL    HW1 6353   2.405   1.189   0.807
 1818SOL    HW2 6354   2.529   1.129   0.894
 1819SOL     OW 6355   1.817   4.314   2.572
 1819SOL    HW1 6356   1.758   4.368   2.512
 1819SOL    HW2 6357   1.856   4.239   2.520
 1820SOL     OW 6358   3.234   0.495   4.864
 1820SOL    HW1 6359   3.211   0.585   4.827
 1820SOL    HW2 6360   3.300   0.450   4.803
 1821SOL     OW 6361   3.531   1.771   2.613
 1821SOL    HW1 6362   3.543   1.858   2.566
 1821SOL    HW2 6363   3.485   1.706   2.551
 1822SOL     OW 6364   0.684   3.803   2.971
 1822SOL    HW1 6365   0.658   3.773   3.063
 1822SOL    HW2 6366   0.642   3.742   2.903
 1823SOL     OW 6367   4.657   6.618   2.662
 1823SOL    HW1 6368   4.666   6.633   2.563
 1823SOL    HW2 6369   4.747   6.603   2.702
 1824SOL     OW 6370   4.433   3.066   1.672
 1824SOL    HW1 6371   4.507   3.053   1.737
 1824SOL    HW2 6372   4.390   3.155   1.687
 1825SOL     OW 6373   1.067   2.679   5.628
 1825SOL    HW1 6374   1.042   2.706   5.535
 1825SOL    HW2 6375   1.160   2.642   5.628
 1826SOL     OW 6376   3.332   2.388   1.300
 1826SOL    HW1 6377   3.407   2.405   1.235
 1826SOL    HW2 6378   3.343   2.297   1.339
 1827SOL     OW 6379   5.604   5.160   0.748
 1827SOL    HW1 6380   5.638   5.110   0.828
 1827SOL    HW2 6381   5.674   5.224   0.717
 1828SOL     OW 6382   1.800   3.903   5.181
 1828SOL    HW1 6383   1.717   3.859   5.148
 1828SOL    HW2 6384   1.801   3.999   5.154
 1829SOL     OW 6385   4.148   0.025   2.200
 1829SOL    HW1 6386   4.171   0.014   2.103
 1829SOL    HW2 6387   4.049   0.036   2.210
 1830SOL     OW 6388   4.555   1.139   6.608
 1830SOL    HW1 6389   4.621   1.205   6.573
 1830SOL    HW2 6390   4.564   1.132   6.708
 1831SOL     OW 6391   3.271   4.582   0.829
 1831SOL    HW1 6392   3.338   4.630   0.885
 1831SOL    HW2 6393   3.193   4.642   0.811
 1832SOL     OW 6394   2.525   3.391   6.602
 1832SOL    HW1 6395   2.518   3.409   6.701
 1832SOL    HW2 6396   2.574   3.305   6.587
 1833SOL     OW 6397   5.920   1.530   0.079
 1833SOL    HW1 6398   5.865   1.474   0.141
 1833SOL    HW2 6399   6.017   1.523   0.104
 1834SOL     OW 6400   0.814   3.084   5.675
 1834SOL    HW1 6401   0.911   3.098   5.698
 1834SOL    HW2 6402   0.805   3.002   5.618
 1835SOL     OW 6403   6.916   6.187   1.069
 1835SOL    HW1 6404   6.955   6.265   1.021
 1835SOL    HW2 6405   6.845   6.219   1.133
 1836SOL     OW 6406   5.395   2.031   2.429
 1836SOL    HW1 6407   5.307   2.065   2.463
 1836SOL    HW2 6408   5.392   1.931   2.425
 1837SOL     OW 6409   3.098   2.071   0.113
 1837SOL    HW1 6410   3.151   2.029   0.039
 1837SOL    HW2 6411   3.055   2.000   0.168
 1838SOL     OW 6412   4.818   0.969   1.297
 1838SOL    HW1 6413   4.865   0.955   1.209
 1838SOL    HW2 6414   4.719   0.965   1.282
 1839SOL     OW 6415   6.350   0.283   0.235
 1839SOL    HW1 6416   6.299   0.245   0.312
 1839SOL    HW2 6417   6.408   0.358   0.268
 1840SOL     OW 6418   4.349   6.356   4.193
 1840SOL    HW1 6419   4.288   6.434   4.203
 1840SOL    HW2 6420   4.348   6.302   4.277
 1841SOL     OW 6421   1.042   1.038   1.999
 1841SOL    HW1 6422   0.950   1.062   1.970
 1841SOL    HW2 6423   1.048   1.044   2.099
 1842SOL     OW 6424   0.730   4.978   1.376
 1842SOL    HW1 6425   0.787   5.038   1.433
 1842SOL    HW2 6426   0.760   4.984   1.281
 1843SOL     OW 6427   2.738   0.850   6.950
 1843SOL    HW1 6428   2.650   0.867   6.994
 1843SOL    HW2 6429   2.736   0.761   6.904
 1844SOL     OW 6430   5.809   2.859   6.519
 1844SOL    HW1 6431   5.854   2.936   6.474
 1844SOL    HW2 6432   5.868   2.778   6.512
 1845SOL     OW 6433   0.758   1.983   3.103
 1845SOL    HW1 6434   0.687   1.934   3.152
 1845SOL    HW2 6435   0.774   1.940   3.014
 1846SOL     OW 6436   2.607   1.856   1.629
 1846SOL    HW1 6437   2.700   1.888   1.649
 1846SOL    HW2 6438   2.606   1.756   1.628
 1847SOL     OW 6439   2.072   5.558   6.036
 1847SOL    HW1 6440   2.087   5.589   5.942
 1847SOL    HW2 6441   1.984   5.510   6.041
 1848SOL     OW 6442   3.582   6.783   3.296
 1848SOL    HW1 6443   3.656   6.719   3.315
 1848SOL    HW2 6444   3.539   6.759   3.209
 1849SOL     OW 6445   4.749   2.832   2.205
 1849SOL    HW1 6446   4.798   2.874   2.282
 1849SOL    HW2 6447   4.761   2.889   2.123
 1850SOL     OW 6448   4.120   2.269   0.718
 1850SOL    HW1 6449   4.102   2.199   0.788
 1850SOL    HW2 6450   4.194   2.329   0.750
 1851SOL     OW 6451   6.898   4.891   4.300
 1851SOL    HW1 6452   6.885   4.988   4.281
 1851SOL    HW2 6453   6.939   4.880   4.391
 1852SOL     OW 6454   0.876   0.517   2.675
 1852SOL    HW1 6455   0.885   0.593   2.610
 1852SOL    HW2 6456   0.860   0.553   2.767
 1853SOL     OW 6457   0.531   2.277   6.051
 1853SOL    HW1 6458   0.557   2.374   6.055
 1853SOL    HW2 6459   0.610   2.220   6.070
 1854SOL     OW 6460   0.639   0.013   3.242
 1854SOL    HW1 6461   0.578   0.016   3.163
 1854SOL    HW2 6462   0.680   0.103   3.256
 1855SOL     OW 6463   5.893   2.807   4.978
 1855SOL    HW1 6464   5.923   2.747   5.053
 1855SOL    HW2 6465   5.844   2.885   5.016
 1856SOL     OW 6466   4.329   3.404   0.175
 1856SOL    HW1 6467   4.242   3.361   0.154
 1856SOL    HW2 6468   4.318   3.470   0.249
 1857SOL     OW 6469   3.928   1.320   6.620
 1857SOL    HW1 6470   3.911   1.419   6.621
 1857SOL    HW2 6471   3.851   1.273   6.577
 1858SOL     OW 6472   5.304   2.239   4.584
 1858SOL    HW1 6473   5.269   2.241   4.678
 1858SOL    HW2 6474   5.227   2.246   4.520
 1859SOL     OW 6475   6.667   0.714   4.296
 1859SOL    HW1 6476   6.693   0.618   4.294
 1859SOL    HW2 6477   6.744   0.770   4.327
 1860SOL     OW 6478   2.375   1.165   6.464
 1860SOL    HW1 6479   2.404   1.176   6.370
 1860SOL    HW2 6480   2.321   1.081   6.473
 1861SOL     OW 6481   6.232   6.278   4.532
 1861SOL    HW1 6482   6.231   6.187   4.490
 1861SOL    HW2 6483   6.269   6.271   4.625
 1862SOL     OW 6484   3.139   5.594   5.625
 1862SOL    HW1 6485   3.074   5.612   5.551
 1862SOL    HW2 6486   3.102   5.523   5.685
 1863SOL     OW 6487   6.818   2.082   1.246
 1863SOL    HW1 6488   6.846   2.016   1.176
 1863SOL    HW2 6489   6.725   2.061   1.276
 1864SOL     OW 6490   3.001   5.601   1.629
 1864SOL    HW1 6491   2.941   5.665   1.677
 1864SOL    HW2 6492   2.975   5.507   1.655
 1865SOL     OW 6493   6.441   2.942   5.856
 1865SOL    HW1 6494   6.460   2.925   5.760
 1865SOL    HW2 6495   6.395   2.862   5.895
 1866SOL     OW 6496   0.947   5.786   3.568
 1866SOL    HW1 6497   1.028   5.844   3.559
 1866SOL    HW2 6498   0.867   5.835   3.534
 1867SOL     OW 6499   0.478   2.130   1.546
 1867SOL    HW1 6500   0.528   2.177   1.473
 1867SOL    HW2 6501   0.455   2.195   1.618
 1868SOL     OW 6502   5.757   3.573   6.672
 1868SOL    HW1 6503   5.857   3.565   6.672
 1868SOL    HW2 6504   5.719   3.509   6.739
 1869SOL     OW 6505   4.929   0.878   4.801
 1869SOL    HW1 6506   4.951   0.840   4.891
 1869SOL    HW2 6507   4.997   0.947   4.777
 1870SOL     OW 6508   6.332   6.822   5.698
 1870SOL    HW1 6509   6.350   6.833   5.601
 1870SOL    HW2 6510   6.383   6.890   5.750
 1871SOL     OW 6511   0.607   6.131   6.605
 1871SOL    HW1 6512   0.601   6.205   6.539
 1871SOL    HW2 6513   0.703   6.106   6.619
 1872SOL     OW 6514   2.861   3.133   1.489
 1872SOL    HW1 6515   2.917   3.075   1.548
 1872SOL    HW2 6516   2.767   3.135   1.522
 1873SOL     OW 6517   6.443   1.080   1.128
 1873SOL    HW1 6518   6.440   1.179   1.143
 1873SOL    HW2 6519   6.388   1.034   1.198
 1874SOL     OW 6520   0.788   5.423   0.232
 1874SOL    HW1 6521   0.709   5.467   0.274
 1874SOL    HW2 6522   0.854   5.492   0.203
 1875SOL     OW 6523   0.321   5.829   2.088
 1875SOL    HW1 6524   0.399   5.784   2.045
 1875SOL    HW2 6525   0.275   5.765   2.149
 1876SOL     OW 6526   0.372   4.645   0.665
 1876SOL    HW1 6527   0.390   4.742   0.681
 1876SOL    HW2 6528   0.331   4.604   0.747
 1877SOL     OW 6529   1.377   1.817   2.294
 1877SOL    HW1 6530   1.281   1.789   2.284
 1877SOL    HW2 6531   1.424   1.806   2.206
 1878SOL     OW 6532   5.514   3.740   4.123
 1878SOL    HW1 6533   5.558   3.787   4.046
 1878SOL    HW2 6534   5.482   3.650   4.094
 1879SOL     OW 6535   4.758   6.184   4.576
 1879SOL    HW1 6536   4.800   6.128   4.648
 1879SOL    HW2 6537   4.794   6.277   4.582
 1880SOL     OW 6538   0.227   1.226   4.368
 1880SOL    HW1 6539   0.256   1.260   4.457
 1880SOL    HW2 6540   0.145   1.275   4.338
 1881SOL     OW 6541   1.953   1.281   3.735
 1881SOL    HW1 6542   2.018   1.312   3.805
 1881SOL    HW2 6543   1.894   1.209   3.773
 1882SOL     OW 6544   2.177   5.349   0.318
 1882SOL    HW1 6545   2.103   5.307   0.372
 1882SOL    HW2 6546   2.139   5.420   0.259
 1883SOL     OW 6547   2.698   2.398   3.179
 1883SOL    HW1 6548   2.636   2.320   3.174
 1883SOL    HW2 6549   2.681   2.449   3.263
 1884SOL     OW 6550   4.376   1.102   0.590
 1884SOL    HW1 6551   4.395   1.109   0.688
 1884SOL    HW2 6552   4.323   1.181   0.560
 1885SOL     OW 6553   0.120   1.276   0.722
 1885SOL    HW1 6554   0.031   1.320   0.733
 1885SOL    HW2 6555   0.131   1.244   0.628
 1886SOL     OW 6556   3.418   2.819   6.299
 1886SOL    HW1 6557   3.485   2.836   6.226
 1886SOL    HW2 6558   3.362   2.900   6.312
 1887SOL     OW 6559   0.588   6.271   5.208
 1887SOL    HW1 6560   0.675   6.320   5.193
 1887SOL    HW2 6561   0.531   6.324   5.270
 1888SOL     OW 6562   2.014   1.691   5.531
 1888SOL    HW1 6563   2.042   1.783   5.557
 1888SOL    HW2 6564   1.916   1.690   5.510
 1889SOL     OW 6565   2.675   3.028   0.388
 1889SOL    HW1 6566   2.738   2.960   0.424
 1889SOL    HW2 6567   2.726   3.097   0.336
 1890SOL     OW 6568   6.517   6.079   6.893
 1890SOL    HW1 6569   6.616   6.075   6.882
 1890SOL    HW2 6570   6.476   6.122   6.813
 1891SOL     OW 6571   5.259   3.614   6.842
 1891SOL    HW1 6572   5.191   3.668   6.793
 1891SOL    HW2 6573   5.296   3.544   6.781
 1892SOL     OW 6574   4.241   0.092   2.453
 1892SOL    HW1 6575   4.339   0.099   2.472
 1892SOL    HW2 6576   4.228   0.047   2.364
 1893SOL     OW 6577   3.346   1.326   5.541
 1893SOL    HW1 6578   3.327   1.412   5.589
 1893SOL    HW2 6579   3.275   1.259   5.563
 1894SOL     OW 6580   4.753   3.999   1.277
 1894SOL    HW1 6581   4.770   4.084   1.227
 1894SOL    HW2 6582   4.753   4.018   1.375
 1895SOL     OW 6583   4.495   6.448   3.398
 1895SOL    HW1 6584   4.422   6.504   3.360
 1895SOL    HW2 6585   4.457   6.362   3.433
 1896SOL     OW 6586   6.438   1.650   5.778
 1896SOL    HW1 6587   6.530   1.663   5.740
 1896SOL    HW2 6588   6.389   1.737   5.779
 1897SOL     OW 6589   5.952   4.835   3.533
 1897SOL    HW1 6590   6.036   4.812   3.484
 1897SOL    HW2 6591   5.885   4.762   3.521
 1898SOL     OW 6592   5.756   6.603   6.843
 1898SOL    HW1 6593   5.763   6.527   6.907
 1898SOL    HW2 6594   5.848   6.639   6.825
 1899SOL     OW 6595   1.756   2.408   3.374
 1899SOL    HW1 6596   1.732   2.502   3.398
 1899SOL    HW2 6597   1.855   2.396   3.382
 1900SOL     OW 6598   2.988   6.219   2.316
 1900SOL    HW1 6599   2.982   6.241   2.414
 1900SOL    HW2 6600   3.059   6.151   2.302
 1901SOL     OW 6601   1.232   1.107   6.250
 1901SOL    HW1 6602   1.321   1.149   6.231
 1901SOL    HW2 6603   1.216   1.033   6.184
 1902SOL     OW 6604   1.393   2.657   5.349
 1902SOL    HW1 6605   1.345   2.730   5.398
 1902SOL    HW2 6606   1.483   2.643   5.390
 1903SOL     OW 6607   0.012   4.459   4.184
 1903SOL    HW1 6608   0.021   4.404   4.100
 1903SOL    HW2 6609   0.006   4.398   4.263
 1904SOL     OW 6610   0.406   0.364   4.388
 1904SOL    HW1 6611   0.391   0.427   4.312
 1904SOL    HW2 6612   0.478   0.400   4.447
 1905SOL     OW 6613   6.553   2.664   4.378
 1905SOL    HW1 6614   6.455   2.683   4.383
 1905SOL    HW2 6615   6.568   2.566   4.390
 1906SOL     OW 6616   2.699   5.913   6.738
 1906SOL    HW1 6617   2.742   5.997   6.705
 1906SOL    HW2 6618   2.608   5.934   6.774
 1907SOL     OW 6619   4.681   6.471   3.609
 1907SOL    HW1 6620   4.717   6.380   3.589
 1907SOL    HW2 6621   4.622   6.502   3.535
 1908SOL     OW 6622   4.948   0.032   0.033
 1908SOL    HW1 6623   4.909   0.068   6.966
 1908SOL    HW2 6624   5.039   0.071   0.046
 1909SOL     OW 6625   4.050   5.314   4.579
 1909SOL    HW1 6626   4.096   5.225   4.583
 1909SOL    HW2 6627   3.963   5.304   4.531
 1910SOL     OW 6628   5.269   3.385   4.937
 1910SOL    HW1 6629   5.180   3.346   4.917
 1910SOL    HW2 6630   5.270   3.482   4.913
 1911SOL     OW 6631   0.149   3.503   5.668
 1911SOL    HW1 6632   0.121   3.585   5.617
 1911SOL    HW2 6633   0.246   3.510   5.692
 1912SOL     OW 6634   2.626   5.527   3.122
 1912SOL    HW1 6635   2.548   5.536   3.061
 1912SOL    HW2 6636   2.601   5.472   3.201
 1913SOL     OW 6637   1.365   4.274   5.249
 1913SOL    HW1 6638   1.280   4.238   5.287
 1913SOL    HW2 6639   1.416   4.199   5.205
 1914SOL     OW 6640   4.687   1.303   5.962
 1914SOL    HW1 6641   4.588   1.301   5.946
 1914SOL    HW2 6642   4.734   1.322   5.876
 1915SOL     OW 6643   3.336   1.004   5.451
 1915SOL    HW1 6644   3.356   1.054   5.367
 1915SOL    HW2 6645   3.342   0.906   5.434
 1916SOL     OW 6646   4.192   6.186   2.449
 1916SOL    HW1 6647   4.232   6.262   2.398
 1916SOL    HW2 6648   4.244   6.171   2.533
 1917SOL     OW 6649   3.359   2.962   4.253
 1917SOL    HW1 6650   3.360   2.990   4.157
 1917SOL    HW2 6651   3.453   2.939   4.281
 1918SOL     OW 6652   6.405   6.100   5.153
 1918SOL    HW1 6653   6.492   6.148   5.147
 1918SOL    HW2 6654   6.417   6.005   5.123
 1919SOL     OW 6655   6.451   7.012   1.777
 1919SOL    HW1 6656   6.530   0.037   1.822
 1919SOL    HW2 6657   6.469   7.006   1.679
 1920SOL     OW 6658   6.277   6.008   4.473
 1920SOL    HW1 6659   6.248   5.914   4.489
 1920SOL    HW2 6660   6.370   6.009   4.436
 1921SOL     OW 6661   1.500   6.994   6.607
 1921SOL    HW1 6662   1.455   6.935   6.674
 1921SOL    HW2 6663   1.557   6.939   6.546
 1922SOL     OW 6664   3.704   4.248   1.037
 1922SOL    HW1 6665   3.617   4.198   1.036
 1922SOL    HW2 6666   3.689   4.342   1.005
 1923SOL     OW 6667   2.113   2.711   0.598
 1923SOL    HW1 6668   2.115   2.809   0.620
 1923SOL    HW2 6669   2.030   2.691   0.546
 1924SOL     OW 6670   1.167   3.916   1.757
 1924SOL    HW1 6671   1.140   3.856   1.682
 1924SOL    HW2 6672   1.217   3.994   1.721
 1925SOL     OW 6673   3.902   3.785   0.584
 1925SOL    HW1 6674   3.939   3.872   0.551
 1925SOL    HW2 6675   3.976   3.722   0.604
 1926SOL     OW 6676   1.150   0.327   3.369
 1926SOL    HW1 6677   1.247   0.342   3.392
 1926SOL    HW2 6678   1.108   0.414   3.345
 1927SOL     OW 6679   4.341   3.895   0.513
 1927SOL    HW1 6680   4.283   3.943   0.579
 1927SOL    HW2 6681   4.436   3.924   0.525
 1928SOL     OW 6682   0.330   5.286   5.423
 1928SOL    HW1 6683   0.415   5.280   5.371
 1928SOL    HW2 6684   0.277   5.365   5.391
 1929SOL     OW 6685   1.722   6.179   3.193
 1929SOL    HW1 6686   1.729   6.156   3.096
 1929SOL    HW2 6687   1.803   6.145   3.241
 1930SOL     OW 6688   6.538   4.902   6.881
 1930SOL    HW1 6689   6.550   4.803   6.893
 1930SOL    HW2 6690   6.628   4.947   6.882
 1931SOL     OW 6691   0.689   1.848   5.609
 1931SOL    HW1 6692   0.732   1.888   5.528
 1931SOL    HW2 6693   0.756   1.843   5.683
 1932SOL     OW 6694   5.776   2.751   2.591
 1932SOL    HW1 6695   5.692   2.699   2.580
 1932SOL    HW2 6696   5.778   2.794   2.681
 1933SOL     OW 6697   2.164   4.273   0.549
 1933SOL    HW1 6698   2.107   4.215   0.607
 1933SOL    HW2 6699   2.154   4.368   0.576
 1934SOL     OW 6700   6.930   5.898   4.453
 1934SOL    HW1 6701   0.009   5.883   4.472
 1934SOL    HW2 6702   6.903   5.844   4.374
 1935SOL     OW 6703   2.330   0.894   3.447
 1935SOL    HW1 6704   2.275   0.865   3.525
 1935SOL    HW2 6705   2.319   0.828   3.372
 1936SOL     OW 6706   6.950   6.142   5.687
 1936SOL    HW1 6707   6.898   6.153   5.602
 1936SOL    HW2 6708   0.009   6.206   5.689
 1937SOL     OW 6709   4.733   0.683   3.077
 1937SOL    HW1 6710   4.697   0.742   3.005
 1937SOL    HW2 6711   4.678   0.600   3.084
 1938SOL     OW 6712   4.988   0.563   4.408
 1938SOL    HW1 6713   4.986   0.657   4.374
 1938SOL    HW2 6714   5.013   0.564   4.505
 1939SOL     OW 6715   2.461   0.561   3.586
 1939SOL    HW1 6716   2.398   0.633   3.556
 1939SOL    HW2 6717   2.555   0.592   3.573
 1940SOL     OW 6718   6.387   5.215   6.409
 1940SOL    HW1 6719   6.301   5.165   6.408
 1940SOL    HW2 6720   6.377   5.299   6.462
 1941SOL     OW 6721   5.610   5.081   2.774
 1941SOL    HW1 6722   5.606   5.133   2.859
 1941SOL    HW2 6723   5.536   5.111   2.713
 1942SOL     OW 6724   6.551   4.418   2.981
 1942SOL    HW1 6725   6.607   4.384   3.056
 1942SOL    HW2 6726   6.590   4.502   2.945
 1943SOL     OW 6727   2.851   5.937   2.545
 1943SOL    HW1 6728   2.938   5.897   2.570
 1943SOL    HW2 6729   2.830   5.915   2.450
 1944SOL     OW 6730   6.827   6.843   2.079
 1944SOL    HW1 6731   6.923   6.870   2.081
 1944SOL    HW2 6732   6.770   6.922   2.056
 1945SOL     OW 6733   3.190   5.019   3.905
 1945SOL    HW1 6734   3.113   4.956   3.898
 1945SOL    HW2 6735   3.229   5.015   3.997
 1946SOL     OW 6736   2.065   0.193   0.280
 1946SOL    HW1 6737   2.131   0.219   0.350
 1946SOL    HW2 6738   2.015   0.112   0.310
 1947SOL     OW 6739   5.426   7.001   3.836
 1947SOL    HW1 6740   5.496   6.953   3.888
 1947SOL    HW2 6741   5.340   6.999   3.887
 1948SOL     OW 6742   6.856   3.716   5.601
 1948SOL    HW1 6743   6.900   3.770   5.672
 1948SOL    HW2 6744   6.922   3.693   5.530
 1949SOL     OW 6745   5.201   4.083   6.373
 1949SOL    HW1 6746   5.106   4.115   6.375
 1949SOL    HW2 6747   5.251   4.130   6.300
 1950SOL     OW 6748   2.880   4.857   0.953
 1950SOL    HW1 6749   2.800   4.834   0.897
 1950SOL    HW2 6750   2.850   4.896   1.040
 1951SOL     OW 6751   6.750   2.673   7.010
 1951SOL    HW1 6752   6.845   2.666   6.980
 1951SOL    HW2 6753   6.718   2.584   0.023
 1952SOL     OW 6754   3.538   2.757   5.230
 1952SOL    HW1 6755   3.447   2.756   5.188
 1952SOL    HW2 6756   3.604   2.796   5.166
 1953SOL     OW 6757   0.231   3.234   5.105
 1953SOL    HW1 6758   0.172   3.258   5.182
 1953SOL    HW2 6759   0.231   3.309   5.038
 1954SOL     OW 6760   2.480   2.181   3.852
 1954SOL    HW1 6761   2.507   2.115   3.922
 1954SOL    HW2 6762   2.538   2.262   3.859
 1955SOL     OW 6763   6.472   5.562   1.798
 1955SOL    HW1 6764   6.512   5.654   1.805
 1955SOL    HW2 6765   6.408   5.548   1.873
 1956SOL     OW 6766   5.585   6.679   2.458
 1956SOL    HW1 6767   5.489   6.707   2.464
 1956SOL    HW2 6768   5.596   6.613   2.384
 1957SOL     OW 6769   0.978   6.701   5.582
 1957SOL    HW1 6770   1.031   6.633   5.632
 1957SOL    HW2 6771   0.941   6.768   5.646
 1958SOL     OW 6772   4.800   2.986   5.921
 1958SOL    HW1 6773   4.848   2.957   6.004
 1958SOL    HW2 6774   4.733   2.917   5.895
 1959SOL     OW 6775   2.452   2.182   7.014
 1959SOL    HW1 6776   2.483   2.275   0.015
 1959SOL    HW2 6777   2.365   2.166   0.044
 1960SOL     OW 6778   5.192   6.807   2.182
 1960SOL    HW1 6779   5.151   6.829   2.271
 1960SOL    HW2 6780   5.291   6.802   2.192
 1961SOL     OW 6781   5.713   4.917   4.992
 1961SOL    HW1 6782   5.783   4.902   4.922
 1961SOL    HW2 6783   5.748   4.981   5.061
 1962SOL     OW 6784   6.827   6.671   3.279
 1962SOL    HW1 6785   6.733   6.655   3.247
 1962SOL    HW2 6786   6.884   6.703   3.203
 1963SOL     OW 6787   2.222   0.192   2.802
 1963SOL    HW1 6788   2.308   0.145   2.783
 1963SOL    HW2 6789   2.214   0.274   2.745
 1964SOL     OW 6790   5.645   4.230   2.339
 1964SOL    HW1 6791   5.685   4.321   2.337
 1964SOL    HW2 6792   5.650   4.190   2.247
 1965SOL     OW 6793   2.339   5.061   3.773
 1965SOL    HW1 6794   2.417   5.018   3.818
 1965SOL    HW2 6795   2.350   5.057   3.674
 1966SOL     OW 6796   6.482   6.274   6.262
 1966SOL    HW1 6797   6.554   6.240   6.203
 1966SOL    HW2 6798   6.402   6.298   6.206
 1967SOL     OW 6799   4.877   3.624   4.287
 1967SOL    HW1 6800   4.919   3.576   4.364
 1967SOL    HW2 6801   4.896   3.722   4.294
 1968SOL     OW 6802   3.791   5.260   5.666
 1968SOL    HW1 6803   3.830   5.175   5.701
 1968SOL    HW2 6804   3.765   5.249   5.571
 1969SOL     OW 6805   6.762   2.123   1.815
 1969SOL    HW1 6806   6.698   2.071   1.873
 1969SOL    HW2 6807   6.731   2.218   1.809
 1970SOL     OW 6808   1.627   6.261   3.445
 1970SOL    HW1 6809   1.631   6.361   3.447
 1970SOL    HW2 6810   1.646   6.229   3.352
 1971SOL     OW 6811   0.184   0.479   5.845
 1971SOL    HW1 6812   0.164   0.400   5.787
 1971SOL    HW2 6813   0.283   0.496   5.845
 1972SOL     OW 6814   1.271   5.217   4.186
 1972SOL    HW1 6815   1.322   5.183   4.265
 1972SOL    HW2 6816   1.312   5.303   4.155
 1973SOL     OW 6817   2.640   3.047   6.853
 1973SOL    HW1 6818   2.654   2.949   6.858
 1973SOL    HW2 6819   2.594   3.071   6.768
 1974SOL     OW 6820   5.568   0.236   4.287
 1974SOL    HW1 6821   5.525   0.223   4.376
 1974SOL    HW2 6822   5.523   0.312   4.240
 1975SOL     OW 6823   2.716   0.683   3.617
 1975SOL    HW1 6824   2.775   0.607   3.645
 1975SOL    HW2 6825   2.763   0.738   3.548
 1976SOL     OW 6826   6.742   4.800   0.244
 1976SOL    HW1 6827   6.661   4.743   0.231
 1976SOL    HW2 6828   6.815   4.744   0.284
 1977SOL     OW 6829   2.506   2.513   4.986
 1977SOL    HW1 6830   2.559   2.492   5.068
 1977SOL    HW2 6831   2.450   2.594   5.001
 1978SOL     OW 6832   6.954   1.624   4.988
 1978SOL    HW1 6833   6.860   1.589   4.980
 1978SOL    HW2 6834   7.006   1.567   5.051
 1979SOL     OW 6835   5.826   4.364   2.989
 1979SOL    HW1 6836   5.726   4.372   2.982
 1979SOL    HW2 6837   5.852   4.268   2.980
 1980SOL     OW 6838   4.197   0.434   1.361
 1980SOL    HW1 6839   4.106   0.475   1.359
 1980SOL    HW2 6840   4.200   0.356   1.299
 1981SOL     OW 6841   4.774   3.291   1.726
 1981SOL    HW1 6842   4.704   3.279   1.795
 1981SOL    HW2 6843   4.737   3.267   1.636
 1982SOL     OW 6844   5.754   0.236   5.117
 1982SOL    HW1 6845   5.737   0.180   5.199
 1982SOL    HW2 6846   5.713   0.191   5.038
 1983SOL     OW 6847   0.687   4.259   2.426
 1983SOL    HW1 6848   0.640   4.192   2.369
 1983SOL    HW2 6849   0.643   4.349   2.415
 1984SOL     OW 6850   4.439   1.298   5.966
 1984SOL    HW1 6851   4.408   1.242   5.889
 1984SOL    HW2 6852   4.363   1.315   6.028
 1985SOL     OW 6853   1.558   0.193   1.081
 1985SOL    HW1 6854   1.585   0.242   1.163
 1985SOL    HW2 6855   1.522   0.258   1.014
 1986SOL     OW 6856   0.932   2.134   6.462
 1986SOL    HW1 6857   0.902   2.043   6.491
 1986SOL    HW2 6858   1.014   2.160   6.513
 1987SOL     OW 6859   2.590   3.738   0.129
 1987SOL    HW1 6860   2.665   3.800   0.104
 1987SOL    HW2 6861   2.544   3.773   0.211
 1988SOL     OW 6862   4.522   3.056   0.440
 1988SOL    HW1 6863   4.551   3.145   0.475
 1988SOL    HW2 6864   4.554   3.046   0.346
 1989SOL     OW 6865   2.642   0.464   4.193
 1989SOL    HW1 6866   2.672   0.494   4.102
 1989SOL    HW2 6867   2.639   0.543   4.255
 1990SOL     OW 6868   2.194   1.450   2.688
 1990SOL    HW1 6869   2.205   1.515   2.613
 1990SOL    HW2 6870   2.279   1.443   2.740
 1991SOL     OW 6871   3.918   5.352   4.228
 1991SOL    HW1 6872   3.964   5.441   4.225
 1991SOL    HW2 6873   3.881   5.331   4.137
 1992SOL     OW 6874   2.363   6.535   5.462
 1992SOL    HW1 6875   2.439   6.597   5.444
 1992SOL    HW2 6876   2.343   6.534   5.560
 1993SOL     OW 6877   3.152   3.300   4.298
 1993SOL    HW1 6878   3.076   3.279   4.359
 1993SOL    HW2 6879   3.235   3.256   4.332
 1994SOL     OW 6880   5.952   2.752   2.274
 1994SOL    HW1 6881   6.033   2.717   2.228
 1994SOL    HW2 6882   5.975   2.779   2.368
 1995SOL     OW 6883   4.767   2.573   1.094
 1995SOL    HW1 6884   4.676   2.607   1.071
 1995SOL    HW2 6885   4.818   2.643   1.144
 1996SOL     OW 6886   3.033   3.999   6.001
 1996SOL    HW1 6887   2.975   4.051   6.064
 1996SOL    HW2 6888   2.991   3.996   5.911
 1997SOL     OW 6889   5.078   0.535   4.099
 1997SOL    HW1 6890   5.070   0.612   4.035
 1997SOL    HW2 6891   5.031   0.557   4.184
 1998SOL     OW 6892   2.859   5.110   4.889
 1998SOL    HW1 6893   2.882   5.114   4.986
 1998SOL    HW2 6894   2.908   5.034   4.846
 1999SOL     OW 6895   1.992   1.087   2.125
 1999SOL    HW1 6896   2.040   1.174   2.140
 1999SOL    HW2 6897   2.052   1.023   2.077
 2000SOL     OW 6898   4.190   1.987   4.505
 2000SOL    HW1 6899   4.105   1.936   4.494
 2000SOL    HW2 6900   4.213   2.030   4.418
 2001SOL     OW 6901   2.489   3.298   0.742
 2001SOL    HW1 6902   2.508   3.300   0.643
 2001SOL    HW2 6903   2.575   3.311   0.792
 2002SOL     OW 6904   2.195   5.191   4.852
 2002SOL    HW1 6905   2.270   5.257   4.848
 2002SOL    HW2 6906   2.196   5.144   4.940
 2003SOL     OW 6907   6.232   4.911   3.115
 2003SOL    HW1 6908   6.175   4.858   3.052
 2003SOL    HW2 6909   6.327   4.882   3.108
 2004SOL     OW 6910   3.358   0.228   5.976
 2004SOL    HW1 6911   3.311   0.285   6.043
 2004SOL    HW2 6912   3.392   0.145   6.021
 2005SOL     OW 6913   3.001   6.696   5.389
 2005SOL    HW1 6914   3.077   6.740   5.339
 2005SOL    HW2 6915   3.036   6.618   5.440
 2006SOL     OW 6916   4.165   5.603   3.463
 2006SOL    HW1 6917   4.108   5.655   3.527
 2006SOL    HW2 6918   4.241   5.560   3.513
 2007SOL     OW 6919   6.180   5.187   0.035
 2007SOL    HW1 6920   6.262   5.224   0.079
 2007SOL    HW2 6921   6.198   5.092   0.006
 2008SOL     OW 6922   6.918   6.390   4.227
 2008SOL    HW1 6923   6.881   6.471   4.272
 2008SOL    HW2 6924   6.860   6.365   4.149
 2009SOL     OW 6925   0.356   0.518   1.057
 2009SOL    HW1 6926   0.267   0.562   1.040
 2009SOL    HW2 6927   0.347   0.419   1.043
 2010SOL     OW 6928   1.189   6.966   0.633
 2010SOL    HW1 6929   1.094   6.975   0.603
 2010SOL    HW2 6930   1.221   0.035   0.671
 2011SOL     OW 6931   6.827   2.654   5.086
 2011SOL    HW1 6932   6.883   2.720   5.136
 2011SOL    HW2 6933   6.730   2.672   5.103
 2012SOL     OW 6934   0.569   3.846   1.204
 2012SOL    HW1 6935   0.661   3.855   1.166
 2012SOL    HW2 6936   0.567   3.772   1.270
 2013SOL     OW 6937   4.695   1.259   2.360
 2013SOL    HW1 6938   4.778   1.242   2.306
 2013SOL    HW2 6939   4.699   1.207   2.445
 2014SOL     OW 6940   2.657   5.157   3.381
 2014SOL    HW1 6941   2.647   5.196   3.473
 2014SOL    HW2 6942   2.726   5.208   3.331
 2015SOL     OW 6943   3.098   6.859   6.679
 2015SOL    HW1 6944   3.021   6.914   6.648
 2015SOL    HW2 6945   3.067   6.792   6.746
 2016SOL     OW 6946   6.719   5.123   3.592
 2016SOL    HW1 6947   6.653   5.059   3.631
 2016SOL    HW2 6948   6.675   5.175   3.519
 2017SOL     OW 6949   2.718   5.585   1.941
 2017SOL    HW1 6950   2.808   5.575   1.984
 2017SOL    HW2 6951   2.693   5.681   1.938
 2018SOL     OW 6952   0.566   4.957   6.366
 2018SOL    HW1 6953   0.541   4.907   6.449
 2018SOL    HW2 6954   0.505   4.929   6.292
 2019SOL     OW 6955   5.623   1.842   3.006
 2019SOL    HW1 6956   5.547   1.815   2.947
 2019SOL    HW2 6957   5.681   1.763   3.024
 2020SOL     OW 6958   2.357   5.660   2.990
 2020SOL    HW1 6959   2.269   5.691   2.952
 2020SOL    HW2 6960   2.376   5.567   2.958
 2021SOL     OW 6961   1.321   0.064   1.406
 2021SOL    HW1 6962   1.234   0.053   1.358
 2021SOL    HW2 6963   1.362   0.151   1.381
 2022SOL     OW 6964   2.523   4.217   1.039
 2022SOL    HW1 6965   2.514   4.211   1.139
 2022SOL    HW2 6966   2.433   4.233   0.998
 2023SOL     OW 6967   6.468   1.255   6.168
 2023SOL    HW1 6968   6.523   1.185   6.122
 2023SOL    HW2 6969   6.510   1.345   6.154
 2024SOL     OW 6970   6.104   0.486   3.260
 2024SOL    HW1 6971   6.050   0.449   3.336
 2024SOL    HW2 6972   6.055   0.564   3.220
 2025SOL     OW 6973   6.627   0.736   0.324
 2025SOL    HW1 6974   6.593   0.830   0.323
 2025SOL    HW2 6975   6.676   0.719   0.410
 2026SOL     OW 6976   1.560   1.419   5.058
 2026SOL    HW1 6977   1.641   1.466   5.024
 2026SOL    HW2 6978   1.547   1.334   5.007
 2027SOL     OW 6979   0.048   1.726   2.430
 2027SOL    HW1 6980   0.024   1.710   2.334
 2027SOL    HW2 6981   6.988   1.766   2.478
 2028SOL     OW 6982   4.140   3.368   6.297
 2028SOL    HW1 6983   4.111   3.429   6.372
 2028SOL    HW2 6984   4.155   3.421   6.215
 2029SOL     OW 6985   1.712   0.561   0.442
 2029SOL    HW1 6986   1.663   0.605   0.367
 2029SOL    HW2 6987   1.754   0.476   0.409
 2030SOL     OW 6988   1.164   1.261   2.951
 2030SOL    HW1 6989   1.079   1.252   3.003
 2030SOL    HW2 6990   1.199   1.354   2.959
 2031SOL     OW 6991   4.872   0.036   2.622
 2031SOL    HW1 6992   4.889   7.017   2.714
 2031SOL    HW2 6993   4.918   0.123   2.612
 2032SOL     OW 6994   5.112   6.695   1.579
 2032SOL    HW1 6995   5.150   6.609   1.543
 2032SOL    HW2 6996   5.029   6.675   1.631
 2033SOL     OW 6997   6.921   4.885   6.659
 2033SOL    HW1 6998   6.900   4.793   6.693
 2033SOL    HW2 6999   6.940   4.881   6.561
 2034SOL     OW 7000   2.188   6.803   2.814
 2034SOL    HW1 7001   2.208   6.820   2.718
 2034SOL    HW2 7002   2.266   6.831   2.870
 2035SOL     OW 7003   1.344   3.345   1.977
 2035SOL    HW1 7004   1.339   3.259   1.926
 2035SOL    HW2 7005   1.356   3.325   2.074
 2036SOL     OW 7006   1.427   4.653   0.304
 2036SOL    HW1 7007   1.523   4.637   0.328
 2036SOL    HW2 7008   1.400   4.745   0.332
 2037SOL     OW 7009   0.020   1.034   6.143
 2037SOL    HW1 7010   0.026   1.056   6.241
 2037SOL    HW2 7011   0.092   0.969   6.119
 2038SOL     OW 7012   0.799   0.135   4.627
 2038SOL    HW1 7013   0.742   0.215   4.610
 2038SOL    HW2 7014   0.834   0.101   4.540
 2039SOL     OW 7015   0.841   5.572   2.183
 2039SOL    HW1 7016   0.800   5.639   2.120
 2039SOL    HW2 7017   0.939   5.565   2.164
 2040SOL     OW 7018   3.681   3.792   4.620
 2040SOL    HW1 7019   3.692   3.841   4.707
 2040SOL    HW2 7020   3.752   3.722   4.613
 2041SOL     OW 7021   5.854   4.154   6.313
 2041SOL    HW1 7022   5.847   4.193   6.405
 2041SOL    HW2 7023   5.770   4.174   6.262
 2042SOL     OW 7024   3.930   5.784   0.025
 2042SOL    HW1 7025   3.892   5.702   0.068
 2042SOL    HW2 7026   3.965   5.761   6.952
 2043SOL     OW 7027   4.828   4.381   2.337
 2043SOL    HW1 7028   4.796   4.289   2.313
 2043SOL    HW2 7029   4.895   4.412   2.270
 2044SOL     OW 7030   5.908   0.930   1.921
 2044SOL    HW1 7031   6.006   0.950   1.910
 2044SOL    HW2 7032   5.896   0.832   1.932
 2045SOL     OW 7033   1.817   5.424   6.052
 2045SOL    HW1 7034   1.805   5.431   5.953
 2045SOL    HW2 7035   1.818   5.328   6.079
 2046SOL     OW 7036   5.892   0.844   4.686
 2046SOL    HW1 7037   5.906   0.933   4.729
 2046SOL    HW2 7038   5.836   0.787   4.746
 2047SOL     OW 7039   5.686   2.608   0.334
 2047SOL    HW1 7040   5.667   2.549   0.412
 2047SOL    HW2 7041   5.617   2.681   0.328
 2048SOL     OW 7042   4.255   0.107   5.738
 2048SOL    HW1 7043   4.259   0.177   5.667
 2048SOL    HW2 7044   4.188   0.134   5.808
 2049SOL     OW 7045   4.924   6.519   0.646
 2049SOL    HW1 7046   4.921   6.598   0.585
 2049SOL    HW2 7047   4.857   6.450   0.615
 2050SOL     OW 7048   5.547   2.130   4.273
 2050SOL    HW1 7049   5.508   2.204   4.327
 2050SOL    HW2 7050   5.629   2.163   4.226
 2051SOL     OW 7051   1.904   5.268   0.420
 2051SOL    HW1 7052   1.866   5.176   0.404
 2051SOL    HW2 7053   1.869   5.331   0.351
 2052SOL     OW 7054   1.213   3.271   0.990
 2052SOL    HW1 7055   1.189   3.176   1.010
 2052SOL    HW2 7056   1.241   3.316   1.075
 2053SOL     OW 7057   5.238   0.316   0.407
 2053SOL    HW1 7058   5.221   0.356   0.318
 2053SOL    HW2 7059   5.223   0.384   0.479
 2054SOL     OW 7060   6.441   3.289   1.321
 2054SOL    HW1 7061   6.453   3.318   1.226
 2054SOL    HW2 7062   6.493   3.205   1.336
 2055SOL     OW 7063   6.477   2.572   4.077
 2055SOL    HW1 7064   6.468   2.514   3.996
 2055SOL    HW2 7065   6.570   2.608   4.083
 2056SOL     OW 7066   1.275   0.937   2.609
 2056SOL    HW1 7067   1.335   0.939   2.690
 2056SOL    HW2 7068   1.330   0.946   2.526
 2057SOL     OW 7069   7.014   2.241   3.981
 2057SOL    HW1 7070   6.957   2.162   3.959
 2057SOL    HW2 7071   6.987   2.278   4.071
 2058SOL     OW 7072   0.060   2.419   1.663
 2058SOL    HW1 7073   0.035   2.371   1.578
 2058SOL    HW2 7074   0.153   2.393   1.689
 2059SOL     OW 7075   1.758   1.542   6.639
 2059SOL    HW1 7076   1.794   1.481   6.568
 2059SOL    HW2 7077   1.776   1.637   6.613
 2060SOL     OW 7078   0.370   5.495   2.481
 2060SOL    HW1 7079   0.418   5.454   2.559
 2060SOL    HW2 7080   0.305   5.563   2.514
 2061SOL     OW 7081   6.768   1.390   1.770
 2061SOL    HW1 7082   6.745   1.476   1.815
 2061SOL    HW2 7083   6.848   1.349   1.814
 2062SOL     OW 7084   4.407   1.215   3.270
 2062SOL    HW1 7085   4.505   1.196   3.261
 2062SOL    HW2 7086   4.361   1.196   3.183
 2063SOL     OW 7087   2.508   2.032   0.306
 2063SOL    HW1 7088   2.480   1.943   0.270
 2063SOL    HW2 7089   2.438   2.066   0.370
 2064SOL     OW 7090   0.586   2.377   0.250
 2064SOL    HW1 7091   0.563   2.466   0.289
 2064SOL    HW2 7092   0.573   2.306   0.319
 2065SOL     OW 7093   6.435   2.569   2.045
 2065SOL    HW1 7094   6.467   2.549   1.953
 2065SOL    HW2 7095   6.488   2.646   2.083
 2066SOL     OW 7096   1.945   6.333   4.052
 2066SOL    HW1 7097   2.039   6.333   4.086
 2066SOL    HW2 7098   1.917   6.239   4.031
 2067SOL     OW 7099   0.041   7.017   1.057
 2067SOL    HW1 7100   0.093   7.009   1.142
 2067SOL    HW2 7101   0.097   6.986   0.981
 2068SOL     OW 7102   1.901   1.350   4.948
 2068SOL    HW1 7103   1.947   1.438   4.961
 2068SOL    HW2 7104   1.829   1.360   4.880
 2069SOL     OW 7105   0.261   1.866   1.908
 2069SOL    HW1 7106   0.185   1.932   1.903
 2069SOL    HW2 7107   0.256   1.805   1.829
 2070SOL     OW 7108   0.543   1.501   2.370
 2070SOL    HW1 7109   0.446   1.491   2.391
 2070SOL    HW2 7110   0.587   1.560   2.438
 2071SOL     OW 7111   1.405   6.428   4.492
 2071SOL    HW1 7112   1.440   6.363   4.558
 2071SOL    HW2 7113   1.420   6.393   4.399
 2072SOL     OW 7114   5.066   5.299   2.049
 2072SOL    HW1 7115   5.150   5.251   2.021
 2072SOL    HW2 7116   5.055   5.291   2.148
 2073SOL     OW 7117   2.898   0.032   5.542
 2073SOL    HW1 7118   2.928   0.126   5.530
 2073SOL    HW2 7119   2.854   0.021   5.631
 2074SOL     OW 7120   5.632   1.921   1.759
 2074SOL    HW1 7121   5.669   1.908   1.666
 2074SOL    HW2 7122   5.665   1.848   1.818
 2075SOL     OW 7123   4.371   3.296   5.889
 2075SOL    HW1 7124   4.424   3.210   5.893
 2075SOL    HW2 7125   4.420   3.362   5.832
 2076SOL     OW 7126   4.979   0.257   1.145
 2076SOL    HW1 7127   5.030   0.207   1.075
 2076SOL    HW2 7128   4.882   0.258   1.122
 2077SOL     OW 7129   5.678   1.388   3.572
 2077SOL    HW1 7130   5.661   1.478   3.612
 2077SOL    HW2 7131   5.722   1.329   3.640
 2078SOL     OW 7132   4.199   5.389   5.378
 2078SOL    HW1 7133   4.250   5.310   5.344
 2078SOL    HW2 7134   4.105   5.384   5.345
 2079SOL     OW 7135   5.780   1.476   4.087
 2079SOL    HW1 7136   5.879   1.491   4.097
 2079SOL    HW2 7137   5.736   1.486   4.176
 2080SOL     OW 7138   3.163   2.146   4.709
 2080SOL    HW1 7139   3.195   2.097   4.791
 2080SOL    HW2 7140   3.232   2.212   4.681
 2081SOL     OW 7141   0.407   6.449   5.348
 2081SOL    HW1 7142   0.378   6.392   5.426
 2081SOL    HW2 7143   0.334   6.451   5.280
 2082SOL     OW 7144   5.102   0.289   1.355
 2082SOL    HW1 7145   5.057   0.276   1.266
 2082SOL    HW2 7146   5.145   0.379   1.357
 2083SOL     OW 7147   3.718   5.584   5.357
 2083SOL    HW1 7148   3.727   5.605   5.455
 2083SOL    HW2 7149   3.623   5.562   5.337
 2084SOL     OW 7150   0.249   3.043   3.304
 2084SOL    HW1 7151   0.154   3.013   3.291
 2084SOL    HW2 7152   0.286   3.000   3.386
 2085SOL     OW 7153   5.724   6.789   6.627
 2085SOL    HW1 7154   5.750   6.726   6.700
 2085SOL    HW2 7155   5.804   6.841   6.597
 2086SOL     OW 7156   2.703   5.042   0.628
 2086SOL    HW1 7157   2.641   5.117   0.651
 2086SOL    HW2 7158   2.704   4.974   0.701
 2087SOL     OW 7159   5.423   6.585   3.642
 2087SOL    HW1 7160   5.406   6.579   3.741
 2087SOL    HW2 7161   5.483   6.510   3.614
 2088SOL     OW 7162   3.056   6.822   0.682
 2088SOL    HW1 7163   3.127   6.757   0.708
 2088SOL    HW2 7164   3.096   6.894   0.625
 2089SOL     OW 7165   2.911   0.003   6.588
 2089SOL    HW1 7166   2.886   0.074   6.522
 2089SOL    HW2 7167   2.874   6.933   6.558
 2090SOL     OW 7168   3.190   3.668   4.027
 2090SOL    HW1 7169   3.201   3.572   4.051
 2090SOL    HW2 7170   3.194   3.724   4.111
 2091SOL     OW 7171   2.012   5.041   0.627
 2091SOL    HW1 7172   2.079   4.988   0.680
 2091SOL    HW2 7173   1.975   4.983   0.554
 2092SOL     OW 7174   6.073   6.166   1.048
 2092SOL    HW1 7175   5.976   6.173   1.024
 2092SOL    HW2 7176   6.128   6.168   0.965
 2093SOL     OW 7177   1.208   2.057   1.251
 2093SOL    HW1 7178   1.168   1.976   1.208
 2093SOL    HW2 7179   1.270   2.102   1.186
 2094SOL     OW 7180   6.044   0.387   2.063
 2094SOL    HW1 7181   6.046   0.430   2.153
 2094SOL    HW2 7182   6.061   0.289   2.072
 2095SOL     OW 7183   6.934   4.858   4.598
 2095SOL    HW1 7184   6.995   4.830   4.672
 2095SOL    HW2 7185   6.840   4.862   4.632
 2096SOL     OW 7186   4.906   3.982   3.098
 2096SOL    HW1 7187   4.866   4.033   3.022
 2096SOL    HW2 7188   4.886   3.885   3.087
 2097SOL     OW 7189   7.005   2.683   6.893
 2097SOL    HW1 7190   0.036   2.599   6.915
 2097SOL    HW2 7191   0.037   2.761   6.931
 2098SOL     OW 7192   4.434   0.650   4.596
 2098SOL    HW1 7193   4.473   0.695   4.677
 2098SOL    HW2 7194   4.507   0.625   4.534
 2099SOL     OW 7195   3.006   1.546   4.067
 2099SOL    HW1 7196   2.927   1.507   4.114
 2099SOL    HW2 7197   3.020   1.498   3.980
 2100SOL     OW 7198   3.852   4.113   0.066
 2100SOL    HW1 7199   3.857   4.176   0.144
 2100SOL    HW2 7200   3.876   4.161   7.000
 2101SOL     OW 7201   0.238   0.433   3.278
 2101SOL    HW1 7202   0.247   0.531   3.259
 2101SOL    HW2 7203   0.151   0.400   3.242
 2102SOL     OW 7204   0.113   5.007   2.284
 2102SOL    HW1 7205   0.104   4.921   2.334
 2102SOL    HW2 7206   0.047   5.008   2.208
 2103SOL     OW 7207   2.768   3.990   6.479
 2103SOL    HW1 7208   2.699   4.062   6.469
 2103SOL    HW2 7209   2.724   3.900   6.471
 2104SOL     OW 7210   1.159   4.084   5.070
 2104SOL    HW1 7211   1.156   4.107   5.167
 2104SOL    HW2 7212   1.155   4.168   5.016
 2105SOL     OW 7213   6.026   5.609   1.597
 2105SOL    HW1 7214   6.063   5.646   1.512
 2105SOL    HW2 7215   6.087   5.632   1.672
 2106SOL     OW 7216   5.293   5.680   6.710
 2106SOL    HW1 7217   5.312   5.584   6.686
 2106SOL    HW2 7218   5.378   5.732   6.708
 2107SOL     OW 7219   3.881   4.237   6.865
 2107SOL    HW1 7220   3.782   4.249   6.857
 2107SOL    HW2 7221   3.927   4.324   6.847
 2108SOL     OW 7222   4.928   4.749   5.878
 2108SOL    HW1 7223   4.902   4.808   5.802
 2108SOL    HW2 7224   4.963   4.662   5.842
 2109SOL     OW 7225   5.849   0.089   3.035
 2109SOL    HW1 7226   5.801   0.137   2.962
 2109SOL    HW2 7227   5.887   0.004   2.999
 2110SOL     OW 7228   2.705   5.110   5.886
 2110SOL    HW1 7229   2.689   5.147   5.978
 2110SOL    HW2 7230   2.803   5.096   5.874
 2111SOL     OW 7231   1.610   2.634   0.207
 2111SOL    HW1 7232   1.692   2.689   0.225
 2111SOL    HW2 7233   1.536   2.665   0.265
 2112SOL     OW 7234   4.948   3.390   1.092
 2112SOL    HW1 7235   4.865   3.391   1.037
 2112SOL    HW2 7236   5.006   3.313   1.064
 2113SOL     OW 7237   6.805   1.109   3.236
 2113SOL    HW1 7238   6.822   1.019   3.277
 2113SOL    HW2 7239   6.829   1.106   3.139
 2114SOL     OW 7240   1.658   4.222   0.027
 2114SOL    HW1 7241   1.749   4.198   7.011
 2114SOL    HW2 7242   1.655   4.213   0.126
 2115SOL     OW 7243   2.795   4.729   2.369
 2115SOL    HW1 7244   2.856   4.732   2.449
 2115SOL    HW2 7245   2.719   4.792   2.382
 2116SOL     OW 7246   0.106   3.966   3.348
 2116SOL    HW1 7247   0.098   3.866   3.348
 2116SOL    HW2 7248   0.064   4.003   3.430
 2117SOL     OW 7249   6.812   4.816   1.037
 2117SOL    HW1 7250   6.789   4.731   0.991
 2117SOL    HW2 7251   6.743   4.836   1.107
 2118SOL     OW 7252   6.823   3.676   2.113
 2118SOL    HW1 7253   6.876   3.676   2.198
 2118SOL    HW2 7254   6.804   3.582   2.085
 2119SOL     OW 7255   2.683   5.856   1.162
 2119SOL    HW1 7256   2.748   5.932   1.156
 2119SOL    HW2 7257   2.596   5.885   1.121
 2120SOL     OW 7258   0.183   5.378   1.992
 2120SOL    HW1 7259   0.278   5.347   1.988
 2120SOL    HW2 7260   0.123   5.303   1.966
 2121SOL     OW 7261   0.523   4.937   4.954
 2121SOL    HW1 7262   0.490   4.993   4.878
 2121SOL    HW2 7263   0.599   4.983   4.999
 2122SOL     OW 7264   4.674   4.484   5.240
 2122SOL    HW1 7265   4.707   4.576   5.264
 2122SOL    HW2 7266   4.645   4.436   5.323
 2123SOL     OW 7267   6.022   4.777   3.002
 2123SOL    HW1 7268   6.028   4.678   3.001
 2123SOL    HW2 7269   5.926   4.805   2.993
 2124SOL     OW 7270   2.605   1.707   0.838
 2124SOL    HW1 7271   2.596   1.794   0.790
 2124SOL    HW2 7272   2.521   1.654   0.828
 2125SOL     OW 7273   3.184   6.624   1.146
 2125SOL    HW1 7274   3.155   6.543   1.095
 2125SOL    HW2 7275   3.115   6.696   1.138
 2126SOL     OW 7276   2.703   1.155   1.476
 2126SOL    HW1 7277   2.722   1.108   1.562
 2126SOL    HW2 7278   2.721   1.253   1.487
 2127SOL     OW 7279   5.386   3.232   5.330
 2127SOL    HW1 7280   5.425   3.321   5.352
 2127SOL    HW2 7281   5.299   3.244   5.284
 2128SOL     OW 7282   0.217   5.355   4.093
 2128SOL    HW1 7283   0.239   5.285   4.025
 2128SOL    HW2 7284   0.119   5.374   4.091
 2129SOL     OW 7285   3.791   1.649   5.789
 2129SOL    HW1 7286   3.827   1.627   5.879
 2129SOL    HW2 7287   3.712   1.593   5.769
 2130SOL     OW 7288   4.023   6.335   3.802
 2130SOL    HW1 7289   4.107   6.365   3.757
 2130SOL    HW2 7290   3.946   6.388   3.765
 2131SOL     OW 7291   6.181   2.478   6.900
 2131SOL    HW1 7292   6.094   2.463   6.947
 2131SOL    HW2 7293   6.224   2.390   6.880
 2132SOL     OW 7294   2.338   2.644   0.700
 2132SOL    HW1 7295   2.404   2.711   0.666
 2132SOL    HW2 7296   2.245   2.675   0.678
 2133SOL     OW 7297   3.046   3.387   5.888
 2133SOL    HW1 7298   3.122   3.423   5.941
 2133SOL    HW2 7299   3.069   3.392   5.790
 2134SOL     OW 7300   1.307   0.041   1.095
 2134SOL    HW1 7301   1.270   0.133   1.084
 2134SOL    HW2 7302   1.406   0.044   1.091
 2135SOL     OW 7303   0.152   4.144   4.248
 2135SOL    HW1 7304   0.113   4.052   4.244
 2135SOL    HW2 7305   0.213   4.151   4.326
 2136SOL     OW 7306   1.814   4.793   1.492
 2136SOL    HW1 7307   1.759   4.875   1.480
 2136SOL    HW2 7308   1.819   4.770   1.589
 2137SOL     OW 7309   2.023   5.571   4.224
 2137SOL    HW1 7310   2.014   5.663   4.186
 2137SOL    HW2 7311   2.074   5.575   4.310
 2138SOL     OW 7312   4.930   1.621   1.684
 2138SOL    HW1 7313   4.869   1.684   1.732
 2138SOL    HW2 7314   4.991   1.673   1.625
 2139SOL     OW 7315   2.824   1.038   5.509
 2139SOL    HW1 7316   2.913   1.038   5.554
 2139SOL    HW2 7317   2.759   0.981   5.561
 2140SOL     OW 7318   2.155   0.948   4.711
 2140SOL    HW1 7319   2.185   0.886   4.639
 2140SOL    HW2 7320   2.228   0.959   4.778
 2141SOL     OW 7321   6.519   3.926   2.772
 2141SOL    HW1 7322   6.577   3.887   2.844
 2141SOL    HW2 7323   6.569   3.999   2.725
 2142SOL     OW 7324   1.532   2.227   3.017
 2142SOL    HW1 7325   1.453   2.270   3.061
 2142SOL    HW2 7326   1.501   2.149   2.963
 2143SOL     OW 7327   1.215   4.554   0.172
 2143SOL    HW1 7328   1.300   4.573   0.220
 2143SOL    HW2 7329   1.182   4.637   0.127
 2144SOL     OW 7330   5.957   4.948   3.798
 2144SOL    HW1 7331   5.946   4.911   3.706
 2144SOL    HW2 7332   5.926   4.881   3.865
 2145SOL     OW 7333   4.018   0.220   3.506
 2145SOL    HW1 7334   3.963   0.239   3.425
 2145SOL    HW2 7335   3.999   0.288   3.577
 2146SOL     OW 7336   2.154   2.688   0.196
 2146SOL    HW1 7337   2.197   2.772   0.163
 2146SOL    HW2 7338   2.185   2.669   0.290
 2147SOL     OW 7339   5.726   0.528   4.460
 2147SOL    HW1 7340   5.756   0.469   4.385
 2147SOL    HW2 7341   5.749   0.623   4.438
 2148SOL     OW 7342   0.407   3.368   6.457
 2148SOL    HW1 7343   0.323   3.314   6.458
 2148SOL    HW2 7344   0.445   3.371   6.550
 2149SOL     OW 7345   0.768   0.426   0.103
 2149SOL    HW1 7346   0.798   0.373   0.024
 2149SOL    HW2 7347   0.779   0.524   0.083
 2150SOL     OW 7348   2.486   3.021   1.324
 2150SOL    HW1 7349   2.470   2.938   1.272
 2150SOL    HW2 7350   2.491   3.099   1.262
 2151SOL     OW 7351   1.541   5.796   0.145
 2151SOL    HW1 7352   1.454   5.780   0.098
 2151SOL    HW2 7353   1.528   5.867   0.214
 2152SOL     OW 7354   4.840   5.665   4.319
 2152SOL    HW1 7355   4.811   5.664   4.223
 2152SOL    HW2 7356   4.932   5.628   4.327
 2153SOL     OW 7357   4.536   1.556   3.547
 2153SOL    HW1 7358   4.598   1.477   3.547
 2153SOL    HW2 7359   4.499   1.569   3.455
 2154SOL     OW 7360   2.979   0.117   3.364
 2154SOL    HW1 7361   3.065   0.071   3.385
 2154SOL    HW2 7362   2.998   0.208   3.328
 2155SOL     OW 7363   4.474   0.273   0.832
 2155SOL    HW1 7364   4.518   0.250   0.918
 2155SOL    HW2 7365   4.503   0.364   0.803
 2156SOL     OW 7366   5.390   1.428   4.966
 2156SOL    HW1 7367   5.476   1.420   5.015
 2156SOL    HW2 7368   5.378   1.522   4.934
 2157SOL     OW 7369   3.011   6.158   3.868
 2157SOL    HW1 7370   3.088   6.105   3.905
 2157SOL    HW2 7371   2.976   6.113   3.786
 2158SOL     OW 7372   3.702   0.592   0.340
 2158SOL    HW1 7373   3.624   0.539   0.375
 2158SOL    HW2 7374   3.762   0.532   0.287
 2159SOL     OW 7375   0.667   0.974   5.667
 2159SOL    HW1 7376   0.616   1.003   5.586
 2159SOL    HW2 7377   0.664   1.047   5.735
 2160SOL     OW 7378   5.988   6.831   0.487
 2160SOL    HW1 7379   5.969   6.797   0.579
 2160SOL    HW2 7380   6.048   6.911   0.493
 2161SOL     OW 7381   1.395   2.584   1.774
 2161SOL    HW1 7382   1.354   2.533   1.850
 2161SOL    HW2 7383   1.494   2.567   1.772
 2162SOL     OW 7384   0.855   6.829   1.881
 2162SOL    HW1 7385   0.825   6.807   1.974
 2162SOL    HW2 7386   0.927   6.765   1.854
 2163SOL     OW 7387   1.960   3.128   2.519
 2163SOL    HW1 7388   2.014   3.049   2.548
 2163SOL    HW2 7389   1.864   3.101   2.510
 2164SOL     OW 7390   2.065   2.656   2.798
 2164SOL    HW1 7391   2.150   2.612   2.826
 2164SOL    HW2 7392   2.039   2.624   2.707
 2165SOL     OW 7393   6.861   1.665   3.671
 2165SOL    HW1 7394   6.832   1.706   3.584
 2165SOL    HW2 7395   6.846   1.566   3.668
 2166SOL     OW 7396   6.908   4.276   2.794
 2166SOL    HW1 7397   6.949   4.199   2.745
 2166SOL    HW2 7398   6.880   4.246   2.886
 2167SOL     OW 7399   2.569   2.030   3.371
 2167SOL    HW1 7400   2.505   2.052   3.445
 2167SOL    HW2 7401   2.552   2.091   3.294
 2168SOL     OW 7402   1.510   2.296   3.401
 2168SOL    HW1 7403   1.502   2.198   3.383
 2168SOL    HW2 7404   1.598   2.330   3.369
 2169SOL     OW 7405   0.579   0.031   1.387
 2169SOL    HW1 7406   0.637   6.987   1.441
 2169SOL    HW2 7407   0.508   0.069   1.446
 2170SOL     OW 7408   0.867   3.949   5.499
 2170SOL    HW1 7409   0.856   4.047   5.482
 2170SOL    HW2 7410   0.847   3.898   5.416
 2171SOL     OW 7411   0.381   5.420   1.711
 2171SOL    HW1 7412   0.374   5.372   1.798
 2171SOL    HW2 7413   0.318   5.498   1.710
 2172SOL     OW 7414   1.586   1.158   4.960
 2172SOL    HW1 7415   1.519   1.129   4.892
 2172SOL    HW2 7416   1.548   1.148   5.051
 2173SOL     OW 7417   6.164   0.500   5.170
 2173SOL    HW1 7418   6.067   0.490   5.151
 2173SOL    HW2 7419   6.176   0.549   5.257
 2174SOL     OW 7420   6.163   0.120   6.052
 2174SOL    HW1 7421   6.112   0.034   6.062
 2174SOL    HW2 7422   6.100   0.197   6.057
 2175SOL     OW 7423   2.597   3.839   5.331
 2175SOL    HW1 7424   2.527   3.891   5.282
 2175SOL    HW2 7425   2.580   3.843   5.429
 2176SOL     OW 7426   5.580   2.443   1.641
 2176SOL    HW1 7427   5.675   2.459   1.615
 2176SOL    HW2 7428   5.522   2.515   1.604
 2177SOL     OW 7429   0.343   0.478   4.161
 2177SOL    HW1 7430   0.352   0.414   4.085
 2177SOL    HW2 7431   0.399   0.559   4.142
 2178SOL     OW 7432   0.264   2.031   2.582
 2178SOL    HW1 7433   0.355   2.074   2.579
 2178SOL    HW2 7434   0.273   1.936   2.611
 2179SOL     OW 7435   1.276   4.225   6.066
 2179SOL    HW1 7436   1.241   4.190   5.980
 2179SOL    HW2 7437   1.203   4.275   6.114
 2180SOL     OW 7438   0.790   6.262   2.651
 2180SOL    HW1 7439   0.872   6.290   2.700
 2180SOL    HW2 7440   0.709   6.285   2.705
 2181SOL     OW 7441   3.382   4.895   4.388
 2181SOL    HW1 7442   3.442   4.913   4.310
 2181SOL    HW2 7443   3.289   4.876   4.355
 2182SOL     OW 7444   0.348   6.146   2.572
 2182SOL    HW1 7445   0.387   6.237   2.581
 2182SOL    HW2 7446   0.327   6.128   2.476
 2183SOL     OW 7447   3.095   2.787   6.390
 2183SOL    HW1 7448   3.043   2.722   6.335
 2183SOL    HW2 7449   3.118   2.744   6.478
 2184SOL     OW 7450   6.534   1.473   6.750
 2184SOL    HW1 7451   6.544   1.535   6.828
 2184SOL    HW2 7452   6.482   1.518   6.678
 2185SOL     OW 7453   1.020   0.188   6.710
 2185SOL    HW1 7454   1.078   0.262   6.673
 2185SOL    HW2 7455   1.032   0.106   6.654
 2186SOL     OW 7456   0.142   4.780   5.837
 2186SOL    HW1 7457   0.209   4.708   5.819
 2186SOL    HW2 7458   0.174   4.866   5.797
 2187SOL     OW 7459   0.465   5.801   2.918
 2187SOL    HW1 7460   0.500   5.713   2.948
 2187SOL    HW2 7461   0.540   5.867   2.914
 2188SOL     OW 7462   2.420   0.468   0.623
 2188SOL    HW1 7463   2.467   0.540   0.572
 2188SOL    HW2 7464   2.481   0.431   0.692
 2189SOL     OW 7465   2.101   1.437   1.644
 2189SOL    HW1 7466   2.008   1.431   1.680
 2189SOL    HW2 7467   2.097   1.460   1.546
 2190SOL     OW 7468   6.561   3.789   2.083
 2190SOL    HW1 7469   6.578   3.837   1.998
 2190SOL    HW2 7470   6.644   3.741   2.112
 2191SOL     OW 7471   2.802   0.134   0.048
 2191SOL    HW1 7472   2.807   0.219   7.013
 2191SOL    HW2 7473   2.781   0.058   7.004
 2192SOL     OW 7474   4.787   1.605   1.075
 2192SOL    HW1 7475   4.844   1.620   0.994
 2192SOL    HW2 7476   4.691   1.609   1.050
 2193SOL     OW 7477   1.837   6.585   6.033
 2193SOL    HW1 7478   1.822   6.516   6.104
 2193SOL    HW2 7479   1.931   6.578   5.999
 2194SOL     OW 7480   1.220   3.834   5.907
 2194SOL    HW1 7481   1.246   3.739   5.924
 2194SOL    HW2 7482   1.138   3.837   5.851
 2195SOL     OW 7483   0.407   3.605   5.669
 2195SOL    HW1 7484   0.425   3.687   5.724
 2195SOL    HW2 7485   0.493   3.571   5.631
 2196SOL     OW 7486   2.784   0.348   6.380
 2196SOL    HW1 7487   2.800   0.257   6.341
 2196SOL    HW2 7488   2.726   0.401   6.318
 2197SOL     OW 7489   3.316   5.157   5.726
 2197SOL    HW1 7490   3.248   5.124   5.660
 2197SOL    HW2 7491   3.330   5.255   5.712
 2198SOL     OW 7492   0.673   0.296   6.814
 2198SOL    HW1 7493   0.758   0.343   6.838
 2198SOL    HW2 7494   0.675   0.203   6.853
 2199SOL     OW 7495   3.900   6.642   4.973
 2199SOL    HW1 7496   3.933   6.550   4.952
 2199SOL    HW2 7497   3.964   6.686   5.035
 2200SOL     OW 7498   2.745   1.890   4.134
 2200SOL    HW1 7499   2.703   1.814   4.084
 2200SOL    HW2 7500   2.843   1.891   4.118
 2201SOL     OW 7501   6.464   4.169   4.181
 2201SOL    HW1 7502   6.498   4.113   4.256
 2201SOL    HW2 7503   6.483   4.266   4.199
 2202SOL     OW 7504   3.664   6.322   2.208
 2202SOL    HW1 7505   3.709   6.274   2.133
 2202SOL    HW2 7506   3.569   6.342   2.183
 2203SOL     OW 7507   1.743   3.669   0.757
 2203SOL    HW1 7508   1.819   3.680   0.693
 2203SOL    HW2 7509   1.772   3.611   0.833
 2204SOL     OW 7510   5.626   3.677   1.159
 2204SOL    HW1 7511   5.559   3.623   1.108
 2204SOL    HW2 7512   5.708   3.688   1.103
 2205SOL     OW 7513   0.552   5.059   0.495
 2205SOL    HW1 7514   0.616   5.106   0.435
 2205SOL    HW2 7515   0.531   5.118   0.573
 2206SOL     OW 7516   3.095   2.119   5.930
 2206SOL    HW1 7517   3.096   2.028   5.889
 2206SOL    HW2 7518   3.058   2.184   5.864
 2207SOL     OW 7519   4.631   6.281   1.351
 2207SOL    HW1 7520   4.668   6.343   1.419
 2207SOL    HW2 7521   4.531   6.287   1.349
 2208SOL     OW 7522   6.774   6.153   3.542
 2208SOL    HW1 7523   6.706   6.107   3.599
 2208SOL    HW2 7524   6.769   6.118   3.448
 2209SOL     OW 7525   2.838   5.702   4.029
 2209SOL    HW1 7526   2.842   5.741   4.121
 2209SOL    HW2 7527   2.747   5.663   4.012
 2210SOL     OW 7528   4.605   0.076   0.669
 2210SOL    HW1 7529   4.540   0.143   0.705
 2210SOL    HW2 7530   4.674   0.055   0.739
 2211SOL     OW 7531   0.267   1.652   1.041
 2211SOL    HW1 7532   0.299   1.715   1.112
 2211SOL    HW2 7533   0.309   1.562   1.054
 2212SOL     OW 7534   2.451   6.017   6.818
 2212SOL    HW1 7535   2.387   6.067   6.760
 2212SOL    HW2 7536   2.400   5.954   6.877
 2213SOL     OW 7537   3.434   1.521   4.405
 2213SOL    HW1 7538   3.506   1.514   4.335
 2213SOL    HW2 7539   3.475   1.546   4.493
 2214SOL     OW 7540   4.534   3.596   6.956
 2214SOL    HW1 7541   4.627   3.623   6.929
 2214SOL    HW2 7542   4.535   3.501   6.987
 2215SOL     OW 7543   4.350   0.056   6.702
 2215SOL    HW1 7544   4.302   7.003   6.754
 2215SOL    HW2 7545   4.419   0.014   6.643
 2216SOL     OW 7546   0.671   6.820   6.352
 2216SOL    HW1 7547   0.671   6.764   6.435
 2216SOL    HW2 7548   0.741   6.890   6.358
 2217SOL     OW 7549   3.903   0.453   3.634
 2217SOL    HW1 7550   3.829   0.387   3.645
 2217SOL    HW2 7551   3.954   0.459   3.720
 2218SOL     OW 7552   0.745   5.955   5.646
 2218SOL    HW1 7553   0.841   5.975   5.668
 2218SOL    HW2 7554   0.706   6.031   5.593
 2219SOL     OW 7555   5.997   1.050   0.605
 2219SOL    HW1 7556   6.052   1.021   0.526
 2219SOL    HW2 7557   6.050   1.036   0.688
 2220SOL     OW 7558   0.596   5.767   5.296
 2220SOL    HW1 7559   0.584   5.694   5.229
 2220SOL    HW2 7560   0.622   5.851   5.250
 2221SOL     OW 7561   6.576   1.293   3.918
 2221SOL    HW1 7562   6.480   1.317   3.938
 2221SOL    HW2 7563   6.584   1.270   3.821
 2222SOL     OW 7564   4.932   6.739   2.075
 2222SOL    HW1 7565   5.019   6.753   2.123
 2222SOL    HW2 7566   4.860   6.790   2.123
 2223SOL     OW 7567   0.237   5.985   5.749
 2223SOL    HW1 7568   0.230   6.051   5.674
 2223SOL    HW2 7569   0.293   5.908   5.719
 2224SOL     OW 7570   5.577   4.322   0.545
 2224SOL    HW1 7571   5.573   4.239   0.601
 2224SOL    HW2 7572   5.637   4.306   0.466
 2225SOL     OW 7573   0.268   6.857   2.831
 2225SOL    HW1 7574   0.216   6.861   2.916
 2225SOL    HW2 7575   0.213   6.817   2.759
 2226SOL     OW 7576   2.254   5.223   0.731
 2226SOL    HW1 7577   2.175   5.162   0.739
 2226SOL    HW2 7578   2.303   5.226   0.819
 2227SOL     OW 7579   3.769   2.115   1.704
 2227SOL    HW1 7580   3.709   2.083   1.631
 2227SOL    HW2 7581   3.734   2.201   1.741
 2228SOL     OW 7582   5.554   5.172   6.735
 2228SOL    HW1 7583   5.557   5.272   6.748
 2228SOL    HW2 7584   5.647   5.136   6.734
 2229SOL     OW 7585   3.661   3.299   3.792
 2229SOL    HW1 7586   3.604   3.380   3.807
 2229SOL    HW2 7587   3.740   3.324   3.736
 2230SOL     OW 7588   5.503   0.277   0.402
 2230SOL    HW1 7589   5.404   0.290   0.397
 2230SOL    HW2 7590   5.529   0.198   0.347
 2231SOL     OW 7591   1.417   0.311   6.845
 2231SOL    HW1 7592   1.438   0.400   6.804
 2231SOL    HW2 7593   1.472   0.240   6.801
 2232SOL     OW 7594   1.047   0.755   5.585
 2232SOL    HW1 7595   1.097   0.711   5.510
 2232SOL    HW2 7596   1.070   0.709   5.671
 2233SOL     OW 7597   2.819   4.059   0.717
 2233SOL    HW1 7598   2.815   4.079   0.815
 2233SOL    HW2 7599   2.732   4.085   0.674
 2234SOL     OW 7600   4.883   1.403   1.502
 2234SOL    HW1 7601   4.894   1.454   1.416
 2234SOL    HW2 7602   4.921   1.457   1.577
 2235SOL     OW 7603   1.433   1.654   3.357
 2235SOL    HW1 7604   1.527   1.687   3.342
 2235SOL    HW2 7605   1.401   1.685   3.446
 2236SOL     OW 7606   2.010   4.132   5.339
 2236SOL    HW1 7607   2.011   4.208   5.403
 2236SOL    HW2 7608   1.976   4.163   5.250
 2237SOL     OW 7609   6.579   5.573   5.867
 2237SOL    HW1 7610   6.483   5.586   5.890
 2237SOL    HW2 7611   6.635   5.581   5.950
 2238SOL     OW 7612   5.418   4.292   2.234
 2238SOL    HW1 7613   5.491   4.260   2.294
 2238SOL    HW2 7614   5.421   4.392   2.228
 2239SOL     OW 7615   4.082   6.851   3.322
 2239SOL    HW1 7616   4.145   6.902   3.381
 2239SOL    HW2 7617   4.018   6.798   3.378
 2240SOL     OW 7618   5.108   5.160   3.218
 2240SOL    HW1 7619   5.184   5.096   3.205
 2240SOL    HW2 7620   5.022   5.114   3.195
 2241SOL     OW 7621   0.560   0.573   1.759
 2241SOL    HW1 7622   0.562   0.672   1.768
 2241SOL    HW2 7623   0.531   0.548   1.667
 2242SOL     OW 7624   4.847   3.063   3.237
 2242SOL    HW1 7625   4.940   3.036   3.212
 2242SOL    HW2 7626   4.850   3.140   3.300
 2243SOL     OW 7627   1.529   6.141   0.826
 2243SOL    HW1 7628   1.514   6.060   0.769
 2243SOL    HW2 7629   1.610   6.190   0.793
 2244SOL     OW 7630   2.814   0.585   0.456
 2244SOL    HW1 7631   2.871   0.506   0.434
 2244SOL    HW2 7632   2.729   0.580   0.403
 2245SOL     OW 7633   0.698   6.993   6.949
 2245SOL    HW1 7634   0.769   6.962   6.886
 2245SOL    HW2 7635   0.621   0.014   6.897
 2246SOL     OW 7636   2.340   0.956   4.915
 2246SOL    HW1 7637   2.435   0.955   4.886
 2246SOL    HW2 7638   2.332   1.000   5.005
 2247SOL     OW 7639   3.155   4.033   2.676
 2247SOL    HW1 7640   3.106   3.946   2.672
 2247SOL    HW2 7641   3.174   4.056   2.772
 2248SOL     OW 7642   4.770   4.012   4.838
 2248SOL    HW1 7643   4.708   4.090   4.829
 2248SOL    HW2 7644   4.776   3.964   4.751
 2249SOL     OW 7645   1.812   6.526   3.327
 2249SOL    HW1 7646   1.734   6.577   3.292
 2249SOL    HW2 7647   1.831   6.552   3.421
 2250SOL     OW 7648   4.373   4.569   6.495
 2250SOL    HW1 7649   4.399   4.636   6.426
 2250SOL    HW2 7650   4.453   4.512   6.518
 2251SOL     OW 7651   5.683   6.943   5.632
 2251SOL    HW1 7652   5.611   6.917   5.697
 2251SOL    HW2 7653   5.734   0.003   5.669
 2252SOL     OW 7654   4.486   1.521   3.012
 2252SOL    HW1 7655   4.401   1.562   3.044
 2252SOL    HW2 7656   4.480   1.504   2.914
 2253SOL     OW 7657   0.377   3.517   1.065
 2253SOL    HW1 7658   0.303   3.452   1.045
 2253SOL    HW2 7659   0.369   3.597   1.006
 2254SOL     OW 7660   3.629   3.592   2.714
 2254SOL    HW1 7661   3.588   3.536   2.641
 2254SOL    HW2 7662   3.623   3.688   2.689
 2255SOL     OW 7663   3.405   3.665   6.103
 2255SOL    HW1 7664   3.328   3.727   6.084
 2255SOL    HW2 7665   3.467   3.708   6.168
 2256SOL     OW 7666   4.769   6.912   2.243
 2256SOL    HW1 7667   4.814   7.000   2.230
 2256SOL    HW2 7668   4.743   6.902   2.338
 2257SOL     OW 7669   0.700   1.285   4.841
 2257SOL    HW1 7670   0.725   1.291   4.745
 2257SOL    HW2 7671   0.729   1.368   4.888
 2258SOL     OW 7672   2.746   6.003   3.825
 2258SOL    HW1 7673   2.753   6.064   3.747
 2258SOL    HW2 7674   2.803   5.923   3.810
 2259SOL     OW 7675   6.171   2.185   4.419
 2259SOL    HW1 7676   6.246   2.165   4.356
 2259SOL    HW2 7677   6.110   2.253   4.377
 2260SOL     OW 7678   1.367   3.756   1.429
 2260SOL    HW1 7679   1.331   3.667   1.401
 2260SOL    HW2 7680   1.377   3.759   1.529
 2261SOL     OW 7681   5.487   4.004   6.412
 2261SOL    HW1 7682   5.455   3.934   6.348
 2261SOL    HW2 7683   5.562   3.968   6.467
 2262SOL     OW 7684   6.417   0.394   4.395
 2262SOL    HW1 7685   6.465   0.343   4.466
 2262SOL    HW2 7686   6.447   0.362   4.305
 2263SOL     OW 7687   1.240   4.894   6.606
 2263SOL    HW1 7688   1.245   4.805   6.650
 2263SOL    HW2 7689   1.212   4.963   6.672
 2264SOL     OW 7690   2.207   0.178   5.498
 2264SOL    HW1 7691   2.150   0.101   5.526
 2264SOL    HW2 7692   2.243   0.224   5.579
 2265SOL     OW 7693   0.712   6.102   4.442
 2265SOL    HW1 7694   0.704   6.056   4.354
 2265SOL    HW2 7695   0.633   6.162   4.455
 2266SOL     OW 7696   4.541   1.770   6.837
 2266SOL    HW1 7697   4.489   1.778   6.922
 2266SOL    HW2 7698   4.583   1.679   6.832
 2267SOL     OW 7699   4.844   2.779   4.465
 2267SOL    HW1 7700   4.904   2.789   4.386
 2267SOL    HW2 7701   4.762   2.729   4.438
 2268SOL     OW 7702   0.256   5.025   5.824
 2268SOL    HW1 7703   0.271   5.115   5.782
 2268SOL    HW2 7704   0.203   5.036   5.908
 2269SOL     OW 7705   2.123   2.622   5.092
 2269SOL    HW1 7706   2.119   2.576   5.180
 2269SOL    HW2 7707   2.202   2.684   5.089
 2270SOL     OW 7708   4.695   1.549   6.076
 2270SOL    HW1 7709   4.751   1.608   6.018
 2270SOL    HW2 7710   4.710   1.454   6.051
 2271SOL     OW 7711   5.308   4.915   6.011
 2271SOL    HW1 7712   5.231   4.858   6.040
 2271SOL    HW2 7713   5.336   4.888   5.919
 2272SOL     OW 7714   5.862   1.128   6.120
 2272SOL    HW1 7715   5.814   1.170   6.197
 2272SOL    HW2 7716   5.798   1.115   6.044
 2273SOL     OW 7717   1.598   2.891   2.290
 2273SOL    HW1 7718   1.543   2.837   2.227
 2273SOL    HW2 7719   1.656   2.954   2.238
 2274SOL     OW 7720   0.445   1.212   6.473
 2274SOL    HW1 7721   0.525   1.269   6.456
 2274SOL    HW2 7722   0.452   1.171   6.564
 2275SOL     OW 7723   5.919   4.876   2.369
 2275SOL    HW1 7724   5.942   4.803   2.434
 2275SOL    HW2 7725   5.904   4.961   2.419
 2276SOL     OW 7726   1.292   1.994   0.927
 2276SOL    HW1 7727   1.388   2.008   0.952
 2276SOL    HW2 7728   1.242   2.079   0.939
 2277SOL     OW 7729   3.703   3.564   3.480
 2277SOL    HW1 7730   3.685   3.540   3.384
 2277SOL    HW2 7731   3.617   3.566   3.531
 2278SOL     OW 7732   0.497   1.820   3.972
 2278SOL    HW1 7733   0.411   1.826   3.921
 2278SOL    HW2 7734   0.542   1.733   3.951
 2279SOL     OW 7735   0.546   6.131   5.509
 2279SOL    HW1 7736   0.493   6.068   5.454
 2279SOL    HW2 7737   0.636   6.145   5.467
 2280SOL     OW 7738   4.939   1.657   5.146
 2280SOL    HW1 7739   4.844   1.656   5.115
 2280SOL    HW2 7740   4.967   1.563   5.169
 2281SOL     OW 7741   5.264   6.897   2.606
 2281SOL    HW1 7742   5.320   6.851   2.675
 2281SOL    HW2 7743   5.322   6.923   2.529
 2282SOL     OW 7744   4.259   5.864   5.579
 2282SOL    HW1 7745   4.256   5.960   5.549
 2282SOL    HW2 7746   4.174   5.842   5.627
 2283SOL     OW 7747   0.662   0.415   3.850
 2283SOL    HW1 7748   0.696   0.506   3.872
 2283SOL    HW2 7749   0.640   0.366   3.934
 2284SOL     OW 7750   1.365   3.242   6.763
 2284SOL    HW1 7751   1.438   3.262   6.829
 2284SOL    HW2 7752   1.387   3.284   6.675
 2285SOL     OW 7753   1.505   4.481   6.400
 2285SOL    HW1 7754   1.489   4.483   6.499
 2285SOL    HW2 7755   1.599   4.511   6.381
 2286SOL     OW 7756   4.864   6.043   4.255
 2286SOL    HW1 7757   4.769   6.059   4.282
 2286SOL    HW2 7758   4.915   6.007   4.332
 2287SOL     OW 7759   1.956   0.793   3.345
 2287SOL    HW1 7760   2.050   0.826   3.355
 2287SOL    HW2 7761   1.934   0.784   3.248
 2288SOL     OW 7762   7.014   6.304   2.886
 2288SOL    HW1 7763   0.010   6.378   2.821
 2288SOL    HW2 7764   7.003   6.342   2.978
 2289SOL     OW 7765   0.999   5.790   1.902
 2289SOL    HW1 7766   1.057   5.810   1.982
 2289SOL    HW2 7767   1.027   5.847   1.825
 2290SOL     OW 7768   0.904   5.240   0.608
 2290SOL    HW1 7769   0.863   5.193   0.686
 2290SOL    HW2 7770   1.003   5.224   0.607
 2291SOL     OW 7771   2.866   1.938   6.202
 2291SOL    HW1 7772   2.787   1.971   6.151
 2291SOL    HW2 7773   2.835   1.880   6.278
 2292SOL     OW 7774   1.329   1.126   4.434
 2292SOL    HW1 7775   1.422   1.146   4.403
 2292SOL    HW2 7776   1.332   1.092   4.527
 2293SOL     OW 7777   5.493   5.063   2.147
 2293SOL    HW1 7778   5.495   4.994   2.075
 2293SOL    HW2 7779   5.586   5.081   2.178
 2294SOL     OW 7780   4.367   6.290   6.787
 2294SOL    HW1 7781   4.282   6.259   6.830
 2294SOL    HW2 7782   4.426   6.211   6.771
 2295SOL     OW 7783   0.191   2.123   1.239
 2295SOL    HW1 7784   0.289   2.118   1.218
 2295SOL    HW2 7785   0.140   2.150   1.157
 2296SOL     OW 7786   3.303   6.755   0.081
 2296SOL    HW1 7787   3.366   6.731   0.008
 2296SOL    HW2 7788   3.210   6.729   0.054
 2297SOL     OW 7789   4.230   5.164   5.716
 2297SOL    HW1 7790   4.163   5.236   5.733
 2297SOL    HW2 7791   4.245   5.111   5.799
 2298SOL     OW 7792   3.873   3.089   0.918
 2298SOL    HW1 7793   3.865   2.998   0.960
 2298SOL    HW2 7794   3.962   3.128   0.939
 2299SOL     OW 7795   5.018   5.622   6.765
 2299SOL    HW1 7796   5.113   5.652   6.758
 2299SOL    HW2 7797   4.989   5.579   6.680
 2300SOL     OW 7798   1.900   5.226   1.016
 2300SOL    HW1 7799   1.923   5.321   1.036
 2300SOL    HW2 7800   1.894   5.214   0.917
 2301SOL     OW 7801   4.030   3.262   2.655
 2301SOL    HW1 7802   4.100   3.309   2.708
 2301SOL    HW2 7803   3.943   3.266   2.703
 2302SOL     OW 7804   3.103   5.843   2.606
 2302SOL    HW1 7805   3.082   5.826   2.702
 2302SOL    HW2 7806   3.200   5.867   2.597
 2303SOL     OW 7807   1.378   2.569   4.459
 2303SOL    HW1 7808   1.327   2.601   4.379
 2303SOL    HW2 7809   1.439   2.495   4.432
 2304SOL     OW 7810   2.000   1.057   3.960
 2304SOL    HW1 7811   2.022   0.985   4.025
 2304SOL    HW2 7812   2.045   1.142   3.987
 2305SOL     OW 7813   3.046   5.381   2.323
 2305SOL    HW1 7814   3.141   5.357   2.305
 2305SOL    HW2 7815   3.032   5.391   2.421
 2306SOL     OW 7816   1.549   4.049   1.225
 2306SOL    HW1 7817   1.494   4.027   1.305
 2306SOL    HW2 7818   1.636   3.998   1.229
 2307SOL     OW 7819   0.486   2.584   2.895
 2307SOL    HW1 7820   0.523   2.608   2.806
 2307SOL    HW2 7821   0.399   2.537   2.884
 2308SOL     OW 7822   0.241   6.867   6.909
 2308SOL    HW1 7823   0.316   6.873   6.974
 2308SOL    HW2 7824   0.279   6.859   6.816
 2309SOL     OW 7825   3.628   5.610   6.453
 2309SOL    HW1 7826   3.622   5.533   6.517
 2309SOL    HW2 7827   3.723   5.624   6.426
 2310SOL     OW 7828   5.350   1.021   1.831
 2310SOL    HW1 7829   5.254   1.050   1.825
 2310SOL    HW2 7830   5.353   0.922   1.846
 2311SOL     OW 7831   2.791   0.276   3.085
 2311SOL    HW1 7832   2.828   0.184   3.076
 2311SOL    HW2 7833   2.864   0.343   3.074
 2312SOL     OW 7834   4.086   0.699   3.181
 2312SOL    HW1 7835   4.164   0.674   3.124
 2312SOL    HW2 7836   4.067   0.625   3.246
 2313SOL     OW 7837   5.026   4.013   2.051
 2313SOL    HW1 7838   5.125   4.020   2.061
 2313SOL    HW2 7839   5.002   3.918   2.027
 2314SOL     OW 7840   6.194   0.096   3.515
 2314SOL    HW1 7841   6.197   0.191   3.483
 2314SOL    HW2 7842   6.099   0.063   3.511
 2315SOL     OW 7843   4.402   4.638   5.700
 2315SOL    HW1 7844   4.470   4.680   5.760
 2315SOL    HW2 7845   4.319   4.695   5.701
 2316SOL     OW 7846   3.060   1.030   6.020
 2316SOL    HW1 7847   3.095   1.121   6.044
 2316SOL    HW2 7848   2.975   1.040   5.968
 2317SOL     OW 7849   5.924   6.148   3.826
 2317SOL    HW1 7850   5.947   6.177   3.733
 2317SOL    HW2 7851   5.837   6.187   3.853
 2318SOL     OW 7852   1.992   4.560   4.968
 2318SOL    HW1 7853   2.033   4.523   5.051
 2318SOL    HW2 7854   2.045   4.638   4.936
 2319SOL     OW 7855   2.460   5.128   4.475
 2319SOL    HW1 7856   2.445   5.085   4.386
 2319SOL    HW2 7857   2.557   5.151   4.486
 2320SOL     OW 7858   1.034   3.348   5.171
 2320SOL    HW1 7859   1.078   3.347   5.081
 2320SOL    HW2 7860   1.102   3.368   5.242
 2321SOL     OW 7861   2.990   5.037   6.328
 2321SOL    HW1 7862   2.906   4.983   6.335
 2321SOL    HW2 7863   2.986   5.114   6.392
 2322SOL     OW 7864   2.064   3.530   2.472
 2322SOL    HW1 7865   2.051   3.483   2.559
 2322SOL    HW2 7866   2.033   3.472   2.397
 2323SOL     OW 7867   2.531   4.836   1.448
 2323SOL    HW1 7868   2.612   4.854   1.504
 2323SOL    HW2 7869   2.559   4.785   1.366
 2324SOL     OW 7870   0.833   5.310   2.079
 2324SOL    HW1 7871   0.845   5.394   2.132
 2324SOL    HW2 7872   0.742   5.272   2.097
 2325SOL     OW 7873   7.013   5.292   1.764
 2325SOL    HW1 7874   0.051   5.211   1.748
 2325SOL    HW2 7875   6.954   5.277   1.844
 2326SOL     OW 7876   1.205   0.378   6.626
 2326SOL    HW1 7877   1.297   0.374   6.665
 2326SOL    HW2 7878   1.209   0.418   6.534
 2327SOL     OW 7879   6.856   0.302   2.332
 2327SOL    HW1 7880   6.954   0.288   2.343
 2327SOL    HW2 7881   6.821   0.358   2.408
 2328SOL     OW 7882   1.505   2.067   2.302
 2328SOL    HW1 7883   1.452   1.982   2.306
 2328SOL    HW2 7884   1.602   2.046   2.318
 2329SOL     OW 7885   1.073   5.064   3.766
 2329SOL    HW1 7886   1.162   5.090   3.804
 2329SOL    HW2 7887   1.009   5.140   3.776
 2330SOL     OW 7888   6.587   3.278   0.338
 2330SOL    HW1 7889   6.614   3.372   0.361
 2330SOL    HW2 7890   6.572   3.226   0.422
 2331SOL     OW 7891   3.569   5.954   0.353
 2331SOL    HW1 7892   3.510   5.987   0.279
 2331SOL    HW2 7893   3.588   5.857   0.341
 2332SOL     OW 7894   5.442   0.112   6.192
 2332SOL    HW1 7895   5.407   0.034   6.244
 2332SOL    HW2 7896   5.518   0.083   6.134
 2333SOL     OW 7897   6.928   5.208   2.754
 2333SOL    HW1 7898   7.003   5.273   2.768
 2333SOL    HW2 7899   6.941   5.159   2.668
 2334SOL     OW 7900   2.878   1.125   5.843
 2334SOL    HW1 7901   2.803   1.180   5.807
 2334SOL    HW2 7902   2.959   1.139   5.786
 2335SOL     OW 7903   5.863   2.054   3.815
 2335SOL    HW1 7904   5.854   1.959   3.844
 2335SOL    HW2 7905   5.953   2.068   3.774
 2336SOL     OW 7906   2.154   1.641   3.610
 2336SOL    HW1 7907   2.187   1.703   3.538
 2336SOL    HW2 7908   2.168   1.684   3.699
 2337SOL     OW 7909   4.172   2.210   1.483
 2337SOL    HW1 7910   4.263   2.247   1.498
 2337SOL    HW2 7911   4.110   2.284   1.455
 2338SOL     OW 7912   0.396   3.646   3.957
 2338SOL    HW1 7913   0.453   3.612   4.032
 2338SOL    HW2 7914   0.306   3.670   3.993
 2339SOL     OW 7915   2.986   3.404   2.823
 2339SOL    HW1 7916   2.996   3.336   2.750
 2339SOL    HW2 7917   3.071   3.457   2.831
 2340SOL     OW 7918   0.812   5.092   6.543
 2340SOL    HW1 7919   0.825   4.995   6.562
 2340SOL    HW2 7920   0.769   5.103   6.453
 2341SOL     OW 7921   2.227   4.426   3.209
 2341SOL    HW1 7922   2.229   4.395   3.114
 2341SOL    HW2 7923   2.177   4.360   3.265
 2342SOL     OW 7924   3.015   6.734   4.403
 2342SOL    HW1 7925   3.044   6.742   4.308
 2342SOL    HW2 7926   3.074   6.790   4.461
 2343SOL     OW 7927   1.978   6.289   2.948
 2343SOL    HW1 7928   1.906   6.224   2.972
 2343SOL    HW2 7929   1.984   6.360   3.018
 2344SOL     OW 7930   6.626   4.853   0.827
 2344SOL    HW1 7931   6.719   4.878   0.801
 2344SOL    HW2 7932   6.628   4.769   0.881
 2345SOL     OW 7933   2.799   5.753   4.642
 2345SOL    HW1 7934   2.753   5.788   4.561
 2345SOL    HW2 7935   2.860   5.678   4.617
 2346SOL     OW 7936   3.882   3.494   6.024
 2346SOL    HW1 7937   3.977   3.466   6.041
 2346SOL    HW2 7938   3.837   3.425   5.967
 2347SOL     OW 7939   1.284   1.835   1.567
 2347SOL    HW1 7940   1.193   1.813   1.601
 2347SOL    HW2 7941   1.332   1.750   1.543
 2348SOL     OW 7942   1.503   6.406   3.107
 2348SOL    HW1 7943   1.529   6.394   3.012
 2348SOL    HW2 7944   1.585   6.422   3.162
 2349SOL     OW 7945   0.732   3.834   6.557
 2349SOL    HW1 7946   0.730   3.904   6.628
 2349SOL    HW2 7947   0.806   3.769   6.577
 2350SOL     OW 7948   6.073   4.114   5.626
 2350SOL    HW1 7949   6.107   4.027   5.589
 2350SOL    HW2 7950   6.011   4.156   5.560
 2351SOL     OW 7951   2.981   4.770   2.949
 2351SOL    HW1 7952   2.891   4.726   2.952
 2351SOL    HW2 7953   3.010   4.793   3.041
 2352SOL     OW 7954   6.846   3.010   3.475
 2352SOL    HW1 7955   6.896   2.969   3.399
 2352SOL    HW2 7956   6.864   3.108   3.477
 2353SOL     OW 7957   4.301   5.036   5.482
 2353SOL    HW1 7958   4.292   5.099   5.404
 2353SOL    HW2 7959   4.276   5.084   5.566
 2354SOL     OW 7960   3.006   2.204   4.489
 2354SOL    HW1 7961   2.933   2.271   4.500
 2354SOL    HW2 7962   3.057   2.195   4.575
 2355SOL     OW 7963   2.356   6.243   4.599
 2355SOL    HW1 7964   2.448   6.275   4.618
 2355SOL    HW2 7965   2.296   6.322   4.583
 2356SOL     OW 7966   0.773   3.027   6.880
 2356SOL    HW1 7967   0.832   3.004   6.802
 2356SOL    HW2 7968   0.799   2.972   6.959
 2357SOL     OW 7969   3.261   1.001   2.117
 2357SOL    HW1 7970   3.333   1.035   2.176
 2357SOL    HW2 7971   3.192   1.072   2.103
 2358SOL     OW 7972   2.830   4.508   6.224
 2358SOL    HW1 7973   2.831   4.591   6.280
 2358SOL    HW2 7974   2.900   4.515   6.153
 2359SOL     OW 7975   1.219   6.971   5.322
 2359SOL    HW1 7976   1.119   6.964   5.310
 2359SOL    HW2 7977   1.243   0.047   5.346
 2360SOL     OW 7978   6.230   3.823   0.982
 2360SOL    HW1 7979   6.268   3.780   1.064
 2360SOL    HW2 7980   6.246   3.764   0.903
 2361SOL     OW 7981   2.777   1.087   6.315
 2361SOL    HW1 7982   2.822   1.163   6.362
 2361SOL    HW2 7983   2.783   1.004   6.371
 2362SOL     OW 7984   3.367   5.158   3.476
 2362SOL    HW1 7985   3.382   5.068   3.435
 2362SOL    HW2 7986   3.296   5.152   3.546
 2363SOL     OW 7987   4.004   2.151   3.406
 2363SOL    HW1 7988   4.045   2.060   3.413
 2363SOL    HW2 7989   3.944   2.167   3.484
 2364SOL     OW 7990   1.098   2.453   1.453
 2364SOL    HW1 7991   1.040   2.373   1.468
 2364SOL    HW2 7992   1.054   2.534   1.492
 2365SOL     OW 7993   5.978   2.398   0.024
 2365SOL    HW1 7994   5.892   2.390   0.074
 2365SOL    HW2 7995   6.027   2.311   0.029
 2366SOL     OW 7996   3.803   5.340   0.665
 2366SOL    HW1 7997   3.727   5.336   0.730
 2366SOL    HW2 7998   3.843   5.249   0.654
 2367SOL     OW 7999   2.317   2.983   0.413
 2367SOL    HW1 8000   2.256   2.947   0.483
 2367SOL    HW2 8001   2.331   3.081   0.427
 2368SOL     OW 8002   5.716   0.170   4.067
 2368SOL    HW1 8003   5.690   0.219   4.151
 2368SOL    HW2 8004   5.814   0.150   4.070
 2369SOL     OW 8005   1.768   0.090   3.606
 2369SOL    HW1 8006   1.848   0.139   3.572
 2369SOL    HW2 8007   1.782   0.069   3.703
 2370SOL     OW 8008   5.922   2.585   6.533
 2370SOL    HW1 8009   5.895   2.575   6.628
 2370SOL    HW2 8010   6.017   2.618   6.529
 2371SOL     OW 8011   2.029   0.189   1.560
 2371SOL    HW1 8012   2.037   0.105   1.507
 2371SOL    HW2 8013   2.091   0.185   1.639
 2372SOL     OW 8014   6.875   2.730   2.238
 2372SOL    HW1 8015   6.930   2.784   2.174
 2372SOL    HW2 8016   6.887   2.633   2.218
 2373SOL     OW 8017   2.049   3.787   5.740
 2373SOL    HW1 8018   2.024   3.819   5.649
 2373SOL    HW2 8019   1.977   3.728   5.776
 2374SOL     OW 8020   6.544   1.923   5.122
 2374SOL    HW1 8021   6.452   1.885   5.116
 2374SOL    HW2 8022   6.550   2.006   5.067
 2375SOL     OW 8023   3.450   5.357   5.566
 2375SOL    HW1 8024   3.414   5.431   5.510
 2375SOL    HW2 8025   3.499   5.292   5.509
 2376SOL     OW 8026   6.191   3.637   3.519
 2376SOL    HW1 8027   6.192   3.620   3.618
 2376SOL    HW2 8028   6.184   3.551   3.470
 2377SOL     OW 8029   3.376   3.881   3.945
 2377SOL    HW1 8030   3.321   3.814   3.995
 2377SOL    HW2 8031   3.319   3.959   3.922
 2378SOL     OW 8032   4.850   2.078   0.258
 2378SOL    HW1 8033   4.896   2.092   0.170
 2378SOL    HW2 8034   4.767   2.133   0.262
 2379SOL     OW 8035   6.544   0.908   0.609
 2379SOL    HW1 8036   6.634   0.911   0.653
 2379SOL    HW2 8037   6.513   1.001   0.588
 2380SOL     OW 8038   6.959   2.786   0.681
 2380SOL    HW1 8039   6.865   2.803   0.711
 2380SOL    HW2 8040   6.962   2.786   0.581
 2381SOL     OW 8041   2.033   5.587   3.171
 2381SOL    HW1 8042   2.007   5.502   3.216
 2381SOL    HW2 8043   2.127   5.579   3.138
 2382SOL     OW 8044   1.760   3.457   4.565
 2382SOL    HW1 8045   1.756   3.556   4.549
 2382SOL    HW2 8046   1.758   3.439   4.663
 2383SOL     OW 8047   6.966   6.391   0.872
 2383SOL    HW1 8048   6.917   6.462   0.922
 2383SOL    HW2 8049   6.900   6.334   0.823
 2384SOL     OW 8050   4.919   1.861   2.026
 2384SOL    HW1 8051   5.007   1.906   2.036
 2384SOL    HW2 8052   4.918   1.776   2.079
 2385SOL     OW 8053   0.246   0.843   6.823
 2385SOL    HW1 8054   0.212   0.859   6.916
 2385SOL    HW2 8055   0.341   0.810   6.828
 2386SOL     OW 8056   5.050   5.961   5.398
 2386SOL    HW1 8057   5.101   6.015   5.465
 2386SOL    HW2 8058   4.963   6.006   5.379
 2387SOL     OW 8059   1.539   0.895   3.938
 2387SOL    HW1 8060   1.529   0.975   3.997
 2387SOL    HW2 8061   1.494   0.912   3.850
 2388SOL     OW 8062   6.535   3.069   3.881
 2388SOL    HW1 8063   6.511   3.004   3.954
 2388SOL    HW2 8064   6.602   3.026   3.820
 2389SOL     OW 8065   4.499   4.618   3.600
 2389SOL    HW1 8066   4.587   4.654   3.571
 2389SOL    HW2 8067   4.486   4.635   3.697
 2390SOL     OW 8068   4.010   3.817   2.761
 2390SOL    HW1 8069   3.959   3.895   2.725
 2390SOL    HW2 8070   4.028   3.831   2.859
 2391SOL     OW 8071   4.776   4.676   6.289
 2391SOL    HW1 8072   4.796   4.593   6.342
 2391SOL    HW2 8073   4.744   4.650   6.198
 2392SOL     OW 8074   2.586   0.013   6.496
 2392SOL    HW1 8075   2.650   7.015   6.571
 2392SOL    HW2 8076   2.520   0.083   6.523
 2393SOL     OW 8077   4.608   4.372   6.552
 2393SOL    HW1 8078   4.703   4.384   6.523
 2393SOL    HW2 8079   4.602   4.386   6.651
 2394SOL     OW 8080   0.001   4.282   5.005
 2394SOL    HW1 8081   0.093   4.320   5.008
 2394SOL    HW2 8082   7.013   4.203   5.066
 2395SOL     OW 8083   4.389   6.300   5.914
 2395SOL    HW1 8084   4.404   6.248   5.998
 2395SOL    HW2 8085   4.438   6.257   5.838
 2396SOL     OW 8086   4.010   5.270   1.016
 2396SOL    HW1 8087   4.068   5.352   1.011
 2396SOL    HW2 8088   3.920   5.295   1.052
 2397SOL     OW 8089   0.573   4.133   4.242
 2397SOL    HW1 8090   0.617   4.057   4.290
 2397SOL    HW2 8091   0.516   4.096   4.167
 2398SOL     OW 8092   5.131   4.412   6.289
 2398SOL    HW1 8093   5.157   4.465   6.209
 2398SOL    HW2 8094   5.158   4.461   6.372
 2399SOL     OW 8095   4.577   1.238   1.328
 2399SOL    HW1 8096   4.609   1.143   1.324
 2399SOL    HW2 8097   4.609   1.280   1.413
 2400SOL     OW 8098   2.616   4.214   0.414
 2400SOL    HW1 8099   2.693   4.150   0.409
 2400SOL    HW2 8100   2.649   4.307   0.399
 2401SOL     OW 8101   5.886   6.174   5.880
 2401SOL    HW1 8102   5.881   6.093   5.823
 2401SOL    HW2 8103   5.914   6.148   5.973
 2402SOL     OW 8104   0.762   6.715   4.103
 2402SOL    HW1 8105   0.739   6.641   4.166
 2402SOL    HW2 8106   0.847   6.693   4.055
 2403SOL     OW 8107   1.022   2.772   5.368
 2403SOL    HW1 8108   1.038   2.749   5.272
 2403SOL    HW2 8109   1.025   2.871   5.379
 2404SOL     OW 8110   2.358   0.871   1.066
 2404SOL    HW1 8111   2.349   0.964   1.099
 2404SOL    HW2 8112   2.389   0.811   1.140
 2405SOL     OW 8113   3.433   4.117   2.611
 2405SOL    HW1 8114   3.479   4.085   2.529
 2405SOL    HW2 8115   3.335   4.128   2.593
 2406SOL     OW 8116   4.121   1.607   0.847
 2406SOL    HW1 8117   4.204   1.614   0.792
 2406SOL    HW2 8118   4.050   1.558   0.795
 2407SOL     OW 8119   5.270   1.538   3.616
 2407SOL    HW1 8120   5.230   1.572   3.701
 2407SOL    HW2 8121   5.297   1.615   3.558
 2408SOL     OW 8122   4.725   4.455   1.949
 2408SOL    HW1 8123   4.810   4.468   2.001
 2408SOL    HW2 8124   4.671   4.382   1.991
 2409SOL     OW 8125   2.196   3.546   1.148
 2409SOL    HW1 8126   2.176   3.632   1.101
 2409SOL    HW2 8127   2.153   3.547   1.239
 2410SOL     OW 8128   3.214   3.082   3.598
 2410SOL    HW1 8129   3.286   3.152   3.595
 2410SOL    HW2 8130   3.164   3.082   3.511
 2411SOL     OW 8131   5.312   6.539   4.946
 2411SOL    HW1 8132   5.313   6.555   4.847
 2411SOL    HW2 8133   5.368   6.459   4.967
 2412SOL     OW 8134   5.185   3.917   1.078
 2412SOL    HW1 8135   5.097   3.900   1.033
 2412SOL    HW2 8136   5.193   3.857   1.158
 2413SOL     OW 8137   5.251   0.362   1.934
 2413SOL    HW1 8138   5.202   0.353   1.847
 2413SOL    HW2 8139   5.332   0.418   1.921
 2414SOL     OW 8140   4.845   3.119   3.819
 2414SOL    HW1 8141   4.843   3.028   3.778
 2414SOL    HW2 8142   4.775   3.125   3.891
 2415SOL     OW 8143   5.431   1.413   2.859
 2415SOL    HW1 8144   5.368   1.451   2.791
 2415SOL    HW2 8145   5.392   1.422   2.950
 2416SOL     OW 8146   5.053   1.645   6.348
 2416SOL    HW1 8147   5.082   1.573   6.286
 2416SOL    HW2 8148   5.102   1.637   6.435
 2417SOL     OW 8149   3.114   3.051   4.739
 2417SOL    HW1 8150   3.190   3.024   4.798
 2417SOL    HW2 8151   3.064   2.970   4.710
 2418SOL     OW 8152   3.420   3.249   3.499
 2418SOL    HW1 8153   3.409   3.257   3.400
 2418SOL    HW2 8154   3.446   3.337   3.538
 2419SOL     OW 8155   0.477   0.068   3.018
 2419SOL    HW1 8156   0.383   0.094   2.995
 2419SOL    HW2 8157   0.525   0.039   2.936
 2420SOL     OW 8158   2.696   0.059   1.573
 2420SOL    HW1 8159   2.717   0.138   1.630
 2420SOL    HW2 8160   2.774   7.014   1.571
 2421SOL     OW 8161   1.759   2.553   4.946
 2421SOL    HW1 8162   1.777   2.512   5.036
 2421SOL    HW2 8163   1.728   2.647   4.957
 2422SOL     OW 8164   5.216   2.185   1.160
 2422SOL    HW1 8165   5.120   2.213   1.155
 2422SOL    HW2 8166   5.269   2.259   1.202
 2423SOL     OW 8167   2.172   5.565   2.412
 2423SOL    HW1 8168   2.218   5.514   2.339
 2423SOL    HW2 8169   2.188   5.663   2.401
 2424SOL     OW 8170   5.940   1.202   0.162
 2424SOL    HW1 8171   6.035   1.186   0.134
 2424SOL    HW2 8172   5.935   1.289   0.211
 2425SOL     OW 8173   6.178   6.829   3.723
 2425SOL    HW1 8174   6.090   6.829   3.771
 2425SOL    HW2 8175   6.179   6.904   3.656
 2426SOL     OW 8176   2.306   4.313   4.341
 2426SOL    HW1 8177   2.325   4.335   4.437
 2426SOL    HW2 8178   2.357   4.375   4.282
 2427SOL     OW 8179   6.116   6.134   5.169
 2427SOL    HW1 8180   6.213   6.115   5.182
 2427SOL    HW2 8181   6.098   6.231   5.187
 2428SOL     OW 8182   0.561   0.697   1.118
 2428SOL    HW1 8183   0.638   0.674   1.059
 2428SOL    HW2 8184   0.488   0.629   1.105
 2429SOL     OW 8185   4.706   5.832   2.159
 2429SOL    HW1 8186   4.673   5.866   2.071
 2429SOL    HW2 8187   4.803   5.853   2.169
 2430SOL     OW 8188   6.303   0.636   2.868
 2430SOL    HW1 8189   6.353   0.722   2.871
 2430SOL    HW2 8190   6.212   0.652   2.828
 2431SOL     OW 8191   4.260   0.777   1.857
 2431SOL    HW1 8192   4.254   0.712   1.933
 2431SOL    HW2 8193   4.336   0.750   1.797
 2432SOL     OW 8194   3.583   6.305   2.473
 2432SOL    HW1 8195   3.601   6.381   2.536
 2432SOL    HW2 8196   3.629   6.324   2.386
 2433SOL     OW 8197   4.077   0.323   6.867
 2433SOL    HW1 8198   4.100   0.375   6.949
 2433SOL    HW2 8199   4.160   0.294   6.821
 2434SOL     OW 8200   3.651   1.871   6.024
 2434SOL    HW1 8201   3.632   1.950   6.082
 2434SOL    HW2 8202   3.646   1.898   5.928
 2435SOL     OW 8203   5.979   5.471   4.772
 2435SOL    HW1 8204   6.037   5.552   4.775
 2435SOL    HW2 8205   5.883   5.497   4.784
 2436SOL     OW 8206   3.230   5.769   0.256
 2436SOL    HW1 8207   3.309   5.830   0.243
 2436SOL    HW2 8208   3.159   5.818   0.307
 2437SOL     OW 8209   6.585   6.482   5.678
 2437SOL    HW1 8210   6.639   6.562   5.704
 2437SOL    HW2 8211   6.502   6.511   5.631
 2438SOL     OW 8212   2.787   1.981   0.839
 2438SOL    HW1 8213   2.838   1.909   0.884
 2438SOL    HW2 8214   2.850   2.042   0.790
 2439SOL     OW 8215   6.005   4.299   4.989
 2439SOL    HW1 8216   5.927   4.315   4.928
 2439SOL    HW2 8217   6.038   4.206   4.977
 2440SOL     OW 8218   5.776   5.137   6.138
 2440SOL    HW1 8219   5.861   5.113   6.091
 2440SOL    HW2 8220   5.702   5.078   6.105
 2441SOL     OW 8221   6.058   2.261   1.078
 2441SOL    HW1 8222   6.129   2.265   1.008
 2441SOL    HW2 8223   6.101   2.261   1.168
 2442SOL     OW 8224   0.071   3.877   4.985
 2442SOL    HW1 8225   6.989   3.882   4.995
 2442SOL    HW2 8226   0.095   3.804   4.922
 2443SOL     OW 8227   2.622   4.821   6.101
 2443SOL    HW1 8228   2.534   4.867   6.088
 2443SOL    HW2 8229   2.655   4.786   6.013
 2444SOL     OW 8230   2.856   3.697   5.709
 2444SOL    HW1 8231   2.787   3.689   5.781
 2444SOL    HW2 8232   2.851   3.617   5.649
 2445SOL     OW 8233   0.812   0.639   0.926
 2445SOL    HW1 8234   0.828   0.565   0.862
 2445SOL    HW2 8235   0.863   0.622   1.011
 2446SOL     OW 8236   6.403   4.362   6.102
 2446SOL    HW1 8237   6.426   4.267   6.082
 2446SOL    HW2 8238   6.460   4.423   6.046
 2447SOL     OW 8239   0.628   1.989   6.566
 2447SOL    HW1 8240   0.596   1.994   6.472
 2447SOL    HW2 8241   0.643   1.894   6.591
 2448SOL     OW 8242   1.244   0.028   4.310
 2448SOL    HW1 8243   1.247   7.005   4.218
 2448SOL    HW2 8244   1.324   7.017   4.362
 2449SOL     OW 8245   0.214   2.930   5.431
 2449SOL    HW1 8246   0.282   2.984   5.382
 2449SOL    HW2 8247   0.232   2.936   5.529
 2450SOL     OW 8248   2.114   3.408   2.979
 2450SOL    HW1 8249   2.055   3.487   2.998
 2450SOL    HW2 8250   2.136   3.361   3.064
 2451SOL     OW 8251   2.473   6.589   3.962
 2451SOL    HW1 8252   2.477   6.494   3.930
 2451SOL    HW2 8253   2.424   6.593   4.049
 2452SOL     OW 8254   1.211   2.393   4.133
 2452SOL    HW1 8255   1.244   2.396   4.039
 2452SOL    HW2 8256   1.280   2.348   4.191
 2453SOL     OW 8257   0.445   3.761   1.747
 2453SOL    HW1 8258   0.410   3.833   1.808
 2453SOL    HW2 8259   0.433   3.789   1.652
 2454SOL     OW 8260   2.373   0.993   2.130
 2454SOL    HW1 8261   2.303   0.977   2.061
 2454SOL    HW2 8262   2.331   1.034   2.211
 2455SOL     OW 8263   5.517   5.555   0.520
 2455SOL    HW1 8264   5.465   5.490   0.465
 2455SOL    HW2 8265   5.607   5.568   0.479
 2456SOL     OW 8266   3.836   6.252   1.223
 2456SOL    HW1 8267   3.753   6.303   1.244
 2456SOL    HW2 8268   3.916   6.304   1.256
 2457SOL     OW 8269   5.709   6.366   1.394
 2457SOL    HW1 8270   5.703   6.292   1.462
 2457SOL    HW2 8271   5.797   6.362   1.347
 2458SOL     OW 8272   0.530   5.806   3.554
 2458SOL    HW1 8273   0.567   5.898   3.546
 2458SOL    HW2 8274   0.448   5.809   3.613
 2459SOL     OW 8275   1.881   0.684   0.614
 2459SOL    HW1 8276   1.925   0.598   0.640
 2459SOL    HW2 8277   1.801   0.665   0.558
 2460SOL     OW 8278   3.284   5.344   1.351
 2460SOL    HW1 8279   3.281   5.293   1.437
 2460SOL    HW2 8280   3.356   5.412   1.356
 2461SOL     OW 8281   5.692   1.381   3.187
 2461SOL    HW1 8282   5.611   1.389   3.245
 2461SOL    HW2 8283   5.698   1.288   3.151
 2462SOL     OW 8284   2.159   4.334   6.377
 2462SOL    HW1 8285   2.131   4.239   6.364
 2462SOL    HW2 8286   2.191   4.347   6.471
 2463SOL     OW 8287   6.925   1.700   3.932
 2463SOL    HW1 8288   6.906   1.674   3.837
 2463SOL    HW2 8289   0.007   1.705   3.946
 2464SOL     OW 8290   1.428   3.320   1.178
 2464SOL    HW1 8291   1.418   3.220   1.179
 2464SOL    HW2 8292   1.508   3.345   1.124
 2465SOL     OW 8293   6.033   5.393   3.397
 2465SOL    HW1 8294   5.983   5.373   3.481
 2465SOL    HW2 8295   6.073   5.484   3.403
 2466SOL     OW 8296   3.611   1.351   2.029
 2466SOL    HW1 8297   3.684   1.415   2.053
 2466SOL    HW2 8298   3.627   1.314   1.937
 2467SOL     OW 8299   6.601   1.211   5.523
 2467SOL    HW1 8300   6.536   1.221   5.448
 2467SOL    HW2 8301   6.663   1.289   5.524
 2468SOL     OW 8302   0.091   3.866   0.459
 2468SOL    HW1 8303   0.048   3.941   0.409
 2468SOL    HW2 8304   0.184   3.852   0.425
 2469SOL     OW 8305   2.752   3.184   5.627
 2469SOL    HW1 8306   2.708   3.160   5.540
 2469SOL    HW2 8307   2.830   3.243   5.609
 2470SOL     OW 8308   5.551   3.163   0.454
 2470SOL    HW1 8309   5.494   3.229   0.503
 2470SOL    HW2 8310   5.495   3.114   0.387
 2471SOL     OW 8311   0.567   0.459   3.595
 2471SOL    HW1 8312   0.474   0.428   3.574
 2471SOL    HW2 8313   0.586   0.443   3.692
 2472SOL     OW 8314   5.466   1.458   3.378
 2472SOL    HW1 8315   5.447   1.552   3.407
 2472SOL    HW2 8316   5.508   1.408   3.453
 2473SOL     OW 8317   0.241   7.017   5.269
 2473SOL    HW1 8318   0.226   6.964   5.185
 2473SOL    HW2 8319   0.212   0.094   5.254
 2474SOL     OW 8320   5.418   5.525   4.756
 2474SOL    HW1 8321   5.453   5.483   4.840
 2474SOL    HW2 8322   5.318   5.517   4.754
 2475SOL     OW 8323   4.206   2.258   6.719
 2475SOL    HW1 8324   4.238   2.326   6.653
 2475SOL    HW2 8325   4.125   2.212   6.683
 2476SOL     OW 8326   0.224   1.952   3.478
 2476SOL    HW1 8327   0.159   1.897   3.531
 2476SOL    HW2 8328   0.315   1.943   3.518
 2477SOL     OW 8329   4.339   5.044   2.126
 2477SOL    HW1 8330   4.260   5.009   2.076
 2477SOL    HW2 8331   4.423   5.018   2.078
 2478SOL     OW 8332   6.341   6.764   3.072
 2478SOL    HW1 8333   6.248   6.729   3.080
 2478SOL    HW2 8334   6.339   6.857   3.035
 2479SOL     OW 8335   0.635   3.271   0.330
 2479SOL    HW1 8336   0.589   3.306   0.249
 2479SOL    HW2 8337   0.693   3.342   0.369
 2480SOL     OW 8338   0.972   4.346   1.667
 2480SOL    HW1 8339   1.064   4.384   1.678
 2480SOL    HW2 8340   0.921   4.356   1.753
 2481SOL     OW 8341   4.214   5.315   2.587
 2481SOL    HW1 8342   4.115   5.306   2.600
 2481SOL    HW2 8343   4.235   5.410   2.562
 2482SOL     OW 8344   4.975   2.498   4.180
 2482SOL    HW1 8345   4.906   2.431   4.208
 2482SOL    HW2 8346   4.965   2.517   4.083
 2483SOL     OW 8347   0.501   2.431   6.742
 2483SOL    HW1 8348   0.480   2.439   6.840
 2483SOL    HW2 8349   0.546   2.344   6.724
 2484SOL     OW 8350   3.192   2.318   6.392
 2484SOL    HW1 8351   3.135   2.255   6.339
 2484SOL    HW2 8352   3.209   2.400   6.337
 2485SOL     OW 8353   1.118   6.049   1.394
 2485SOL    HW1 8354   1.035   6.103   1.393
 2485SOL    HW2 8355   1.099   5.957   1.360
 2486SOL     OW 8356   0.839   5.076   3.092
 2486SOL    HW1 8357   0.746   5.060   3.061
 2486SOL    HW2 8358   0.857   5.024   3.175
 2487SOL     OW 8359   3.185   0.715   1.391
 2487SOL    HW1 8360   3.164   0.617   1.384
 2487SOL    HW2 8361   3.113   0.760   1.443
 2488SOL     OW 8362   3.502   6.237   6.247
 2488SOL    HW1 8363   3.568   6.191   6.307
 2488SOL    HW2 8364   3.421   6.261   6.300
 2489SOL     OW 8365   6.604   5.716   4.496
 2489SOL    HW1 8366   6.611   5.812   4.467
 2489SOL    HW2 8367   6.636   5.657   4.422
 2490SOL     OW 8368   5.587   3.613   1.431
 2490SOL    HW1 8369   5.584   3.668   1.347
 2490SOL    HW2 8370   5.498   3.569   1.445
 2491SOL     OW 8371   0.421   4.607   2.897
 2491SOL    HW1 8372   0.342   4.566   2.943
 2491SOL    HW2 8373   0.493   4.624   2.963
 2492SOL     OW 8374   4.365   2.576   5.972
 2492SOL    HW1 8375   4.340   2.672   5.963
 2492SOL    HW2 8376   4.284   2.519   5.955
 2493SOL     OW 8377   6.693   1.582   4.021
 2493SOL    HW1 8378   6.779   1.612   3.979
 2493SOL    HW2 8379   6.701   1.486   4.048
 2494SOL     OW 8380   4.185   4.628   1.254
 2494SOL    HW1 8381   4.199   4.560   1.182
 2494SOL    HW2 8382   4.263   4.691   1.255
 2495SOL     OW 8383   6.529   0.903   3.949
 2495SOL    HW1 8384   6.494   0.811   3.964
 2495SOL    HW2 8385   6.527   0.954   4.035
 2496SOL     OW 8386   1.752   5.643   6.572
 2496SOL    HW1 8387   1.672   5.691   6.609
 2496SOL    HW2 8388   1.750   5.648   6.472
 2497SOL     OW 8389   5.645   1.462   6.716
 2497SOL    HW1 8390   5.624   1.366   6.694
 2497SOL    HW2 8391   5.744   1.474   6.721
 2498SOL     OW 8392   0.999   3.548   4.783
 2498SOL    HW1 8393   0.999   3.647   4.768
 2498SOL    HW2 8394   1.064   3.526   4.856
 2499SOL     OW 8395   5.952   0.244   6.301
 2499SOL    HW1 8396   5.857   0.259   6.328
 2499SOL    HW2 8397   5.990   0.329   6.265
 2500SOL     OW 8398   4.590   3.613   6.446
 2500SOL    HW1 8399   4.548   3.693   6.403
 2500SOL    HW2 8400   4.627   3.552   6.376
 2501SOL     OW 8401   6.281   4.926   1.078
 2501SOL    HW1 8402   6.353   4.983   1.040
 2501SOL    HW2 8403   6.192   4.962   1.049
 2502SOL     OW 8404   1.612   6.394   2.865
 2502SOL    HW1 8405   1.555   6.463   2.820
 2502SOL    HW2 8406   1.698   6.435   2.895
 2503SOL     OW 8407   4.646   6.590   4.699
 2503SOL    HW1 8408   4.672   6.669   4.643
 2503SOL    HW2 8409   4.696   6.510   4.668
 2504SOL     OW 8410   1.886   4.348   3.337
 2504SOL    HW1 8411   1.983   4.322   3.341
 2504SOL    HW2 8412   1.843   4.304   3.259
 2505SOL     OW 8413   4.623   4.904   4.037
 2505SOL    HW1 8414   4.646   4.820   4.086
 2505SOL    HW2 8415   4.601   4.976   4.103
 2506SOL     OW 8416   0.446   1.658   0.842
 2506SOL    HW1 8417   0.361   1.685   0.887
 2506SOL    HW2 8418   0.509   1.619   0.910
 2507SOL     OW 8419   6.248   6.304   0.808
 2507SOL    HW1 8420   6.174   6.362   0.774
 2507SOL    HW2 8421   6.306   6.357   0.870
 2508SOL     OW 8422   2.431   2.668   1.793
 2508SOL    HW1 8423   2.467   2.596   1.853
 2508SOL    HW2 8424   2.486   2.751   1.804
 2509SOL     OW 8425   5.127   1.470   3.397
 2509SOL    HW1 8426   5.143   1.497   3.492
 2509SOL    HW2 8427   5.103   1.373   3.394
 2510SOL     OW 8428   4.243   5.833   1.290
 2510SOL    HW1 8429   4.179   5.763   1.256
 2510SOL    HW2 8430   4.336   5.808   1.263
 2511SOL     OW 8431   0.759   6.342   3.896
 2511SOL    HW1 8432   0.837   6.347   3.959
 2511SOL    HW2 8433   0.755   6.426   3.842
 2512SOL     OW 8434   5.136   2.991   4.097
 2512SOL    HW1 8435   5.134   2.960   4.002
 2512SOL    HW2 8436   5.062   2.947   4.149
 2513SOL     OW 8437   0.167   4.844   1.496
 2513SOL    HW1 8438   0.077   4.807   1.474
 2513SOL    HW2 8439   0.236   4.773   1.484
 2514SOL     OW 8440   0.780   1.575   4.252
 2514SOL    HW1 8441   0.804   1.672   4.256
 2514SOL    HW2 8442   0.858   1.523   4.216
 2515SOL     OW 8443   1.020   5.124   0.156
 2515SOL    HW1 8444   0.945   5.163   0.210
 2515SOL    HW2 8445   1.056   5.193   0.094
 2516SOL     OW 8446   5.108   6.187   4.476
 2516SOL    HW1 8447   5.028   6.127   4.488
 2516SOL    HW2 8448   5.093   6.248   4.398
 2517SOL     OW 8449   2.351   5.488   0.641
 2517SOL    HW1 8450   2.282   5.443   0.699
 2517SOL    HW2 8451   2.367   5.581   0.675
 2518SOL     OW 8452   2.480   2.805   6.330
 2518SOL    HW1 8453   2.490   2.772   6.424
 2518SOL    HW2 8454   2.398   2.862   6.323
 2519SOL     OW 8455   5.074   4.085   4.792
 2519SOL    HW1 8456   5.011   4.010   4.810
 2519SOL    HW2 8457   5.168   4.052   4.796
 2520SOL     OW 8458   3.031   5.299   2.029
 2520SOL    HW1 8459   2.989   5.209   2.035
 2520SOL    HW2 8460   3.047   5.335   2.121
 2521SOL     OW 8461   6.031   6.919   6.125
 2521SOL    HW1 8462   6.071   6.827   6.119
 2521SOL    HW2 8463   5.966   6.932   6.050
 2522SOL     OW 8464   1.378   3.642   4.580
 2522SOL    HW1 8465   1.321   3.716   4.615
 2522SOL    HW2 8466   1.412   3.666   4.489
 2523SOL     OW 8467   0.103   2.725   5.751
 2523SOL    HW1 8468   0.184   2.667   5.759
 2523SOL    HW2 8469   0.131   2.821   5.755
 2524SOL     OW 8470   1.044   0.065   5.021
 2524SOL    HW1 8471   1.066   6.998   5.070
 2524SOL    HW2 8472   0.998   0.042   4.935
 2525SOL     OW 8473   1.400   4.460   3.296
 2525SOL    HW1 8474   1.469   4.429   3.230
 2525SOL    HW2 8475   1.438   4.455   3.389
 2526SOL     OW 8476   0.493   2.148   5.330
 2526SOL    HW1 8477   0.475   2.103   5.243
 2526SOL    HW2 8478   0.419   2.213   5.350
 2527SOL     OW 8479   5.742   6.985   3.836
 2527SOL    HW1 8480   5.802   6.917   3.879
 2527SOL    HW2 8481   5.700   0.025   3.906
 2528SOL     OW 8482   5.844   5.271   0.469
 2528SOL    HW1 8483   5.819   5.291   0.564
 2528SOL    HW2 8484   5.925   5.212   0.468
 2529SOL     OW 8485   5.183   3.897   4.588
 2529SOL    HW1 8486   5.183   3.995   4.567
 2529SOL    HW2 8487   5.214   3.846   4.508
 2530SOL     OW 8488   1.189   6.626   3.493
 2530SOL    HW1 8489   1.129   6.680   3.552
 2530SOL    HW2 8490   1.275   6.675   3.479
 2531SOL     OW 8491   5.165   1.231   0.747
 2531SOL    HW1 8492   5.163   1.131   0.736
 2531SOL    HW2 8493   5.257   1.259   0.775
 2532SOL     OW 8494   0.990   4.354   5.862
 2532SOL    HW1 8495   0.974   4.452   5.873
 2532SOL    HW2 8496   1.070   4.340   5.804
 2533SOL     OW 8497   5.844   6.621   5.221
 2533SOL    HW1 8498   5.767   6.586   5.166
 2533SOL    HW2 8499   5.837   6.720   5.229
 2534SOL     OW 8500   6.887   2.095   3.279
 2534SOL    HW1 8501   6.789   2.089   3.263
 2534SOL    HW2 8502   6.910   2.183   3.319
 2535SOL     OW 8503   1.604   1.397   2.881
 2535SOL    HW1 8504   1.703   1.387   2.868
 2535SOL    HW2 8505   1.557   1.366   2.799
 2536SOL     OW 8506   0.151   0.879   4.018
 2536SOL    HW1 8507   0.084   0.926   4.075
 2536SOL    HW2 8508   0.132   0.780   4.018
 2537SOL     OW 8509   4.171   5.358   1.738
 2537SOL    HW1 8510   4.106   5.300   1.787
 2537SOL    HW2 8511   4.213   5.422   1.803
 2538SOL     OW 8512   1.603   4.432   4.800
 2538SOL    HW1 8513   1.553   4.518   4.812
 2538SOL    HW2 8514   1.699   4.452   4.779
 2539SOL     OW 8515   2.482   1.066   5.594
 2539SOL    HW1 8516   2.462   0.974   5.629
 2539SOL    HW2 8517   2.396   1.115   5.578
 2540SOL     OW 8518   5.669   2.037   2.310
 2540SOL    HW1 8519   5.649   2.016   2.215
 2540SOL    HW2 8520   5.583   2.053   2.360
 2541SOL     OW 8521   0.346   7.015   5.890
 2541SOL    HW1 8522   0.330   0.096   5.896
 2541SOL    HW2 8523   0.444   6.998   5.876
 2542SOL     OW 8524   3.779   1.735   3.748
 2542SOL    HW1 8525   3.688   1.772   3.729
 2542SOL    HW2 8526   3.807   1.676   3.671
 2543SOL     OW 8527   0.212   2.037   4.052
 2543SOL    HW1 8528   0.297   2.085   4.075
 2543SOL    HW2 8529   0.138   2.103   4.043
 2544SOL     OW 8530   6.625   6.069   2.102
 2544SOL    HW1 8531   6.638   6.165   2.126
 2544SOL    HW2 8532   6.621   6.059   2.002
 2545SOL     OW 8533   6.407   1.669   0.285
 2545SOL    HW1 8534   6.328   1.691   0.342
 2545SOL    HW2 8535   6.385   1.691   0.190
 2546SOL     OW 8536   6.516   3.693   2.352
 2546SOL    HW1 8537   6.571   3.737   2.423
 2546SOL    HW2 8538   6.559   3.708   2.263
 2547SOL     OW 8539   5.438   4.328   1.182
 2547SOL    HW1 8540   5.477   4.272   1.109
 2547SOL    HW2 8541   5.501   4.403   1.204
 2548SOL     OW 8542   6.330   0.196   5.797
 2548SOL    HW1 8543   6.417   0.148   5.802
 2548SOL    HW2 8544   6.279   0.183   5.882
 2549SOL     OW 8545   2.512   3.224   0.457
 2549SOL    HW1 8546   2.583   3.158   0.435
 2549SOL    HW2 8547   2.494   3.282   0.377
 2550SOL     OW 8548   4.081   6.106   0.338
 2550SOL    HW1 8549   4.115   6.012   0.339
 2550SOL    HW2 8550   4.034   6.126   0.424
 2551SOL     OW 8551   3.553   4.932   0.768
 2551SOL    HW1 8552   3.609   4.946   0.850
 2551SOL    HW2 8553   3.456   4.929   0.794
 2552SOL     OW 8554   2.391   4.729   1.888
 2552SOL    HW1 8555   2.470   4.778   1.852
 2552SOL    HW2 8556   2.321   4.721   1.816
 2553SOL     OW 8557   4.644   1.204   0.179
 2553SOL    HW1 8558   4.582   1.274   0.213
 2553SOL    HW2 8559   4.734   1.214   0.221
 2554SOL     OW 8560   1.199   5.537   1.068
 2554SOL    HW1 8561   1.199   5.559   1.166
 2554SOL    HW2 8562   1.143   5.455   1.053
 2555SOL     OW 8563   6.006   6.849   4.633
 2555SOL    HW1 8564   5.942   6.796   4.689
 2555SOL    HW2 8565   6.090   6.796   4.620
 2556SOL     OW 8566   3.493   6.760   0.604
 2556SOL    HW1 8567   3.452   6.768   0.513
 2556SOL    HW2 8568   3.547   6.676   0.608
 2557SOL     OW 8569   3.045   0.238   6.828
 2557SOL    HW1 8570   3.081   0.259   6.737
 2557SOL    HW2 8571   3.062   0.142   6.849
 2558SOL     OW 8572   4.731   2.369   1.688
 2558SOL    HW1 8573   4.687   2.438   1.630
 2558SOL    HW2 8574   4.691   2.279   1.669
 2559SOL     OW 8575   0.146   5.224   3.792
 2559SOL    HW1 8576   0.241   5.193   3.786
 2559SOL    HW2 8577   0.085   5.144   3.792
 2560SOL     OW 8578   5.202   2.474   2.680
 2560SOL    HW1 8579   5.119   2.487   2.734
 2560SOL    HW2 8580   5.176   2.453   2.585
 2561SOL     OW 8581   4.103   6.988   4.244
 2561SOL    HW1 8582   4.038   6.917   4.217
 2561SOL    HW2 8583   4.123   0.028   4.165
 2562SOL     OW 8584   2.014   0.055   4.749
 2562SOL    HW1 8585   1.915   0.051   4.749
 2562SOL    HW2 8586   2.046   0.101   4.832
 2563SOL     OW 8587   3.422   2.618   6.488
 2563SOL    HW1 8588   3.329   2.610   6.524
 2563SOL    HW2 8589   3.431   2.701   6.433
 2564SOL     OW 8590   1.153   1.796   0.227
 2564SOL    HW1 8591   1.247   1.830   0.221
 2564SOL    HW2 8592   1.121   1.771   0.135
 2565SOL     OW 8593   1.082   0.866   0.434
 2565SOL    HW1 8594   1.117   0.914   0.354
 2565SOL    HW2 8595   0.982   0.866   0.432
 2566SOL     OW 8596   2.876   0.772   1.169
 2566SOL    HW1 8597   2.955   0.800   1.224
 2566SOL    HW2 8598   2.797   0.829   1.191
 2567SOL     OW 8599   1.734   0.811   6.612
 2567SOL    HW1 8600   1.782   0.730   6.580
 2567SOL    HW2 8601   1.719   0.874   6.536
 2568SOL     OW 8602   2.061   5.796   0.870
 2568SOL    HW1 8603   2.060   5.740   0.953
 2568SOL    HW2 8604   1.967   5.812   0.839
 2569SOL     OW 8605   1.960   6.943   0.654
 2569SOL    HW1 8606   1.885   6.896   0.701
 2569SOL    HW2 8607   2.045   6.931   0.705
 2570SOL     OW 8608   0.495   6.390   4.962
 2570SOL    HW1 8609   0.399   6.390   4.988
 2570SOL    HW2 8610   0.551   6.364   5.040
 2571SOL     OW 8611   3.204   4.086   3.925
 2571SOL    HW1 8612   3.131   4.059   3.862
 2571SOL    HW2 8613   3.168   4.089   4.019
 2572SOL     OW 8614   1.827   5.087   2.015
 2572SOL    HW1 8615   1.880   5.118   2.094
 2572SOL    HW2 8616   1.877   5.104   1.931
 2573SOL     OW 8617   0.181   1.790   3.930
 2573SOL    HW1 8618   0.193   1.881   3.971
 2573SOL    HW2 8619   0.152   1.800   3.835
 2574SOL     OW 8620   0.754   3.571   2.184
 2574SOL    HW1 8621   0.786   3.634   2.255
 2574SOL    HW2 8622   0.828   3.509   2.160
 2575SOL     OW 8623   5.484   3.347   6.408
 2575SOL    HW1 8624   5.448   3.378   6.320
 2575SOL    HW2 8625   5.496   3.426   6.468
 2576SOL     OW 8626   1.662   0.184   3.214
 2576SOL    HW1 8627   1.751   0.217   3.244
 2576SOL    HW2 8628   1.664   0.167   3.116
 2577SOL     OW 8629   1.947   5.368   1.332
 2577SOL    HW1 8630   1.982   5.413   1.250
 2577SOL    HW2 8631   1.927   5.436   1.402
 2578SOL     OW 8632   4.603   2.412   4.526
 2578SOL    HW1 8633   4.589   2.324   4.481
 2578SOL    HW2 8634   4.632   2.396   4.621
 2579SOL     OW 8635   6.916   1.451   6.219
 2579SOL    HW1 8636   6.896   1.541   6.180
 2579SOL    HW2 8637   7.013   1.430   6.205
 2580SOL     OW 8638   1.516   1.798   5.885
 2580SOL    HW1 8639   1.516   1.698   5.878
 2580SOL    HW2 8640   1.550   1.825   5.975
 2581SOL     OW 8641   6.117   0.328   4.824
 2581SOL    HW1 8642   6.036   0.373   4.862
 2581SOL    HW2 8643   6.198   0.384   4.841
 2582SOL     OW 8644   0.339   5.616   3.107
 2582SOL    HW1 8645   0.412   5.549   3.097
 2582SOL    HW2 8646   0.373   5.695   3.158
 2583SOL     OW 8647   2.018   1.065   6.593
 2583SOL    HW1 8648   2.080   0.989   6.574
 2583SOL    HW2 8649   2.016   1.083   6.691
 2584SOL     OW 8650   5.224   0.023   2.830
 2584SOL    HW1 8651   5.304   0.081   2.847
 2584SOL    HW2 8652   5.235   6.994   2.742
 2585SOL     OW 8653   4.467   1.057   1.799
 2585SOL    HW1 8654   4.375   1.071   1.837
 2585SOL    HW2 8655   4.519   1.141   1.806
 2586SOL     OW 8656   6.843   1.455   4.428
 2586SOL    HW1 8657   6.791   1.485   4.508
 2586SOL    HW2 8658   6.909   1.526   4.403
 2587SOL     OW 8659   6.662   6.519   2.624
 2587SOL    HW1 8660   6.575   6.469   2.622
 2587SOL    HW2 8661   6.673   6.562   2.714
 2588SOL     OW 8662   5.025   0.169   1.916
 2588SOL    HW1 8663   5.099   0.140   1.977
 2588SOL    HW2 8664   5.001   0.264   1.936
 2589SOL     OW 8665   5.560   6.084   0.501
 2589SOL    HW1 8666   5.632   6.130   0.449
 2589SOL    HW2 8667   5.602   6.022   0.568
 2590SOL     OW 8668   3.537   6.878   2.949
 2590SOL    HW1 8669   3.621   6.878   2.895
 2590SOL    HW2 8670   3.506   6.972   2.963
 2591SOL     OW 8671   5.871   0.429   1.580
 2591SOL    HW1 8672   5.780   0.398   1.554
 2591SOL    HW2 8673   5.937   0.403   1.509
 2592SOL     OW 8674   3.146   5.054   1.533
 2592SOL    HW1 8675   3.187   5.012   1.614
 2592SOL    HW2 8676   3.146   5.153   1.542
 2593SOL     OW 8677   3.127   0.135   2.572
 2593SOL    HW1 8678   3.047   0.087   2.536
 2593SOL    HW2 8679   3.207   0.114   2.515
 2594SOL     OW 8680   1.673   6.822   6.486
 2594SOL    HW1 8681   1.742   6.840   6.416
 2594SOL    HW2 8682   1.671   6.724   6.507
 2595SOL     OW 8683   6.180   3.072   4.185
 2595SOL    HW1 8684   6.161   2.974   4.183
 2595SOL    HW2 8685   6.274   3.087   4.215
 2596SOL     OW 8686   4.432   2.271   1.573
 2596SOL    HW1 8687   4.440   2.320   1.660
 2596SOL    HW2 8688   4.450   2.334   1.498
 2597SOL     OW 8689   1.893   2.294   6.456
 2597SOL    HW1 8690   1.801   2.255   6.454
 2597SOL    HW2 8691   1.887   2.394   6.453
 2598SOL     OW 8692   5.927   2.418   2.851
 2598SOL    HW1 8693   5.828   2.409   2.841
 2598SOL    HW2 8694   5.954   2.390   2.943
 2599SOL     OW 8695   4.362   4.481   6.827
 2599SOL    HW1 8696   4.316   4.548   6.768
 2599SOL    HW2 8697   4.339   4.389   6.797
 2600SOL     OW 8698   6.916   3.266   3.781
 2600SOL    HW1 8699   6.896   3.181   3.829
 2600SOL    HW2 8700   6.929   3.248   3.684
 2601SOL     OW 8701   3.639   3.271   5.347
 2601SOL    HW1 8702   3.562   3.335   5.336
 2601SOL    HW2 8703   3.718   3.321   5.384
 2602SOL     OW 8704   5.772   5.647   5.526
 2602SOL    HW1 8705   5.862   5.629   5.567
 2602SOL    HW2 8706   5.784   5.670   5.429
 2603SOL     OW 8707   2.638   2.786   6.949
 2603SOL    HW1 8708   2.699   2.708   6.935
 2603SOL    HW2 8709   2.560   2.779   6.887
 2604SOL     OW 8710   5.723   1.503   1.754
 2604SOL    HW1 8711   5.627   1.493   1.728
 2604SOL    HW2 8712   5.768   1.414   1.750
 2605SOL     OW 8713   4.876   3.912   3.818
 2605SOL    HW1 8714   4.825   3.997   3.825
 2605SOL    HW2 8715   4.878   3.866   3.907
 2606SOL     OW 8716   6.972   4.547   1.060
 2606SOL    HW1 8717   6.880   4.520   1.091
 2606SOL    HW2 8718   7.003   4.625   1.114
 2607SOL     OW 8719   0.715   1.928   4.802
 2607SOL    HW1 8720   0.730   2.026   4.800
 2607SOL    HW2 8721   0.620   1.908   4.777
 2608SOL     OW 8722   5.312   6.892   0.642
 2608SOL    HW1 8723   5.408   6.884   0.670
 2608SOL    HW2 8724   5.307   6.893   0.542
 2609SOL     OW 8725   0.306   2.543   4.025
 2609SOL    HW1 8726   0.342   2.636   4.020
 2609SOL    HW2 8727   0.382   2.478   4.015
 2610SOL     OW 8728   5.109   5.419   4.867
 2610SOL    HW1 8729   5.141   5.380   4.954
 2610SOL    HW2 8730   5.138   5.514   4.861
 2611SOL     OW 8731   2.816   5.939   1.994
 2611SOL    HW1 8732   2.866   6.025   1.985
 2611SOL    HW2 8733   2.868   5.876   2.052
 2612SOL     OW 8734   6.214   6.745   4.900
 2612SOL    HW1 8735   6.123   6.774   4.929
 2612SOL    HW2 8736   6.206   6.677   4.828
 2613SOL     OW 8737   3.881   0.854   1.268
 2613SOL    HW1 8738   3.821   0.876   1.345
 2613SOL    HW2 8739   3.858   0.912   1.190
 2614SOL     OW 8740   0.019   6.326   6.391
 2614SOL    HW1 8741   0.110   6.301   6.424
 2614SOL    HW2 8742   6.986   6.373   6.464
 2615SOL     OW 8743   5.676   5.104   1.898
 2615SOL    HW1 8744   5.640   5.188   1.938
 2615SOL    HW2 8745   5.775   5.111   1.888
 2616SOL     OW 8746   4.182   3.398   2.483
 2616SOL    HW1 8747   4.104   3.346   2.517
 2616SOL    HW2 8748   4.251   3.334   2.448
 2617SOL     OW 8749   3.951   0.553   1.305
 2617SOL    HW1 8750   3.936   0.643   1.266
 2617SOL    HW2 8751   3.885   0.536   1.378
 2618SOL     OW 8752   0.899   0.492   0.328
 2618SOL    HW1 8753   0.856   0.536   0.406
 2618SOL    HW2 8754   0.828   0.458   0.266
 2619SOL     OW 8755   5.253   1.098   1.244
 2619SOL    HW1 8756   5.316   1.171   1.273
 2619SOL    HW2 8757   5.243   1.032   1.318
 2620SOL     OW 8758   1.776   4.756   4.465
 2620SOL    HW1 8759   1.793   4.659   4.449
 2620SOL    HW2 8760   1.808   4.809   4.386
 2621SOL     OW 8761   1.427   4.853   3.772
 2621SOL    HW1 8762   1.478   4.868   3.857
 2621SOL    HW2 8763   1.363   4.929   3.758
 2622SOL     OW 8764   2.551   3.235   6.046
 2622SOL    HW1 8765   2.568   3.259   5.951
 2622SOL    HW2 8766   2.475   3.169   6.051
 2623SOL     OW 8767   3.396   1.096   6.270
 2623SOL    HW1 8768   3.370   1.054   6.357
 2623SOL    HW2 8769   3.477   1.050   6.234
 2624SOL     OW 8770   6.808   2.061   3.963
 2624SOL    HW1 8771   6.845   2.018   4.045
 2624SOL    HW2 8772   6.742   2.131   3.989
 2625SOL     OW 8773   4.651   0.862   5.719
 2625SOL    HW1 8774   4.621   0.794   5.651
 2625SOL    HW2 8775   4.570   0.903   5.762
 2626SOL     OW 8776   2.232   0.273   2.090
 2626SOL    HW1 8777   2.315   0.297   2.040
 2626SOL    HW2 8778   2.194   0.188   2.053
 2627SOL     OW 8779   0.005   0.962   4.602
 2627SOL    HW1 8780   0.081   0.948   4.538
 2627SOL    HW2 8781   6.985   1.054   4.588
 2628SOL     OW 8782   3.404   5.822   6.046
 2628SOL    HW1 8783   3.383   5.785   5.956
 2628SOL    HW2 8784   3.424   5.920   6.037
 2629SOL     OW 8785   3.056   3.991   1.374
 2629SOL    HW1 8786   2.983   4.033   1.428
 2629SOL    HW2 8787   3.135   4.051   1.373
 2630SOL     OW 8788   2.985   2.180   2.341
 2630SOL    HW1 8789   2.959   2.189   2.245
 2630SOL    HW2 8790   2.955   2.262   2.391
 2631SOL     OW 8791   4.619   6.940   4.809
 2631SOL    HW1 8792   4.582   6.933   4.716
 2631SOL    HW2 8793   4.545   6.926   4.875
 2632SOL     OW 8794   5.813   1.434   1.436
 2632SOL    HW1 8795   5.818   1.453   1.338
 2632SOL    HW2 8796   5.722   1.398   1.458
 2633SOL     OW 8797   6.873   2.771   6.049
 2633SOL    HW1 8798   6.860   2.866   6.020
 2633SOL    HW2 8799   6.889   2.714   5.968
 2634SOL     OW 8800   3.157   5.166   1.180
 2634SOL    HW1 8801   3.203   5.218   1.251
 2634SOL    HW2 8802   3.105   5.091   1.222
 2635SOL     OW 8803   5.883   4.280   3.457
 2635SOL    HW1 8804   5.938   4.196   3.449
 2635SOL    HW2 8805   5.852   4.291   3.551
 2636SOL     OW 8806   5.613   0.599   5.115
 2636SOL    HW1 8807   5.579   0.605   5.208
 2636SOL    HW2 8808   5.586   0.512   5.074
 2637SOL     OW 8809   4.859   6.617   2.812
 2637SOL    HW1 8810   4.958   6.600   2.817
 2637SOL    HW2 8811   4.839   6.703   2.859
 2638SOL     OW 8812   5.933   5.625   0.768
 2638SOL    HW1 8813   5.942   5.612   0.867
 2638SOL    HW2 8814   6.002   5.690   0.736
 2639SOL     OW 8815   6.696   6.414   0.124
 2639SOL    HW1 8816   6.617   6.360   0.095
 2639SOL    HW2 8817   6.746   6.445   0.044
 2640SOL     OW 8818   6.442   6.838   6.545
 2640SOL    HW1 8819   6.476   6.933   6.542
 2640SOL    HW2 8820   6.370   6.827   6.477
 2641SOL     OW 8821   5.559   5.588   0.061
 2641SOL    HW1 8822   5.591   5.637   0.142
 2641SOL    HW2 8823   5.547   5.491   0.084
 2642SOL     OW 8824   6.346   6.992   3.275
 2642SOL    HW1 8825   6.295   7.015   3.358
 2642SOL    HW2 8826   6.442   6.976   3.298
 2643SOL     OW 8827   1.257   0.575   2.478
 2643SOL    HW1 8828   1.317   0.656   2.478
 2643SOL    HW2 8829   1.300   0.503   2.532
 2644SOL     OW 8830   0.402   5.654   6.022
 2644SOL    HW1 8831   0.456   5.639   6.104
 2644SOL    HW2 8832   0.438   5.733   5.971
 2645SOL     OW 8833   5.947   5.157   5.468
 2645SOL    HW1 8834   5.873   5.159   5.534
 2645SOL    HW2 8835   6.024   5.105   5.505
 2646SOL     OW 8836   6.813   6.053   6.841
 2646SOL    HW1 8837   6.832   5.970   6.894
 2646SOL    HW2 8838   6.866   6.129   6.878
 2647SOL     OW 8839   3.647   2.934   0.321
 2647SOL    HW1 8840   3.573   2.899   0.378
 2647SOL    HW2 8841   3.611   3.000   0.255
 2648SOL     OW 8842   3.309   0.850   2.794
 2648SOL    HW1 8843   3.405   0.849   2.768
 2648SOL    HW2 8844   3.252   0.855   2.712
 2649SOL     OW 8845   3.353   2.676   5.597
 2649SOL    HW1 8846   3.327   2.688   5.693
 2649SOL    HW2 8847   3.278   2.704   5.538
 2650SOL     OW 8848   0.111   6.442   1.794
 2650SOL    HW1 8849   0.159   6.354   1.798
 2650SOL    HW2 8850   0.111   6.476   1.700
 2651SOL     OW 8851   0.544   0.047   3.819
 2651SOL    HW1 8852   0.547   6.980   3.872
 2651SOL    HW2 8853   0.542   0.025   3.721
 2652SOL     OW 8854   3.092   3.081   2.584
 2652SOL    HW1 8855   3.160   3.109   2.652
 2652SOL    HW2 8856   3.125   3.105   2.492
 2653SOL     OW 8857   6.783   5.545   6.511
 2653SOL    HW1 8858   6.868   5.553   6.458
 2653SOL    HW2 8859   6.705   5.572   6.453
 2654SOL     OW 8860   5.270   2.151   6.252
 2654SOL    HW1 8861   5.248   2.062   6.211
 2654SOL    HW2 8862   5.358   2.183   6.216
 2655SOL     OW 8863   5.085   5.365   5.145
 2655SOL    HW1 8864   4.995   5.405   5.162
 2655SOL    HW2 8865   5.122   5.328   5.231
 2656SOL     OW 8866   5.350   3.483   3.835
 2656SOL    HW1 8867   5.262   3.488   3.884
 2656SOL    HW2 8868   5.363   3.567   3.782
 2657SOL     OW 8869   2.292   2.411   5.856
 2657SOL    HW1 8870   2.239   2.325   5.850
 2657SOL    HW2 8871   2.285   2.447   5.949
 2658SOL     OW 8872   5.514   4.394   5.674
 2658SOL    HW1 8873   5.600   4.437   5.649
 2658SOL    HW2 8874   5.479   4.341   5.597
 2659SOL     OW 8875   6.829   2.259   2.874
 2659SOL    HW1 8876   6.759   2.327   2.854
 2659SOL    HW2 8877   6.892   2.294   2.943
 2660SOL     OW 8878   6.336   2.263   3.381
 2660SOL    HW1 8879   6.275   2.193   3.419
 2660SOL    HW2 8880   6.327   2.347   3.434
 2661SOL     OW 8881   4.439   6.401   1.638
 2661SOL    HW1 8882   4.486   6.340   1.702
 2661SOL    HW2 8883   4.456   6.496   1.664
 2662SOL     OW 8884   3.545   6.613   3.562
 2662SOL    HW1 8885   3.630   6.579   3.521
 2662SOL    HW2 8886   3.563   6.642   3.656
 2663SOL     OW 8887   0.716   4.590   2.941
 2663SOL    HW1 8888   0.760   4.540   3.014
 2663SOL    HW2 8889   0.785   4.631   2.881
 2664SOL     OW 8890   4.107   3.599   1.852
 2664SOL    HW1 8891   4.072   3.588   1.945
 2664SOL    HW2 8892   4.159   3.684   1.846
 2665SOL     OW 8893   3.928   0.839   4.597
 2665SOL    HW1 8894   4.021   0.814   4.568
 2665SOL    HW2 8895   3.929   0.864   4.693
 2666SOL     OW 8896   5.528   6.346   1.909
 2666SOL    HW1 8897   5.473   6.292   1.973
 2666SOL    HW2 8898   5.604   6.388   1.958
 2667SOL     OW 8899   1.537   5.140   3.785
 2667SOL    HW1 8900   1.603   5.074   3.819
 2667SOL    HW2 8901   1.500   5.108   3.698
 2668SOL     OW 8902   6.845   2.386   5.751
 2668SOL    HW1 8903   6.831   2.325   5.673
 2668SOL    HW2 8904   6.887   2.335   5.826
 2669SOL     OW 8905   4.484   5.028   5.783
 2669SOL    HW1 8906   4.471   4.955   5.850
 2669SOL    HW2 8907   4.509   5.112   5.830
 2670SOL     OW 8908   1.712   0.566   6.182
 2670SOL    HW1 8909   1.736   0.503   6.109
 2670SOL    HW2 8910   1.793   0.588   6.236
 2671SOL     OW 8911   3.318   4.023   5.810
 2671SOL    HW1 8912   3.369   3.992   5.730
 2671SOL    HW2 8913   3.275   3.944   5.855
 2672SOL     OW 8914   0.704   4.231   0.244
 2672SOL    HW1 8915   0.651   4.181   0.175
 2672SOL    HW2 8916   0.672   4.325   0.250
 2673SOL     OW 8917   4.716   2.231   3.722
 2673SOL    HW1 8918   4.637   2.204   3.667
 2673SOL    HW2 8919   4.744   2.323   3.695
 2674SOL     OW 8920   5.198   5.727   5.795
 2674SOL    HW1 8921   5.188   5.691   5.887
 2674SOL    HW2 8922   5.168   5.659   5.729
 2675SOL     OW 8923   0.486   3.809   5.396
 2675SOL    HW1 8924   0.483   3.891   5.339
 2675SOL    HW2 8925   0.467   3.833   5.491
 2676SOL     OW 8926   4.241   0.429   2.253
 2676SOL    HW1 8927   4.143   0.431   2.235
 2676SOL    HW2 8928   4.257   0.429   2.351
 2677SOL     OW 8929   2.529   4.543   2.436
 2677SOL    HW1 8930   2.625   4.516   2.430
 2677SOL    HW2 8931   2.492   4.517   2.525
 2678SOL     OW 8932   0.031   5.550   6.398
 2678SOL    HW1 8933   0.109   5.612   6.409
 2678SOL    HW2 8934   0.063   5.464   6.356
 2679SOL     OW 8935   2.524   4.630   0.884
 2679SOL    HW1 8936   2.435   4.640   0.930
 2679SOL    HW2 8937   2.547   4.533   0.878
 2680SOL     OW 8938   0.890   1.935   1.402
 2680SOL    HW1 8939   0.796   1.941   1.436
 2680SOL    HW2 8940   0.936   2.022   1.416
 2681SOL     OW 8941   1.249   1.260   2.603
 2681SOL    HW1 8942   1.234   1.261   2.504
 2681SOL    HW2 8943   1.211   1.344   2.643
 2682SOL     OW 8944   6.502   2.522   3.442
 2682SOL    HW1 8945   6.563   2.449   3.472
 2682SOL    HW2 8946   6.532   2.556   3.353
 2683SOL     OW 8947   1.394   0.307   1.656
 2683SOL    HW1 8948   1.360   0.214   1.668
 2683SOL    HW2 8949   1.483   0.316   1.701
 2684SOL     OW 8950   2.432   6.053   2.835
 2684SOL    HW1 8951   2.349   5.998   2.823
 2684SOL    HW2 8952   2.508   5.993   2.859
 2685SOL     OW 8953   5.431   5.752   5.217
 2685SOL    HW1 8954   5.483   5.736   5.133
 2685SOL    HW2 8955   5.491   5.789   5.287
 2686SOL     OW 8956   1.164   3.041   4.486
 2686SOL    HW1 8957   1.222   3.114   4.520
 2686SOL    HW2 8958   1.070   3.073   4.479
 2687SOL     OW 8959   5.226   5.395   3.096
 2687SOL    HW1 8960   5.159   5.367   3.164
 2687SOL    HW2 8961   5.267   5.314   3.054
 2688SOL     OW 8962   3.160   5.086   6.019
 2688SOL    HW1 8963   3.231   5.063   6.086
 2688SOL    HW2 8964   3.120   5.003   5.983
 2689SOL     OW 8965   6.874   2.926   4.193
 2689SOL    HW1 8966   6.819   2.993   4.242
 2689SOL    HW2 8967   6.942   2.887   4.256
 2690SOL     OW 8968   2.857   3.539   3.430
 2690SOL    HW1 8969   2.890   3.633   3.426
 2690SOL    HW2 8970   2.861   3.499   3.338
 2691SOL     OW 8971   1.342   6.119   1.519
 2691SOL    HW1 8972   1.251   6.121   1.476
 2691SOL    HW2 8973   1.397   6.046   1.477
 2692SOL     OW 8974   6.701   5.815   3.052
 2692SOL    HW1 8975   6.737   5.801   3.145
 2692SOL    HW2 8976   6.778   5.827   2.989
 2693SOL     OW 8977   1.452   3.739   3.579
 2693SOL    HW1 8978   1.495   3.824   3.548
 2693SOL    HW2 8979   1.519   3.665   3.580
 2694SOL     OW 8980   2.523   0.793   3.160
 2694SOL    HW1 8981   2.436   0.760   3.195
 2694SOL    HW2 8982   2.536   0.760   3.066
 2695SOL     OW 8983   3.729   2.037   2.698
 2695SOL    HW1 8984   3.639   2.029   2.655
 2695SOL    HW2 8985   3.793   2.080   2.634
 2696SOL     OW 8986   4.031   3.304   5.211
 2696SOL    HW1 8987   4.101   3.371   5.184
 2696SOL    HW2 8988   4.037   3.287   5.309
 2697SOL     OW 8989   2.434   2.229   4.609
 2697SOL    HW1 8990   2.429   2.194   4.515
 2697SOL    HW2 8991   2.454   2.153   4.671
 2698SOL     OW 8992   2.173   3.465   6.892
 2698SOL    HW1 8993   2.093   3.458   6.951
 2698SOL    HW2 8994   2.237   3.531   6.931
 2699SOL     OW 8995   3.772   6.052   1.877
 2699SOL    HW1 8996   3.783   6.007   1.966
 2699SOL    HW2 8997   3.674   6.061   1.857
 2700SOL     OW 8998   1.509   3.867   2.933
 2700SOL    HW1 8999   1.471   3.865   2.840
 2700SOL    HW2 9000   1.489   3.955   2.975
 2701SOL     OW 9001   3.288   6.457   6.194
 2701SOL    HW1 9002   3.260   6.551   6.178
 2701SOL    HW2 9003   3.347   6.453   6.276
 2702SOL     OW 9004   0.239   0.247   2.758
 2702SOL    HW1 9005   0.246   0.177   2.829
 2702SOL    HW2 9006   0.188   0.212   2.680
 2703SOL     OW 9007   1.672   1.267   3.149
 2703SOL    HW1 9008   1.625   1.311   3.225
 2703SOL    HW2 9009   1.684   1.332   3.074
 2704SOL     OW 9010   1.783   5.916   0.557
 2704SOL    HW1 9011   1.710   5.915   0.626
 2704SOL    HW2 9012   1.792   6.009   0.520
 2705SOL     OW 9013   0.340   4.844   2.856
 2705SOL    HW1 9014   0.382   4.755   2.876
 2705SOL    HW2 9015   0.409   4.915   2.861
 2706SOL     OW 9016   6.520   1.698   1.736
 2706SOL    HW1 9017   6.589   1.630   1.710
 2706SOL    HW2 9018   6.545   1.787   1.699
 2707SOL     OW 9019   2.412   1.594   5.503
 2707SOL    HW1 9020   2.385   1.651   5.425
 2707SOL    HW2 9021   2.330   1.562   5.551
 2708SOL     OW 9022   1.998   2.796   1.041
 2708SOL    HW1 9023   2.058   2.745   0.979
 2708SOL    HW2 9024   2.033   2.889   1.052
 2709SOL     OW 9025   4.645   6.411   2.016
 2709SOL    HW1 9026   4.620   6.496   2.062
 2709SOL    HW2 9027   4.596   6.335   2.060
 2710SOL     OW 9028   5.614   3.789   2.547
 2710SOL    HW1 9029   5.527   3.746   2.572
 2710SOL    HW2 9030   5.643   3.755   2.458
 2711SOL     OW 9031   1.292   0.060   1.680
 2711SOL    HW1 9032   1.306   6.985   1.713
 2711SOL    HW2 9033   1.271   0.058   1.582
 2712SOL     OW 9034   3.478   4.701   0.995
 2712SOL    HW1 9035   3.410   4.703   1.069
 2712SOL    HW2 9036   3.531   4.786   0.996
 2713SOL     OW 9037   2.029   3.113   4.719
 2713SOL    HW1 9038   1.936   3.076   4.721
 2713SOL    HW2 9039   2.093   3.043   4.687
 2714SOL     OW 9040   5.225   6.795   5.371
 2714SOL    HW1 9041   5.166   6.874   5.390
 2714SOL    HW2 9042   5.316   6.812   5.410
 2715SOL     OW 9043   6.687   0.599   0.094
 2715SOL    HW1 9044   6.659   0.674   0.155
 2715SOL    HW2 9045   6.785   0.606   0.076
 2716SOL     OW 9046   0.632   6.668   2.752
 2716SOL    HW1 9047   0.683   6.722   2.820
 2716SOL    HW2 9048   0.571   6.729   2.701
 2717SOL     OW 9049   1.271   0.176   2.818
 2717SOL    HW1 9050   1.235   0.132   2.900
 2717SOL    HW2 9051   1.197   0.226   2.772
 2718SOL     OW 9052   1.223   4.757   3.516
 2718SOL    HW1 9053   1.264   4.845   3.541
 2718SOL    HW2 9054   1.235   4.692   3.591
 2719SOL     OW 9055   3.913   5.111   2.159
 2719SOL    HW1 9056   3.833   5.167   2.142
 2719SOL    HW2 9057   3.895   5.017   2.129
 2720SOL     OW 9058   1.158   5.875   4.252
 2720SOL    HW1 9059   1.134   5.792   4.202
 2720SOL    HW2 9060   1.079   5.908   4.303
 2721SOL     OW 9061   4.453   0.101   4.638
 2721SOL    HW1 9062   4.545   0.125   4.670
 2721SOL    HW2 9063   4.456   0.080   4.541
 2722SOL     OW 9064   1.463   5.400   1.204
 2722SOL    HW1 9065   1.433   5.305   1.205
 2722SOL    HW2 9066   1.404   5.453   1.143
 2723SOL     OW 9067   1.184   1.444   5.344
 2723SOL    HW1 9068   1.088   1.451   5.317
 2723SOL    HW2 9069   1.233   1.526   5.313
 2724SOL     OW 9070   3.135   5.444   6.350
 2724SOL    HW1 9071   3.205   5.427   6.280
 2724SOL    HW2 9072   3.049   5.468   6.306
 2725SOL     OW 9073   3.402   4.870   3.072
 2725SOL    HW1 9074   3.385   4.861   2.974
 2725SOL    HW2 9075   3.374   4.962   3.101
 2726SOL     OW 9076   5.139   5.846   2.223
 2726SOL    HW1 9077   5.102   5.937   2.202
 2726SOL    HW2 9078   5.069   5.777   2.206
 2727SOL     OW 9079   2.267   5.385   3.204
 2727SOL    HW1 9080   2.255   5.365   3.302
 2727SOL    HW2 9081   2.236   5.306   3.151
 2728SOL     OW 9082   3.575   0.445   5.765
 2728SOL    HW1 9083   3.650   0.432   5.700
 2728SOL    HW2 9084   3.488   0.451   5.715
 2729SOL     OW 9085   6.215   4.674   2.670
 2729SOL    HW1 9086   6.214   4.771   2.695
 2729SOL    HW2 9087   6.308   4.638   2.683
 2730SOL     OW 9088   1.680   4.348   1.597
 2730SOL    HW1 9089   1.773   4.310   1.587
 2730SOL    HW2 9090   1.617   4.298   1.538
 2731SOL     OW 9091   3.004   3.777   1.603
 2731SOL    HW1 9092   3.059   3.695   1.616
 2731SOL    HW2 9093   2.997   3.826   1.690
 2732SOL     OW 9094   5.335   1.764   3.471
 2732SOL    HW1 9095   5.407   1.791   3.406
 2732SOL    HW2 9096   5.318   1.839   3.535
 2733SOL     OW 9097   1.570   0.944   5.370
 2733SOL    HW1 9098   1.647   0.887   5.339
 2733SOL    HW2 9099   1.509   0.890   5.428
 2734SOL     OW 9100   2.457   6.314   3.896
 2734SOL    HW1 9101   2.479   6.217   3.905
 2734SOL    HW2 9102   2.358   6.326   3.898
 2735SOL     OW 9103   2.090   4.318   1.554
 2735SOL    HW1 9104   2.181   4.349   1.583
 2735SOL    HW2 9105   2.029   4.397   1.548
 2736SOL     OW 9106   3.963   6.735   6.133
 2736SOL    HW1 9107   3.939   6.693   6.045
 2736SOL    HW2 9108   3.917   6.687   6.207
 2737SOL     OW 9109   4.187   3.477   6.031
 2737SOL    HW1 9110   4.179   3.563   5.980
 2737SOL    HW2 9111   4.260   3.422   5.991
 2738SOL     OW 9112   5.812   4.790   3.996
 2738SOL    HW1 9113   5.722   4.814   3.962
 2738SOL    HW2 9114   5.819   4.690   4.005
 2739SOL     OW 9115   5.895   3.720   1.083
 2739SOL    HW1 9116   5.927   3.626   1.072
 2739SOL    HW2 9117   5.868   3.735   1.178
 2740SOL     OW 9118   6.543   2.434   2.980
 2740SOL    HW1 9119   6.595   2.446   2.895
 2740SOL    HW2 9120   6.458   2.488   2.975
 2741SOL     OW 9121   1.412   2.090   5.825
 2741SOL    HW1 9122   1.447   2.032   5.751
 2741SOL    HW2 9123   1.362   2.167   5.786
 2742SOL     OW 9124   2.100   6.593   5.968
 2742SOL    HW1 9125   2.156   6.511   5.974
 2742SOL    HW2 9126   2.152   6.671   6.002
 2743SOL     OW 9127   5.430   4.909   0.659
 2743SOL    HW1 9128   5.497   4.983   0.663
 2743SOL    HW2 9129   5.430   4.860   0.746
 2744SOL     OW 9130   4.180   1.012   6.457
 2744SOL    HW1 9131   4.222   1.018   6.367
 2744SOL    HW2 9132   4.207   0.927   6.501
 2745SOL     OW 9133   2.430   5.924   1.037
 2745SOL    HW1 9134   2.435   5.943   0.939
 2745SOL    HW2 9135   2.362   5.984   1.079
 2746SOL     OW 9136   1.753   2.014   6.121
 2746SOL    HW1 9137   1.745   2.068   6.037
 2746SOL    HW2 9138   1.666   1.968   6.139
 2747SOL     OW 9139   5.224   5.648   4.168
 2747SOL    HW1 9140   5.178   5.643   4.257
 2747SOL    HW2 9141   5.314   5.691   4.179
 2748SOL     OW 9142   3.776   1.599   4.501
 2748SOL    HW1 9143   3.776   1.677   4.564
 2748SOL    HW2 9144   3.794   1.515   4.551
 2749SOL     OW 9145   4.224   5.325   4.022
 2749SOL    HW1 9146   4.231   5.394   4.094
 2749SOL    HW2 9147   4.128   5.304   4.004
 2750SOL     OW 9148   0.773   6.084   1.691
 2750SOL    HW1 9149   0.818   5.995   1.679
 2750SOL    HW2 9150   0.843   6.155   1.704
 2751SOL     OW 9151   1.141   6.853   6.976
 2751SOL    HW1 9152   1.105   6.933   0.007
 2751SOL    HW2 9153   1.240   6.847   6.989
 2752SOL     OW 9154   6.406   6.289   5.365
 2752SOL    HW1 9155   6.328   6.275   5.425
 2752SOL    HW2 9156   6.422   6.207   5.310
 2753SOL     OW 9157   2.814   5.852   5.221
 2753SOL    HW1 9158   2.858   5.923   5.166
 2753SOL    HW2 9159   2.734   5.891   5.268
 2754SOL     OW 9160   1.226   6.166   4.471
 2754SOL    HW1 9161   1.139   6.203   4.506
 2754SOL    HW2 9162   1.215   6.139   4.376
 2755SOL     OW 9163   3.796   6.015   2.247
 2755SOL    HW1 9164   3.805   6.057   2.337
 2755SOL    HW2 9165   3.701   6.025   2.216
 2756SOL     OW 9166   0.309   2.641   5.280
 2756SOL    HW1 9167   0.278   2.697   5.203
 2756SOL    HW2 9168   0.340   2.700   5.354
 2757SOL     OW 9169   4.452   3.261   6.776
 2757SOL    HW1 9170   4.353   3.272   6.790
 2757SOL    HW2 9171   4.497   3.247   6.864
 2758SOL     OW 9172   0.119   6.688   1.946
 2758SOL    HW1 9173   0.150   6.777   1.911
 2758SOL    HW2 9174   0.086   6.632   1.870
 2759SOL     OW 9175   3.506   3.630   5.836
 2759SOL    HW1 9176   3.480   3.659   5.928
 2759SOL    HW2 9177   3.544   3.538   5.839
 2760SOL     OW 9178   6.058   5.726   2.509
 2760SOL    HW1 9179   5.979   5.672   2.480
 2760SOL    HW2 9180   6.047   5.754   2.604
 2761SOL     OW 9181   1.358   2.956   3.527
 2761SOL    HW1 9182   1.373   2.982   3.431
 2761SOL    HW2 9183   1.261   2.963   3.549
 2762SOL     OW 9184   2.965   2.156   0.732
 2762SOL    HW1 9185   2.962   2.188   0.827
 2762SOL    HW2 9186   2.999   2.229   0.673
 2763SOL     OW 9187   6.550   1.798   4.161
 2763SOL    HW1 9188   6.583   1.766   4.072
 2763SOL    HW2 9189   6.615   1.863   4.200
 2764SOL     OW 9190   0.538   2.996   3.300
 2764SOL    HW1 9191   0.439   2.990   3.295
 2764SOL    HW2 9192   0.566   3.089   3.323
 2765SOL     OW 9193   6.030   6.722   6.497
 2765SOL    HW1 9194   5.986   6.806   6.529
 2765SOL    HW2 9195   6.022   6.715   6.398
 2766SOL     OW 9196   4.681   0.057   0.146
 2766SOL    HW1 9197   4.772   0.026   0.120
 2766SOL    HW2 9198   4.662   0.028   0.240
 2767SOL     OW 9199   0.624   5.422   6.448
 2767SOL    HW1 9200   0.551   5.406   6.514
 2767SOL    HW2 9201   0.657   5.334   6.413
 2768SOL     OW 9202   4.061   6.890   1.541
 2768SOL    HW1 9203   4.150   6.885   1.497
 2768SOL    HW2 9204   4.000   6.821   1.501
 2769SOL     OW 9205   0.635   4.684   5.735
 2769SOL    HW1 9206   0.555   4.744   5.734
 2769SOL    HW2 9207   0.717   4.737   5.759
 2770SOL     OW 9208   2.704   6.077   0.588
 2770SOL    HW1 9209   2.713   6.063   0.489
 2770SOL    HW2 9210   2.629   6.022   0.623
 2771SOL     OW 9211   4.604   0.476   5.151
 2771SOL    HW1 9212   4.542   0.540   5.196
 2771SOL    HW2 9213   4.562   0.386   5.148
 2772SOL     OW 9214   4.329   0.897   3.980
 2772SOL    HW1 9215   4.396   0.944   4.036
 2772SOL    HW2 9216   4.263   0.964   3.944
 2773SOL     OW 9217   5.941   2.608   4.797
 2773SOL    HW1 9218   5.937   2.685   4.861
 2773SOL    HW2 9219   6.017   2.548   4.822
 2774SOL     OW 9220   5.498   1.882   4.133
 2774SOL    HW1 9221   5.506   1.966   4.186
 2774SOL    HW2 9222   5.402   1.861   4.117
 2775SOL     OW 9223   0.093   3.442   3.900
 2775SOL    HW1 9224   0.088   3.434   4.000
 2775SOL    HW2 9225   0.059   3.357   3.858
 2776SOL     OW 9226   5.086   4.981   6.248
 2776SOL    HW1 9227   5.037   5.043   6.186
 2776SOL    HW2 9228   5.090   4.890   6.208
 2777SOL     OW 9229   2.061   2.074   6.441
 2777SOL    HW1 9230   2.128   2.145   6.424
 2777SOL    HW2 9231   1.976   2.116   6.476
 2778SOL     OW 9232   2.703   0.869   5.883
 2778SOL    HW1 9233   2.797   0.844   5.864
 2778SOL    HW2 9234   2.641   0.816   5.825
 2779SOL     OW 9235   4.887   0.715   1.399
 2779SOL    HW1 9236   4.875   0.807   1.361
 2779SOL    HW2 9237   4.801   0.664   1.391
 2780SOL     OW 9238   7.015   1.096   5.327
 2780SOL    HW1 9239   0.070   1.097   5.396
 2780SOL    HW2 9240   6.976   1.187   5.318
 2781SOL     OW 9241   5.712   0.950   3.487
 2781SOL    HW1 9242   5.637   0.995   3.439
 2781SOL    HW2 9243   5.747   1.011   3.558
 2782SOL     OW 9244   5.625   0.819   6.067
 2782SOL    HW1 9245   5.640   0.731   6.023
 2782SOL    HW2 9246   5.647   0.893   6.003
 2783SOL     OW 9247   6.133   3.712   1.759
 2783SOL    HW1 9248   6.153   3.801   1.719
 2783SOL    HW2 9249   6.201   3.690   1.829
 2784SOL     OW 9250   0.781   2.896   1.240
 2784SOL    HW1 9251   0.693   2.910   1.195
 2784SOL    HW2 9252   0.808   2.800   1.229
 2785SOL     OW 9253   6.138   3.279   2.106
 2785SOL    HW1 9254   6.105   3.189   2.136
 2785SOL    HW2 9255   6.111   3.348   2.173
 2786SOL     OW 9256   0.655   6.020   6.260
 2786SOL    HW1 9257   0.629   6.117   6.263
 2786SOL    HW2 9258   0.749   6.012   6.228
 2787SOL     OW 9259   0.357   5.617   6.737
 2787SOL    HW1 9260   0.403   5.529   6.732
 2787SOL    HW2 9261   0.336   5.650   6.645
 2788SOL     OW 9262   2.850   0.107   6.026
 2788SOL    HW1 9263   2.826   0.037   5.959
 2788SOL    HW2 9264   2.864   0.194   5.979
 2789SOL     OW 9265   1.173   2.080   4.705
 2789SOL    HW1 9266   1.099   2.084   4.638
 2789SOL    HW2 9267   1.220   2.168   4.708
 2790SOL     OW 9268   1.318   5.572   1.813
 2790SOL    HW1 9269   1.363   5.584   1.725
 2790SOL    HW2 9270   1.334   5.654   1.869
 2791SOL     OW 9271   0.937   2.924   3.864
 2791SOL    HW1 9272   0.877   2.929   3.785
 2791SOL    HW2 9273   0.990   3.009   3.873
 2792SOL     OW 9274   3.533   2.092   6.202
 2792SOL    HW1 9275   3.440   2.056   6.199
 2792SOL    HW2 9276   3.589   2.034   6.260
 2793SOL     OW 9277   4.013   3.555   0.352
 2793SOL    HW1 9278   3.947   3.566   0.426
 2793SOL    HW2 9279   4.003   3.629   0.286
 2794SOL     OW 9280   1.069   2.491   0.213
 2794SOL    HW1 9281   1.129   2.537   0.278
 2794SOL    HW2 9282   1.092   2.394   0.209
 2795SOL     OW 9283   1.463   6.308   1.312
 2795SOL    HW1 9284   1.477   6.405   1.330
 2795SOL    HW2 9285   1.430   6.263   1.395
 2796SOL     OW 9286   1.730   6.084   6.680
 2796SOL    HW1 9287   1.672   6.141   6.621
 2796SOL    HW2 9288   1.763   6.140   6.757
 2797SOL     OW 9289   5.320   4.980   3.132
 2797SOL    HW1 9290   5.314   4.888   3.095
 2797SOL    HW2 9291   5.411   4.994   3.171
 2798SOL     OW 9292   5.252   1.253   1.493
 2798SOL    HW1 9293   5.293   1.162   1.506
 2798SOL    HW2 9294   5.179   1.247   1.425
 2799SOL     OW 9295   3.464   6.554   4.303
 2799SOL    HW1 9296   3.417   6.520   4.221
 2799SOL    HW2 9297   3.435   6.648   4.321
 2800SOL     OW 9298   5.404   0.362   6.292
 2800SOL    HW1 9299   5.409   0.271   6.250
 2800SOL    HW2 9300   5.351   0.423   6.232
 2801SOL     OW 9301   0.363   4.435   3.908
 2801SOL    HW1 9302   0.326   4.524   3.936
 2801SOL    HW2 9303   0.361   4.428   3.809
 2802SOL     OW 9304   1.929   5.196   5.097
 2802SOL    HW1 9305   1.887   5.106   5.099
 2802SOL    HW2 9306   2.019   5.192   5.141
 2803SOL     OW 9307   3.723   2.602   6.182
 2803SOL    HW1 9308   3.786   2.667   6.225
 2803SOL    HW2 9309   3.672   2.553   6.253
 2804SOL     OW 9310   0.103   2.615   3.801
 2804SOL    HW1 9311   0.098   2.591   3.898
 2804SOL    HW2 9312   0.194   2.592   3.766
 2805SOL     OW 9313   3.340   3.551   0.757
 2805SOL    HW1 9314   3.327   3.493   0.838
 2805SOL    HW2 9315   3.347   3.493   0.676
 2806SOL     OW 9316   0.168   2.969   5.968
 2806SOL    HW1 9317   0.141   3.065   5.977
 2806SOL    HW2 9318   0.166   2.925   6.058
 2807SOL     OW 9319   4.130   1.381   3.861
 2807SOL    HW1 9320   4.032   1.386   3.844
 2807SOL    HW2 9321   4.179   1.409   3.778
 2808SOL     OW 9322   0.588   5.014   5.383
 2808SOL    HW1 9323   0.616   5.094   5.436
 2808SOL    HW2 9324   0.668   4.958   5.361
 2809SOL     OW 9325   6.947   5.802   1.967
 2809SOL    HW1 9326   6.953   5.719   1.911
 2809SOL    HW2 9327   6.951   5.777   2.064
 2810SOL     OW 9328   1.893   6.854   3.339
 2810SOL    HW1 9329   1.802   6.874   3.373
 2810SOL    HW2 9330   1.897   6.876   3.241
 2811SOL     OW 9331   0.863   1.129   0.714
 2811SOL    HW1 9332   0.866   1.067   0.637
 2811SOL    HW2 9333   0.776   1.179   0.713
 2812SOL     OW 9334   1.211   1.704   0.586
 2812SOL    HW1 9335   1.259   1.617   0.595
 2812SOL    HW2 9336   1.273   1.779   0.612
 2813SOL     OW 9337   0.952   3.172   2.079
 2813SOL    HW1 9338   0.869   3.205   2.123
 2813SOL    HW2 9339   0.992   3.098   2.134
 2814SOL     OW 9340   2.505   4.003   6.744
 2814SOL    HW1 9341   2.517   4.060   6.663
 2814SOL    HW2 9342   2.585   4.014   6.804
 2815SOL     OW 9343   0.132   5.112   4.314
 2815SOL    HW1 9344   0.048   5.135   4.363
 2815SOL    HW2 9345   0.116   5.115   4.216
 2816SOL     OW 9346   0.922   6.007   5.145
 2816SOL    HW1 9347   0.980   5.929   5.170
 2816SOL    HW2 9348   0.920   6.015   5.045
 2817SOL     OW 9349   3.360   0.758   2.291
 2817SOL    HW1 9350   3.311   0.712   2.217
 2817SOL    HW2 9351   3.407   0.838   2.255
 2818SOL     OW 9352   2.103   0.540   0.355
 2818SOL    HW1 9353   2.091   0.632   0.391
 2818SOL    HW2 9354   2.067   0.473   0.421
 2819SOL     OW 9355   0.706   0.148   6.529
 2819SOL    HW1 9356   0.687   0.232   6.478
 2819SOL    HW2 9357   0.740   0.172   6.620
 2820SOL     OW 9358   1.722   2.225   0.165
 2820SOL    HW1 9359   1.682   2.289   0.100
 2820SOL    HW2 9360   1.813   2.198   0.133
 2821SOL     OW 9361   3.252   3.419   6.059
 2821SOL    HW1 9362   3.305   3.504   6.060
 2821SOL    HW2 9363   3.221   3.398   6.152
 2822SOL     OW 9364   4.943   2.521   0.284
 2822SOL    HW1 9365   4.907   2.516   0.191
 2822SOL    HW2 9366   4.867   2.518   0.349
 2823SOL     OW 9367   4.634   3.515   1.363
 2823SOL    HW1 9368   4.573   3.461   1.307
 2823SOL    HW2 9369   4.609   3.612   1.357
 2824SOL     OW 9370   0.690   4.535   4.682
 2824SOL    HW1 9371   0.654   4.469   4.616
 2824SOL    HW2 9372   0.773   4.577   4.645
 2825SOL     OW 9373   5.457   1.153   6.329
 2825SOL    HW1 9374   5.414   1.081   6.274
 2825SOL    HW2 9375   5.437   1.138   6.425
 2826SOL     OW 9376   2.419   2.791   6.797
 2826SOL    HW1 9377   2.389   2.711   6.848
 2826SOL    HW2 9378   2.374   2.792   6.708
 2827SOL     OW 9379   6.066   1.712   6.704
 2827SOL    HW1 9380   6.073   1.722   6.604
 2827SOL    HW2 9381   6.021   1.625   6.725
 2828SOL     OW 9382   1.738   3.178   1.408
 2828SOL    HW1 9383   1.792   3.137   1.482
 2828SOL    HW2 9384   1.785   3.164   1.321
 2829SOL     OW 9385   3.377   3.294   2.179
 2829SOL    HW1 9386   3.465   3.340   2.173
 2829SOL    HW2 9387   3.303   3.360   2.171
 2830SOL     OW 9388   3.217   6.287   4.568
 2830SOL    HW1 9389   3.175   6.200   4.540
 2830SOL    HW2 9390   3.313   6.288   4.539
 2831SOL     OW 9391   6.188   1.574   1.369
 2831SOL    HW1 9392   6.119   1.584   1.298
 2831SOL    HW2 9393   6.214   1.664   1.403
 2832SOL     OW 9394   0.776   3.741   2.404
 2832SOL    HW1 9395   0.813   3.737   2.497
 2832SOL    HW2 9396   0.687   3.694   2.402
 2833SOL     OW 9397   1.383   2.566   2.470
 2833SOL    HW1 9398   1.457   2.591   2.532
 2833SOL    HW2 9399   1.311   2.634   2.475
 2834SOL     OW 9400   3.809   6.723   4.455
 2834SOL    HW1 9401   3.846   6.813   4.478
 2834SOL    HW2 9402   3.811   6.664   4.535
 2835SOL     OW 9403   6.273   0.674   6.764
 2835SOL    HW1 9404   6.305   0.719   6.680
 2835SOL    HW2 9405   6.248   0.580   6.744
 2836SOL     OW 9406   3.015   6.216   2.708
 2836SOL    HW1 9407   3.107   6.180   2.723
 2836SOL    HW2 9408   2.947   6.152   2.744
 2837SOL     OW 9409   4.831   4.355   1.604
 2837SOL    HW1 9410   4.848   4.355   1.505
 2837SOL    HW2 9411   4.733   4.367   1.621
 2838SOL     OW 9412   6.629   4.014   6.389
 2838SOL    HW1 9413   6.675   4.069   6.459
 2838SOL    HW2 9414   6.536   3.994   6.419
 2839SOL     OW 9415   5.916   3.326   5.375
 2839SOL    HW1 9416   5.828   3.285   5.399
 2839SOL    HW2 9417   5.955   3.278   5.297
 2840SOL     OW 9418   5.969   6.798   4.216
 2840SOL    HW1 9419   6.051   6.854   4.206
 2840SOL    HW2 9420   5.915   6.803   4.133
 2841SOL     OW 9421   5.541   4.061   2.535
 2841SOL    HW1 9422   5.571   3.966   2.533
 2841SOL    HW2 9423   5.574   4.108   2.454
 2842SOL     OW 9424   0.774   0.162   3.750
 2842SOL    HW1 9425   0.691   0.112   3.772
 2842SOL    HW2 9426   0.766   0.257   3.782
 2843SOL     OW 9427   2.503   2.603   3.678
 2843SOL    HW1 9428   2.520   2.656   3.761
 2843SOL    HW2 9429   2.424   2.544   3.692
 2844SOL     OW 9430   4.666   3.763   1.034
 2844SOL    HW1 9431   4.609   3.685   1.061
 2844SOL    HW2 9432   4.641   3.843   1.088
 2845SOL     OW 9433   2.517   1.720   2.031
 2845SOL    HW1 9434   2.419   1.709   2.048
 2845SOL    HW2 9435   2.533   1.806   1.983
 2846SOL     OW 9436   6.692   6.762   6.693
 2846SOL    HW1 9437   6.622   6.799   6.632
 2846SOL    HW2 9438   6.650   6.700   6.759
 2847SOL     OW 9439   4.628   5.256   1.278
 2847SOL    HW1 9440   4.638   5.345   1.322
 2847SOL    HW2 9441   4.532   5.231   1.273
 2848SOL     OW 9442   0.787   4.497   5.383
 2848SOL    HW1 9443   0.726   4.499   5.463
 2848SOL    HW2 9444   0.735   4.521   5.301
 2849SOL     OW 9445   5.440   0.710   1.700
 2849SOL    HW1 9446   5.388   0.681   1.620
 2849SOL    HW2 9447   5.520   0.762   1.670
 2850SOL     OW 9448   1.315   0.519   1.816
 2850SOL    HW1 9449   1.349   0.447   1.756
 2850SOL    HW2 9450   1.305   0.483   1.909
 2851SOL     OW 9451   3.027   3.454   1.225
 2851SOL    HW1 9452   3.059   3.380   1.284
 2851SOL    HW2 9453   3.036   3.541   1.272
 2852SOL     OW 9454   6.885   4.852   5.835
 2852SOL    HW1 9455   6.982   4.832   5.847
 2852SOL    HW2 9456   6.866   4.945   5.864
 2853SOL     OW 9457   0.165   4.019   5.419
 2853SOL    HW1 9458   0.097   4.093   5.419
 2853SOL    HW2 9459   0.143   3.954   5.347
 2854SOL     OW 9460   3.336   0.695   6.510
 2854SOL    HW1 9461   3.434   0.683   6.525
 2854SOL    HW2 9462   3.317   0.694   6.412
 2855SOL     OW 9463   2.122   1.482   4.691
 2855SOL    HW1 9464   2.097   1.385   4.682
 2855SOL    HW2 9465   2.119   1.525   4.601
 2856SOL     OW 9466   0.217   5.808   3.940
 2856SOL    HW1 9467   0.192   5.838   4.031
 2856SOL    HW2 9468   0.299   5.751   3.945
 2857SOL     OW 9469   6.874   4.252   1.112
 2857SOL    HW1 9470   6.837   4.330   1.162
 2857SOL    HW2 9471   6.849   4.259   1.015
 2858SOL     OW 9472   4.763   4.562   2.590
 2858SOL    HW1 9473   4.778   4.475   2.543
 2858SOL    HW2 9474   4.701   4.549   2.667
 2859SOL     OW 9475   5.297   4.940   1.671
 2859SOL    HW1 9476   5.349   4.953   1.755
 2859SOL    HW2 9477   5.214   4.889   1.691
 2860SOL     OW 9478   1.029   6.772   2.347
 2860SOL    HW1 9479   1.075   6.706   2.288
 2860SOL    HW2 9480   0.990   6.725   2.426
 2861SOL     OW 9481   4.446   3.865   5.767
 2861SOL    HW1 9482   4.397   3.828   5.688
 2861SOL    HW2 9483   4.422   3.961   5.778
 2862SOL     OW 9484   4.483   2.200   0.142
 2862SOL    HW1 9485   4.426   2.235   0.068
 2862SOL    HW2 9486   4.425   2.161   0.214
 2863SOL     OW 9487   5.742   1.783   5.021
 2863SOL    HW1 9488   5.839   1.807   5.013
 2863SOL    HW2 9489   5.715   1.726   4.943
 2864SOL     OW 9490   3.989   4.802   0.700
 2864SOL    HW1 9491   4.086   4.827   0.698
 2864SOL    HW2 9492   3.944   4.846   0.777
 2865SOL     OW 9493   5.582   4.939   5.328
 2865SOL    HW1 9494   5.527   4.902   5.254
 2865SOL    HW2 9495   5.657   4.994   5.290
 2866SOL     OW 9496   3.878   4.199   0.613
 2866SOL    HW1 9497   3.779   4.205   0.608
 2866SOL    HW2 9498   3.906   4.195   0.709
 2867SOL     OW 9499   6.036   6.370   2.734
 2867SOL    HW1 9500   6.090   6.454   2.740
 2867SOL    HW2 9501   5.955   6.377   2.791
 2868SOL     OW 9502   0.439   0.623   5.823
 2868SOL    HW1 9503   0.496   0.652   5.746
 2868SOL    HW2 9504   0.481   0.651   5.909
 2869SOL     OW 9505   6.157   5.134   3.904
 2869SOL    HW1 9506   6.112   5.057   3.860
 2869SOL    HW2 9507   6.256   5.127   3.891
 2870SOL     OW 9508   0.066   1.668   1.885
 2870SOL    HW1 9509   0.059   1.640   1.789
 2870SOL    HW2 9510   0.154   1.714   1.900
 2871SOL     OW 9511   4.980   1.510   2.974
 2871SOL    HW1 9512   5.028   1.423   2.959
 2871SOL    HW2 9513   4.987   1.565   2.891
 2872SOL     OW 9514   2.703   2.366   2.879
 2872SOL    HW1 9515   2.673   2.419   2.958
 2872SOL    HW2 9516   2.699   2.269   2.900
 2873SOL     OW 9517   1.223   0.301   1.043
 2873SOL    HW1 9518   1.164   0.312   0.963
 2873SOL    HW2 9519   1.302   0.362   1.035
 2874SOL     OW 9520   1.946   1.633   3.276
 2874SOL    HW1 9521   2.026   1.692   3.263
 2874SOL    HW2 9522   1.975   1.546   3.314
 2875SOL     OW 9523   2.356   6.324   3.087
 2875SOL    HW1 9524   2.381   6.341   2.991
 2875SOL    HW2 9525   2.296   6.245   3.092
 2876SOL     OW 9526   2.081   6.534   1.779
 2876SOL    HW1 9527   2.079   6.631   1.754
 2876SOL    HW2 9528   2.159   6.516   1.839
 2877SOL     OW 9529   1.585   2.463   6.372
 2877SOL    HW1 9530   1.646   2.538   6.345
 2877SOL    HW2 9531   1.577   2.398   6.297
 2878SOL     OW 9532   3.874   3.051   4.480
 2878SOL    HW1 9533   3.883   3.017   4.386
 2878SOL    HW2 9534   3.825   3.138   4.478
 2879SOL     OW 9535   5.273   4.482   0.179
 2879SOL    HW1 9536   5.209   4.423   0.129
 2879SOL    HW2 9537   5.265   4.464   0.277
 2880SOL     OW 9538   1.991   1.118   3.522
 2880SOL    HW1 9539   1.952   1.190   3.579
 2880SOL    HW2 9540   2.059   1.067   3.575
 2881SOL     OW 9541   5.381   5.991   0.301
 2881SOL    HW1 9542   5.451   6.014   0.233
 2881SOL    HW2 9543   5.423   5.986   0.392
 2882SOL     OW 9544   4.407   6.452   0.054
 2882SOL    HW1 9545   4.357   6.366   0.048
 2882SOL    HW2 9546   4.501   6.439   0.025
 2883SOL     OW 9547   5.780   6.530   3.443
 2883SOL    HW1 9548   5.850   6.505   3.377
 2883SOL    HW2 9549   5.820   6.586   3.515
 2884SOL     OW 9550   5.718   5.427   4.101
 2884SOL    HW1 9551   5.678   5.340   4.072
 2884SOL    HW2 9552   5.815   5.412   4.125
 2885SOL     OW 9553   1.480   2.693   3.546
 2885SOL    HW1 9554   1.442   2.753   3.617
 2885SOL    HW2 9555   1.491   2.601   3.583
 2886SOL     OW 9556   2.306   4.419   5.528
 2886SOL    HW1 9557   2.387   4.407   5.585
 2886SOL    HW2 9558   2.299   4.343   5.463
 2887SOL     OW 9559   6.976   5.797   2.949
 2887SOL    HW1 9560   6.990   5.718   3.008
 2887SOL    HW2 9561   0.043   5.850   2.945
 2888SOL     OW 9562   5.591   7.005   6.711
 2888SOL    HW1 9563   5.640   6.932   6.663
 2888SOL    HW2 9564   5.645   0.018   6.789
 2889SOL     OW 9565   4.097   6.089   3.677
 2889SOL    HW1 9566   4.018   6.029   3.690
 2889SOL    HW2 9567   4.074   6.181   3.709
 2890SOL     OW 9568   0.697   2.250   1.013
 2890SOL    HW1 9569   0.749   2.292   0.938
 2890SOL    HW2 9570   0.757   2.233   1.090
 2891SOL     OW 9571   0.084   1.465   5.122
 2891SOL    HW1 9572   0.112   1.379   5.081
 2891SOL    HW2 9573   0.142   1.486   5.201
 2892SOL     OW 9574   5.471   3.896   2.182
 2892SOL    HW1 9575   5.424   3.873   2.096
 2892SOL    HW2 9576   5.493   3.994   2.182
 2893SOL     OW 9577   6.643   5.634   5.152
 2893SOL    HW1 9578   6.704   5.560   5.176
 2893SOL    HW2 9579   6.601   5.615   5.063
 2894SOL     OW 9580   2.186   5.320   1.976
 2894SOL    HW1 9581   2.264   5.382   1.969
 2894SOL    HW2 9582   2.110   5.368   2.020
 2895SOL     OW 9583   4.391   6.588   5.862
 2895SOL    HW1 9584   4.387   6.490   5.882
 2895SOL    HW2 9585   4.462   6.631   5.918
 2896SOL     OW 9586   5.380   0.222   4.791
 2896SOL    HW1 9587   5.409   0.132   4.825
 2896SOL    HW2 9588   5.289   0.243   4.826
 2897SOL     OW 9589   3.815   5.154   2.764
 2897SOL    HW1 9590   3.718   5.158   2.788
 2897SOL    HW2 9591   3.864   5.096   2.829
 2898SOL     OW 9592   5.401   2.677   2.436
 2898SOL    HW1 9593   5.453   2.601   2.475
 2898SOL    HW2 9594   5.327   2.641   2.380
 2899SOL     OW 9595   6.738   3.982   0.928
 2899SOL    HW1 9596   6.682   4.023   1.000
 2899SOL    HW2 9597   6.792   3.907   0.965
 2900SOL     OW 9598   2.292   2.879   5.642
 2900SOL    HW1 9599   2.340   2.794   5.623
 2900SOL    HW2 9600   2.315   2.947   5.572
 2901SOL     OW 9601   0.868   4.084   3.089
 2901SOL    HW1 9602   0.968   4.086   3.090
 2901SOL    HW2 9603   0.835   4.114   3.000
 2902SOL     OW 9604   5.893   5.672   3.759
 2902SOL    HW1 9605   5.899   5.572   3.762
 2902SOL    HW2 9606   5.797   5.700   3.758
 2903SOL     OW 9607   5.757   4.906   0.312
 2903SOL    HW1 9608   5.842   4.859   0.287
 2903SOL    HW2 9609   5.764   5.003   0.290
 2904SOL     OW 9610   1.960   4.117   5.047
 2904SOL    HW1 9611   2.026   4.050   5.079
 2904SOL    HW2 9612   1.979   4.141   4.952
 2905SOL     OW 9613   2.007   5.708   1.142
 2905SOL    HW1 9614   2.078   5.718   1.211
 2905SOL    HW2 9615   1.927   5.761   1.169
 2906SOL     OW 9616   5.917   6.069   4.513
 2906SOL    HW1 9617   5.984   6.103   4.447
 2906SOL    HW2 9618   5.838   6.032   4.465
 2907SOL     OW 9619   0.771   0.551   4.834
 2907SOL    HW1 9620   0.860   0.516   4.863
 2907SOL    HW2 9621   0.750   0.634   4.886
 2908SOL     OW 9622   4.573   0.027   3.162
 2908SOL    HW1 9623   4.478   0.040   3.135
 2908SOL    HW2 9624   4.631   0.025   3.080
 2909SOL     OW 9625   0.085   6.498   1.517
 2909SOL    HW1 9626   0.070   6.417   1.460
 2909SOL    HW2 9627   0.001   6.517   1.568
 2910SOL     OW 9628   0.769   0.588   4.485
 2910SOL    HW1 9629   0.761   0.492   4.512
 2910SOL    HW2 9630   0.765   0.595   4.385
 2911SOL     OW 9631   6.907   4.313   5.651
 2911SOL    HW1 9632   6.820   4.285   5.692
 2911SOL    HW2 9633   6.894   4.396   5.597
 2912SOL     OW 9634   1.231   1.091   1.534
 2912SOL    HW1 9635   1.215   1.028   1.609
 2912SOL    HW2 9636   1.264   1.179   1.570
 2913SOL     OW 9637   2.703   6.370   2.987
 2913SOL    HW1 9638   2.669   6.457   3.023
 2913SOL    HW2 9639   2.633   6.328   2.929
 2914SOL     OW 9640   4.213   5.545   0.992
 2914SOL    HW1 9641   4.272   5.480   1.039
 2914SOL    HW2 9642   4.236   5.548   0.895
 2915SOL     OW 9643   2.656   0.386   3.322
 2915SOL    HW1 9644   2.695   0.346   3.239
 2915SOL    HW2 9645   2.683   0.482   3.329
 2916SOL     OW 9646   1.895   5.698   6.978
 2916SOL    HW1 9647   1.913   5.739   0.049
 2916SOL    HW2 9648   1.894   5.769   6.908
 2917SOL     OW 9649   2.603   6.607   3.044
 2917SOL    HW1 9650   2.565   6.621   3.135
 2917SOL    HW2 9651   2.688   6.659   3.035
 2918SOL     OW 9652   5.256   3.148   1.429
 2918SOL    HW1 9653   5.161   3.169   1.452
 2918SOL    HW2 9654   5.258   3.078   1.357
 2919SOL     OW 9655   0.662   6.015   5.170
 2919SOL    HW1 9656   0.761   6.006   5.174
 2919SOL    HW2 9657   0.633   6.098   5.218
 2920SOL     OW 9658   1.990   2.507   1.983
 2920SOL    HW1 9659   1.942   2.583   1.939
 2920SOL    HW2 9660   2.025   2.445   1.912
 2921SOL     OW 9661   1.589   6.191   3.724
 2921SOL    HW1 9662   1.566   6.227   3.633
 2921SOL    HW2 9663   1.628   6.100   3.715
 2922SOL     OW 9664   4.058   5.105   4.202
 2922SOL    HW1 9665   4.021   5.184   4.252
 2922SOL    HW2 9666   4.024   5.107   4.108
 2923SOL     OW 9667   6.834   5.378   5.213
 2923SOL    HW1 9668   6.753   5.327   5.241
 2923SOL    HW2 9669   6.861   5.349   5.121
 2924SOL     OW 9670   6.037   1.794   6.423
 2924SOL    HW1 9671   6.099   1.809   6.346
 2924SOL    HW2 9672   5.943   1.796   6.391
 2925SOL     OW 9673   5.745   6.519   4.739
 2925SOL    HW1 9674   5.759   6.532   4.837
 2925SOL    HW2 9675   5.703   6.601   4.700
 2926SOL     OW 9676   6.669   2.294   4.074
 2926SOL    HW1 9677   6.659   2.367   4.007
 2926SOL    HW2 9678   6.582   2.280   4.122
 2927SOL     OW 9679   1.041   1.856   1.655
 2927SOL    HW1 9680   0.981   1.885   1.581
 2927SOL    HW2 9681   1.048   1.929   1.723
 2928SOL     OW 9682   6.184   3.093   0.557
 2928SOL    HW1 9683   6.207   3.051   0.645
 2928SOL    HW2 9684   6.231   3.046   0.483
 2929SOL     OW 9685   2.000   2.011   4.139
 2929SOL    HW1 9686   2.084   2.064   4.150
 2929SOL    HW2 9687   1.946   2.049   4.064
 2930SOL     OW 9688   0.701   3.925   4.318
 2930SOL    HW1 9689   0.693   3.837   4.365
 2930SOL    HW2 9690   0.775   3.919   4.250
 2931SOL     OW 9691   5.303   3.976   5.633
 2931SOL    HW1 9692   5.305   4.043   5.708
 2931SOL    HW2 9693   5.246   4.012   5.559
 2932SOL     OW 9694   6.051   4.987   1.480
 2932SOL    HW1 9695   6.097   5.007   1.567
 2932SOL    HW2 9696   6.073   4.894   1.451
 2933SOL     OW 9697   1.309   6.574   6.923
 2933SOL    HW1 9698   1.288   6.587   0.002
 2933SOL    HW2 9699   1.224   6.565   6.871
 2934SOL     OW 9700   3.846   4.927   0.902
 2934SOL    HW1 9701   3.914   4.898   0.970
 2934SOL    HW2 9702   3.761   4.952   0.948
 2935SOL     OW 9703   1.011   2.538   6.277
 2935SOL    HW1 9704   0.956   2.455   6.286
 2935SOL    HW2 9705   1.086   2.536   6.342
 2936SOL     OW 9706   4.883   6.484   1.941
 2936SOL    HW1 9707   4.790   6.456   1.961
 2936SOL    HW2 9708   4.902   6.571   1.986
 2937SOL     OW 9709   5.420   4.170   2.741
 2937SOL    HW1 9710   5.443   4.114   2.662
 2937SOL    HW2 9711   5.376   4.255   2.711
 2938SOL     OW 9712   0.521   5.876   5.892
 2938SOL    HW1 9713   0.453   5.923   5.948
 2938SOL    HW2 9714   0.483   5.858   5.801
 2939SOL     OW 9715   0.174   6.213   1.568
 2939SOL    HW1 9716   0.196   6.232   1.663
 2939SOL    HW2 9717   0.228   6.272   1.508
 2940SOL     OW 9718   4.489   6.788   3.659
 2940SOL    HW1 9719   4.399   6.745   3.652
 2940SOL    HW2 9720   4.484   6.881   3.622
 2941SOL     OW 9721   2.163   4.711   3.132
 2941SOL    HW1 9722   2.187   4.639   3.197
 2941SOL    HW2 9723   2.203   4.797   3.162
 2942SOL     OW 9724   3.764   1.428   1.122
 2942SOL    HW1 9725   3.754   1.434   1.221
 2942SOL    HW2 9726   3.858   1.400   1.100
 2943SOL     OW 9727   5.678   3.780   2.971
 2943SOL    HW1 9728   5.715   3.839   3.042
 2943SOL    HW2 9729   5.752   3.726   2.930
 2944SOL     OW 9730   2.099   5.774   2.100
 2944SOL    HW1 9731   2.139   5.795   2.190
 2944SOL    HW2 9732   2.080   5.676   2.094
 2945SOL     OW 9733   4.541   4.375   1.033
 2945SOL    HW1 9734   4.464   4.338   1.086
 2945SOL    HW2 9735   4.591   4.300   0.991
 2946SOL     OW 9736   3.509   3.093   4.465
 2946SOL    HW1 9737   3.544   3.011   4.419
 2946SOL    HW2 9738   3.433   3.068   4.524
 2947SOL     OW 9739   6.685   5.837   1.021
 2947SOL    HW1 9740   6.711   5.860   0.927
 2947SOL    HW2 9741   6.768   5.826   1.077
 2948SOL     OW 9742   0.039   3.572   2.317
 2948SOL    HW1 9743   0.073   3.498   2.376
 2948SOL    HW2 9744   0.037   3.541   2.222
 2949SOL     OW 9745   1.983   6.383   0.488
 2949SOL    HW1 9746   1.920   6.407   0.415
 2949SOL    HW2 9747   1.946   6.411   0.577
 2950SOL     OW 9748   6.106   5.812   2.245
 2950SOL    HW1 9749   6.126   5.780   2.338
 2950SOL    HW2 9750   6.174   5.880   2.218
 2951SOL     OW 9751   0.358   1.184   1.477
 2951SOL    HW1 9752   0.457   1.173   1.483
 2951SOL    HW2 9753   0.330   1.178   1.381
 2952SOL     OW 9754   6.981   1.897   5.384
 2952SOL    HW1 9755   7.001   1.924   5.290
 2952SOL    HW2 9756   6.882   1.907   5.400
 2953SOL     OW 9757   1.395   5.070   3.527
 2953SOL    HW1 9758   1.346   5.083   3.440
 2953SOL    HW2 9759   1.492   5.092   3.514
 2954SOL     OW 9760   0.188   4.082   6.298
 2954SOL    HW1 9761   0.236   4.007   6.254
 2954SOL    HW2 9762   0.133   4.046   6.374
 2955SOL     OW 9763   1.404   4.548   6.150
 2955SOL    HW1 9764   1.431   4.576   6.242
 2955SOL    HW2 9765   1.471   4.484   6.113
 2956SOL     OW 9766   5.222   4.818   4.177
 2956SOL    HW1 9767   5.234   4.722   4.198
 2956SOL    HW2 9768   5.162   4.828   4.098
 2957SOL     OW 9769   2.685   5.206   1.178
 2957SOL    HW1 9770   2.711   5.109   1.181
 2957SOL    HW2 9771   2.643   5.232   1.265
 2958SOL     OW 9772   1.734   4.536   2.998
 2958SOL    HW1 9773   1.662   4.482   2.955
 2958SOL    HW2 9774   1.701   4.570   3.087
 2959SOL     OW 9775   0.023   3.660   3.723
 2959SOL    HW1 9776   0.028   3.594   3.797
 2959SOL    HW2 9777   0.065   3.746   3.750
 2960SOL     OW 9778   4.983   6.881   0.956
 2960SOL    HW1 9779   5.036   6.854   0.876
 2960SOL    HW2 9780   4.888   6.898   0.929
 2961SOL     OW 9781   5.870   3.327   1.920
 2961SOL    HW1 9782   5.918   3.318   1.832
 2961SOL    HW2 9783   5.910   3.263   1.986
 2962SOL     OW 9784   6.970   0.353   3.777
 2962SOL    HW1 9785   0.044   0.391   3.784
 2962SOL    HW2 9786   6.909   0.422   3.737
 2963SOL     OW 9787   1.196   0.556   5.102
 2963SOL    HW1 9788   1.261   0.483   5.087
 2963SOL    HW2 9789   1.198   0.584   5.199
 2964SOL     OW 9790   1.539   1.274   6.435
 2964SOL    HW1 9791   1.555   1.278   6.336
 2964SOL    HW2 9792   1.623   1.245   6.481
 2965SOL     OW 9793   6.503   6.987   5.794
 2965SOL    HW1 9794   6.581   7.003   5.734
 2965SOL    HW2 9795   6.529   7.003   5.889
 2966SOL     OW 9796   2.490   5.840   2.243
 2966SOL    HW1 9797   2.581   5.802   2.264
 2966SOL    HW2 9798   2.481   5.851   2.144
 2967SOL     OW 9799   5.141   0.303   5.057
 2967SOL    HW1 9800   5.156   0.205   5.074
 2967SOL    HW2 9801   5.229   0.351   5.063
 2968SOL     OW 9802   0.856   3.844   1.165
 2968SOL    HW1 9803   0.918   3.890   1.230
 2968SOL    HW2 9804   0.850   3.898   1.082
 2969SOL     OW 9805   4.734   2.855   5.278
 2969SOL    HW1 9806   4.728   2.783   5.209
 2969SOL    HW2 9807   4.830   2.874   5.298
 2970SOL     OW 9808   2.453   2.403   5.345
 2970SOL    HW1 9809   2.455   2.393   5.444
 2970SOL    HW2 9810   2.533   2.453   5.314
 2971SOL     OW 9811   5.205   2.823   6.712
 2971SOL    HW1 9812   5.133   2.852   6.648
 2971SOL    HW2 9813   5.226   2.898   6.775
 2972SOL     OW 9814   6.640   5.301   6.012
 2972SOL    HW1 9815   6.564   5.331   6.070
 2972SOL    HW2 9816   6.646   5.362   5.933
 2973SOL     OW 9817   4.711   1.140   4.185
 2973SOL    HW1 9818   4.632   1.168   4.130
 2973SOL    HW2 9819   4.786   1.205   4.171
 2974SOL     OW 9820   4.649   6.973   2.498
 2974SOL    HW1 9821   4.735   6.980   2.549
 2974SOL    HW2 9822   4.590   0.032   2.521
 2975SOL     OW 9823   4.918   3.822   4.654
 2975SOL    HW1 9824   5.018   3.818   4.651
 2975SOL    HW2 9825   4.884   3.758   4.724
 2976SOL     OW 9826   3.908   1.117   2.026
 2976SOL    HW1 9827   4.002   1.087   2.038
 2976SOL    HW2 9828   3.899   1.167   1.939
 2977SOL     OW 9829   0.973   0.657   1.759
 2977SOL    HW1 9830   1.062   0.666   1.713
 2977SOL    HW2 9831   0.986   0.612   1.848
 2978SOL     OW 9832   4.328   5.295   6.841
 2978SOL    HW1 9833   4.404   5.347   6.882
 2978SOL    HW2 9834   4.356   5.259   6.753
 2979SOL     OW 9835   3.160   0.797   4.817
 2979SOL    HW1 9836   3.226   0.784   4.743
 2979SOL    HW2 9837   3.193   0.868   4.879
 2980SOL     OW 9838   2.994   3.548   4.225
 2980SOL    HW1 9839   2.925   3.561   4.154
 2980SOL    HW2 9840   3.038   3.458   4.213
 2981SOL     OW 9841   2.648   0.884   1.334
 2981SOL    HW1 9842   2.684   0.822   1.402
 2981SOL    HW2 9843   2.654   0.978   1.368
 2982SOL     OW 9844   1.904   0.652   1.016
 2982SOL    HW1 9845   1.957   0.736   1.001
 2982SOL    HW2 9846   1.967   0.575   1.029
 2983SOL     OW 9847   6.557   3.236   5.762
 2983SOL    HW1 9848   6.577   3.174   5.838
 2983SOL    HW2 9849   6.637   3.295   5.746
 2984SOL     OW 9850   0.519   5.689   1.606
 2984SOL    HW1 9851   0.536   5.668   1.510
 2984SOL    HW2 9852   0.423   5.672   1.627
 2985SOL     OW 9853   6.204   0.410   6.300
 2985SOL    HW1 9854   6.290   0.362   6.317
 2985SOL    HW2 9855   6.215   0.471   6.221
 2986SOL     OW 9856   3.628   3.430   2.186
 2986SOL    HW1 9857   3.687   3.412   2.107
 2986SOL    HW2 9858   3.683   3.467   2.261
 2987SOL     OW 9859   2.430   5.692   4.860
 2987SOL    HW1 9860   2.527   5.670   4.860
 2987SOL    HW2 9861   2.418   5.792   4.856
 2988SOL     OW 9862   6.953   1.869   6.314
 2988SOL    HW1 9863   6.916   1.884   6.406
 2988SOL    HW2 9864   6.912   1.934   6.250
 2989SOL     OW 9865   5.542   3.530   4.766
 2989SOL    HW1 9866   5.525   3.584   4.848
 2989SOL    HW2 9867   5.567   3.436   4.792
 2990SOL     OW 9868   5.441   2.005   4.698
 2990SOL    HW1 9869   5.435   2.077   4.629
 2990SOL    HW2 9870   5.520   2.022   4.757
 2991SOL     OW 9871   6.952   3.365   0.596
 2991SOL    HW1 9872   6.914   3.273   0.606
 2991SOL    HW2 9873   6.889   3.431   0.635
 2992SOL     OW 9874   0.505   4.189   4.821
 2992SOL    HW1 9875   0.440   4.260   4.796
 2992SOL    HW2 9876   0.459   4.100   4.823
 2993SOL     OW 9877   2.451   4.287   0.671
 2993SOL    HW1 9878   2.502   4.233   0.604
 2993SOL    HW2 9879   2.358   4.250   0.679
 2994SOL     OW 9880   3.249   5.904   5.379
 2994SOL    HW1 9881   3.286   5.959   5.455
 2994SOL    HW2 9882   3.292   5.934   5.293
 2995SOL     OW 9883   4.185   0.166   1.691
 2995SOL    HW1 9884   4.221   0.094   1.632
 2995SOL    HW2 9885   4.215   0.255   1.657
 2996SOL     OW 9886   6.897   1.109   3.829
 2996SOL    HW1 9887   6.900   1.104   3.929
 2996SOL    HW2 9888   6.801   1.107   3.798
 2997SOL     OW 9889   4.930   6.691   4.125
 2997SOL    HW1 9890   4.887   6.782   4.126
 2997SOL    HW2 9891   4.860   6.622   4.107
 2998SOL     OW 9892   2.832   0.687   1.573
 2998SOL    HW1 9893   2.896   0.760   1.598
 2998SOL    HW2 9894   2.880   0.600   1.570
 2999SOL     OW 9895   2.286   4.582   1.031
 2999SOL    HW1 9896   2.282   4.625   1.121
 2999SOL    HW2 9897   2.198   4.593   0.985
 3000SOL     OW 9898   2.680   4.207   5.350
 3000SOL    HW1 9899   2.771   4.248   5.350
 3000SOL    HW2 9900   2.666   4.157   5.264
 3001SOL     OW 9901   5.047   0.759   6.381
 3001SOL    HW1 9902   5.064   0.713   6.468
 3001SOL    HW2 9903   4.998   0.844   6.398
 3002SOL     OW 9904   1.657   1.847   1.758
 3002SOL    HW1 9905   1.647   1.891   1.847
 3002SOL    HW2 9906   1.726   1.896   1.705
 3003SOL     OW 9907   1.709   6.833   0.687
 3003SOL    HW1 9908   1.632   6.882   0.728
 3003SOL    HW2 9909   1.712   6.740   0.723
 3004SOL     OW 9910   2.414   6.860   3.002
 3004SOL    HW1 9911   2.470   6.785   3.037
 3004SOL    HW2 9912   2.377   6.913   3.078
 3005SOL     OW 9913   1.485   2.231   0.864
 3005SOL    HW1 9914   1.550   2.192   0.799
 3005SOL    HW2 9915   1.451   2.318   0.829
 3006SOL     OW 9916   5.382   1.394   6.142
 3006SOL    HW1 9917   5.396   1.313   6.199
 3006SOL    HW2 9918   5.284   1.405   6.123
 3007SOL     OW 9919   6.292   5.451   6.522
 3007SOL    HW1 9920   6.314   5.546   6.502
 3007SOL    HW2 9921   6.247   5.445   6.612
 3008SOL     OW 9922   4.507   3.420   5.662
 3008SOL    HW1 9923   4.451   3.355   5.612
 3008SOL    HW2 9924   4.512   3.506   5.611
 3009SOL     OW 9925   6.741   3.066   2.270
 3009SOL    HW1 9926   6.727   3.009   2.351
 3009SOL    HW2 9927   6.838   3.087   2.260
 3010SOL     OW 9928   4.437   5.309   2.101
 3010SOL    HW1 9929   4.465   5.286   2.007
 3010SOL    HW2 9930   4.390   5.231   2.141
 3011SOL     OW 9931   6.680   0.342   0.197
 3011SOL    HW1 9932   6.673   0.435   0.162
 3011SOL    HW2 9933   6.639   0.279   0.132
 3012SOL     OW 9934   2.113   1.625   4.933
 3012SOL    HW1 9935   2.033   1.684   4.925
 3012SOL    HW2 9936   2.116   1.561   4.856
 3013SOL     OW 9937   0.045   5.033   5.155
 3013SOL    HW1 9938   6.974   4.988   5.141
 3013SOL    HW2 9939   0.110   4.967   5.194
 3014SOL     OW 9940   5.036   0.252   6.468
 3014SOL    HW1 9941   4.949   0.206   6.485
 3014SOL    HW2 9942   5.081   0.272   6.555
 3015SOL     OW 9943   1.845   0.918   6.065
 3015SOL    HW1 9944   1.906   0.847   6.100
 3015SOL    HW2 9945   1.860   0.928   5.966
 3016SOL     OW 9946   2.140   6.829   4.153
 3016SOL    HW1 9947   2.173   6.736   4.165
 3016SOL    HW2 9948   2.192   6.874   4.081
 3017SOL     OW 9949   1.607   5.974   6.974
 3017SOL    HW1 9950   1.642   6.065   6.998
 3017SOL    HW2 9951   1.584   5.925   0.041
 3018SOL     OW 9952   3.691   1.151   1.644
 3018SOL    HW1 9953   3.607   1.205   1.649
 3018SOL    HW2 9954   3.757   1.186   1.710
 3019SOL     OW 9955   2.155   0.074   5.917
 3019SOL    HW1 9956   2.212   0.155   5.907
 3019SOL    HW2 9957   2.062   0.101   5.943
 3020SOL     OW 9958   5.815   5.108   6.748
 3020SOL    HW1 9959   5.847   5.140   6.837
 3020SOL    HW2 9960   5.894   5.087   6.690
 3021SOL     OW 9961   3.871   0.560   4.666
 3021SOL    HW1 9962   3.856   0.641   4.609
 3021SOL    HW2 9963   3.922   0.586   4.748
 3022SOL     OW 9964   4.427   6.126   3.241
 3022SOL    HW1 9965   4.379   6.106   3.156
 3022SOL    HW2 9966   4.521   6.091   3.235
 3023SOL     OW 9967   5.789   4.762   4.594
 3023SOL    HW1 9968   5.700   4.745   4.552
 3023SOL    HW2 9969   5.851   4.801   4.527
 3024SOL     OW 9970   0.325   1.048   0.439
 3024SOL    HW1 9971   0.278   0.963   0.416
 3024SOL    HW2 9972   0.262   1.125   0.431
 3025SOL     OW 9973   4.320   5.587   7.002
 3025SOL    HW1 9974   4.313   5.679   0.022
 3025SOL    HW2 9975   4.366   5.591   6.913
 3026SOL     OW 9976   0.421   0.486   2.001
 3026SOL    HW1 9977   0.333   0.470   1.958
 3026SOL    HW2 9978   0.491   0.500   1.930
 3027SOL     OW 9979   3.954   0.592   0.752
 3027SOL    HW1 9980   3.879   0.563   0.812
 3027SOL    HW2 9981   3.916   0.639   0.672
 3028SOL     OW 9982   2.952   3.573   5.187
 3028SOL    HW1 9983   3.015   3.543   5.115
 3028SOL    HW2 9984   2.970   3.521   5.271
 3029SOL     OW 9985   6.723   3.421   4.673
 3029SOL    HW1 9986   6.800   3.416   4.609
 3029SOL    HW2 9987   6.747   3.481   4.749
 3030SOL     OW 9988   2.332   2.421   6.598
 3030SOL    HW1 9989   2.418   2.425   6.649
 3030SOL    HW2 9990   2.256   2.445   6.658
 3031SOL     OW 9991   1.290   5.530   0.778
 3031SOL    HW1 9992   1.388   5.509   0.782
 3031SOL    HW2 9993   1.258   5.557   0.869
 3032SOL     OW 9994   2.302   6.995   3.245
 3032SOL    HW1 9995   2.362   0.047   3.284
 3032SOL    HW2 9996   2.252   6.949   3.318
 3033SOL     OW 9997   1.218   1.833   5.746
 3033SOL    HW1 9998   1.317   1.835   5.760
 3033SOL    HW2 9999   1.192   1.903   5.680
 3034SOL     OW10000   5.601   3.332   3.015
 3034SOL    HW110001   5.595   3.382   2.929
 3034SOL    HW210002   5.689   3.285   3.021
 3035SOL     OW10003   0.034   3.321   0.131
 3035SOL    HW110004   0.023   3.410   0.175
 3035SOL    HW210005   6.962   3.283   0.109
 3036SOL     OW10006   3.078   2.053   5.565
 3036SOL    HW110007   3.080   2.083   5.470
 3036SOL    HW210008   2.984   2.032   5.592
 3037SOL     OW10009   1.366   5.791   6.223
 3037SOL    HW110010   1.411   5.815   6.309
 3037SOL    HW210011   1.279   5.746   6.242
 3038SOL     OW10012   5.616   4.762   6.223
 3038SOL    HW110013   5.640   4.837   6.285
 3038SOL    HW210014   5.556   4.697   6.271
 3039SOL     OW10015   6.351   3.904   6.242
 3039SOL    HW110016   6.405   3.924   6.160
 3039SOL    HW210017   6.257   3.936   6.229
 3040SOL     OW10018   5.531   5.240   6.269
 3040SOL    HW110019   5.518   5.190   6.183
 3040SOL    HW210020   5.595   5.315   6.254
 3041SOL     OW10021   1.276   4.805   5.690
 3041SOL    HW110022   1.227   4.752   5.759
 3041SOL    HW210023   1.327   4.743   5.631
 3042SOL     OW10024   6.966   5.020   3.715
 3042SOL    HW110025   6.914   4.979   3.790
 3042SOL    HW210026   6.908   5.082   3.663
 3043SOL     OW10027   2.865   5.445   1.125
 3043SOL    HW110028   2.940   5.457   1.191
 3043SOL    HW210029   2.838   5.349   1.124
 3044SOL     OW10030   3.873   3.537   4.823
 3044SOL    HW110031   3.802   3.504   4.886
 3044SOL    HW210032   3.843   3.523   4.729
 3045SOL     OW10033   4.670   1.745   2.337
 3045SOL    HW110034   4.684   1.844   2.341
 3045SOL    HW210035   4.592   1.724   2.278
 3046SOL     OW10036   5.429   6.426   1.360
 3046SOL    HW110037   5.517   6.453   1.401
 3046SOL    HW210038   5.446   6.367   1.282
 3047SOL     OW10039   5.983   1.598   4.448
 3047SOL    HW110040   6.036   1.516   4.472
 3047SOL    HW210041   6.001   1.622   4.353
 3048SOL     OW10042   4.211   4.832   1.498
 3048SOL    HW110043   4.178   4.917   1.537
 3048SOL    HW210044   4.276   4.851   1.424
 3049SOL     OW10045   0.626   2.041   2.031
 3049SOL    HW110046   0.712   2.062   2.077
 3049SOL    HW210047   0.552   2.034   2.099
 3050SOL     OW10048   3.211   2.232   6.643
 3050SOL    HW110049   3.223   2.278   6.555
 3050SOL    HW210050   3.175   2.296   6.710
 3051SOL     OW10051   2.689   5.496   5.353
 3051SOL    HW110052   2.591   5.496   5.374
 3051SOL    HW210053   2.703   5.534   5.261
 3052SOL     OW10054   6.936   0.034   2.964
 3052SOL    HW110055   6.849   0.068   2.999
 3052SOL    HW210056   6.949   0.066   2.870
 3053SOL     OW10057   0.969   3.922   0.119
 3053SOL    HW110058   0.968   3.924   0.019
 3053SOL    HW210059   0.879   3.894   0.152
 3054SOL     OW10060   5.926   0.891   2.871
 3054SOL    HW110061   5.968   0.950   2.941
 3054SOL    HW210062   5.911   0.944   2.788
 3055SOL     OW10063   6.024   6.392   6.838
 3055SOL    HW110064   5.937   6.383   6.886
 3055SOL    HW210065   6.032   6.485   6.800
 3056SOL     OW10066   4.103   1.695   6.394
 3056SOL    HW110067   4.041   1.625   6.358
 3056SOL    HW210068   4.196   1.675   6.364
 3057SOL     OW10069   5.001   3.700   3.407
 3057SOL    HW110070   5.026   3.615   3.360
 3057SOL    HW210071   4.979   3.679   3.502
 3058SOL     OW10072   0.668   5.208   6.261
 3058SOL    HW110073   0.645   5.112   6.247
 3058SOL    HW210074   0.638   5.261   6.181
 3059SOL     OW10075   1.025   2.171   2.643
 3059SOL    HW110076   1.025   2.140   2.738
 3059SOL    HW210077   1.107   2.136   2.597
 3060SOL     OW10078   5.286   4.112   3.952
 3060SOL    HW110079   5.267   4.090   3.857
 3060SOL    HW210080   5.205   4.153   3.994
 3061SOL     OW10081   5.500   0.240   3.811
 3061SOL    HW110082   5.557   0.245   3.893
 3061SOL    HW210083   5.452   0.152   3.809
 3062SOL     OW10084   4.116   4.505   0.822
 3062SOL    HW110085   4.073   4.502   0.912
 3062SOL    HW210086   4.065   4.569   0.764
 3063SOL     OW10087   6.958   4.972   2.082
 3063SOL    HW110088   6.900   4.896   2.112
 3063SOL    HW210089   7.014   4.943   2.005
 3064SOL     OW10090   5.174   2.252   0.118
 3064SOL    HW110091   5.147   2.296   0.204
 3064SOL    HW210092   5.092   2.225   0.068
 3065SOL     OW10093   5.727   1.190   6.345
 3065SOL    HW110094   5.632   1.160   6.338
 3065SOL    HW210095   5.732   1.289   6.330
 3066SOL     OW10096   5.329   0.132   5.390
 3066SOL    HW110097   5.346   0.122   5.292
 3066SOL    HW210098   5.231   0.119   5.409
 3067SOL     OW10099   1.129   2.256   5.108
 3067SOL    HW110100   1.134   2.290   5.202
 3067SOL    HW210101   1.140   2.333   5.045
 3068SOL     OW10102   6.723   0.026   0.391
 3068SOL    HW110103   6.789   0.070   0.452
 3068SOL    HW210104   6.764   0.014   0.301
 3069SOL     OW10105   4.577   6.629   4.329
 3069SOL    HW110106   4.645   6.701   4.342
 3069SOL    HW210107   4.494   6.669   4.289
 3070SOL     OW10108   2.423   0.800   0.782
 3070SOL    HW110109   2.403   0.820   0.877
 3070SOL    HW210110   2.339   0.777   0.734
 3071SOL     OW10111   5.676   4.572   5.520
 3071SOL    HW110112   5.667   4.557   5.422
 3071SOL    HW210113   5.760   4.529   5.553
 3072SOL     OW10114   2.130   6.559   6.556
 3072SOL    HW110115   2.125   6.479   6.497
 3072SOL    HW210116   2.110   6.641   6.502
 3073SOL     OW10117   0.808   5.271   1.801
 3073SOL    HW110118   0.833   5.271   1.898
 3073SOL    HW210119   0.750   5.351   1.782
 3074SOL     OW10120   3.089   3.012   1.604
 3074SOL    HW110121   3.175   3.064   1.607
 3074SOL    HW210122   3.083   2.954   1.686
 3075SOL     OW10123   3.874   4.962   1.345
 3075SOL    HW110124   3.927   4.954   1.260
 3075SOL    HW210125   3.793   4.903   1.339
 3076SOL     OW10126   0.754   0.792   4.961
 3076SOL    HW110127   0.830   0.852   4.985
 3076SOL    HW210128   0.672   0.847   4.944
 3077SOL     OW10129   0.195   3.675   1.981
 3077SOL    HW110130   0.220   3.649   1.888
 3077SOL    HW210131   0.160   3.594   2.030
 3078SOL     OW10132   0.602   3.563   1.866
 3078SOL    HW110133   0.532   3.627   1.835
 3078SOL    HW210134   0.559   3.476   1.889
 3079SOL     OW10135   2.038   3.476   5.143
 3079SOL    HW110136   2.066   3.439   5.055
 3079SOL    HW210137   1.999   3.567   5.130
 3080SOL     OW10138   4.212   4.832   0.967
 3080SOL    HW110139   4.235   4.840   0.870
 3080SOL    HW210140   4.255   4.750   1.004
 3081SOL     OW10141   1.929   3.561   0.296
 3081SOL    HW110142   1.915   3.634   0.229
 3081SOL    HW210143   1.852   3.498   0.294
 3082SOL     OW10144   5.383   4.764   5.259
 3082SOL    HW110145   5.322   4.811   5.195
 3082SOL    HW210146   5.379   4.809   5.348
 3083SOL     OW10147   3.547   5.616   1.782
 3083SOL    HW110148   3.600   5.665   1.713
 3083SOL    HW210149   3.452   5.607   1.751
 3084SOL     OW10150   0.180   4.777   3.530
 3084SOL    HW110151   0.239   4.697   3.528
 3084SOL    HW210152   0.180   4.817   3.621
 3085SOL     OW10153   6.258   5.557   0.147
 3085SOL    HW110154   6.324   5.516   0.085
 3085SOL    HW210155   6.297   5.563   0.238
 3086SOL     OW10156   6.349   6.090   6.443
 3086SOL    HW110157   6.394   6.051   6.523
 3086SOL    HW210158   6.381   6.184   6.429
 3087SOL     OW10159   3.970   0.146   2.547
 3087SOL    HW110160   4.064   0.136   2.513
 3087SOL    HW210161   3.946   0.244   2.550
 3088SOL     OW10162   2.060   3.613   5.416
 3088SOL    HW110163   2.119   3.608   5.336
 3088SOL    HW210164   2.022   3.522   5.435
 3089SOL     OW10165   4.481   4.751   5.943
 3089SOL    HW110166   4.560   4.732   6.001
 3089SOL    HW210167   4.397   4.727   5.991
 3090SOL     OW10168   0.683   2.693   1.912
 3090SOL    HW110169   0.757   2.760   1.915
 3090SOL    HW210170   0.620   2.716   1.838
 3091SOL     OW10171   0.506   2.906   1.188
 3091SOL    HW110172   0.420   2.864   1.214
 3091SOL    HW210173   0.510   2.918   1.089
 3092SOL     OW10174   5.906   1.076   2.147
 3092SOL    HW110175   5.888   1.026   2.062
 3092SOL    HW210176   5.829   1.138   2.165
 3093SOL     OW10177   6.739   5.857   6.625
 3093SOL    HW110178   6.784   5.917   6.691
 3093SOL    HW210179   6.782   5.766   6.628
 3094SOL     OW10180   2.583   1.166   6.684
 3094SOL    HW110181   2.631   1.133   6.603
 3094SOL    HW210182   2.540   1.254   6.664
 3095SOL     OW10183   1.631   4.159   5.636
 3095SOL    HW110184   1.534   4.137   5.650
 3095SOL    HW210185   1.680   4.077   5.606
 3096SOL     OW10186   1.169   2.896   4.248
 3096SOL    HW110187   1.183   2.956   4.328
 3096SOL    HW210188   1.209   2.806   4.266
 3097SOL     OW10189   5.455   2.881   5.154
 3097SOL    HW110190   5.364   2.907   5.122
 3097SOL    HW210191   5.459   2.887   5.254
 3098SOL     OW10192   2.268   2.984   3.173
 3098SOL    HW110193   2.351   2.941   3.137
 3098SOL    HW210194   2.224   2.923   3.239
 3099SOL     OW10195   0.260   6.618   4.693
 3099SOL    HW110196   0.252   6.640   4.596
 3099SOL    HW210197   0.177   6.645   4.741
 3100SOL     OW10198   5.782   4.508   1.960
 3100SOL    HW110199   5.862   4.565   1.981
 3100SOL    HW210200   5.779   4.489   1.862
 3101SOL     OW10201   4.538   0.219   5.163
 3101SOL    HW110202   4.550   0.143   5.226
 3101SOL    HW210203   4.500   0.186   5.077
 3102SOL     OW10204   6.740   4.785   2.205
 3102SOL    HW110205   6.742   4.719   2.280
 3102SOL    HW210206   6.694   4.868   2.236
 3103SOL     OW10207   2.867   1.705   1.475
 3103SOL    HW110208   2.936   1.634   1.456
 3103SOL    HW210209   2.797   1.703   1.403
 3104SOL     OW10210   5.552   2.397   4.939
 3104SOL    HW110211   5.547   2.467   5.010
 3104SOL    HW210212   5.490   2.322   4.962
 3105SOL     OW10213   5.714   3.861   0.490
 3105SOL    HW110214   5.725   3.912   0.404
 3105SOL    HW210215   5.799   3.811   0.510
 3106SOL     OW10216   5.311   1.511   5.811
 3106SOL    HW110217   5.226   1.465   5.835
 3106SOL    HW210218   5.325   1.590   5.871
 3107SOL     OW10219   3.236   1.863   5.340
 3107SOL    HW110220   3.319   1.896   5.385
 3107SOL    HW210221   3.196   1.936   5.286
 3108SOL     OW10222   2.147   4.229   3.367
 3108SOL    HW110223   2.166   4.150   3.309
 3108SOL    HW210224   2.199   4.222   3.452
 3109SOL     OW10225   6.673   6.396   3.640
 3109SOL    HW110226   6.701   6.311   3.595
 3109SOL    HW210227   6.754   6.449   3.664
 3110SOL     OW10228   1.195   5.698   3.121
 3110SOL    HW110229   1.280   5.675   3.074
 3110SOL    HW210230   1.194   5.796   3.142
 3111SOL     OW10231   6.075   4.061   3.890
 3111SOL    HW110232   6.135   4.058   3.810
 3111SOL    HW210233   6.023   4.147   3.890
 3112SOL     OW10234   3.156   1.331   6.603
 3112SOL    HW110235   3.166   1.246   6.655
 3112SOL    HW210236   3.247   1.363   6.576
 3113SOL     OW10237   1.387   6.254   2.742
 3113SOL    HW110238   1.428   6.185   2.683
 3113SOL    HW210239   1.438   6.340   2.733
 3114SOL     OW10240   4.567   0.851   6.293
 3114SOL    HW110241   4.503   0.788   6.248
 3114SOL    HW210242   4.575   0.827   6.390
 3115SOL     OW10243   4.653   5.863   5.381
 3115SOL    HW110244   4.709   5.796   5.332
 3115SOL    HW210245   4.681   5.956   5.355
 3116SOL     OW10246   0.993   0.608   6.731
 3116SOL    HW110247   0.961   0.562   6.648
 3116SOL    HW210248   1.064   0.674   6.708
 3117SOL     OW10249   4.663   0.518   0.221
 3117SOL    HW110250   4.705   0.607   0.239
 3117SOL    HW210251   4.718   0.468   0.154
 3118SOL     OW10252   1.624   1.389   3.386
 3118SOL    HW110253   1.703   1.411   3.443
 3118SOL    HW210254   1.570   1.471   3.370
 3119SOL     OW10255   4.451   5.853   5.145
 3119SOL    HW110256   4.463   5.788   5.220
 3119SOL    HW210257   4.412   5.806   5.066
 3120SOL     OW10258   2.353   5.767   6.206
 3120SOL    HW110259   2.306   5.680   6.219
 3120SOL    HW210260   2.426   5.777   6.273
 3121SOL     OW10261   3.723   2.047   4.793
 3121SOL    HW110262   3.806   2.090   4.759
 3121SOL    HW210263   3.649   2.059   4.727
 3122SOL     OW10264   5.503   4.760   5.535
 3122SOL    HW110265   5.537   4.805   5.452
 3122SOL    HW210266   5.560   4.681   5.556
 3123SOL     OW10267   1.516   1.285   2.656
 3123SOL    HW110268   1.588   1.216   2.653
 3123SOL    HW210269   1.427   1.239   2.657
 3124SOL     OW10270   4.716   0.239   4.568
 3124SOL    HW110271   4.814   0.239   4.548
 3124SOL    HW210272   4.666   0.275   4.489
 3125SOL     OW10273   1.921   1.406   5.334
 3125SOL    HW110274   2.020   1.400   5.346
 3125SOL    HW210275   1.898   1.490   5.284
 3126SOL     OW10276   5.141   4.841   5.571
 3126SOL    HW110277   5.110   4.750   5.545
 3126SOL    HW210278   5.064   4.892   5.610
 3127SOL     OW10279   0.246   1.100   5.471
 3127SOL    HW110280   0.241   1.003   5.447
 3127SOL    HW210281   0.340   1.123   5.498
 3128SOL     OW10282   3.496   0.693   0.692
 3128SOL    HW110283   3.560   0.622   0.720
 3128SOL    HW210284   3.403   0.666   0.718
 3129SOL     OW10285   4.241   3.797   0.291
 3129SOL    HW110286   4.311   3.772   0.224
 3129SOL    HW210287   4.284   3.839   0.371
 3130SOL     OW10288   6.734   5.541   1.996
 3130SOL    HW110289   6.682   5.458   1.975
 3130SOL    HW210290   6.827   5.517   2.022
 3131SOL     OW10291   6.257   4.370   2.885
 3131SOL    HW110292   6.235   4.318   2.802
 3131SOL    HW210293   6.351   4.404   2.878
 3132SOL     OW10294   4.701   3.972   0.178
 3132SOL    HW110295   4.720   4.052   0.121
 3132SOL    HW210296   4.613   3.933   0.153
 3133SOL     OW10297   4.717   6.862   4.412
 3133SOL    HW110298   4.778   6.911   4.349
 3133SOL    HW210299   4.769   6.835   4.494
 3134SOL     OW10300   6.498   4.974   2.564
 3134SOL    HW110301   6.461   4.901   2.507
 3134SOL    HW210302   6.567   4.936   2.626
 3135SOL     OW10303   4.030   5.129   6.911
 3135SOL    HW110304   4.025   5.218   6.957
 3135SOL    HW210305   4.075   5.140   6.822
 3136SOL     OW10306   6.119   0.792   3.518
 3136SOL    HW110307   6.117   0.752   3.609
 3136SOL    HW210308   6.026   0.814   3.489
 3137SOL     OW10309   5.821   6.383   7.001
 3137SOL    HW110310   5.894   6.354   0.046
 3137SOL    HW210311   5.758   6.307   6.985
 3138SOL     OW10312   6.389   6.300   4.783
 3138SOL    HW110313   6.458   6.227   4.781
 3138SOL    HW210314   6.435   6.388   4.771
 3139SOL     OW10315   2.728   5.186   1.613
 3139SOL    HW110316   2.706   5.254   1.544
 3139SOL    HW210317   2.656   5.185   1.683
 3140SOL     OW10318   0.614   6.482   0.116
 3140SOL    HW110319   0.605   6.382   0.115
 3140SOL    HW210320   0.547   6.520   0.180
 3141SOL     OW10321   6.079   2.093   6.501
 3141SOL    HW110322   6.044   2.001   6.484
 3141SOL    HW210323   6.002   2.154   6.522
 3142SOL     OW10324   4.257   0.341   3.819
 3142SOL    HW110325   4.338   0.385   3.780
 3142SOL    HW210326   4.175   0.389   3.787
 3143SOL     OW10327   6.450   1.167   0.615
 3143SOL    HW110328   6.369   1.207   0.573
 3143SOL    HW210329   6.454   1.193   0.712
 3144SOL     OW10330   4.163   4.065   0.263
 3144SOL    HW110331   4.178   3.966   0.256
 3144SOL    HW210332   4.073   4.083   0.303
 3145SOL     OW10333   0.436   5.890   0.307
 3145SOL    HW110334   0.411   5.939   0.391
 3145SOL    HW210335   0.352   5.864   0.258
 3146SOL     OW10336   6.453   1.518   4.602
 3146SOL    HW110337   6.418   1.499   4.693
 3146SOL    HW210338   6.548   1.551   4.608
 3147SOL     OW10339   3.869   6.307   0.282
 3147SOL    HW110340   3.938   6.330   0.214
 3147SOL    HW210341   3.908   6.242   0.348
 3148SOL     OW10342   0.171   5.093   1.621
 3148SOL    HW110343   0.234   5.165   1.593
 3148SOL    HW210344   0.202   5.005   1.584
 3149SOL     OW10345   3.057   2.329   0.047
 3149SOL    HW110346   3.136   2.348   7.007
 3149SOL    HW210347   3.061   2.236   0.082
 3150SOL     OW10348   6.748   6.233   5.518
 3150SOL    HW110349   6.679   6.160   5.513
 3150SOL    HW210350   6.706   6.316   5.554
 3151SOL     OW10351   0.052   0.577   5.368
 3151SOL    HW110352   0.109   0.494   5.374
 3151SOL    HW210353   0.081   0.631   5.289
 3152SOL     OW10354   1.444   3.160   5.926
 3152SOL    HW110355   1.419   3.172   6.022
 3152SOL    HW210356   1.456   3.249   5.883
 3153SOL     OW10357   5.944   5.108   1.861
 3153SOL    HW110358   5.882   5.104   1.782
 3153SOL    HW210359   6.038   5.094   1.831
 3154SOL     OW10360   3.947   0.932   0.164
 3154SOL    HW110361   3.965   0.976   0.076
 3154SOL    HW210362   3.853   0.898   0.166
 3155SOL     OW10363   0.948   4.624   6.936
 3155SOL    HW110364   0.853   4.595   6.947
 3155SOL    HW210365   1.008   4.545   6.939
 3156SOL     OW10366   3.644   4.164   1.721
 3156SOL    HW110367   3.721   4.131   1.775
 3156SOL    HW210368   3.569   4.098   1.726
 3157SOL     OW10369   1.155   0.965   5.200
 3157SOL    HW110370   1.224   0.898   5.172
 3157SOL    HW210371   1.124   1.015   5.119
 3158SOL     OW10372   1.718   1.287   5.707
 3158SOL    HW110373   1.733   1.379   5.743
 3158SOL    HW210374   1.630   1.283   5.660
 3159SOL     OW10375   5.398   0.156   6.634
 3159SOL    HW110376   5.437   0.241   6.599
 3159SOL    HW210377   5.471   0.096   6.666
 3160SOL     OW10378   1.762   0.362   5.988
 3160SOL    HW110379   1.810   0.276   5.974
 3160SOL    HW210380   1.668   0.354   5.953
 3161SOL     OW10381   1.774   2.654   2.416
 3161SOL    HW110382   1.694   2.696   2.372
 3161SOL    HW210383   1.845   2.637   2.347
 3162SOL     OW10384   1.615   5.596   1.350
 3162SOL    HW110385   1.659   5.649   1.277
 3162SOL    HW210386   1.536   5.547   1.312
 3163SOL     OW10387   4.447   4.609   0.767
 3163SOL    HW110388   4.414   4.635   0.857
 3163SOL    HW210389   4.433   4.510   0.753
 3164SOL     OW10390   2.608   6.428   3.672
 3164SOL    HW110391   2.542   6.397   3.740
 3164SOL    HW210392   2.701   6.409   3.704
 3165SOL     OW10393   0.951   6.306   6.173
 3165SOL    HW110394   0.957   6.367   6.094
 3165SOL    HW210395   0.978   6.355   6.256
 3166SOL     OW10396   5.075   1.188   5.055
 3166SOL    HW110397   4.979   1.164   5.041
 3166SOL    HW210398   5.110   1.232   4.972
 3167SOL     OW10399   5.738   3.285   1.124
 3167SOL    HW110400   5.739   3.314   1.220
 3167SOL    HW210401   5.727   3.186   1.120
 3168SOL     OW10402   4.411   1.625   0.439
 3168SOL    HW110403   4.312   1.612   0.440
 3168SOL    HW210404   4.432   1.722   0.424
 3169SOL     OW10405   2.208   4.216   1.868
 3169SOL    HW110406   2.111   4.199   1.886
 3169SOL    HW210407   2.259   4.129   1.875
 3170SOL     OW10408   2.021   3.630   3.469
 3170SOL    HW110409   1.979   3.625   3.560
 3170SOL    HW210410   2.003   3.719   3.429
 3171SOL     OW10411   5.321   1.956   3.657
 3171SOL    HW110412   5.226   1.957   3.688
 3171SOL    HW210413   5.356   2.049   3.657
 3172SOL     OW10414   5.927   4.215   1.565
 3172SOL    HW110415   5.907   4.117   1.570
 3172SOL    HW210416   5.929   4.243   1.469
 3173SOL     OW10417   4.306   2.855   0.506
 3173SOL    HW110418   4.355   2.843   0.592
 3173SOL    HW210419   4.343   2.934   0.457
 3174SOL     OW10420   3.159   3.057   6.389
 3174SOL    HW110421   3.161   3.097   6.481
 3174SOL    HW210422   3.137   2.960   6.395
 3175SOL     OW10423   5.448   0.476   5.606
 3175SOL    HW110424   5.476   0.568   5.581
 3175SOL    HW210425   5.360   0.454   5.563
 3176SOL     OW10426   0.249   4.742   3.866
 3176SOL    HW110427   0.334   4.794   3.870
 3176SOL    HW210428   0.173   4.799   3.899
 3177SOL     OW10429   5.542   3.428   3.473
 3177SOL    HW110430   5.541   3.376   3.388
 3177SOL    HW210431   5.528   3.366   3.551
 3178SOL     OW10432   0.175   1.196   2.157
 3178SOL    HW110433   0.081   1.168   2.178
 3178SOL    HW210434   0.173   1.287   2.115
 3179SOL     OW10435   1.112   2.623   1.943
 3179SOL    HW110436   1.197   2.669   1.969
 3179SOL    HW210437   1.080   2.568   2.021
 3180SOL     OW10438   0.227   5.783   0.665
 3180SOL    HW110439   0.231   5.786   0.765
 3180SOL    HW210440   0.281   5.859   0.628
 3181SOL     OW10441   1.606   6.395   5.242
 3181SOL    HW110442   1.530   6.400   5.308
 3181SOL    HW210443   1.671   6.469   5.262
 3182SOL     OW10444   2.285   1.094   0.687
 3182SOL    HW110445   2.193   1.113   0.721
 3182SOL    HW210446   2.292   0.997   0.661
 3183SOL     OW10447   3.753   3.736   1.404
 3183SOL    HW110448   3.709   3.747   1.314
 3183SOL    HW210449   3.696   3.780   1.474
 3184SOL     OW10450   0.014   1.842   4.620
 3184SOL    HW110451   6.983   1.924   4.651
 3184SOL    HW210452   6.979   1.761   4.642
 3185SOL     OW10453   0.591   5.599   6.199
 3185SOL    HW110454   0.636   5.624   6.113
 3185SOL    HW210455   0.645   5.529   6.246
 3186SOL     OW10456   0.290   2.550   6.359
 3186SOL    HW110457   0.224   2.617   6.392
 3186SOL    HW210458   0.250   2.500   6.282
 3187SOL     OW10459   5.212   6.155   2.722
 3187SOL    HW110460   5.200   6.071   2.774
 3187SOL    HW210461   5.227   6.231   2.785
 3188SOL     OW10462   2.037   5.457   6.932
 3188SOL    HW110463   1.989   5.545   6.936
 3188SOL    HW210464   2.082   5.441   0.002
 3189SOL     OW10465   3.233   1.566   5.975
 3189SOL    HW110466   3.149   1.609   6.009
 3189SOL    HW210467   3.257   1.489   6.034
 3190SOL     OW10468   5.639   6.078   4.202
 3190SOL    HW110469   5.688   6.035   4.127
 3190SOL    HW210470   5.659   6.030   4.287
 3191SOL     OW10471   3.367   5.687   1.163
 3191SOL    HW110472   3.358   5.755   1.090
 3191SOL    HW210473   3.334   5.598   1.131
 3192SOL     OW10474   5.454   1.552   2.567
 3192SOL    HW110475   5.552   1.567   2.576
 3192SOL    HW210476   5.435   1.456   2.548
 3193SOL     OW10477   3.385   0.354   4.679
 3193SOL    HW110478   3.402   0.264   4.720
 3193SOL    HW210479   3.426   0.358   4.588
 3194SOL     OW10480   1.865   0.187   6.736
 3194SOL    HW110481   1.928   0.260   6.708
 3194SOL    HW210482   1.918   0.109   6.770
 3195SOL     OW10483   0.599   1.558   1.062
 3195SOL    HW110484   0.607   1.550   1.162
 3195SOL    HW210485   0.635   1.476   1.019
 3196SOL     OW10486   5.543   6.939   3.575
 3196SOL    HW110487   5.477   6.863   3.572
 3196SOL    HW210488   5.547   6.975   3.669
 3197SOL     OW10489   2.365   0.768   6.243
 3197SOL    HW110490   2.345   0.716   6.160
 3197SOL    HW210491   2.440   0.832   6.224
 3198SOL     OW10492   5.265   2.834   3.582
 3198SOL    HW110493   5.332   2.893   3.539
 3198SOL    HW210494   5.291   2.738   3.569
 3199SOL     OW10495   5.162   4.094   3.049
 3199SOL    HW110496   5.195   4.011   3.004
 3199SOL    HW210497   5.063   4.097   3.043
 3200SOL     OW10498   5.345   3.749   3.762
 3200SOL    HW110499   5.277   3.771   3.832
 3200SOL    HW210500   5.430   3.796   3.783
 3201SOL     OW10501   6.456   4.030   2.464
 3201SOL    HW110502   6.430   4.125   2.483
 3201SOL    HW210503   6.555   4.023   2.456
 3202SOL     OW10504   2.498   3.445   6.876
 3202SOL    HW110505   2.451   3.534   6.869
 3202SOL    HW210506   2.514   3.424   6.972
 3203SOL     OW10507   3.612   6.674   1.399
 3203SOL    HW110508   3.596   6.724   1.315
 3203SOL    HW210509   3.583   6.730   1.477
 3204SOL     OW10510   3.403   1.538   3.687
 3204SOL    HW110511   3.343   1.492   3.621
 3204SOL    HW210512   3.441   1.471   3.750
 3205SOL     OW10513   4.755   3.595   5.815
 3205SOL    HW110514   4.676   3.534   5.822
 3205SOL    HW210515   4.835   3.541   5.788
 3206SOL     OW10516   3.355   3.411   0.978
 3206SOL    HW110517   3.269   3.372   1.010
 3206SOL    HW210518   3.425   3.400   1.048
 3207SOL     OW10519   2.421   4.922   5.341
 3207SOL    HW110520   2.408   4.871   5.256
 3207SOL    HW210521   2.362   4.885   5.412
 3208SOL     OW10522   6.518   4.996   5.989
 3208SOL    HW110523   6.588   4.986   6.059
 3208SOL    HW210524   6.561   5.012   5.901
 3209SOL     OW10525   5.173   5.684   6.254
 3209SOL    HW110526   5.185   5.742   6.173
 3209SOL    HW210527   5.095   5.623   6.240
 3210SOL     OW10528   5.886   6.014   1.914
 3210SOL    HW110529   5.932   5.968   1.838
 3210SOL    HW210530   5.800   6.053   1.883
 3211SOL     OW10531   1.661   5.944   6.237
 3211SOL    HW110532   1.719   5.953   6.318
 3211SOL    HW210533   1.716   5.909   6.161
 3212SOL     OW10534   2.108   0.460   2.980
 3212SOL    HW110535   2.035   0.395   2.957
 3212SOL    HW210536   2.175   0.415   3.039
 3213SOL     OW10537   1.340   0.144   5.971
 3213SOL    HW110538   1.393   0.191   6.041
 3213SOL    HW210539   1.385   0.057   5.949
 3214SOL     OW10540   3.200   0.743   2.509
 3214SOL    HW110541   3.133   0.679   2.473
 3214SOL    HW210542   3.278   0.748   2.446
 3215SOL     OW10543   1.902   3.306   1.740
 3215SOL    HW110544   1.975   3.365   1.706
 3215SOL    HW210545   1.880   3.237   1.670
 3216SOL     OW10546   6.009   5.016   1.007
 3216SOL    HW110547   5.993   5.108   1.042
 3216SOL    HW210548   5.939   4.954   1.043
 3217SOL     OW10549   6.744   6.314   2.190
 3217SOL    HW110550   6.810   6.256   2.142
 3217SOL    HW210551   6.765   6.410   2.173
 3218SOL     OW10552   5.245   1.217   3.230
 3218SOL    HW110553   5.217   1.292   3.170
 3218SOL    HW210554   5.332   1.179   3.198
 3219SOL     OW10555   6.417   1.317   5.348
 3219SOL    HW110556   6.344   1.255   5.320
 3219SOL    HW210557   6.385   1.373   5.425
 3220SOL     OW10558   6.999   4.457   5.875
 3220SOL    HW110559   6.978   4.390   5.803
 3220SOL    HW210560   6.917   4.508   5.898
 3221SOL     OW10561   3.643   1.427   1.547
 3221SOL    HW110562   3.629   1.470   1.637
 3221SOL    HW210563   3.584   1.472   1.480
 3222SOL     OW10564   3.094   1.703   3.317
 3222SOL    HW110565   3.065   1.682   3.224
 3222SOL    HW210566   3.193   1.716   3.320
 3223SOL     OW10567   1.760   5.639   0.297
 3223SOL    HW110568   1.724   5.713   0.240
 3223SOL    HW210569   1.826   5.676   0.362
 3224SOL     OW10570   3.649   2.104   3.781
 3224SOL    HW110571   3.589   2.097   3.861
 3224SOL    HW210572   3.603   2.067   3.701
 3225SOL     OW10573   4.217   1.113   3.882
 3225SOL    HW110574   4.145   1.181   3.884
 3225SOL    HW210575   4.293   1.143   3.941
 3226SOL     OW10576   6.231   0.404   0.028
 3226SOL    HW110577   6.287   0.408   6.963
 3226SOL    HW210578   6.276   0.347   0.096
 3227SOL     OW10579   5.567   4.699   4.885
 3227SOL    HW110580   5.535   4.740   4.800
 3227SOL    HW210581   5.607   4.769   4.944
 3228SOL     OW10582   2.216   4.202   6.936
 3228SOL    HW110583   2.273   4.132   6.892
 3228SOL    HW210584   2.273   4.258   6.996
 3229SOL     OW10585   1.611   2.058   0.372
 3229SOL    HW110586   1.551   2.034   0.295
 3229SOL    HW210587   1.667   2.137   0.347
 3230SOL     OW10588   3.101   6.485   5.552
 3230SOL    HW110589   3.073   6.498   5.648
 3230SOL    HW210590   3.098   6.387   5.530
 3231SOL     OW10591   1.888   1.722   2.580
 3231SOL    HW110592   1.868   1.806   2.629
 3231SOL    HW210593   1.901   1.647   2.645
 3232SOL     OW10594   3.417   5.346   3.970
 3232SOL    HW110595   3.385   5.432   3.931
 3232SOL    HW210596   3.342   5.303   4.022
 3233SOL     OW10597   1.052   1.299   0.395
 3233SOL    HW110598   1.067   1.289   0.494
 3233SOL    HW210599   1.112   1.371   0.360
 3234SOL     OW10600   2.744   2.779   1.056
 3234SOL    HW110601   2.729   2.745   0.963
 3234SOL    HW210602   2.842   2.791   1.073
 3235SOL     OW10603   0.954   0.079   2.826
 3235SOL    HW110604   0.982   7.014   2.876
 3235SOL    HW210605   0.963   0.159   2.886
 3236SOL     OW10606   3.919   1.568   6.939
 3236SOL    HW110607   3.839   1.549   6.996
 3236SOL    HW210608   3.890   1.577   6.843
 3237SOL     OW10609   5.850   2.157   5.789
 3237SOL    HW110610   5.805   2.074   5.821
 3237SOL    HW210611   5.917   2.133   5.718
 3238SOL     OW10612   6.748   5.139   1.745
 3238SOL    HW110613   6.771   5.180   1.833
 3238SOL    HW210614   6.704   5.050   1.761
 3239SOL     OW10615   6.290   0.060   4.665
 3239SOL    HW110616   6.191   0.063   4.678
 3239SOL    HW210617   6.332   0.018   4.746
 3240SOL     OW10618   0.055   0.608   0.454
 3240SOL    HW110619   0.111   0.674   0.404
 3240SOL    HW210620   6.979   0.642   0.461
 3241SOL     OW10621   5.918   2.793   5.858
 3241SOL    HW110622   5.968   2.876   5.884
 3241SOL    HW210623   5.882   2.750   5.941
 3242SOL     OW10624   6.308   4.032   4.674
 3242SOL    HW110625   6.332   4.026   4.577
 3242SOL    HW210626   6.277   4.125   4.695
 3243SOL     OW10627   6.045   4.432   4.224
 3243SOL    HW110628   6.090   4.343   4.236
 3243SOL    HW210629   5.947   4.418   4.211
 3244SOL     OW10630   5.151   0.117   6.726
 3244SOL    HW110631   5.107   0.204   6.746
 3244SOL    HW210632   5.242   0.134   6.688
 3245SOL     OW10633   4.131   0.777   5.385
 3245SOL    HW110634   4.046   0.808   5.344
 3245SOL    HW210635   4.150   0.830   5.467
 3246SOL     OW10636   7.006   0.598   2.977
 3246SOL    HW110637   7.010   0.698   2.977
 3246SOL    HW210638   0.069   0.561   2.932
 3247SOL     OW10639   0.441   4.123   3.491
 3247SOL    HW110640   0.446   4.081   3.401
 3247SOL    HW210641   0.391   4.063   3.554
 3248SOL     OW10642   5.220   2.275   3.648
 3248SOL    HW110643   5.245   2.315   3.736
 3248SOL    HW210644   5.145   2.327   3.608
 3249SOL     OW10645   3.299   4.127   3.653
 3249SOL    HW110646   3.283   4.122   3.752
 3249SOL    HW210647   3.388   4.170   3.637
 3250SOL     OW10648   4.901   5.243   2.510
 3250SOL    HW110649   4.859   5.153   2.527
 3250SOL    HW210650   4.830   5.313   2.507
 3251SOL     OW10651   2.358   2.003   2.798
 3251SOL    HW110652   2.356   2.098   2.768
 3251SOL    HW210653   2.451   1.977   2.823
 3252SOL     OW10654   1.586   0.713   2.948
 3252SOL    HW110655   1.493   0.677   2.950
 3252SOL    HW210656   1.620   0.724   3.041
 3253SOL     OW10657   6.411   3.877   0.555
 3253SOL    HW110658   6.324   3.922   0.532
 3253SOL    HW210659   6.448   3.834   0.473
 3254SOL     OW10660   5.967   0.235   1.066
 3254SOL    HW110661   5.902   0.232   0.990
 3254SOL    HW210662   5.940   0.168   1.135
 3255SOL     OW10663   4.878   6.170   1.414
 3255SOL    HW110664   4.874   6.109   1.335
 3255SOL    HW210665   4.794   6.225   1.419
 3256SOL     OW10666   4.784   2.646   1.383
 3256SOL    HW110667   4.747   2.646   1.476
 3256SOL    HW210668   4.790   2.552   1.349
 3257SOL     OW10669   2.884   1.925   2.983
 3257SOL    HW110670   2.861   1.848   2.924
 3257SOL    HW210671   2.931   1.995   2.930
 3258SOL     OW10672   2.428   5.326   3.826
 3258SOL    HW110673   2.387   5.239   3.803
 3258SOL    HW210674   2.362   5.383   3.875
 3259SOL     OW10675   4.942   4.166   3.596
 3259SOL    HW110676   4.970   4.261   3.605
 3259SOL    HW210677   5.020   4.110   3.568
 3260SOL     OW10678   1.026   4.382   2.952
 3260SOL    HW110679   0.976   4.338   2.877
 3260SOL    HW210680   0.961   4.427   3.013
 3261SOL     OW10681   5.118   0.073   3.714
 3261SOL    HW110682   5.040   0.120   3.671
 3261SOL    HW210683   5.199   0.086   3.657
 3262SOL     OW10684   3.072   1.691   3.714
 3262SOL    HW110685   3.161   1.736   3.707
 3262SOL    HW210686   2.999   1.760   3.719
 3263SOL     OW10687   0.145   1.314   2.415
 3263SOL    HW110688   0.153   1.320   2.316
 3263SOL    HW210689   0.048   1.313   2.440
 3264SOL     OW10690   1.560   5.055   6.500
 3264SOL    HW110691   1.478   5.106   6.525
 3264SOL    HW210692   1.537   4.985   6.433
 3265SOL     OW10693   6.189   5.400   6.266
 3265SOL    HW110694   6.097   5.360   6.261
 3265SOL    HW210695   6.201   5.444   6.355
 3266SOL     OW10696   3.327   5.356   6.741
 3266SOL    HW110697   3.346   5.372   6.838
 3266SOL    HW210698   3.280   5.436   6.703
 3267SOL     OW10699   3.444   7.014   0.226
 3267SOL    HW110700   3.533   6.997   0.268
 3267SOL    HW210701   3.376   0.014   0.297
 3268SOL     OW10702   6.174   5.358   1.667
 3268SOL    HW110703   6.229   5.393   1.591
 3268SOL    HW210704   6.093   5.415   1.679
 3269SOL     OW10705   1.593   4.729   1.302
 3269SOL    HW110706   1.539   4.781   1.235
 3269SOL    HW210707   1.685   4.768   1.307
 3270SOL     OW10708   0.590   2.752   5.387
 3270SOL    HW110709   0.539   2.834   5.411
 3270SOL    HW210710   0.586   2.738   5.288
 3271SOL     OW10711   1.054   2.936   2.267
 3271SOL    HW110712   1.081   2.856   2.320
 3271SOL    HW210713   1.131   3.000   2.261
 3272SOL     OW10714   4.406   6.337   1.030
 3272SOL    HW110715   4.335   6.289   0.978
 3272SOL    HW210716   4.367   6.373   1.114
 3273SOL     OW10717   4.951   2.874   6.111
 3273SOL    HW110718   5.009   2.821   6.049
 3273SOL    HW210719   4.891   2.811   6.161
 3274SOL     OW10720   5.532   0.207   1.830
 3274SOL    HW110721   5.506   0.300   1.856
 3274SOL    HW210722   5.563   0.207   1.734
 3275SOL     OW10723   5.053   0.650   2.100
 3275SOL    HW110724   5.065   0.600   2.186
 3275SOL    HW210725   5.141   0.689   2.072
 3276SOL     OW10726   5.178   0.146   0.115
 3276SOL    HW110727   5.220   0.237   0.108
 3276SOL    HW210728   5.226   0.093   0.185
 3277SOL     OW10729   3.323   1.925   2.280
 3277SOL    HW110730   3.306   2.011   2.329
 3277SOL    HW210731   3.401   1.936   2.219
 3278SOL     OW10732   6.001   0.814   6.803
 3278SOL    HW110733   6.078   0.852   6.752
 3278SOL    HW210734   6.025   0.722   6.836
 3279SOL     OW10735   3.180   0.250   2.006
 3279SOL    HW110736   3.102   0.189   1.995
 3279SOL    HW210737   3.249   0.207   2.064
 3280SOL     OW10738   6.399   3.794   3.919
 3280SOL    HW110739   6.452   3.879   3.911
 3280SOL    HW210740   6.462   3.716   3.923
 3281SOL     OW10741   5.860   3.771   1.737
 3281SOL    HW110742   5.803   3.692   1.712
 3281SOL    HW210743   5.954   3.741   1.750
 3282SOL     OW10744   6.965   5.072   4.833
 3282SOL    HW110745   7.013   4.984   4.831
 3282SOL    HW210746   6.870   5.058   4.861
 3283SOL     OW10747   3.567   1.905   0.801
 3283SOL    HW110748   3.601   1.973   0.735
 3283SOL    HW210749   3.472   1.883   0.779
 3284SOL     OW10750   2.479   6.216   4.202
 3284SOL    HW110751   2.565   6.247   4.242
 3284SOL    HW210752   2.498   6.161   4.121
 3285SOL     OW10753   4.007   2.065   5.201
 3285SOL    HW110754   4.021   2.049   5.103
 3285SOL    HW210755   4.012   2.163   5.219
 3286SOL     OW10756   2.088   1.926   2.790
 3286SOL    HW110757   2.071   1.841   2.841
 3286SOL    HW210758   2.184   1.952   2.799
 3287SOL     OW10759   2.474   0.371   0.291
 3287SOL    HW110760   2.477   0.280   0.250
 3287SOL    HW210761   2.392   0.380   0.348
 3288SOL     OW10762   2.567   6.149   2.165
 3288SOL    HW110763   2.468   6.160   2.165
 3288SOL    HW210764   2.600   6.141   2.259
 3289SOL     OW10765   4.729   1.059   6.296
 3289SOL    HW110766   4.680   0.973   6.282
 3289SOL    HW210767   4.667   1.136   6.280
 3290SOL     OW10768   0.450   5.493   0.599
 3290SOL    HW110769   0.410   5.412   0.642
 3290SOL    HW210770   0.391   5.572   0.617
 3291SOL     OW10771   4.905   0.301   5.175
 3291SOL    HW110772   4.993   0.303   5.127
 3291SOL    HW210773   4.847   0.230   5.134
 3292SOL     OW10774   0.102   2.174   0.988
 3292SOL    HW110775   0.176   2.199   0.925
 3292SOL    HW210776   0.016   2.168   0.937
 3293SOL     OW10777   5.799   5.949   4.006
 3293SOL    HW110778   5.825   5.982   3.915
 3293SOL    HW210779   5.759   5.858   3.998
 3294SOL     OW10780   5.193   2.912   5.040
 3294SOL    HW110781   5.221   2.922   4.944
 3294SOL    HW210782   5.109   2.965   5.056
 3295SOL     OW10783   0.855   2.669   2.712
 3295SOL    HW110784   0.910   2.597   2.669
 3295SOL    HW210785   0.759   2.655   2.689
 3296SOL     OW10786   1.591   0.748   5.993
 3296SOL    HW110787   1.621   0.835   6.033
 3296SOL    HW210788   1.620   0.673   6.053
 3297SOL     OW10789   3.301   1.422   4.755
 3297SOL    HW110790   3.225   1.484   4.775
 3297SOL    HW210791   3.268   1.346   4.698
 3298SOL     OW10792   5.116   3.814   5.768
 3298SOL    HW110793   5.179   3.736   5.772
 3298SOL    HW210794   5.161   3.890   5.721
 3299SOL     OW10795   2.621   4.636   4.032
 3299SOL    HW110796   2.612   4.614   3.935
 3299SOL    HW210797   2.551   4.702   4.058
 3300SOL     OW10798   1.878   6.766   4.059
 3300SOL    HW110799   1.960   6.819   4.080
 3300SOL    HW210800   1.899   6.698   3.989
 3301SOL     OW10801   0.944   1.298   3.126
 3301SOL    HW110802   0.864   1.350   3.096
 3301SOL    HW210803   0.914   1.220   3.180
 3302SOL     OW10804   1.839   4.950   5.122
 3302SOL    HW110805   1.752   4.902   5.107
 3302SOL    HW210806   1.855   4.959   5.221
 3303SOL     OW10807   3.446   2.871   0.485
 3303SOL    HW110808   3.418   2.921   0.568
 3303SOL    HW210809   3.364   2.845   0.433
 3304SOL     OW10810   2.970   4.949   0.051
 3304SOL    HW110811   2.997   4.937   6.973
 3304SOL    HW210812   3.041   5.000   0.100
 3305SOL     OW10813   3.034   2.570   0.799
 3305SOL    HW110814   2.988   2.485   0.824
 3305SOL    HW210815   3.107   2.551   0.734
 3306SOL     OW10816   2.503   0.918   0.062
 3306SOL    HW110817   2.435   0.862   0.109
 3306SOL    HW210818   2.531   0.993   0.121
 3307SOL     OW10819   1.413   6.441   5.420
 3307SOL    HW110820   1.405   6.446   5.519
 3307SOL    HW210821   1.374   6.525   5.380
 3308SOL     OW10822   3.970   4.805   1.102
 3308SOL    HW110823   4.069   4.819   1.096
 3308SOL    HW210824   3.949   4.709   1.084
 3309SOL     OW10825   5.979   2.806   3.307
 3309SOL    HW110826   6.004   2.769   3.396
 3309SOL    HW210827   6.049   2.871   3.276
 3310SOL     OW10828   6.120   4.763   5.994
 3310SOL    HW110829   6.120   4.844   6.052
 3310SOL    HW210830   6.110   4.681   6.051
 3311SOL     OW10831   2.910   3.467   0.408
 3311SOL    HW110832   2.960   3.550   0.434
 3311SOL    HW210833   2.813   3.478   0.432
 3312SOL     OW10834   4.694   2.150   6.060
 3312SOL    HW110835   4.686   2.099   5.975
 3312SOL    HW210836   4.619   2.217   6.065
 3313SOL     OW10837   0.620   0.725   3.505
 3313SOL    HW110838   0.650   0.734   3.410
 3313SOL    HW210839   0.603   0.628   3.525
 3314SOL     OW10840   2.800   5.606   2.513
 3314SOL    HW110841   2.726   5.605   2.581
 3314SOL    HW210842   2.886   5.580   2.557
 3315SOL     OW10843   0.275   5.769   5.007
 3315SOL    HW110844   0.293   5.692   4.946
 3315SOL    HW210845   0.177   5.790   5.006
 3316SOL     OW10846   4.585   2.480   6.572
 3316SOL    HW110847   4.535   2.395   6.556
 3316SOL    HW210848   4.680   2.469   6.542
 3317SOL     OW10849   5.268   2.595   2.215
 3317SOL    HW110850   5.200   2.524   2.198
 3317SOL    HW210851   5.318   2.615   2.131
 3318SOL     OW10852   3.323   2.580   0.677
 3318SOL    HW110853   3.314   2.675   0.708
 3318SOL    HW210854   3.375   2.578   0.592
 3319SOL     OW10855   6.144   5.619   3.425
 3319SOL    HW110856   6.203   5.694   3.455
 3319SOL    HW210857   6.087   5.649   3.349
 3320SOL     OW10858   6.479   6.684   1.423
 3320SOL    HW110859   6.509   6.619   1.492
 3320SOL    HW210860   6.380   6.683   1.416
 3321SOL     OW10861   5.086   1.464   0.280
 3321SOL    HW110862   5.064   1.507   0.368
 3321SOL    HW210863   5.168   1.506   0.242
 3322SOL     OW10864   6.554   4.085   0.691
 3322SOL    HW110865   6.574   4.058   0.786
 3322SOL    HW210866   6.493   4.018   0.650
 3323SOL     OW10867   1.391   2.073   1.490
 3323SOL    HW110868   1.331   2.107   1.418
 3323SOL    HW210869   1.356   1.986   1.524
 3324SOL     OW10870   5.274   5.966   5.733
 3324SOL    HW110871   5.373   5.957   5.730
 3324SOL    HW210872   5.233   5.878   5.759
 3325SOL     OW10873   2.671   4.105   5.603
 3325SOL    HW110874   2.658   4.010   5.573
 3325SOL    HW210875   2.681   4.164   5.522
 3326SOL     OW10876   4.231   1.566   2.198
 3326SOL    HW110877   4.168   1.538   2.271
 3326SOL    HW210878   4.184   1.562   2.110
 3327SOL     OW10879   0.276   4.878   6.579
 3327SOL    HW110880   0.326   4.939   6.639
 3327SOL    HW210881   0.277   4.785   6.616
 3328SOL     OW10882   4.541   2.354   6.179
 3328SOL    HW110883   4.554   2.376   6.083
 3328SOL    HW210884   4.511   2.436   6.229
 3329SOL     OW10885   6.443   5.877   5.756
 3329SOL    HW110886   6.499   5.813   5.705
 3329SOL    HW210887   6.441   5.850   5.852
 3330SOL     OW10888   7.016   3.569   2.745
 3330SOL    HW110889   6.926   3.604   2.771
 3330SOL    HW210890   7.004   3.493   2.680
 3331SOL     OW10891   1.919   3.259   0.846
 3331SOL    HW110892   1.911   3.261   0.747
 3331SOL    HW210893   2.007   3.217   0.871
 3332SOL     OW10894   6.362   4.831   1.779
 3332SOL    HW110895   6.357   4.889   1.698
 3332SOL    HW210896   6.380   4.888   1.860
 3333SOL     OW10897   4.004   5.496   6.555
 3333SOL    HW110898   3.944   5.421   6.528
 3333SOL    HW210899   4.036   5.481   6.649
 3334SOL     OW10900   2.428   4.123   1.691
 3334SOL    HW110901   2.501   4.175   1.647
 3334SOL    HW210902   2.366   4.186   1.737
 3335SOL     OW10903   5.833   4.017   4.686
 3335SOL    HW110904   5.900   4.012   4.761
 3335SOL    HW210905   5.825   4.112   4.656
 3336SOL     OW10906   3.067   5.833   5.872
 3336SOL    HW110907   2.998   5.789   5.814
 3336SOL    HW210908   3.053   5.806   5.967
 3337SOL     OW10909   3.524   1.806   0.277
 3337SOL    HW110910   3.500   1.839   0.368
 3337SOL    HW210911   3.560   1.713   0.285
 3338SOL     OW10912   6.805   4.393   0.469
 3338SOL    HW110913   6.832   4.300   0.496
 3338SOL    HW210914   6.723   4.388   0.412
 3339SOL     OW10915   0.151   5.738   6.053
 3339SOL    HW110916   0.244   5.704   6.035
 3339SOL    HW210917   0.155   5.810   6.122
 3340SOL     OW10918   4.075   6.587   1.817
 3340SOL    HW110919   3.984   6.579   1.778
 3340SOL    HW210920   4.075   6.658   1.888
 3341SOL     OW10921   0.903   0.090   1.960
 3341SOL    HW110922   0.887   7.009   1.948
 3341SOL    HW210923   0.846   0.124   2.035
 3342SOL     OW10924   2.706   0.061   4.047
 3342SOL    HW110925   2.718   0.105   3.959
 3342SOL    HW210926   2.768   7.000   4.054
 3343SOL     OW10927   6.128   2.608   1.167
 3343SOL    HW110928   6.219   2.565   1.157
 3343SOL    HW210929   6.077   2.596   1.082
 3344SOL     OW10930   0.112   3.285   5.346
 3344SOL    HW110931   0.193   3.271   5.404
 3344SOL    HW210932   0.029   3.275   5.400
 3345SOL     OW10933   2.728   3.873   6.082
 3345SOL    HW110934   2.734   3.973   6.072
 3345SOL    HW210935   2.819   3.836   6.100
 3346SOL     OW10936   1.590   5.946   2.197
 3346SOL    HW110937   1.640   5.981   2.276
 3346SOL    HW210938   1.504   5.904   2.228
 3347SOL     OW10939   5.407   3.958   4.733
 3347SOL    HW110940   5.327   3.897   4.736
 3347SOL    HW210941   5.490   3.903   4.725
 3348SOL     OW10942   4.027   3.170   3.179
 3348SOL    HW110943   4.021   3.143   3.083
 3348SOL    HW210944   4.110   3.224   3.194
 3349SOL     OW10945   6.219   3.735   5.404
 3349SOL    HW110946   6.251   3.810   5.462
 3349SOL    HW210947   6.124   3.713   5.428
 3350SOL     OW10948   1.326   1.942   0.666
 3350SOL    HW110949   1.293   1.939   0.761
 3350SOL    HW210950   1.424   1.923   0.665
 3351SOL     OW10951   5.182   1.932   1.598
 3351SOL    HW110952   5.199   1.852   1.542
 3351SOL    HW210953   5.233   2.010   1.562
 3352SOL     OW10954   0.345   3.684   0.719
 3352SOL    HW110955   0.433   3.639   0.709
 3352SOL    HW210956   0.348   3.745   0.798
 3353SOL     OW10957   2.127   6.790   6.378
 3353SOL    HW110958   2.149   6.874   6.428
 3353SOL    HW210959   2.210   6.754   6.335
 3354SOL     OW10960   0.857   1.379   2.464
 3354SOL    HW110961   0.794   1.367   2.388
 3354SOL    HW210962   0.945   1.410   2.430
 3355SOL     OW10963   6.373   2.024   2.525
 3355SOL    HW110964   6.370   1.940   2.580
 3355SOL    HW210965   6.402   2.002   2.432
 3356SOL     OW10966   2.578   3.503   6.337
 3356SOL    HW110967   2.572   3.458   6.426
 3356SOL    HW210968   2.624   3.442   6.272
 3357SOL     OW10969   2.609   5.005   2.053
 3357SOL    HW110970   2.627   5.081   1.990
 3357SOL    HW210971   2.593   4.922   2.000
 3358SOL     OW10972   5.592   4.521   2.916
 3358SOL    HW110973   5.593   4.566   2.826
 3358SOL    HW210974   5.604   4.590   2.987
 3359SOL     OW10975   0.876   1.125   1.595
 3359SOL    HW110976   0.897   1.029   1.613
 3359SOL    HW210977   0.916   1.181   1.667
 3360SOL     OW10978   1.713   0.365   6.504
 3360SOL    HW110979   1.679   0.334   6.593
 3360SOL    HW210980   1.708   0.289   6.439
 3361SOL     OW10981   5.076   6.845   2.430
 3361SOL    HW110982   5.032   6.756   2.443
 3361SOL    HW210983   5.141   6.862   2.503
 3362SOL     OW10984   2.735   1.694   5.250
 3362SOL    HW110985   2.725   1.642   5.335
 3362SOL    HW210986   2.829   1.727   5.243
 3363SOL     OW10987   0.443   0.866   6.319
 3363SOL    HW110988   0.367   0.857   6.382
 3363SOL    HW210989   0.409   0.862   6.225
 3364SOL     OW10990   2.062   4.937   5.869
 3364SOL    HW110991   2.011   5.018   5.838
 3364SOL    HW210992   2.002   4.857   5.867
 3365SOL     OW10993   6.282   1.858   5.767
 3365SOL    HW110994   6.301   1.945   5.814
 3365SOL    HW210995   6.202   1.814   5.808
 3366SOL     OW10996   5.472   1.283   5.802
 3366SOL    HW110997   5.408   1.356   5.780
 3366SOL    HW210998   5.466   1.261   5.899
 3367SOL     OW10999   1.146   0.734   2.185
 3367SOL    HW111000   1.116   0.691   2.101
 3367SOL    HW211001   1.113   0.681   2.264
 3368SOL     OW11002   6.336   6.557   5.571
 3368SOL    HW111003   6.268   6.581   5.502
 3368SOL    HW211004   6.337   6.626   5.643
 3369SOL     OW11005   3.595   6.668   6.312
 3369SOL    HW111006   3.690   6.646   6.333
 3369SOL    HW211007   3.580   6.662   6.213
 3370SOL     OW11008   4.994   0.500   5.347
 3370SOL    HW111009   4.956   0.426   5.292
 3370SOL    HW211010   5.020   0.576   5.288
 3371SOL     OW11011   0.302   5.026   1.914
 3371SOL    HW111012   0.247   4.963   1.969
 3371SOL    HW211013   0.267   5.029   1.821
 3372SOL     OW11014   0.297   1.816   2.209
 3372SOL    HW111015   0.226   1.801   2.277
 3372SOL    HW211016   0.258   1.806   2.117
 3373SOL     OW11017   0.212   1.930   5.503
 3373SOL    HW111018   0.261   1.864   5.445
 3373SOL    HW211019   0.121   1.946   5.466
 3374SOL     OW11020   3.734   5.227   5.388
 3374SOL    HW111021   3.798   5.302   5.370
 3374SOL    HW211022   3.774   5.141   5.356
 3375SOL     OW11023   4.376   4.322   5.350
 3375SOL    HW111024   4.347   4.373   5.270
 3375SOL    HW211025   4.401   4.229   5.323
 3376SOL     OW11026   3.101   3.767   2.413
 3376SOL    HW111027   3.056   3.798   2.497
 3376SOL    HW211028   3.063   3.679   2.386
 3377SOL     OW11029   2.446   5.841   5.202
 3377SOL    HW111030   2.370   5.843   5.267
 3377SOL    HW211031   2.411   5.852   5.109
 3378SOL     OW11032   0.778   1.568   0.747
 3378SOL    HW111033   0.752   1.500   0.816
 3378SOL    HW211034   0.877   1.564   0.733
 3379SOL     OW11035   1.260   4.774   6.339
 3379SOL    HW111036   1.222   4.790   6.430
 3379SOL    HW211037   1.357   4.798   6.339
 3380SOL     OW11038   0.891   3.773   6.082
 3380SOL    HW111039   0.866   3.852   6.026
 3380SOL    HW211040   0.970   3.795   6.138
 3381SOL     OW11041   3.525   2.403   1.072
 3381SOL    HW111042   3.602   2.431   1.015
 3381SOL    HW211043   3.556   2.339   1.142
 3382SOL     OW11044   6.726   6.924   1.014
 3382SOL    HW111045   6.710   6.853   1.083
 3382SOL    HW211046   6.820   6.958   1.023
 3383SOL     OW11047   0.119   4.579   3.043
 3383SOL    HW111048   0.090   4.656   2.986
 3383SOL    HW211049   0.106   4.603   3.140
 3384SOL     OW11050   3.603   2.888   4.332
 3384SOL    HW111051   3.695   2.928   4.334
 3384SOL    HW211052   3.608   2.797   4.291
 3385SOL     OW11053   6.313   3.610   3.245
 3385SOL    HW111054   6.244   3.653   3.305
 3385SOL    HW211055   6.350   3.679   3.183
 3386SOL     OW11056   6.192   4.298   4.502
 3386SOL    HW111057   6.268   4.362   4.502
 3386SOL    HW211058   6.194   4.243   4.418
 3387SOL     OW11059   3.017   2.139   2.844
 3387SOL    HW111060   3.114   2.159   2.856
 3387SOL    HW211061   2.966   2.166   2.925
 3388SOL     OW11062   5.565   3.094   1.835
 3388SOL    HW111063   5.642   3.030   1.828
 3388SOL    HW211064   5.499   3.074   1.761
 3389SOL     OW11065   6.051   4.061   3.430
 3389SOL    HW111066   6.043   3.982   3.492
 3389SOL    HW211067   6.146   4.090   3.425
 3390SOL     OW11068   4.972   2.591   5.508
 3390SOL    HW111069   4.968   2.537   5.424
 3390SOL    HW211070   4.971   2.529   5.587
 3391SOL     OW11071   3.277   1.396   4.167
 3391SOL    HW111072   3.355   1.457   4.178
 3391SOL    HW211073   3.195   1.439   4.205
 3392SOL     OW11074   4.745   6.285   3.846
 3392SOL    HW111075   4.707   6.360   3.793
 3392SOL    HW211076   4.676   6.253   3.912
 3393SOL     OW11077   6.395   0.326   6.839
 3393SOL    HW111078   6.334   0.335   6.760
 3393SOL    HW211079   6.488   0.349   6.812
 3394SOL     OW11080   6.144   2.553   1.533
 3394SOL    HW111081   6.144   2.607   1.617
 3394SOL    HW211082   6.130   2.614   1.455
 3395SOL     OW11083   1.326   3.609   4.973
 3395SOL    HW111084   1.381   3.627   4.892
 3395SOL    HW211085   1.304   3.695   5.019
 3396SOL     OW11086   0.413   3.984   4.058
 3396SOL    HW111087   0.386   3.982   3.961
 3396SOL    HW211088   0.440   3.892   4.086
 3397SOL     OW11089   4.243   5.870   6.063
 3397SOL    HW111090   4.332   5.874   6.018
 3397SOL    HW211091   4.247   5.919   6.150
 3398SOL     OW11092   0.078   6.247   4.395
 3398SOL    HW111093   0.013   6.276   4.324
 3398SOL    HW211094   0.166   6.291   4.379
 3399SOL     OW11095   4.522   5.055   4.691
 3399SOL    HW111096   4.536   5.093   4.783
 3399SOL    HW211097   4.556   4.961   4.688
 3400SOL     OW11098   4.754   2.292   6.841
 3400SOL    HW111099   4.722   2.197   6.842
 3400SOL    HW211100   4.783   2.317   6.749
 3401SOL     OW11101   5.914   5.181   6.994
 3401SOL    HW111102   6.010   5.161   0.000
 3401SOL    HW211103   5.858   5.178   0.060
 3402SOL     OW11104   5.202   5.953   1.954
 3402SOL    HW111105   5.123   5.988   1.904
 3402SOL    HW211106   5.173   5.880   2.016
 3403SOL     OW11107   3.626   1.080   5.569
 3403SOL    HW111108   3.530   1.101   5.549
 3403SOL    HW211109   3.676   1.164   5.583
 3404SOL     OW11110   4.558   0.491   0.698
 3404SOL    HW111111   4.657   0.485   0.695
 3404SOL    HW211112   4.530   0.587   0.710
 3405SOL     OW11113   5.785   4.016   0.265
 3405SOL    HW111114   5.866   4.070   0.288
 3405SOL    HW211115   5.704   4.074   0.268
 3406SOL     OW11116   1.243   4.367   1.605
 3406SOL    HW111117   1.325   4.322   1.570
 3406SOL    HW211118   1.240   4.462   1.572
 3407SOL     OW11119   1.693   5.798   2.003
 3407SOL    HW111120   1.650   5.841   2.082
 3407SOL    HW211121   1.790   5.824   2.000
 3408SOL     OW11122   5.188   4.162   3.333
 3408SOL    HW111123   5.266   4.194   3.387
 3408SOL    HW211124   5.219   4.135   3.242
 3409SOL     OW11125   3.335   0.528   5.667
 3409SOL    HW111126   3.248   0.478   5.679
 3409SOL    HW211127   3.341   0.563   5.574
 3410SOL     OW11128   7.007   6.759   6.890
 3410SOL    HW111129   6.972   6.772   6.797
 3410SOL    HW211130   0.080   6.799   6.898
 3411SOL     OW11131   4.841   2.145   2.119
 3411SOL    HW111132   4.786   2.215   2.072
 3411SOL    HW211133   4.826   2.056   2.076
 3412SOL     OW11134   3.968   4.624   0.506
 3412SOL    HW111135   3.962   4.680   0.588
 3412SOL    HW211136   3.903   4.658   0.437
 3413SOL     OW11137   3.889   2.100   2.471
 3413SOL    HW111138   3.977   2.139   2.443
 3413SOL    HW211139   3.825   2.103   2.395
 3414SOL     OW11140   2.775   2.125   5.166
 3414SOL    HW111141   2.709   2.089   5.101
 3414SOL    HW211142   2.760   2.223   5.178
 3415SOL     OW11143   0.377   5.161   3.901
 3415SOL    HW111144   0.427   5.079   3.928
 3415SOL    HW211145   0.442   5.232   3.873
 3416SOL     OW11146   1.777   5.067   5.614
 3416SOL    HW111147   1.691   5.016   5.627
 3416SOL    HW211148   1.819   5.040   5.527
 3417SOL     OW11149   6.087   0.485   2.332
 3417SOL    HW111150   6.130   0.437   2.408
 3417SOL    HW211151   6.157   0.528   2.275
 3418SOL     OW11152   2.963   1.322   6.039
 3418SOL    HW111153   2.936   1.397   6.100
 3418SOL    HW211154   2.884   1.264   6.019
 3419SOL     OW11155   4.628   4.584   0.586
 3419SOL    HW111156   4.558   4.593   0.657
 3419SOL    HW211157   4.593   4.525   0.513
 3420SOL     OW11158   4.049   2.092   4.092
 3420SOL    HW111159   3.967   2.049   4.054
 3420SOL    HW211160   4.024   2.150   4.169
 3421SOL     OW11161   0.121   5.859   5.302
 3421SOL    HW111162   0.076   5.911   5.230
 3421SOL    HW211163   0.053   5.804   5.351
 3422SOL     OW11164   3.336   1.582   1.489
 3422SOL    HW111165   3.280   1.565   1.408
 3422SOL    HW211166   3.276   1.600   1.567
 3423SOL     OW11167   2.480   0.485   1.049
 3423SOL    HW111168   2.577   0.461   1.038
 3423SOL    HW211169   2.472   0.583   1.065
 3424SOL     OW11170   4.346   1.325   2.718
 3424SOL    HW111171   4.253   1.363   2.716
 3424SOL    HW211172   4.367   1.287   2.628
 3425SOL     OW11173   4.309   4.544   1.813
 3425SOL    HW111174   4.365   4.627   1.806
 3425SOL    HW211175   4.369   4.464   1.826
 3426SOL     OW11176   4.547   3.824   0.748
 3426SOL    HW111177   4.531   3.922   0.739
 3426SOL    HW211178   4.617   3.807   0.817
 3427SOL     OW11179   0.252   1.476   6.625
 3427SOL    HW111180   0.298   1.433   6.702
 3427SOL    HW211181   0.209   1.561   6.654
 3428SOL     OW11182   4.598   4.553   2.799
 3428SOL    HW111183   4.520   4.560   2.738
 3428SOL    HW211184   4.572   4.582   2.891
 3429SOL     OW11185   1.653   3.017   6.845
 3429SOL    HW111186   1.629   3.112   6.865
 3429SOL    HW211187   1.718   3.015   6.769
 3430SOL     OW11188   1.516   6.955   6.989
 3430SOL    HW111189   1.519   0.034   7.015
 3430SOL    HW211190   1.594   6.907   0.011
 3431SOL     OW11191   1.006   5.750   0.940
 3431SOL    HW111192   0.928   5.768   1.001
 3431SOL    HW211193   1.042   5.658   0.959
 3432SOL     OW11194   3.457   1.311   6.463
 3432SOL    HW111195   3.462   1.250   6.384
 3432SOL    HW211196   3.496   1.400   6.439
 3433SOL     OW11197   3.826   1.082   5.035
 3433SOL    HW111198   3.735   1.046   5.055
 3433SOL    HW211199   3.851   1.060   4.941
 3434SOL     OW11200   4.453   2.407   2.297
 3434SOL    HW111201   4.425   2.405   2.393
 3434SOL    HW211202   4.389   2.354   2.242
 3435SOL     OW11203   0.538   0.999   0.612
 3435SOL    HW111204   0.510   0.939   0.688
 3435SOL    HW211205   0.468   0.998   0.541
 3436SOL     OW11206   3.982   6.752   4.229
 3436SOL    HW111207   4.054   6.691   4.196
 3436SOL    HW211208   3.944   6.716   4.314
 3437SOL     OW11209   3.976   6.983   6.053
 3437SOL    HW111210   4.074   7.004   6.050
 3437SOL    HW211211   3.963   6.888   6.082
 3438SOL     OW11212   1.194   2.918   6.142
 3438SOL    HW111213   1.228   2.868   6.062
 3438SOL    HW211214   1.094   2.922   6.139
 3439SOL     OW11215   2.576   5.825   3.701
 3439SOL    HW111216   2.626   5.758   3.646
 3439SOL    HW211217   2.639   5.899   3.728
 3440SOL     OW11218   5.067   2.989   0.707
 3440SOL    HW111219   5.134   3.053   0.744
 3440SOL    HW211220   4.984   3.038   0.681
 3441SOL     OW11221   2.727   0.548   3.912
 3441SOL    HW111222   2.655   0.610   3.881
 3441SOL    HW211223   2.778   0.514   3.833
 3442SOL     OW11224   1.973   4.735   3.472
 3442SOL    HW111225   1.922   4.746   3.558
 3442SOL    HW211226   1.984   4.637   3.453
 3443SOL     OW11227   5.286   1.281   3.644
 3443SOL    HW111228   5.281   1.380   3.631
 3443SOL    HW211229   5.194   1.244   3.651
 3444SOL     OW11230   4.360   5.384   0.443
 3444SOL    HW111231   4.355   5.284   0.437
 3444SOL    HW211232   4.289   5.425   0.387
 3445SOL     OW11233   6.607   3.747   5.112
 3445SOL    HW111234   6.605   3.773   5.208
 3445SOL    HW211235   6.672   3.807   5.063
 3446SOL     OW11236   3.496   0.143   2.910
 3446SOL    HW111237   3.529   0.236   2.925
 3446SOL    HW211238   3.405   0.133   2.950
 3447SOL     OW11239   5.270   5.833   6.481
 3447SOL    HW111240   5.284   5.777   6.562
 3447SOL    HW211241   5.216   5.782   6.414
 3448SOL     OW11242   3.739   2.410   0.922
 3448SOL    HW111243   3.824   2.366   0.947
 3448SOL    HW211244   3.731   2.414   0.823
 3449SOL     OW11245   6.544   6.196   3.300
 3449SOL    HW111246   6.642   6.189   3.285
 3449SOL    HW211247   6.498   6.117   3.261
 3450SOL     OW11248   1.027   1.569   1.619
 3450SOL    HW111249   1.048   1.534   1.527
 3450SOL    HW211250   1.014   1.668   1.615
 3451SOL     OW11251   1.126   5.897   4.645
 3451SOL    HW111252   1.078   5.906   4.558
 3451SOL    HW211253   1.113   5.980   4.699
 3452SOL     OW11254   6.166   1.989   0.588
 3452SOL    HW111255   6.148   1.980   0.490
 3452SOL    HW211256   6.098   2.051   0.628
 3453SOL     OW11257   5.245   5.543   5.311
 3453SOL    HW111258   5.306   5.611   5.270
 3453SOL    HW211259   5.267   5.452   5.274
 3454SOL     OW11260   0.595   0.804   0.050
 3454SOL    HW111261   0.665   0.752   7.018
 3454SOL    HW211262   0.572   0.756   0.134
 3455SOL     OW11263   1.576   2.374   4.431
 3455SOL    HW111264   1.658   2.421   4.398
 3455SOL    HW211265   1.603   2.298   4.491
 3456SOL     OW11266   5.918   0.055   1.860
 3456SOL    HW111267   5.876   0.139   1.894
 3456SOL    HW211268   5.956   0.003   1.938
 3457SOL     OW11269   2.516   5.101   3.166
 3457SOL    HW111270   2.589   5.087   3.100
 3457SOL    HW211271   2.556   5.120   3.256
 3458SOL     OW11272   5.672   6.002   1.000
 3458SOL    HW111273   5.616   5.922   0.978
 3458SOL    HW211274   5.621   6.062   1.062
 3459SOL     OW11275   6.825   5.754   3.854
 3459SOL    HW111276   6.864   5.769   3.763
 3459SOL    HW211277   6.898   5.744   3.921
 3460SOL     OW11278   4.430   3.316   6.285
 3460SOL    HW111279   4.336   3.347   6.273
 3460SOL    HW211280   4.436   3.257   6.366
 3461SOL     OW11281   3.863   6.443   3.115
 3461SOL    HW111282   3.888   6.539   3.107
 3461SOL    HW211283   3.943   6.389   3.140
 3462SOL     OW11284   4.994   3.227   3.056
 3462SOL    HW111285   4.988   3.279   2.971
 3462SOL    HW211286   4.920   3.256   3.117
 3463SOL     OW11287   2.343   2.649   1.463
 3463SOL    HW111288   2.299   2.714   1.400
 3463SOL    HW211289   2.438   2.675   1.476
 3464SOL     OW11290   4.747   2.684   6.459
 3464SOL    HW111291   4.766   2.781   6.447
 3464SOL    HW211292   4.675   2.673   6.528
 3465SOL     OW11293   2.107   3.655   2.223
 3465SOL    HW111294   2.169   3.599   2.167
 3465SOL    HW211295   2.123   3.636   2.320
 3466SOL     OW11296   6.300   4.949   3.618
 3466SOL    HW111297   6.321   5.039   3.656
 3466SOL    HW211298   6.226   4.958   3.551
 3467SOL     OW11299   2.869   2.403   0.982
 3467SOL    HW111300   2.801   2.458   1.031
 3467SOL    HW211301   2.929   2.358   1.047
 3468SOL     OW11302   4.299   1.842   1.016
 3468SOL    HW111303   4.262   1.932   1.033
 3468SOL    HW211304   4.225   1.775   1.012
 3469SOL     OW11305   4.438   6.714   5.602
 3469SOL    HW111306   4.412   6.692   5.696
 3469SOL    HW211307   4.472   6.808   5.598
 3470SOL     OW11308   0.198   3.163   1.729
 3470SOL    HW111309   0.131   3.234   1.752
 3470SOL    HW211310   0.279   3.206   1.689
 3471SOL     OW11311   5.181   3.250   3.544
 3471SOL    HW111312   5.100   3.298   3.577
 3471SOL    HW211313   5.263   3.298   3.576
 3472SOL     OW11314   4.092   1.628   4.093
 3472SOL    HW111315   4.014   1.593   4.144
 3472SOL    HW211316   4.176   1.589   4.129
 3473SOL     OW11317   0.182   4.225   2.284
 3473SOL    HW111318   0.115   4.165   2.241
 3473SOL    HW211319   0.152   4.247   2.377
 3474SOL     OW11320   6.221   5.402   3.998
 3474SOL    HW111321   6.151   5.467   4.028
 3474SOL    HW211322   6.182   5.310   3.996
 3475SOL     OW11323   6.924   3.875   4.683
 3475SOL    HW111324   6.949   3.965   4.718
 3475SOL    HW211325   6.997   3.809   4.702
 3476SOL     OW11326   0.843   1.405   3.478
 3476SOL    HW111327   0.883   1.318   3.505
 3476SOL    HW211328   0.785   1.392   3.398
 3477SOL     OW11329   0.875   4.123   1.533
 3477SOL    HW111330   0.816   4.079   1.601
 3477SOL    HW211331   0.930   4.193   1.577
 3478SOL     OW11332   2.277   0.269   0.470
 3478SOL    HW111333   2.337   0.192   0.493
 3478SOL    HW211334   2.289   0.341   0.538
 3479SOL     OW11335   1.346   3.750   3.815
 3479SOL    HW111336   1.399   3.770   3.733
 3479SOL    HW211337   1.357   3.824   3.881
 3480SOL     OW11338   1.381   5.235   6.590
 3480SOL    HW111339   1.340   5.200   6.674
 3480SOL    HW211340   1.314   5.291   6.541
 3481SOL     OW11341   6.622   0.340   5.724
 3481SOL    HW111342   6.704   0.359   5.669
 3481SOL    HW211343   6.542   0.340   5.664
 3482SOL     OW11344   6.252   3.810   4.935
 3482SOL    HW111345   6.312   3.797   4.856
 3482SOL    HW211346   6.278   3.746   5.008
 3483SOL     OW11347   4.727   2.606   3.837
 3483SOL    HW111348   4.674   2.561   3.908
 3483SOL    HW211349   4.667   2.628   3.759
 3484SOL     OW11350   1.419   3.256   5.357
 3484SOL    HW111351   1.384   3.173   5.314
 3484SOL    HW211352   1.519   3.254   5.357
 3485SOL     OW11353   0.840   2.321   6.273
 3485SOL    HW111354   0.837   2.236   6.326
 3485SOL    HW211355   0.749   2.362   6.271
 3486SOL     OW11356   2.212   0.071   4.553
 3486SOL    HW111357   2.239   0.167   4.556
 3486SOL    HW211358   2.136   0.056   4.617
 3487SOL     OW11359   5.076   1.180   6.603
 3487SOL    HW111360   5.059   1.277   6.618
 3487SOL    HW211361   5.156   1.152   6.657
 3488SOL     OW11362   6.086   0.573   4.366
 3488SOL    HW111363   6.064   0.636   4.441
 3488SOL    HW211364   6.101   0.624   4.282
 3489SOL     OW11365   3.167   0.031   0.511
 3489SOL    HW111366   3.127   0.122   0.496
 3489SOL    HW211367   3.141   6.987   0.437
 3490SOL     OW11368   4.211   5.521   0.700
 3490SOL    HW111369   4.214   5.533   0.600
 3490SOL    HW211370   4.181   5.429   0.722
 3491SOL     OW11371   4.896   4.099   6.942
 3491SOL    HW111372   4.928   4.162   7.012
 3491SOL    HW211373   4.960   4.097   6.866
 3492SOL     OW11374   6.181   4.198   2.667
 3492SOL    HW111375   6.198   4.106   2.702
 3492SOL    HW211376   6.101   4.196   2.607
 3493SOL     OW11377   5.894   3.199   4.708
 3493SOL    HW111378   5.814   3.195   4.769
 3493SOL    HW211379   5.939   3.288   4.719
 3494SOL     OW11380   4.317   1.396   1.753
 3494SOL    HW111381   4.344   1.480   1.800
 3494SOL    HW211382   4.277   1.420   1.665
 3495SOL     OW11383   1.707   3.023   2.517
 3495SOL    HW111384   1.670   2.945   2.465
 3495SOL    HW211385   1.727   2.994   2.610
 3496SOL     OW11386   6.457   5.607   0.918
 3496SOL    HW111387   6.509   5.634   0.999
 3496SOL    HW211388   6.382   5.672   0.903
 3497SOL     OW11389   3.493   0.525   2.473
 3497SOL    HW111390   3.502   0.622   2.497
 3497SOL    HW211391   3.397   0.499   2.476
 3498SOL     OW11392   2.203   1.777   1.383
 3498SOL    HW111393   2.280   1.841   1.383
 3498SOL    HW211394   2.137   1.804   1.453
 3499SOL     OW11395   5.809   5.366   5.710
 3499SOL    HW111396   5.844   5.449   5.665
 3499SOL    HW211397   5.712   5.377   5.730
 3500SOL     OW11398   1.469   1.984   3.928
 3500SOL    HW111399   1.521   2.037   3.995
 3500SOL    HW211400   1.499   1.889   3.929
 3501SOL     OW11401   1.492   6.776   5.728
 3501SOL    HW111402   1.576   6.735   5.692
 3501SOL    HW211403   1.413   6.730   5.689
 3502SOL     OW11404   4.894   3.231   2.130
 3502SOL    HW111405   4.831   3.166   2.088
 3502SOL    HW211406   4.966   3.256   2.064
 3503SOL     OW11407   6.745   6.243   6.627
 3503SOL    HW111408   6.754   6.186   6.709
 3503SOL    HW211409   6.749   6.185   6.546
 3504SOL     OW11410   1.516   0.911   1.178
 3504SOL    HW111411   1.611   0.923   1.150
 3504SOL    HW211412   1.485   0.820   1.149
 3505SOL     OW11413   6.032   5.024   6.055
 3505SOL    HW111414   6.125   5.019   6.090
 3505SOL    HW211415   6.032   5.071   5.967
 3506SOL     OW11416   5.033   4.697   4.849
 3506SOL    HW111417   4.992   4.734   4.766
 3506SOL    HW211418   4.966   4.642   4.898
 3507SOL     OW11419   2.873   6.616   0.616
 3507SOL    HW111420   2.905   6.709   0.634
 3507SOL    HW211421   2.890   6.592   0.520
 3508SOL     OW11422   2.945   2.527   5.320
 3508SOL    HW111423   2.992   2.452   5.273
 3508SOL    HW211424   3.012   2.584   5.368
 3509SOL     OW11425   4.090   5.457   6.824
 3509SOL    HW111426   4.177   5.411   6.806
 3509SOL    HW211427   4.054   5.426   6.912
 3510SOL     OW11428   2.465   0.702   1.256
 3510SOL    HW111429   2.540   0.761   1.285
 3510SOL    HW211430   2.446   0.635   1.328
 3511SOL     OW11431   2.293   4.762   1.611
 3511SOL    HW111432   2.374   4.783   1.556
 3511SOL    HW211433   2.211   4.792   1.562
 3512SOL     OW11434   0.740   4.295   6.745
 3512SOL    HW111435   0.831   4.317   6.709
 3512SOL    HW211436   0.672   4.351   6.698
 3513SOL     OW11437   5.373   2.003   0.287
 3513SOL    HW111438   5.349   1.962   0.374
 3513SOL    HW211439   5.452   2.064   0.300
 3514SOL     OW11440   4.136   1.210   2.984
 3514SOL    HW111441   4.203   1.136   2.992
 3514SOL    HW211442   4.069   1.203   3.058
 3515SOL     OW11443   5.810   5.627   4.469
 3515SOL    HW111444   5.764   5.542   4.443
 3515SOL    HW211445   5.899   5.632   4.425
 3516SOL     OW11446   5.438   0.475   0.726
 3516SOL    HW111447   5.412   0.422   0.807
 3516SOL    HW211448   5.372   0.459   0.653
 3517SOL     OW11449   6.304   0.807   0.491
 3517SOL    HW111450   6.257   0.727   0.529
 3517SOL    HW211451   6.396   0.813   0.531
 3518SOL     OW11452   5.601   1.456   5.385
 3518SOL    HW111453   5.654   1.517   5.326
 3518SOL    HW211454   5.558   1.385   5.329
 3519SOL     OW11455   3.159   0.654   0.627
 3519SOL    HW111456   3.157   0.699   0.538
 3519SOL    HW211457   3.189   0.559   0.615
 3520SOL     OW11458   2.831   6.648   4.889
 3520SOL    HW111459   2.802   6.554   4.907
 3520SOL    HW211460   2.930   6.651   4.880
 3521SOL     OW11461   2.878   2.586   0.027
 3521SOL    HW111462   2.896   2.607   6.949
 3521SOL    HW211463   2.938   2.512   0.057
 3522SOL     OW11464   6.951   5.446   6.685
 3522SOL    HW111465   6.895   5.491   6.617
 3522SOL    HW211466   0.027   5.437   6.651
 3523SOL     OW11467   1.262   5.648   5.871
 3523SOL    HW111468   1.328   5.619   5.939
 3523SOL    HW211469   1.221   5.567   5.828
 3524SOL     OW11470   6.130   1.181   3.657
 3524SOL    HW111471   6.090   1.114   3.719
 3524SOL    HW211472   6.081   1.268   3.663
 3525SOL     OW11473   6.303   4.533   3.398
 3525SOL    HW111474   6.210   4.516   3.364
 3525SOL    HW211475   6.350   4.595   3.335
 3526SOL     OW11476   0.940   5.965   3.180
 3526SOL    HW111477   1.038   5.969   3.195
 3526SOL    HW211478   0.894   6.032   3.238
 3527SOL     OW11479   6.823   3.090   6.065
 3527SOL    HW111480   6.859   3.079   6.157
 3527SOL    HW211481   6.777   3.179   6.058
 3528SOL     OW11482   2.601   6.825   4.947
 3528SOL    HW111483   2.601   6.920   4.977
 3528SOL    HW211484   2.691   6.802   4.909
 3529SOL     OW11485   4.817   5.337   0.324
 3529SOL    HW111486   4.868   5.258   0.359
 3529SOL    HW211487   4.826   5.413   0.389
 3530SOL     OW11488   0.078   0.433   1.819
 3530SOL    HW111489   0.050   0.371   1.745
 3530SOL    HW211490   0.067   0.528   1.788
 3531SOL     OW11491   5.162   1.635   1.509
 3531SOL    HW111492   5.114   1.605   1.426
 3531SOL    HW211493   5.254   1.597   1.509
 3532SOL     OW11494   1.699   1.014   1.870
 3532SOL    HW111495   1.746   1.093   1.909
 3532SOL    HW211496   1.761   0.936   1.867
 3533SOL     OW11497   0.164   1.150   2.882
 3533SOL    HW111498   0.127   1.154   2.789
 3533SOL    HW211499   0.195   1.240   2.910
 3534SOL     OW11500   6.757   0.937   1.253
 3534SOL    HW111501   6.752   1.005   1.181
 3534SOL    HW211502   6.720   0.974   1.338
 3535SOL     OW11503   2.814   5.314   5.138
 3535SOL    HW111504   2.736   5.302   5.198
 3535SOL    HW211505   2.886   5.249   5.162
 3536SOL     OW11506   3.538   2.029   2.514
 3536SOL    HW111507   3.446   2.067   2.505
 3536SOL    HW211508   3.585   2.033   2.426
 3537SOL     OW11509   1.916   5.209   2.260
 3537SOL    HW111510   1.907   5.170   2.352
 3537SOL    HW211511   1.917   5.309   2.266
 3538SOL     OW11512   2.931   5.474   4.627
 3538SOL    HW111513   2.891   5.429   4.707
 3538SOL    HW211514   3.028   5.494   4.645
 3539SOL     OW11515   3.920   4.026   4.730
 3539SOL    HW111516   3.999   3.965   4.733
 3539SOL    HW211517   3.890   4.038   4.635
 3540SOL     OW11518   1.924   1.714   4.092
 3540SOL    HW111519   1.885   1.708   4.000
 3540SOL    HW211520   1.922   1.809   4.123
 3541SOL     OW11521   2.850   3.841   5.243
 3541SOL    HW111522   2.752   3.840   5.262
 3541SOL    HW211523   2.872   3.772   5.174
 3542SOL     OW11524   0.985   4.577   1.909
 3542SOL    HW111525   0.901   4.630   1.896
 3542SOL    HW211526   0.965   4.499   1.968
 3543SOL     OW11527   5.691   2.987   5.047
 3543SOL    HW111528   5.608   2.957   5.095
 3543SOL    HW211529   5.668   3.061   4.984
 3544SOL     OW11530   2.112   4.618   5.630
 3544SOL    HW111531   2.091   4.602   5.727
 3544SOL    HW211532   2.174   4.547   5.598
 3545SOL     OW11533   4.093   5.170   6.621
 3545SOL    HW111534   4.045   5.244   6.573
 3545SOL    HW211535   4.104   5.092   6.560
 3546SOL     OW11536   6.602   4.962   3.303
 3546SOL    HW111537   6.562   5.053   3.317
 3546SOL    HW211538   6.702   4.969   3.303
 3547SOL     OW11539   4.976   5.366   4.343
 3547SOL    HW111540   4.997   5.413   4.428
 3547SOL    HW211541   5.060   5.354   4.290
 3548SOL     OW11542   4.857   2.397   5.708
 3548SOL    HW111543   4.801   2.391   5.790
 3548SOL    HW211544   4.805   2.364   5.629
 3549SOL     OW11545   5.566   4.822   2.807
 3549SOL    HW111546   5.564   4.915   2.772
 3549SOL    HW211547   5.573   4.757   2.730
 3550SOL     OW11548   5.421   1.772   2.415
 3550SOL    HW111549   5.434   1.691   2.473
 3550SOL    HW211550   5.506   1.794   2.368
 3551SOL     OW11551   2.837   6.508   3.260
 3551SOL    HW111552   2.777   6.474   3.332
 3551SOL    HW211553   2.915   6.555   3.301
 3552SOL     OW11554   6.357   5.202   2.546
 3552SOL    HW111555   6.403   5.271   2.602
 3552SOL    HW211556   6.420   5.126   2.530
 3553SOL     OW11557   5.051   1.835   3.052
 3553SOL    HW111558   5.078   1.740   3.068
 3553SOL    HW211559   5.130   1.888   3.022
 3554SOL     OW11560   4.201   4.658   6.691
 3554SOL    HW111561   4.113   4.704   6.677
 3554SOL    HW211562   4.245   4.642   6.603
 3555SOL     OW11563   1.129   2.737   3.284
 3555SOL    HW111564   1.221   2.724   3.320
 3555SOL    HW211565   1.134   2.759   3.187
 3556SOL     OW11566   3.466   0.894   6.048
 3556SOL    HW111567   3.554   0.872   6.006
 3556SOL    HW211568   3.434   0.983   6.015
 3557SOL     OW11569   1.576   0.219   5.096
 3557SOL    HW111570   1.636   0.267   5.032
 3557SOL    HW211571   1.485   0.210   5.055
 3558SOL     OW11572   0.060   5.993   1.476
 3558SOL    HW111573   0.021   5.956   1.559
 3558SOL    HW211574   0.123   6.068   1.499
 3559SOL     OW11575   0.892   0.665   5.163
 3559SOL    HW111576   0.973   0.694   5.112
 3559SOL    HW211577   0.812   0.668   5.103
 3560SOL     OW11578   0.328   6.105   1.145
 3560SOL    HW111579   0.395   6.084   1.216
 3560SOL    HW211580   0.284   6.020   1.115
 3561SOL     OW11581   5.093   5.152   5.336
 3561SOL    HW111582   5.177   5.183   5.381
 3561SOL    HW211583   5.116   5.083   5.267
 3562SOL     OW11584   5.339   0.494   2.948
 3562SOL    HW111585   5.393   0.539   2.876
 3562SOL    HW211586   5.259   0.450   2.907
 3563SOL     OW11587   4.713   0.833   1.939
 3563SOL    HW111588   4.662   0.918   1.955
 3563SOL    HW211589   4.750   0.834   1.846
 3564SOL     OW11590   6.942   5.033   3.390
 3564SOL    HW111591   6.908   5.124   3.414
 3564SOL    HW211592   7.014   5.007   3.455
 3565SOL     OW11593   1.942   0.675   5.123
 3565SOL    HW111594   1.978   0.767   5.106
 3565SOL    HW211595   1.961   0.616   5.045
 3566SOL     OW11596   0.483   3.319   5.710
 3566SOL    HW111597   0.396   3.313   5.661
 3566SOL    HW211598   0.534   3.234   5.699
 3567SOL     OW11599   0.163   3.346   0.994
 3567SOL    HW111600   0.116   3.415   1.050
 3567SOL    HW211601   0.173   3.380   0.901
 3568SOL     OW11602   4.656   4.376   3.471
 3568SOL    HW111603   4.706   4.297   3.506
 3568SOL    HW211604   4.614   4.426   3.546
 3569SOL     OW11605   3.698   3.722   3.892
 3569SOL    HW111606   3.746   3.639   3.921
 3569SOL    HW211607   3.629   3.746   3.961
 3570SOL     OW11608   0.172   2.328   5.958
 3570SOL    HW111609   0.101   2.259   5.967
 3570SOL    HW211610   0.256   2.286   5.924
 3571SOL     OW11611   2.338   6.866   5.117
 3571SOL    HW111612   2.347   6.918   5.032
 3571SOL    HW211613   2.247   6.878   5.155
 3572SOL     OW11614   5.043   4.636   1.873
 3572SOL    HW111615   5.138   4.662   1.889
 3572SOL    HW211616   5.012   4.672   1.785
 3573SOL     OW11617   6.882   3.845   3.137
 3573SOL    HW111618   6.950   3.779   3.106
 3573SOL    HW211619   6.871   3.837   3.237
 3574SOL     OW11620   2.269   2.943   6.194
 3574SOL    HW111621   2.328   2.958   6.114
 3574SOL    HW211622   2.173   2.952   6.166
 3575SOL     OW11623   5.727   6.939   0.521
 3575SOL    HW111624   5.813   6.901   0.487
 3575SOL    HW211625   5.651   6.907   0.464
 3576SOL     OW11626   1.630   2.513   0.756
 3576SOL    HW111627   1.634   2.603   0.798
 3576SOL    HW211628   1.603   2.522   0.660
 3577SOL     OW11629   2.410   2.730   5.881
 3577SOL    HW111630   2.349   2.808   5.862
 3577SOL    HW211631   2.367   2.646   5.848
 3578SOL     OW11632   2.833   3.264   6.077
 3578SOL    HW111633   2.734   3.280   6.071
 3578SOL    HW211634   2.881   3.326   6.015
 3579SOL     OW11635   0.575   2.765   1.668
 3579SOL    HW111636   0.503   2.733   1.607
 3579SOL    HW211637   0.642   2.818   1.617
 3580SOL     OW11638   0.271   4.498   1.752
 3580SOL    HW111639   0.246   4.402   1.748
 3580SOL    HW211640   0.246   4.536   1.841
 3581SOL     OW11641   1.126   6.801   2.666
 3581SOL    HW111642   1.101   6.763   2.577
 3581SOL    HW211643   1.044   6.816   2.720
 3582SOL     OW11644   3.821   4.458   5.838
 3582SOL    HW111645   3.745   4.503   5.885
 3582SOL    HW211646   3.887   4.426   5.905
 3583SOL     OW11647   0.322   4.917   0.448
 3583SOL    HW111648   0.411   4.955   0.472
 3583SOL    HW211649   0.250   4.981   0.475
 3584SOL     OW11650   6.150   4.584   4.651
 3584SOL    HW111651   6.146   4.599   4.750
 3584SOL    HW211652   6.193   4.496   4.633
 3585SOL     OW11653   2.872   1.705   2.821
 3585SOL    HW111654   2.815   1.658   2.888
 3585SOL    HW211655   2.858   1.663   2.731
 3586SOL     OW11656   6.583   1.960   4.734
 3586SOL    HW111657   6.659   1.916   4.782
 3586SOL    HW211658   6.532   1.890   4.683
 3587SOL     OW11659   3.108   6.662   6.377
 3587SOL    HW111660   3.131   6.691   6.284
 3587SOL    HW211661   3.192   6.649   6.430
 3588SOL     OW11662   6.413   4.479   4.586
 3588SOL    HW111663   6.484   4.541   4.554
 3588SOL    HW211664   6.429   4.457   4.682
 3589SOL     OW11665   0.151   6.606   6.238
 3589SOL    HW111666   0.234   6.574   6.285
 3589SOL    HW211667   0.146   6.706   6.245
 3590SOL     OW11668   6.358   4.896   0.753
 3590SOL    HW111669   6.388   4.980   0.708
 3590SOL    HW211670   6.436   4.851   0.797
 3591SOL     OW11671   5.834   1.953   6.305
 3591SOL    HW111672   5.790   1.989   6.388
 3591SOL    HW211673   5.788   1.989   6.224
 3592SOL     OW11674   2.127   6.386   1.553
 3592SOL    HW111675   2.226   6.400   1.547
 3592SOL    HW211676   2.090   6.437   1.630
 3593SOL     OW11677   5.017   3.181   5.874
 3593SOL    HW111678   5.049   3.135   5.792
 3593SOL    HW211679   4.926   3.148   5.898
 3594SOL     OW11680   4.637   4.788   5.045
 3594SOL    HW111681   4.604   4.875   5.008
 3594SOL    HW211682   4.690   4.804   5.127
 3595SOL     OW11683   5.528   6.244   5.315
 3595SOL    HW111684   5.458   6.174   5.297
 3595SOL    HW211685   5.609   6.224   5.260
 3596SOL     OW11686   4.091   2.238   3.812
 3596SOL    HW111687   4.164   2.283   3.761
 3596SOL    HW211688   4.095   2.267   3.908
 3597SOL     OW11689   2.307   3.038   5.400
 3597SOL    HW111690   2.334   3.123   5.444
 3597SOL    HW211691   2.363   3.023   5.318
 3598SOL     OW11692   1.069   5.653   5.037
 3598SOL    HW111693   1.007   5.636   4.960
 3598SOL    HW211694   1.153   5.601   5.025
 3599SOL     OW11695   4.097   1.513   4.685
 3599SOL    HW111696   4.161   1.437   4.683
 3599SOL    HW211697   4.037   1.505   4.764
 3600SOL     OW11698   3.152   2.924   0.018
 3600SOL    HW111699   3.066   2.926   0.069
 3600SOL    HW211700   3.220   2.981   0.064
 3601SOL     OW11701   4.723   0.997   5.466
 3601SOL    HW111702   4.819   1.024   5.473
 3601SOL    HW211703   4.699   0.940   5.545
 3602SOL     OW11704   2.072   1.529   1.370
 3602SOL    HW111705   2.119   1.612   1.341
 3602SOL    HW211706   1.983   1.523   1.323
 3603SOL     OW11707   3.084   1.048   5.593
 3603SOL    HW111708   3.154   1.014   5.530
 3603SOL    HW211709   3.109   1.026   5.687
 3604SOL     OW11710   6.842   0.146   3.607
 3604SOL    HW111711   6.792   0.219   3.561
 3604SOL    HW211712   6.901   0.185   3.678
 3605SOL     OW11713   1.439   5.949   3.453
 3605SOL    HW111714   1.460   5.989   3.364
 3605SOL    HW211715   1.521   5.947   3.509
 3606SOL     OW11716   2.630   6.653   2.416
 3606SOL    HW111717   2.547   6.695   2.453
 3606SOL    HW211718   2.660   6.580   2.478
 3607SOL     OW11719   5.538   2.290   2.265
 3607SOL    HW111720   5.579   2.199   2.255
 3607SOL    HW211721   5.609   2.357   2.281
 3608SOL     OW11722   2.582   1.963   5.656
 3608SOL    HW111723   2.596   1.898   5.581
 3608SOL    HW211724   2.487   1.995   5.656
 3609SOL     OW11725   2.547   0.574   4.693
 3609SOL    HW111726   2.549   0.620   4.604
 3609SOL    HW211727   2.640   0.567   4.729
 3610SOL     OW11728   1.803   0.099   5.190
 3610SOL    HW111729   1.865   0.141   5.124
 3610SOL    HW211730   1.711   0.136   5.178
 3611SOL     OW11731   5.606   5.346   2.880
 3611SOL    HW111732   5.673   5.407   2.923
 3611SOL    HW211733   5.535   5.322   2.947
 3612SOL     OW11734   6.192   1.488   0.151
 3612SOL    HW111735   6.209   1.421   0.224
 3612SOL    HW211736   6.237   1.458   0.067
 3613SOL     OW11737   4.709   5.674   1.631
 3613SOL    HW111738   4.723   5.597   1.569
 3613SOL    HW211739   4.627   5.724   1.604
 3614SOL     OW11740   3.851   4.964   6.463
 3614SOL    HW111741   3.922   4.937   6.398
 3614SOL    HW211742   3.823   5.058   6.446
 3615SOL     OW11743   5.499   2.780   5.956
 3615SOL    HW111744   5.468   2.868   5.919
 3615SOL    HW211745   5.509   2.714   5.881
 3616SOL     OW11746   1.295   1.340   0.080
 3616SOL    HW111747   1.255   1.392   0.155
 3616SOL    HW211748   1.223   1.292   0.031
 3617SOL     OW11749   4.044   6.296   5.776
 3617SOL    HW111750   4.058   6.213   5.829
 3617SOL    HW211751   4.052   6.376   5.836
 3618SOL     OW11752   1.766   4.876   4.704
 3618SOL    HW111753   1.849   4.882   4.759
 3618SOL    HW211754   1.785   4.828   4.619
 3619SOL     OW11755   5.633   3.963   1.167
 3619SOL    HW111756   5.613   3.871   1.132
 3619SOL    HW211757   5.715   3.960   1.224
 3620SOL     OW11758   5.855   5.720   4.985
 3620SOL    HW111759   5.882   5.814   5.004
 3620SOL    HW211760   5.931   5.671   4.942
 3621SOL     OW11761   3.035   3.318   3.853
 3621SOL    HW111762   2.996   3.306   3.762
 3621SOL    HW211763   3.023   3.233   3.906
 3622SOL     OW11764   1.413   6.046   6.514
 3622SOL    HW111765   1.413   6.049   6.614
 3622SOL    HW211766   1.488   5.987   6.482
 3623SOL     OW11767   0.868   5.169   6.012
 3623SOL    HW111768   0.864   5.118   6.099
 3623SOL    HW211769   0.784   5.222   6.001
 3624SOL     OW11770   2.776   2.281   1.538
 3624SOL    HW111771   2.805   2.187   1.557
 3624SOL    HW211772   2.840   2.345   1.581
 3625SOL     OW11773   6.741   2.001   0.454
 3625SOL    HW111774   6.681   2.048   0.389
 3625SOL    HW211775   6.700   2.005   0.546
 3626SOL     OW11776   1.046   2.718   5.094
 3626SOL    HW111777   0.989   2.711   5.012
 3626SOL    HW211778   1.121   2.781   5.077
 3627SOL     OW11779   3.419   2.106   1.920
 3627SOL    HW111780   3.517   2.105   1.942
 3627SOL    HW211781   3.384   2.199   1.928
 3628SOL     OW11782   5.920   1.790   1.196
 3628SOL    HW111783   5.860   1.716   1.164
 3628SOL    HW211784   5.958   1.766   1.285
 3629SOL     OW11785   1.001   0.771   3.772
 3629SOL    HW111786   1.038   0.710   3.702
 3629SOL    HW211787   0.902   0.780   3.760
 3630SOL     OW11788   6.955   2.076   2.204
 3630SOL    HW111789   0.029   2.093   2.240
 3630SOL    HW211790   6.888   2.124   2.261
 3631SOL     OW11791   1.617   6.799   2.203
 3631SOL    HW111792   1.559   6.878   2.226
 3631SOL    HW211793   1.713   6.825   2.211
 3632SOL     OW11794   4.154   3.933   1.317
 3632SOL    HW111795   4.115   3.852   1.360
 3632SOL    HW211796   4.145   4.011   1.379
 3633SOL     OW11797   4.351   3.805   6.575
 3633SOL    HW111798   4.264   3.822   6.529
 3633SOL    HW211799   4.426   3.835   6.517
 3634SOL     OW11800   3.565   5.909   6.654
 3634SOL    HW111801   3.655   5.874   6.631
 3634SOL    HW211802   3.566   6.009   6.648
 3635SOL     OW11803   1.745   6.640   1.733
 3635SOL    HW111804   1.732   6.730   1.775
 3635SOL    HW211805   1.791   6.579   1.797
 3636SOL     OW11806   1.043   4.651   6.676
 3636SOL    HW111807   1.004   4.675   6.765
 3636SOL    HW211808   1.018   4.721   6.609
 3637SOL     OW11809   6.047   3.432   6.966
 3637SOL    HW111810   5.993   3.465   0.027
 3637SOL    HW211811   6.018   3.339   6.944
 3638SOL     OW11812   6.488   4.177   3.229
 3638SOL    HW111813   6.547   4.255   3.209
 3638SOL    HW211814   6.411   4.176   3.165
 3639SOL     OW11815   3.888   3.487   3.929
 3639SOL    HW111816   3.895   3.462   3.832
 3639SOL    HW211817   3.802   3.450   3.966
 3640SOL     OW11818   4.589   2.287   0.955
 3640SOL    HW111819   4.504   2.239   0.980
 3640SOL    HW211820   4.646   2.297   1.037
 3641SOL     OW11821   5.935   3.518   2.625
 3641SOL    HW111822   5.983   3.606   2.616
 3641SOL    HW211823   5.985   3.459   2.688
 3642SOL     OW11824   5.779   3.374   6.348
 3642SOL    HW111825   5.732   3.431   6.281
 3642SOL    HW211826   5.789   3.424   6.435
 3643SOL     OW11827   4.012   5.814   5.712
 3643SOL    HW111828   3.933   5.849   5.662
 3643SOL    HW211829   3.989   5.804   5.809
 3644SOL     OW11830   2.762   0.166   1.291
 3644SOL    HW111831   2.686   0.179   1.228
 3644SOL    HW211832   2.753   0.229   1.368
 3645SOL     OW11833   1.129   4.439   3.365
 3645SOL    HW111834   1.228   4.443   3.375
 3645SOL    HW211835   1.093   4.364   3.420
 3646SOL     OW11836   1.727   4.489   5.162
 3646SOL    HW111837   1.826   4.497   5.147
 3646SOL    HW211838   1.693   4.404   5.121
 3647SOL     OW11839   3.375   0.021   6.147
 3647SOL    HW111840   3.296   0.039   6.204
 3647SOL    HW211841   3.458   0.026   6.202
 3648SOL     OW11842   4.440   5.348   3.301
 3648SOL    HW111843   4.418   5.415   3.373
 3648SOL    HW211844   4.539   5.340   3.292
 3649SOL     OW11845   6.108   2.366   0.314
 3649SOL    HW111846   6.189   2.425   0.317
 3649SOL    HW211847   6.062   2.369   0.404
 3650SOL     OW11848   5.551   5.772   6.668
 3650SOL    HW111849   5.615   5.833   6.714
 3650SOL    HW211850   5.565   5.778   6.569
 3651SOL     OW11851   0.895   2.210   5.689
 3651SOL    HW111852   0.827   2.248   5.626
 3651SOL    HW211853   0.871   2.236   5.783
 3652SOL     OW11854   4.104   1.818   1.810
 3652SOL    HW111855   4.163   1.821   1.890
 3652SOL    HW211856   4.021   1.870   1.827
 3653SOL     OW11857   1.160   1.483   0.980
 3653SOL    HW111858   1.179   1.524   1.069
 3653SOL    HW211859   1.243   1.437   0.946
 3654SOL     OW11860   5.098   6.479   1.136
 3654SOL    HW111861   5.158   6.482   1.056
 3654SOL    HW211862   5.080   6.573   1.168
 3655SOL     OW11863   1.621   1.477   3.819
 3655SOL    HW111864   1.560   1.403   3.792
 3655SOL    HW211865   1.624   1.546   3.747
 3656SOL     OW11866   6.857   0.184   1.459
 3656SOL    HW111867   6.777   0.243   1.444
 3656SOL    HW211868   6.937   0.240   1.478
 3657SOL     OW11869   5.595   5.061   5.592
 3657SOL    HW111870   5.666   5.025   5.651
 3657SOL    HW211871   5.600   5.017   5.502
 3658SOL     OW11872   2.114   4.976   5.584
 3658SOL    HW111873   2.172   4.915   5.530
 3658SOL    HW211874   2.103   4.938   5.676
 3659SOL     OW11875   0.585   2.309   6.375
 3659SOL    HW111876   0.539   2.220   6.369
 3659SOL    HW211877   0.528   2.379   6.332
 3660SOL     OW11878   5.832   5.655   6.543
 3660SOL    HW111879   5.906   5.719   6.527
 3660SOL    HW211880   5.744   5.700   6.526
 3661SOL     OW11881   0.471   1.820   4.880
 3661SOL    HW111882   0.520   1.740   4.916
 3661SOL    HW211883   0.377   1.795   4.857
 3662SOL     OW11884   2.699   1.945   5.373
 3662SOL    HW111885   2.710   1.853   5.334
 3662SOL    HW211886   2.738   2.012   5.310
 3663SOL     OW11887   2.402   1.891   6.610
 3663SOL    HW111888   2.380   1.978   6.655
 3663SOL    HW211889   2.356   1.887   6.521
 3664SOL     OW11890   3.893   1.281   1.811
 3664SOL    HW111891   3.864   1.377   1.813
 3664SOL    HW211892   3.951   1.266   1.731
 3665SOL     OW11893   1.014   5.854   5.948
 3665SOL    HW111894   1.034   5.851   5.850
 3665SOL    HW211895   1.099   5.836   5.999
 3666SOL     OW11896   2.187   2.527   4.637
 3666SOL    HW111897   2.225   2.466   4.707
 3666SOL    HW211898   2.262   2.574   4.589
 3667SOL     OW11899   2.211   0.149   1.215
 3667SOL    HW111900   2.251   0.157   1.306
 3667SOL    HW211901   2.114   0.126   1.223
 3668SOL     OW11902   6.752   0.589   0.913
 3668SOL    HW111903   6.755   0.638   1.000
 3668SOL    HW211904   6.796   0.644   0.842
 3669SOL     OW11905   0.522   1.596   3.503
 3669SOL    HW111906   0.553   1.506   3.534
 3669SOL    HW211907   0.473   1.641   3.577
 3670SOL     OW11908   2.721   6.858   2.263
 3670SOL    HW111909   2.649   6.871   2.195
 3670SOL    HW211910   2.695   6.784   2.325
 3671SOL     OW11911   6.187   0.397   3.790
 3671SOL    HW111912   6.211   0.369   3.697
 3671SOL    HW211913   6.270   0.402   3.845
 3672SOL     OW11914   3.213   0.061   3.499
 3672SOL    HW111915   3.296   0.112   3.474
 3672SOL    HW211916   3.239   6.992   3.542
 3673SOL     OW11917   3.492   6.555   0.950
 3673SOL    HW111918   3.462   6.460   0.953
 3673SOL    HW211919   3.424   6.610   0.901
 3674SOL     OW11920   1.574   4.510   6.672
 3674SOL    HW111921   1.539   4.461   6.752
 3674SOL    HW211922   1.651   4.567   6.699
 3675SOL     OW11923   1.194   0.157   3.819
 3675SOL    HW111924   1.137   0.107   3.884
 3675SOL    HW211925   1.186   0.255   3.835
 3676SOL     OW11926   3.727   1.973   4.308
 3676SOL    HW111927   3.780   1.943   4.229
 3676SOL    HW211928   3.661   1.901   4.333
 3677SOL     OW11929   1.892   0.710   4.378
 3677SOL    HW111930   1.890   0.730   4.476
 3677SOL    HW211931   1.860   0.617   4.362
 3678SOL     OW11932   1.049   0.477   4.294
 3678SOL    HW111933   1.118   0.549   4.280
 3678SOL    HW211934   1.093   0.398   4.336
 3679SOL     OW11935   4.303   0.462   2.507
 3679SOL    HW111936   4.293   0.437   2.603
 3679SOL    HW211937   4.383   0.521   2.497
 3680SOL     OW11938   3.516   1.265   4.547
 3680SOL    HW111939   3.543   1.252   4.452
 3680SOL    HW211940   3.439   1.328   4.552
 3681SOL     OW11941   1.212   6.147   4.198
 3681SOL    HW111942   1.297   6.193   4.171
 3681SOL    HW211943   1.224   6.048   4.190
 3682SOL     OW11944   5.583   2.308   1.262
 3682SOL    HW111945   5.667   2.256   1.246
 3682SOL    HW211946   5.529   2.310   1.178
 3683SOL     OW11947   6.194   1.336   6.560
 3683SOL    HW111948   6.212   1.264   6.627
 3683SOL    HW211949   6.226   1.306   6.470
 3684SOL     OW11950   2.127   6.594   5.359
 3684SOL    HW111951   2.215   6.555   5.389
 3684SOL    HW211952   2.073   6.523   5.314
 3685SOL     OW11953   2.219   6.041   4.739
 3685SOL    HW111954   2.153   5.979   4.697
 3685SOL    HW211955   2.254   6.106   4.671
 3686SOL     OW11956   0.588   3.918   2.015
 3686SOL    HW111957   0.634   3.880   1.935
 3686SOL    HW211958   0.653   3.925   2.091
 3687SOL     OW11959   5.560   4.715   4.436
 3687SOL    HW111960   5.547   4.795   4.377
 3687SOL    HW211961   5.483   4.652   4.423
 3688SOL     OW11962   6.447   2.607   0.492
 3688SOL    HW111963   6.520   2.548   0.458
 3688SOL    HW211964   6.370   2.605   0.429
 3689SOL     OW11965   1.491   6.881   5.972
 3689SOL    HW111966   1.472   6.813   6.043
 3689SOL    HW211967   1.477   6.840   5.882
 3690SOL     OW11968   5.211   5.657   1.991
 3690SOL    HW111969   5.294   5.640   2.044
 3690SOL    HW211970   5.183   5.572   1.945
 3691SOL     OW11971   1.691   2.801   0.616
 3691SOL    HW111972   1.693   2.890   0.570
 3691SOL    HW211973   1.777   2.753   0.599
 3692SOL     OW11974   0.738   3.101   5.937
 3692SOL    HW111975   0.696   3.186   5.969
 3692SOL    HW211976   0.759   3.109   5.840
 3693SOL     OW11977   6.567   1.577   2.186
 3693SOL    HW111978   6.468   1.586   2.200
 3693SOL    HW211979   6.615   1.614   2.265
 3694SOL     OW11980   6.521   0.021   2.600
 3694SOL    HW111981   6.497   6.946   2.572
 3694SOL    HW211982   6.609   0.047   2.560
 3695SOL     OW11983   5.276   3.368   3.160
 3695SOL    HW111984   5.311   3.361   3.066
 3695SOL    HW211985   5.200   3.304   3.172
 3696SOL     OW11986   4.070   0.583   4.269
 3696SOL    HW111987   3.978   0.622   4.256
 3696SOL    HW211988   4.077   0.498   4.216
 3697SOL     OW11989   6.636   6.329   2.925
 3697SOL    HW111990   6.545   6.288   2.917
 3697SOL    HW211991   6.690   6.306   2.844
 3698SOL     OW11992   1.294   6.840   2.387
 3698SOL    HW111993   1.319   6.875   2.478
 3698SOL    HW211994   1.195   6.842   2.376
 3699SOL     OW11995   2.755   2.276   3.508
 3699SOL    HW111996   2.736   2.370   3.483
 3699SOL    HW211997   2.740   2.264   3.606
 3700SOL     OW11998   0.934   5.548   4.825
 3700SOL    HW111999   0.996   5.522   4.750
 3700SOL    HW212000   0.889   5.467   4.861
 3701SOL     OW12001   1.147   0.204   1.896
 3701SOL    HW112002   1.169   0.184   1.800
 3701SOL    HW212003   1.063   0.156   1.921
 3702SOL     OW12004   6.061   4.443   3.306
 3702SOL    HW112005   6.096   4.375   3.241
 3702SOL    HW212006   5.981   4.406   3.353
 3703SOL     OW12007   1.350   1.666   3.879
 3703SOL    HW112008   1.282   1.682   3.807
 3703SOL    HW212009   1.323   1.585   3.932
 3704SOL     OW12010   6.707   1.214   0.527
 3704SOL    HW112011   6.615   1.225   0.565
 3704SOL    HW212012   6.701   1.183   0.432
 3705SOL     OW12013   5.027   4.423   3.629
 3705SOL    HW112014   5.017   4.497   3.562
 3705SOL    HW212015   5.115   4.432   3.675
 3706SOL     OW12016   1.341   4.074   0.045
 3706SOL    HW112017   1.338   4.146   0.114
 3706SOL    HW212018   1.278   4.000   0.072
 3707SOL     OW12019   1.040   5.317   3.470
 3707SOL    HW112020   1.104   5.336   3.544
 3707SOL    HW212021   1.012   5.403   3.426
 3708SOL     OW12022   2.249   6.053   1.201
 3708SOL    HW112023   2.195   6.099   1.131
 3708SOL    HW212024   2.277   6.119   1.271
 3709SOL     OW12025   1.158   1.549   1.885
 3709SOL    HW112026   1.131   1.548   1.789
 3709SOL    HW212027   1.258   1.552   1.892
 3710SOL     OW12028   0.431   4.251   5.569
 3710SOL    HW112029   0.337   4.219   5.552
 3710SOL    HW212030   0.485   4.178   5.610
 3711SOL     OW12031   0.951   5.954   4.416
 3711SOL    HW112032   0.917   5.890   4.484
 3711SOL    HW212033   0.901   6.041   4.423
 3712SOL     OW12034   1.686   5.232   4.441
 3712SOL    HW112035   1.675   5.329   4.466
 3712SOL    HW212036   1.626   5.176   4.498
 3713SOL     OW12037   6.231   0.765   4.166
 3713SOL    HW112038   6.289   0.725   4.238
 3713SOL    HW212039   6.241   0.865   4.168
 3714SOL     OW12040   0.878   4.137   0.445
 3714SOL    HW112041   0.821   4.177   0.373
 3714SOL    HW212042   0.828   4.065   0.491
 3715SOL     OW12043   5.901   5.066   3.375
 3715SOL    HW112044   5.908   4.969   3.397
 3715SOL    HW212045   5.901   5.078   3.276
 3716SOL     OW12046   4.991   5.476   4.601
 3716SOL    HW112047   4.910   5.420   4.617
 3716SOL    HW212048   5.041   5.487   4.687
 3717SOL     OW12049   4.550   1.217   0.801
 3717SOL    HW112050   4.645   1.223   0.831
 3717SOL    HW212051   4.533   1.286   0.731
 3718SOL     OW12052   6.273   6.557   6.148
 3718SOL    HW112053   6.190   6.552   6.093
 3718SOL    HW212054   6.259   6.620   6.225
 3719SOL     OW12055   3.585   3.748   7.016
 3719SOL    HW112056   3.618   3.702   0.081
 3719SOL    HW212057   3.511   3.694   6.976
 3720SOL     OW12058   0.040   3.526   1.128
 3720SOL    HW112059   0.028   3.547   1.225
 3720SOL    HW212060   6.969   3.515   1.084
 3721SOL     OW12061   6.814   6.623   5.500
 3721SOL    HW112062   6.850   6.586   5.586
 3721SOL    HW212063   6.759   6.553   5.454
 3722SOL     OW12064   5.338   6.750   2.812
 3722SOL    HW112065   5.256   6.697   2.792
 3722SOL    HW212066   5.394   6.702   2.879
 3723SOL     OW12067   4.686   3.650   0.379
 3723SOL    HW112068   4.752   3.577   0.365
 3723SOL    HW212069   4.604   3.613   0.422
 3724SOL     OW12070   0.751   5.232   4.683
 3724SOL    HW112071   0.760   5.327   4.652
 3724SOL    HW212072   0.693   5.182   4.619
 3725SOL     OW12073   1.555   6.502   0.171
 3725SOL    HW112074   1.544   6.559   0.253
 3725SOL    HW212075   1.540   6.558   0.089
 3726SOL     OW12076   6.002   3.895   4.963
 3726SOL    HW112077   6.101   3.893   4.946
 3726SOL    HW212078   5.972   3.807   4.999
 3727SOL     OW12079   6.878   3.027   3.940
 3727SOL    HW112080   6.818   2.969   3.885
 3727SOL    HW212081   6.878   2.994   4.035
 3728SOL     OW12082   2.981   3.006   0.664
 3728SOL    HW112083   3.028   3.077   0.717
 3728SOL    HW212084   3.016   3.007   0.571
 3729SOL     OW12085   0.737   0.331   5.858
 3729SOL    HW112086   0.729   0.253   5.796
 3729SOL    HW212087   0.786   0.405   5.813
 3730SOL     OW12088   4.986   5.870   4.753
 3730SOL    HW112089   4.912   5.810   4.785
 3730SOL    HW212090   4.961   5.965   4.771
 3731SOL     OW12091   0.082   2.154   6.870
 3731SOL    HW112092   0.074   2.160   6.771
 3731SOL    HW212093   0.106   2.060   6.895
 3732SOL     OW12094   3.378   2.561   6.837
 3732SOL    HW112095   3.422   2.474   6.854
 3732SOL    HW212096   3.308   2.550   6.766
 3733SOL     OW12097   1.408   0.300   3.359
 3733SOL    HW112098   1.446   0.248   3.283
 3733SOL    HW212099   1.447   0.267   3.445
 3734SOL     OW12100   4.258   0.114   0.780
 3734SOL    HW112101   4.341   0.160   0.810
 3734SOL    HW212102   4.189   0.119   0.852
 3735SOL     OW12103   4.614   6.993   2.850
 3735SOL    HW112104   4.652   6.918   2.904
 3735SOL    HW212105   4.542   6.958   2.790
 3736SOL     OW12106   6.542   0.992   0.090
 3736SOL    HW112107   6.455   0.997   0.041
 3736SOL    HW212108   6.618   1.004   0.026
 3737SOL     OW12109   6.193   2.378   2.407
 3737SOL    HW112110   6.272   2.339   2.454
 3737SOL    HW212111   6.116   2.314   2.413
 3738SOL     OW12112   6.657   6.670   1.195
 3738SOL    HW112113   6.752   6.666   1.224
 3738SOL    HW212114   6.598   6.655   1.274
 3739SOL     OW12115   3.333   3.453   0.301
 3739SOL    HW112116   3.415   3.425   0.252
 3739SOL    HW212117   3.297   3.537   0.260
 3740SOL     OW12118   4.679   5.379   6.148
 3740SOL    HW112119   4.661   5.332   6.235
 3740SOL    HW212120   4.670   5.315   6.072
 3741SOL     OW12121   5.312   3.244   0.327
 3741SOL    HW112122   5.349   3.337   0.339
 3741SOL    HW212123   5.335   3.211   0.235
 3742SOL     OW12124   3.777   5.442   1.019
 3742SOL    HW112125   3.761   5.541   1.020
 3742SOL    HW212126   3.738   5.403   0.935
 3743SOL     OW12127   3.735   3.245   1.440
 3743SOL    HW112128   3.777   3.211   1.524
 3743SOL    HW212129   3.801   3.238   1.365
 3744SOL     OW12130   0.080   6.704   2.226
 3744SOL    HW112131   0.061   6.694   2.128
 3744SOL    HW212132   0.168   6.751   2.238
 3745SOL     OW12133   4.881   3.295   2.389
 3745SOL    HW112134   4.856   3.256   2.300
 3745SOL    HW212135   4.936   3.229   2.440
 3746SOL     OW12136   6.407   0.341   3.961
 3746SOL    HW112137   6.484   0.311   4.017
 3746SOL    HW212138   6.352   0.262   3.935
 3747SOL     OW12139   3.372   6.503   5.500
 3747SOL    HW112140   3.273   6.513   5.507
 3747SOL    HW212141   3.415   6.543   5.581
 3748SOL     OW12142   4.704   1.729   2.859
 3748SOL    HW112143   4.777   1.692   2.801
 3748SOL    HW212144   4.743   1.758   2.946
 3749SOL     OW12145   0.096   6.476   2.394
 3749SOL    HW112146   0.093   6.538   2.316
 3749SOL    HW212147   0.115   6.527   2.477
 3750SOL     OW12148   5.354   4.541   0.840
 3750SOL    HW112149   5.429   4.476   0.847
 3750SOL    HW212150   5.308   4.530   0.751
 3751SOL     OW12151   1.623   3.713   2.466
 3751SOL    HW112152   1.704   3.747   2.512
 3751SOL    HW212153   1.602   3.772   2.387
 3752SOL     OW12154   0.691   6.126   5.905
 3752SOL    HW112155   0.650   6.161   5.820
 3752SOL    HW212156   0.641   6.045   5.934
 3753SOL     OW12157   6.493   0.277   4.630
 3753SOL    HW112158   6.495   0.334   4.712
 3753SOL    HW212159   6.432   0.199   4.645
 3754SOL     OW12160   6.868   6.577   1.654
 3754SOL    HW112161   6.875   6.676   1.665
 3754SOL    HW212162   6.820   6.538   1.733
 3755SOL     OW12163   4.984   2.565   2.824
 3755SOL    HW112164   4.929   2.499   2.875
 3755SOL    HW212165   5.046   2.613   2.886
 3756SOL     OW12166   3.206   0.217   6.572
 3756SOL    HW112167   3.207   0.156   6.492
 3756SOL    HW212168   3.298   0.250   6.590
 3757SOL     OW12169   3.230   4.775   0.024
 3757SOL    HW112170   3.314   4.735   7.006
 3757SOL    HW212171   3.152   4.719   7.016
 3758SOL     OW12172   0.691   0.654   4.000
 3758SOL    HW112173   0.773   0.658   4.057
 3758SOL    HW212174   0.612   0.681   4.055
 3759SOL     OW12175   4.763   4.901   0.049
 3759SOL    HW112176   4.720   4.973   0.104
 3759SOL    HW212177   4.704   4.879   6.989
 3760SOL     OW12178   1.874   2.389   5.456
 3760SOL    HW112179   1.887   2.370   5.553
 3760SOL    HW212180   1.882   2.487   5.440
 3761SOL     OW12181   6.908   6.522   3.697
 3761SOL    HW112182   6.927   6.528   3.795
 3761SOL    HW212183   6.949   6.439   3.661
 3762SOL     OW12184   0.198   3.862   6.667
 3762SOL    HW112185   0.252   3.807   6.603
 3762SOL    HW212186   0.105   3.872   6.631
 3763SOL     OW12187   6.312   3.575   6.254
 3763SOL    HW112188   6.330   3.668   6.222
 3763SOL    HW212189   6.297   3.515   6.176
 3764SOL     OW12190   2.130   6.536   3.718
 3764SOL    HW112191   2.162   6.631   3.729
 3764SOL    HW212192   2.103   6.521   3.623
 3765SOL     OW12193   5.505   1.038   4.353
 3765SOL    HW112194   5.575   1.077   4.414
 3765SOL    HW212195   5.534   0.947   4.323
 3766SOL     OW12196   1.520   0.579   5.388
 3766SOL    HW112197   1.603   0.629   5.363
 3766SOL    HW212198   1.545   0.488   5.421
 3767SOL     OW12199   1.624   4.518   1.123
 3767SOL    HW112200   1.608   4.588   1.193
 3767SOL    HW212201   1.656   4.434   1.166
 3768SOL     OW12202   4.757   6.625   0.847
 3768SOL    HW112203   4.780   6.610   0.943
 3768SOL    HW212204   4.818   6.571   0.789
 3769SOL     OW12205   4.463   6.396   5.204
 3769SOL    HW112206   4.506   6.315   5.245
 3769SOL    HW212207   4.467   6.472   5.269
 3770SOL     OW12208   2.173   1.674   0.118
 3770SOL    HW112209   2.128   1.588   0.142
 3770SOL    HW212210   2.113   1.750   0.141
 3771SOL     OW12211   5.092   1.318   5.866
 3771SOL    HW112212   5.011   1.348   5.815
 3771SOL    HW212213   5.066   1.252   5.935
 3772SOL     OW12214   5.473   1.041   2.713
 3772SOL    HW112215   5.559   1.075   2.752
 3772SOL    HW212216   5.416   1.003   2.785
 3773SOL     OW12217   6.565   2.727   6.799
 3773SOL    HW112218   6.634   2.708   6.870
 3773SOL    HW212219   6.497   2.790   6.835
 3774SOL     OW12220   0.542   1.074   1.783
 3774SOL    HW112221   0.544   1.098   1.686
 3774SOL    HW212222   0.508   1.152   1.835
 3775SOL     OW12223   5.500   3.282   3.710
 3775SOL    HW112224   5.477   3.367   3.756
 3775SOL    HW212225   5.440   3.209   3.743
 3776SOL     OW12226   2.845   3.190   0.270
 3776SOL    HW112227   2.837   3.179   0.171
 3776SOL    HW212228   2.940   3.210   0.293
 3777SOL     OW12229   1.967   4.446   3.620
 3777SOL    HW112230   1.897   4.498   3.670
 3777SOL    HW212231   1.931   4.421   3.530
 3778SOL     OW12232   2.278   6.713   2.227
 3778SOL    HW112233   2.195   6.718   2.171
 3778SOL    HW212234   2.282   6.623   2.271
 3779SOL     OW12235   3.241   4.960   6.405
 3779SOL    HW112236   3.152   4.997   6.380
 3779SOL    HW212237   3.282   4.913   6.327
 3780SOL     OW12238   2.853   0.194   4.751
 3780SOL    HW112239   2.877   0.183   4.654
 3780SOL    HW212240   2.915   0.260   4.793
 3781SOL     OW12241   3.181   5.340   4.901
 3781SOL    HW112242   3.133   5.287   4.831
 3781SOL    HW212243   3.115   5.380   4.964
 3782SOL     OW12244   2.062   2.025   3.480
 3782SOL    HW112245   2.097   1.996   3.390
 3782SOL    HW212246   2.125   1.995   3.551
 3783SOL     OW12247   4.561   5.543   5.718
 3783SOL    HW112248   4.658   5.566   5.714
 3783SOL    HW212249   4.509   5.620   5.755
 3784SOL     OW12250   4.921   1.123   3.520
 3784SOL    HW112251   4.896   1.064   3.596
 3784SOL    HW212252   5.012   1.097   3.486
 3785SOL     OW12253   1.766   1.628   1.433
 3785SOL    HW112254   1.740   1.595   1.524
 3785SOL    HW212255   1.706   1.587   1.364
 3786SOL     OW12256   3.200   5.375   3.098
 3786SOL    HW112257   3.224   5.454   3.042
 3786SOL    HW212258   3.117   5.332   3.061
 3787SOL     OW12259   3.526   1.577   4.132
 3787SOL    HW112260   3.567   1.665   4.106
 3787SOL    HW212261   3.546   1.509   4.062
 3788SOL     OW12262   5.958   3.114   2.509
 3788SOL    HW112263   5.993   3.043   2.570
 3788SOL    HW212264   5.862   3.094   2.487
 3789SOL     OW12265   1.438   5.016   2.713
 3789SOL    HW112266   1.461   4.996   2.618
 3789SOL    HW212267   1.359   5.078   2.715
 3790SOL     OW12268   1.965   3.434   4.111
 3790SOL    HW112269   1.936   3.357   4.168
 3790SOL    HW212270   1.956   3.409   4.015
 3791SOL     OW12271   5.242   0.390   2.231
 3791SOL    HW112272   5.250   0.353   2.139
 3791SOL    HW212273   5.317   0.357   2.288
 3792SOL     OW12274   0.125   6.675   5.541
 3792SOL    HW112275   0.182   6.700   5.619
 3792SOL    HW212276   0.029   6.672   5.569
 3793SOL     OW12277   2.392   0.484   2.405
 3793SOL    HW112278   2.344   0.396   2.401
 3793SOL    HW212279   2.430   0.497   2.496
 3794SOL     OW12280   4.295   6.433   2.254
 3794SOL    HW112281   4.271   6.525   2.283
 3794SOL    HW212282   4.272   6.421   2.157
 3795SOL     OW12283   5.123   6.896   6.885
 3795SOL    HW112284   5.111   6.978   6.830
 3795SOL    HW212285   5.218   6.864   6.878
 3796SOL     OW12286   1.566   2.861   1.696
 3796SOL    HW112287   1.514   2.777   1.707
 3796SOL    HW212288   1.516   2.937   1.738
 3797SOL     OW12289   0.270   5.190   2.617
 3797SOL    HW112290   0.232   5.270   2.664
 3797SOL    HW212291   0.348   5.156   2.669
 3798SOL     OW12292   1.912   4.464   2.309
 3798SOL    HW112293   2.004   4.496   2.288
 3798SOL    HW212294   1.903   4.368   2.281
 3799SOL     OW12295   1.809   0.136   5.471
 3799SOL    HW112296   1.907   0.137   5.494
 3799SOL    HW212297   1.798   0.153   5.373
 3800SOL     OW12298   4.820   3.201   4.663
 3800SOL    HW112299   4.858   3.240   4.748
 3800SOL    HW212300   4.802   3.104   4.676
 3801SOL     OW12301   0.187   0.084   6.398
 3801SOL    HW112302   0.191   0.129   6.487
 3801SOL    HW212303   0.130   0.138   6.335
 3802SOL     OW12304   1.508   2.653   5.096
 3802SOL    HW112305   1.511   2.553   5.091
 3802SOL    HW212306   1.483   2.681   5.188
 3803SOL     OW12307   3.687   1.305   0.811
 3803SOL    HW112308   3.602   1.343   0.847
 3803SOL    HW212309   3.722   1.236   0.873
 3804SOL     OW12310   4.665   2.269   5.529
 3804SOL    HW112311   4.687   2.250   5.433
 3804SOL    HW212312   4.627   2.187   5.571
 3805SOL     OW12313   2.147   3.816   1.446
 3805SOL    HW112314   2.238   3.828   1.487
 3805SOL    HW212315   2.114   3.724   1.466
 3806SOL     OW12316   2.401   1.773   0.297
 3806SOL    HW112317   2.379   1.779   0.199
 3806SOL    HW212318   2.319   1.793   0.350
 3807SOL     OW12319   1.297   6.577   3.077
 3807SOL    HW112320   1.217   6.562   3.135
 3807SOL    HW212321   1.373   6.522   3.111
 3808SOL     OW12322   3.493   0.356   1.371
 3808SOL    HW112323   3.539   0.439   1.340
 3808SOL    HW212324   3.469   0.365   1.467
 3809SOL     OW12325   4.623   0.452   6.185
 3809SOL    HW112326   4.569   0.507   6.247
 3809SOL    HW212327   4.700   0.412   6.235
 3810SOL     OW12328   2.675   3.096   5.377
 3810SOL    HW112329   2.744   3.153   5.332
 3810SOL    HW212330   2.621   3.048   5.308
 3811SOL     OW12331   0.752   5.755   5.988
 3811SOL    HW112332   0.682   5.817   5.952
 3811SOL    HW212333   0.841   5.802   5.988
 3812SOL     OW12334   5.251   1.130   5.253
 3812SOL    HW112335   5.180   1.138   5.183
 3812SOL    HW212336   5.280   1.034   5.260
 3813SOL     OW12337   3.714   4.837   1.626
 3813SOL    HW112338   3.653   4.813   1.701
 3813SOL    HW212339   3.693   4.930   1.595
 3814SOL     OW12340   1.297   6.356   2.296
 3814SOL    HW112341   1.386   6.318   2.270
 3814SOL    HW212342   1.252   6.292   2.359
 3815SOL     OW12343   5.169   2.288   1.611
 3815SOL    HW112344   5.138   2.208   1.663
 3815SOL    HW212345   5.139   2.371   1.657
 3816SOL     OW12346   0.759   6.764   1.270
 3816SOL    HW112347   0.835   6.710   1.232
 3816SOL    HW212348   0.792   6.856   1.290
 3817SOL     OW12349   5.213   1.913   5.485
 3817SOL    HW112350   5.307   1.877   5.486
 3817SOL    HW212351   5.149   1.837   5.485
 3818SOL     OW12352   5.517   5.336   2.259
 3818SOL    HW112353   5.524   5.363   2.355
 3818SOL    HW212354   5.524   5.236   2.252
 3819SOL     OW12355   5.251   4.210   6.148
 3819SOL    HW112356   5.192   4.277   6.193
 3819SOL    HW212357   5.204   4.173   6.068
 3820SOL     OW12358   5.412   6.520   3.910
 3820SOL    HW112359   5.377   6.429   3.887
 3820SOL    HW212360   5.377   6.549   3.999
 3821SOL     OW12361   0.852   4.255   1.957
 3821SOL    HW112362   0.910   4.175   1.943
 3821SOL    HW212363   0.757   4.227   1.965
 3822SOL     OW12364   2.152   5.058   1.917
 3822SOL    HW112365   2.166   5.154   1.942
 3822SOL    HW212366   2.200   4.999   1.982
 3823SOL     OW12367   3.104   2.690   5.463
 3823SOL    HW112368   3.104   2.640   5.549
 3823SOL    HW212369   3.054   2.776   5.474
 3824SOL     OW12370   6.942   2.627   6.630
 3824SOL    HW112371   6.914   2.531   6.633
 3824SOL    HW212372   6.956   2.660   6.724
 3825SOL     OW12373   6.752   6.883   6.305
 3825SOL    HW112374   6.823   6.919   6.366
 3825SOL    HW212375   6.714   6.800   6.344
 3826SOL     OW12376   6.924   2.378   1.176
 3826SOL    HW112377   6.915   2.287   1.218
 3826SOL    HW212378   0.002   2.404   1.175
 3827SOL     OW12379   4.505   3.596   0.600
 3827SOL    HW112380   4.409   3.578   0.578
 3827SOL    HW212381   4.513   3.681   0.652
 3828SOL     OW12382   4.194   1.261   1.939
 3828SOL    HW112383   4.140   1.195   1.887
 3828SOL    HW212384   4.258   1.307   1.878
 3829SOL     OW12385   1.670   5.080   3.482
 3829SOL    HW112386   1.699   5.058   3.389
 3829SOL    HW212387   1.746   5.066   3.545
 3830SOL     OW12388   2.797   0.602   4.772
 3830SOL    HW112389   2.872   0.558   4.722
 3830SOL    HW212390   2.802   0.701   4.759
 3831SOL     OW12391   3.875   1.545   1.808
 3831SOL    HW112392   3.832   1.621   1.856
 3831SOL    HW212393   3.918   1.579   1.724
 3832SOL     OW12394   5.963   0.101   2.693
 3832SOL    HW112395   6.060   0.081   2.689
 3832SOL    HW212396   5.913   0.020   2.724
 3833SOL     OW12397   1.006   5.310   6.715
 3833SOL    HW112398   1.052   5.378   6.657
 3833SOL    HW212399   0.921   5.281   6.671
 3834SOL     OW12400   2.579   2.280   0.771
 3834SOL    HW112401   2.563   2.213   0.843
 3834SOL    HW212402   2.496   2.334   0.756
 3835SOL     OW12403   3.459   6.313   4.434
 3835SOL    HW112404   3.536   6.288   4.494
 3835SOL    HW212405   3.484   6.393   4.380
 3836SOL     OW12406   1.165   3.583   5.576
 3836SOL    HW112407   1.093   3.539   5.630
 3836SOL    HW212408   1.241   3.608   5.636
 3837SOL     OW12409   3.571   3.363   0.168
 3837SOL    HW112410   3.634   3.440   0.161
 3837SOL    HW212411   3.514   3.358   0.086
 3838SOL     OW12412   5.935   3.613   5.759
 3838SOL    HW112413   5.893   3.697   5.794
 3838SOL    HW212414   5.883   3.534   5.790
 3839SOL     OW12415   6.261   6.299   6.105
 3839SOL    HW112416   6.282   6.396   6.119
 3839SOL    HW212417   6.248   6.282   6.007
 3840SOL     OW12418   2.056   0.615   3.621
 3840SOL    HW112419   1.970   0.666   3.614
 3840SOL    HW212420   2.053   0.556   3.702
 3841SOL     OW12421   0.362   3.841   4.736
 3841SOL    HW112422   0.447   3.788   4.732
 3841SOL    HW212423   0.354   3.885   4.825
 3842SOL     OW12424   1.132   5.084   6.798
 3842SOL    HW112425   1.216   5.100   6.850
 3842SOL    HW212426   1.086   5.171   6.781
 3843SOL     OW12427   5.954   4.326   0.907
 3843SOL    HW112428   5.927   4.392   0.837
 3843SOL    HW212429   5.926   4.235   0.879
 3844SOL     OW12430   2.248   4.350   6.654
 3844SOL    HW112431   2.168   4.343   6.713
 3844SOL    HW212432   2.331   4.334   6.708
 3845SOL     OW12433   3.436   3.448   3.887
 3845SOL    HW112434   3.373   3.523   3.867
 3845SOL    HW212435   3.388   3.377   3.939
 3846SOL     OW12436   0.042   4.413   3.377
 3846SOL    HW112437   0.122   4.361   3.405
 3846SOL    HW212438   6.990   4.410   3.449
 3847SOL     OW12439   0.888   0.224   0.348
 3847SOL    HW112440   0.843   0.178   0.272
 3847SOL    HW212441   0.941   0.302   0.314
 3848SOL     OW12442   3.182   5.108   0.483
 3848SOL    HW112443   3.093   5.117   0.526
 3848SOL    HW212444   3.181   5.028   0.422
 3849SOL     OW12445   2.335   2.520   6.119
 3849SOL    HW112446   2.291   2.433   6.142
 3849SOL    HW212447   2.265   2.585   6.089
 3850SOL     OW12448   2.362   3.646   1.581
 3850SOL    HW112449   2.386   3.713   1.651
 3850SOL    HW212450   2.329   3.563   1.625
 3851SOL     OW12451   2.190   2.693   1.699
 3851SOL    HW112452   2.213   2.681   1.602
 3851SOL    HW212453   2.267   2.664   1.756
 3852SOL     OW12454   4.429   0.932   5.858
 3852SOL    HW112455   4.377   0.848   5.872
 3852SOL    HW212456   4.370   1.002   5.818
 3853SOL     OW12457   1.337   2.949   2.463
 3853SOL    HW112458   1.297   2.898   2.539
 3853SOL    HW212459   1.400   2.890   2.413
 3854SOL     OW12460   1.141   2.817   4.681
 3854SOL    HW112461   1.111   2.843   4.589
 3854SOL    HW212462   1.061   2.801   4.739
 3855SOL     OW12463   6.975   2.018   5.153
 3855SOL    HW112464   6.881   2.040   5.179
 3855SOL    HW212465   7.001   2.073   5.074
 3856SOL     OW12466   1.029   6.469   5.387
 3856SOL    HW112467   0.938   6.504   5.408
 3856SOL    HW212468   1.024   6.402   5.313
 3857SOL     OW12469   1.014   0.135   5.653
 3857SOL    HW112470   1.027   0.217   5.597
 3857SOL    HW212471   1.027   0.159   5.749
 3858SOL     OW12472   2.255   5.253   6.698
 3858SOL    HW112473   2.217   5.338   6.662
 3858SOL    HW212474   2.333   5.275   6.758
 3859SOL     OW12475   6.748   2.415   1.994
 3859SOL    HW112476   6.780   2.397   1.901
 3859SOL    HW212477   6.711   2.508   1.998
 3860SOL     OW12478   1.980   6.811   4.914
 3860SOL    HW112479   1.927   6.749   4.857
 3860SOL    HW212480   2.020   6.883   4.857
 3861SOL     OW12481   4.386   4.626   1.041
 3861SOL    HW112482   4.465   4.643   1.100
 3861SOL    HW212483   4.363   4.529   1.042
 3862SOL     OW12484   1.120   5.273   6.007
 3862SOL    HW112485   1.130   5.306   5.913
 3862SOL    HW212486   1.024   5.252   6.025
 3863SOL     OW12487   3.327   3.004   0.695
 3863SOL    HW112488   3.245   3.054   0.667
 3863SOL    HW212489   3.310   2.956   0.781
 3864SOL     OW12490   3.178   1.901   6.925
 3864SOL    HW112491   3.259   1.847   6.951
 3864SOL    HW212492   3.136   1.861   6.844
 3865SOL     OW12493   4.494   0.924   2.379
 3865SOL    HW112494   4.479   0.836   2.334
 3865SOL    HW212495   4.519   0.993   2.310
 3866SOL     OW12496   4.095   6.356   6.249
 3866SOL    HW112497   4.036   6.277   6.230
 3866SOL    HW212498   4.190   6.325   6.257
 3867SOL     OW12499   1.750   3.796   3.993
 3867SOL    HW112500   1.689   3.800   3.914
 3867SOL    HW212501   1.707   3.741   4.065
 3868SOL     OW12502   1.471   5.542   2.781
 3868SOL    HW112503   1.544   5.491   2.736
 3868SOL    HW212504   1.387   5.488   2.780
 3869SOL     OW12505   1.606   1.721   3.997
 3869SOL    HW112506   1.683   1.681   3.946
 3869SOL    HW212507   1.520   1.683   3.962
 3870SOL     OW12508   4.057   4.359   0.496
 3870SOL    HW112509   4.037   4.456   0.508
 3870SOL    HW212510   3.987   4.304   0.542
 3871SOL     OW12511   3.222   1.685   4.434
 3871SOL    HW112512   3.250   1.761   4.493
 3871SOL    HW212513   3.293   1.614   4.434
 3872SOL     OW12514   4.261   3.535   0.515
 3872SOL    HW112515   4.271   3.438   0.492
 3872SOL    HW212516   4.189   3.574   0.457
 3873SOL     OW12517   5.288   4.340   1.835
 3873SOL    HW112518   5.377   4.384   1.830
 3873SOL    HW212519   5.228   4.378   1.765
 3874SOL     OW12520   4.686   6.042   6.446
 3874SOL    HW112521   4.751   5.977   6.485
 3874SOL    HW212522   4.663   6.014   6.353
 3875SOL     OW12523   1.927   3.979   0.555
 3875SOL    HW112524   2.026   3.971   0.568
 3875SOL    HW212525   1.887   3.887   0.551
 3876SOL     OW12526   5.273   4.011   2.453
 3876SOL    HW112527   5.363   4.050   2.475
 3876SOL    HW212528   5.253   4.026   2.356
 3877SOL     OW12529   5.748   1.244   2.541
 3877SOL    HW112530   5.782   1.320   2.485
 3877SOL    HW212531   5.745   1.161   2.485
 3878SOL     OW12532   4.125   5.972   4.590
 3878SOL    HW112533   4.208   5.922   4.566
 3878SOL    HW212534   4.070   5.916   4.653
 3879SOL     OW12535   3.046   6.039   1.309
 3879SOL    HW112536   3.078   5.965   1.368
 3879SOL    HW212537   3.022   6.003   1.219
 3880SOL     OW12538   5.351   2.778   4.185
 3880SOL    HW112539   5.442   2.820   4.180
 3880SOL    HW212540   5.281   2.849   4.176
 3881SOL     OW12541   1.409   5.119   1.214
 3881SOL    HW112542   1.509   5.113   1.209
 3881SOL    HW212543   1.372   5.126   1.121
 3882SOL     OW12544   0.923   6.027   6.138
 3882SOL    HW112545   0.946   5.993   6.047
 3882SOL    HW212546   0.946   6.124   6.144
 3883SOL     OW12547   3.231   1.648   6.422
 3883SOL    HW112548   3.265   1.682   6.335
 3883SOL    HW212549   3.301   1.660   6.492
 3884SOL     OW12550   1.914   4.987   5.404
 3884SOL    HW112551   1.892   4.894   5.433
 3884SOL    HW212552   2.005   5.011   5.436
 3885SOL     OW12553   7.011   1.597   5.494
 3885SOL    HW112554   0.045   1.643   5.566
 3885SOL    HW212555   6.986   1.664   5.423
 3886SOL     OW12556   0.378   5.936   5.380
 3886SOL    HW112557   0.432   5.852   5.368
 3886SOL    HW212558   0.295   5.931   5.325
 3887SOL     OW12559   5.180   3.473   5.286
 3887SOL    HW112560   5.157   3.389   5.237
 3887SOL    HW212561   5.137   3.551   5.240
 3888SOL     OW12562   5.393   2.079   1.824
 3888SOL    HW112563   5.362   2.165   1.864
 3888SOL    HW212564   5.399   2.089   1.724
 3889SOL     OW12565   0.038   5.410   6.924
 3889SOL    HW112566   6.988   5.383   6.992
 3889SOL    HW212567   7.017   5.399   6.832
 3890SOL     OW12568   6.708   3.491   2.552
 3890SOL    HW112569   6.635   3.490   2.484
 3890SOL    HW212570   6.675   3.534   2.636
 3891SOL     OW12571   5.938   5.269   6.323
 3891SOL    HW112572   5.871   5.243   6.254
 3891SOL    HW212573   5.891   5.292   6.408
 3892SOL     OW12574   5.824   5.404   3.777
 3892SOL    HW112575   5.831   5.351   3.693
 3892SOL    HW212576   5.813   5.342   3.855
 3893SOL     OW12577   3.211   6.207   4.228
 3893SOL    HW112578   3.165   6.289   4.263
 3893SOL    HW212579   3.310   6.221   4.231
 3894SOL     OW12580   4.806   5.389   6.874
 3894SOL    HW112581   4.838   5.307   6.828
 3894SOL    HW212582   4.871   5.464   6.858
 3895SOL     OW12583   1.829   2.524   5.816
 3895SOL    HW112584   1.823   2.499   5.913
 3895SOL    HW212585   1.855   2.620   5.808
 3896SOL     OW12586   6.375   2.703   6.394
 3896SOL    HW112587   6.323   2.634   6.343
 3896SOL    HW212588   6.430   2.757   6.330
 3897SOL     OW12589   3.063   6.644   3.320
 3897SOL    HW112590   3.142   6.583   3.303
 3897SOL    HW212591   3.091   6.739   3.307
 3898SOL     OW12592   3.338   3.547   4.530
 3898SOL    HW112593   3.331   3.460   4.580
 3898SOL    HW212594   3.405   3.538   4.456
 3899SOL     OW12595   5.037   2.022   4.942
 3899SOL    HW112596   4.937   2.020   4.945
 3899SOL    HW212597   5.071   2.089   5.008
 3900SOL     OW12598   6.903   2.409   4.497
 3900SOL    HW112599   6.942   2.317   4.509
 3900SOL    HW212600   6.923   2.464   4.578
 3901SOL     OW12601   2.724   5.616   5.122
 3901SOL    HW112602   2.730   5.621   5.022
 3901SOL    HW212603   2.754   5.703   5.162
 3902SOL     OW12604   4.439   4.554   2.478
 3902SOL    HW112605   4.425   4.476   2.417
 3902SOL    HW212606   4.512   4.612   2.442
 3903SOL     OW12607   4.708   2.694   5.877
 3903SOL    HW112608   4.793   2.647   5.897
 3903SOL    HW212609   4.631   2.642   5.914
 3904SOL     OW12610   2.304   6.317   0.950
 3904SOL    HW112611   2.370   6.379   0.994
 3904SOL    HW212612   2.213   6.335   0.986
 3905SOL     OW12613   6.310   0.597   6.119
 3905SOL    HW112614   6.322   0.548   6.032
 3905SOL    HW212615   6.399   0.628   6.152
 3906SOL     OW12616   0.280   6.032   4.376
 3906SOL    HW112617   0.338   5.951   4.385
 3906SOL    HW212618   0.281   6.083   4.463
 3907SOL     OW12619   0.566   1.558   5.407
 3907SOL    HW112620   0.510   1.531   5.486
 3907SOL    HW212621   0.526   1.520   5.324
 3908SOL     OW12622   2.552   0.875   4.218
 3908SOL    HW112623   2.504   0.812   4.157
 3908SOL    HW212624   2.491   0.951   4.242
 3909SOL     OW12625   5.122   2.512   1.396
 3909SOL    HW112626   5.187   2.437   1.407
 3909SOL    HW212627   5.053   2.508   1.468
 3910SOL     OW12628   3.307   2.141   0.992
 3910SOL    HW112629   3.313   2.239   1.012
 3910SOL    HW212630   3.302   2.128   0.893
 3911SOL     OW12631   6.768   0.535   1.439
 3911SOL    HW112632   6.860   0.554   1.473
 3911SOL    HW212633   6.711   0.502   1.514
 3912SOL     OW12634   4.376   4.149   0.059
 3912SOL    HW112635   4.310   4.093   0.108
 3912SOL    HW212636   4.363   4.245   0.082
 3913SOL     OW12637   4.102   5.445   1.287
 3913SOL    HW112638   4.078   5.420   1.381
 3913SOL    HW212639   4.051   5.527   1.260
 3914SOL     OW12640   6.572   2.116   0.249
 3914SOL    HW112641   6.485   2.069   0.263
 3914SOL    HW212642   6.578   2.148   0.155
 3915SOL     OW12643   5.686   0.331   5.560
 3915SOL    HW112644   5.599   0.375   5.579
 3915SOL    HW212645   5.745   0.394   5.509
 3916SOL     OW12646   1.829   2.179   2.868
 3916SOL    HW112647   1.742   2.226   2.875
 3916SOL    HW212648   1.827   2.114   2.792
 3917SOL     OW12649   3.891   4.849   2.074
 3917SOL    HW112650   3.963   4.798   2.027
 3917SOL    HW212651   3.802   4.824   2.036
 3918SOL     OW12652   5.187   0.543   0.598
 3918SOL    HW112653   5.228   0.634   0.589
 3918SOL    HW212654   5.118   0.530   0.528
 3919SOL     OW12655   4.729   6.071   3.167
 3919SOL    HW112656   4.814   6.075   3.221
 3919SOL    HW212657   4.723   6.152   3.109
 3920SOL     OW12658   3.024   1.402   5.608
 3920SOL    HW112659   2.960   1.360   5.543
 3920SOL    HW212660   2.972   1.450   5.679
 3921SOL     OW12661   1.219   3.193   6.508
 3921SOL    HW112662   1.157   3.164   6.581
 3921SOL    HW212663   1.306   3.144   6.516
 3922SOL     OW12664   4.904   3.327   3.613
 3922SOL    HW112665   4.917   3.412   3.663
 3922SOL    HW212666   4.832   3.273   3.657
 3923SOL     OW12667   5.319   1.438   1.301
 3923SOL    HW112668   5.376   1.520   1.310
 3923SOL    HW212669   5.315   1.391   1.389
 3924SOL     OW12670   4.828   4.793   4.371
 3924SOL    HW112671   4.860   4.886   4.354
 3924SOL    HW212672   4.773   4.762   4.293
 3925SOL     OW12673   4.958   5.558   1.365
 3925SOL    HW112674   4.993   5.650   1.349
 3925SOL    HW212675   5.035   5.494   1.375
 3926SOL     OW12676   0.657   5.679   4.936
 3926SOL    HW112677   0.743   5.629   4.924
 3926SOL    HW212678   0.597   5.627   4.997
 3927SOL     OW12679   5.648   1.533   5.655
 3927SOL    HW112680   5.575   1.573   5.710
 3927SOL    HW212681   5.610   1.493   5.572
 3928SOL     OW12682   3.367   5.818   2.646
 3928SOL    HW112683   3.450   5.813   2.590
 3928SOL    HW212684   3.392   5.811   2.743
 3929SOL     OW12685   0.780   1.626   5.875
 3929SOL    HW112686   0.800   1.547   5.818
 3929SOL    HW212687   0.820   1.708   5.834
 3930SOL     OW12688   1.307   5.099   3.930
 3930SOL    HW112689   1.301   5.123   4.027
 3930SOL    HW212690   1.403   5.103   3.901
 3931SOL     OW12691   1.087   2.206   0.045
 3931SOL    HW112692   1.011   2.248   7.014
 3931SOL    HW212693   1.055   2.172   0.134
 3932SOL     OW12694   2.386   4.367   2.930
 3932SOL    HW112695   2.366   4.372   2.832
 3932SOL    HW212696   2.381   4.271   2.959
 3933SOL     OW12697   2.257   5.786   1.330
 3933SOL    HW112698   2.298   5.716   1.272
 3933SOL    HW212699   2.288   5.877   1.299
 3934SOL     OW12700   2.180   6.920   1.459
 3934SOL    HW112701   2.219   7.011   1.442
 3934SOL    HW212702   2.143   6.884   1.373
 3935SOL     OW12703   0.243   3.416   4.891
 3935SOL    HW112704   0.170   3.414   4.822
 3935SOL    HW212705   0.331   3.395   4.847
 3936SOL     OW12706   0.267   4.350   5.055
 3936SOL    HW112707   0.275   4.376   4.959
 3936SOL    HW212708   0.359   4.348   5.096
 3937SOL     OW12709   1.216   6.156   0.473
 3937SOL    HW112710   1.208   6.071   0.421
 3937SOL    HW212711   1.313   6.176   0.490
 3938SOL     OW12712   0.399   3.243   0.819
 3938SOL    HW112713   0.311   3.219   0.861
 3938SOL    HW212714   0.441   3.318   0.870
 3939SOL     OW12715   1.575   6.546   3.530
 3939SOL    HW112716   1.664   6.574   3.567
 3939SOL    HW212717   1.514   6.625   3.527
 3940SOL     OW12718   2.944   5.554   6.737
 3940SOL    HW112719   3.026   5.571   6.682
 3940SOL    HW212720   2.869   5.611   6.702
 3941SOL     OW12721   4.700   5.413   2.526
 3941SOL    HW112722   4.725   5.498   2.480
 3941SOL    HW212723   4.632   5.432   2.597
 3942SOL     OW12724   6.666   6.625   6.353
 3942SOL    HW112725   6.757   6.601   6.320
 3942SOL    HW212726   6.623   6.545   6.396
 3943SOL     OW12727   2.317   3.184   6.739
 3943SOL    HW112728   2.326   3.258   6.806
 3943SOL    HW212729   2.370   3.207   6.657
 3944SOL     OW12730   4.049   2.964   6.585
 3944SOL    HW112731   4.049   2.993   6.680
 3944SOL    HW212732   4.134   2.991   6.541
 3945SOL     OW12733   5.591   0.540   3.409
 3945SOL    HW112734   5.551   0.514   3.497
 3945SOL    HW212735   5.685   0.508   3.405
 3946SOL     OW12736   0.162   3.297   0.412
 3946SOL    HW112737   0.104   3.364   0.458
 3946SOL    HW212738   0.138   3.294   0.315
 3947SOL     OW12739   5.351   6.601   2.048
 3947SOL    HW112740   5.340   6.515   2.098
 3947SOL    HW212741   5.263   6.649   2.044
 3948SOL     OW12742   1.509   2.225   5.155
 3948SOL    HW112743   1.424   2.275   5.173
 3948SOL    HW212744   1.502   2.132   5.191
 3949SOL     OW12745   6.678   0.060   2.309
 3949SOL    HW112746   6.698   0.157   2.322
 3949SOL    HW212747   6.579   0.045   2.313
 3950SOL     OW12748   3.103   4.517   1.627
 3950SOL    HW112749   3.092   4.461   1.545
 3950SOL    HW212750   3.024   4.503   1.687
 3951SOL     OW12751   0.252   2.951   4.291
 3951SOL    HW112752   0.327   2.887   4.310
 3951SOL    HW212753   0.277   3.011   4.215
 3952SOL     OW12754   5.765   4.092   6.920
 3952SOL    HW112755   5.788   4.095   6.823
 3952SOL    HW212756   5.804   4.009   6.961
 3953SOL     OW12757   3.208   3.802   6.008
 3953SOL    HW112758   3.139   3.874   6.007
 3953SOL    HW212759   3.183   3.730   5.943
 3954SOL     OW12760   0.742   3.298   4.974
 3954SOL    HW112761   0.690   3.215   4.955
 3954SOL    HW212762   0.762   3.304   5.072
 3955SOL     OW12763   5.790   3.763   0.080
 3955SOL    HW112764   5.722   3.690   0.074
 3955SOL    HW212765   5.744   3.851   0.074
 3956SOL     OW12766   6.234   3.288   5.492
 3956SOL    HW112767   6.331   3.278   5.471
 3956SOL    HW212768   6.208   3.384   5.488
 3957SOL     OW12769   0.702   2.094   1.746
 3957SOL    HW112770   0.635   2.074   1.674
 3957SOL    HW212771   0.662   2.075   1.835
 3958SOL     OW12772   5.372   6.530   0.423
 3958SOL    HW112773   5.356   6.600   0.353
 3958SOL    HW212774   5.467   6.500   0.419
 3959SOL     OW12775   2.393   5.099   1.757
 3959SOL    HW112776   2.313   5.072   1.810
 3959SOL    HW212777   2.420   5.024   1.697
 3960SOL     OW12778   4.723   3.385   0.938
 3960SOL    HW112779   4.626   3.363   0.954
 3960SOL    HW212780   4.733   3.432   0.851
 3961SOL     OW12781   6.434   0.211   1.530
 3961SOL    HW112782   6.349   0.216   1.583
 3961SOL    HW212783   6.427   0.137   1.463
 3962SOL     OW12784   0.614   6.987   5.875
 3962SOL    HW112785   0.671   0.051   5.871
 3962SOL    HW212786   0.614   6.943   5.785
 3963SOL     OW12787   4.853   4.539   3.781
 3963SOL    HW112788   4.926   4.490   3.734
 3963SOL    HW212789   4.792   4.580   3.713
 3964SOL     OW12790   5.749   5.928   0.070
 3964SOL    HW112791   5.686   6.003   0.091
 3964SOL    HW212792   5.842   5.964   0.061
 3965SOL     OW12793   3.559   3.663   0.884
 3965SOL    HW112794   3.623   3.636   0.812
 3965SOL    HW212795   3.473   3.613   0.873
 3966SOL     OW12796   6.632   4.263   5.458
 3966SOL    HW112797   6.674   4.251   5.368
 3966SOL    HW212798   6.579   4.348   5.458
 3967SOL     OW12799   1.957   6.513   0.041
 3967SOL    HW112800   1.897   6.550   6.988
 3967SOL    HW212801   2.003   6.431   0.007
 3968SOL     OW12802   5.237   2.039   0.929
 3968SOL    HW112803   5.193   1.955   0.963
 3968SOL    HW212804   5.236   2.108   1.001
 3969SOL     OW12805   0.226   5.854   1.052
 3969SOL    HW112806   0.223   5.853   1.152
 3969SOL    HW212807   0.286   5.781   1.020
 3970SOL     OW12808   5.033   4.715   3.917
 3970SOL    HW112809   4.954   4.657   3.900
 3970SOL    HW212810   5.007   4.790   3.979
 3971SOL     OW12811   6.606   6.284   3.932
 3971SOL    HW112812   6.586   6.268   3.835
 3971SOL    HW212813   6.552   6.361   3.965
 3972SOL     OW12814   1.006   0.383   6.304
 3972SOL    HW112815   1.031   0.441   6.382
 3972SOL    HW212816   0.988   0.440   6.224
 3973SOL     OW12817   3.184   3.011   3.320
 3973SOL    HW112818   3.183   3.003   3.220
 3973SOL    HW212819   3.253   2.950   3.358
 3974SOL     OW12820   5.688   1.211   6.636
 3974SOL    HW112821   5.695   1.203   6.536
 3974SOL    HW212822   5.777   1.193   6.677
 3975SOL     OW12823   0.025   6.306   5.429
 3975SOL    HW112824   0.011   6.285   5.332
 3975SOL    HW212825   6.954   6.313   5.474
 3976SOL     OW12826   0.482   2.903   6.826
 3976SOL    HW112827   0.527   2.815   6.840
 3976SOL    HW212828   0.551   2.975   6.823
 3977SOL     OW12829   2.880   5.995   4.772
 3977SOL    HW112830   2.862   5.901   4.742
 3977SOL    HW212831   2.976   6.003   4.798
 3978SOL     OW12832   6.597   3.971   6.760
 3978SOL    HW112833   6.551   3.991   6.846
 3978SOL    HW212834   6.551   3.894   6.715
 3979SOL     OW12835   1.336   6.838   2.912
 3979SOL    HW112836   1.340   6.755   2.968
 3979SOL    HW212837   1.427   6.877   2.905
 3980SOL     OW12838   4.766   4.080   4.065
 3980SOL    HW112839   4.793   3.985   4.083
 3980SOL    HW212840   4.751   4.091   3.966
 3981SOL     OW12841   6.848   1.714   6.122
 3981SOL    HW112842   6.902   1.761   6.192
 3981SOL    HW212843   6.903   1.702   6.040
 3982SOL     OW12844   2.291   2.960   4.093
 3982SOL    HW112845   2.301   2.995   4.000
 3982SOL    HW212846   2.270   3.035   4.155
 3983SOL     OW12847   2.783   6.842   4.218
 3983SOL    HW112848   2.766   6.785   4.138
 3983SOL    HW212849   2.715   6.822   4.289
 3984SOL     OW12850   1.934   6.202   1.662
 3984SOL    HW112851   2.014   6.253   1.631
 3984SOL    HW212852   1.851   6.250   1.636
 3985SOL     OW12853   2.065   2.921   2.073
 3985SOL    HW112854   2.076   2.950   2.168
 3985SOL    HW212855   2.100   2.992   2.011
 3986SOL     OW12856   1.104   2.199   2.237
 3986SOL    HW112857   1.179   2.238   2.290
 3986SOL    HW212858   1.139   2.126   2.179
 3987SOL     OW12859   1.490   3.785   5.279
 3987SOL    HW112860   1.500   3.723   5.201
 3987SOL    HW212861   1.393   3.798   5.299
 3988SOL     OW12862   5.117   0.362   0.817
 3988SOL    HW112863   5.200   0.372   0.872
 3988SOL    HW212864   5.109   0.440   0.755
 3989SOL     OW12865   4.300   0.689   5.904
 3989SOL    HW112866   4.329   0.630   5.829
 3989SOL    HW212867   4.317   0.644   5.991
 3990SOL     OW12868   0.560   2.141   3.781
 3990SOL    HW112869   0.527   2.066   3.724
 3990SOL    HW212870   0.654   2.124   3.808
 3991SOL     OW12871   0.940   1.733   3.760
 3991SOL    HW112872   1.023   1.685   3.732
 3991SOL    HW212873   0.916   1.800   3.690
 3992SOL     OW12874   5.883   4.047   6.665
 3992SOL    HW112875   5.819   3.979   6.631
 3992SOL    HW212876   5.969   4.041   6.613
 3993SOL     OW12877   1.603   0.517   4.023
 3993SOL    HW112878   1.692   0.492   4.061
 3993SOL    HW212879   1.550   0.434   4.005
 3994SOL     OW12880   2.884   1.872   3.255
 3994SOL    HW112881   2.959   1.807   3.269
 3994SOL    HW212882   2.888   1.908   3.162
 3995SOL     OW12883   1.648   3.218   2.269
 3995SOL    HW112884   1.577   3.150   2.289
 3995SOL    HW212885   1.665   3.274   2.349
 3996SOL     OW12886   5.569   5.847   4.740
 3996SOL    HW112887   5.646   5.910   4.725
 3996SOL    HW212888   5.483   5.892   4.716
 3997SOL     OW12889   4.939   3.592   2.982
 3997SOL    HW112890   4.948   3.654   2.904
 3997SOL    HW212891   4.897   3.506   2.952
 3998SOL     OW12892   4.859   2.049   3.277
 3998SOL    HW112893   4.849   2.048   3.177
 3998SOL    HW212894   4.788   1.992   3.318
 3999SOL     OW12895   3.940   3.347   1.077
 3999SOL    HW112896   3.935   3.372   0.980
 3999SOL    HW212897   3.857   3.298   1.103
 4000SOL     OW12898   2.594   5.051   2.601
 4000SOL    HW112899   2.579   5.031   2.504
 4000SOL    HW212900   2.567   5.145   2.620
 4001SOL     OW12901   6.915   5.513   4.528
 4001SOL    HW112902   6.851   5.523   4.452
 4001SOL    HW212903   6.988   5.449   4.503
 4002SOL     OW12904   4.029   3.830   4.226
 4002SOL    HW112905   4.084   3.820   4.310
 4002SOL    HW212906   3.983   3.918   4.227
 4003SOL     OW12907   1.786   0.674   4.744
 4003SOL    HW112908   1.691   0.695   4.722
 4003SOL    HW212909   1.835   0.759   4.765
 4004SOL     OW12910   1.356   3.911   4.025
 4004SOL    HW112911   1.388   3.943   4.114
 4004SOL    HW212912   1.264   3.947   4.008
 4005SOL     OW12913   4.834   3.381   7.016
 4005SOL    HW112914   4.740   3.348   7.010
 4005SOL    HW212915   4.845   3.460   6.955
 4006SOL     OW12916   6.687   5.849   2.253
 4006SOL    HW112917   6.673   5.929   2.195
 4006SOL    HW212918   6.784   5.829   2.260
 4007SOL     OW12919   0.046   0.748   1.905
 4007SOL    HW112920   6.997   0.676   1.927
 4007SOL    HW212921   0.127   0.736   1.962
 4008SOL     OW12922   3.294   0.922   1.218
 4008SOL    HW112923   3.248   1.009   1.236
 4008SOL    HW212924   3.247   0.848   1.265
 4009SOL     OW12925   4.988   2.255   0.587
 4009SOL    HW112926   4.908   2.258   0.528
 4009SOL    HW212927   4.960   2.240   0.682
 4010SOL     OW12928   2.074   4.894   1.429
 4010SOL    HW112929   2.089   4.991   1.451
 4010SOL    HW212930   1.990   4.863   1.473
 4011SOL     OW12931   5.814   5.992   5.652
 4011SOL    HW112932   5.831   5.913   5.711
 4011SOL    HW212933   5.883   5.995   5.579
 4012SOL     OW12934   5.180   6.311   2.957
 4012SOL    HW112935   5.233   6.252   3.019
 4012SOL    HW212936   5.101   6.347   3.006
 4013SOL     OW12937   0.154   1.430   6.121
 4013SOL    HW112938   0.240   1.413   6.170
 4013SOL    HW212939   0.129   1.349   6.068
 4014SOL     OW12940   2.846   5.055   2.170
 4014SOL    HW112941   2.753   5.035   2.139
 4014SOL    HW212942   2.898   4.969   2.176
 4015SOL     OW12943   4.150   4.966   6.468
 4015SOL    HW112944   4.102   4.928   6.389
 4015SOL    HW212945   4.146   4.901   6.544
 4016SOL     OW12946   5.353   4.876   4.725
 4016SOL    HW112947   5.378   4.863   4.629
 4016SOL    HW212948   5.387   4.965   4.756
 4017SOL     OW12949   1.040   4.776   5.955
 4017SOL    HW112950   1.092   4.844   6.006
 4017SOL    HW212951   1.094   4.692   5.946
 4018SOL     OW12952   4.156   6.135   1.109
 4018SOL    HW112953   4.071   6.174   1.073
 4018SOL    HW212954   4.153   6.136   1.209
 4019SOL     OW12955   6.180   3.964   2.403
 4019SOL    HW112956   6.121   4.044   2.394
 4019SOL    HW212957   6.272   3.993   2.430
 4020SOL     OW12958   6.282   5.403   4.404
 4020SOL    HW112959   6.322   5.460   4.476
 4020SOL    HW212960   6.203   5.354   4.442
 4021SOL     OW12961   4.834   4.261   6.154
 4021SOL    HW112962   4.782   4.277   6.070
 4021SOL    HW212963   4.864   4.166   6.157
 4022SOL     OW12964   2.922   6.915   1.621
 4022SOL    HW112965   2.937   6.842   1.555
 4022SOL    HW212966   2.999   6.919   1.685
 4023SOL     OW12967   0.702   1.332   4.030
 4023SOL    HW112968   0.610   1.317   3.992
 4023SOL    HW212969   0.730   1.250   4.081
 4024SOL     OW12970   0.555   6.662   4.490
 4024SOL    HW112971   0.537   6.759   4.501
 4024SOL    HW212972   0.568   6.619   4.580
 4025SOL     OW12973   6.753   5.832   3.326
 4025SOL    HW112974   6.766   5.931   3.320
 4025SOL    HW212975   6.691   5.811   3.402
 4026SOL     OW12976   0.768   6.966   4.225
 4026SOL    HW112977   0.768   6.872   4.189
 4026SOL    HW212978   0.674   6.995   4.243
 4027SOL     OW12979   3.239   4.797   5.240
 4027SOL    HW112980   3.194   4.726   5.294
 4027SOL    HW212981   3.278   4.865   5.302
 4028SOL     OW12982   4.811   0.765   3.506
 4028SOL    HW112983   4.827   0.679   3.457
 4028SOL    HW212984   4.713   0.778   3.520
 4029SOL     OW12985   1.757   6.092   0.210
 4029SOL    HW112986   1.746   6.167   0.145
 4029SOL    HW212987   1.740   6.126   0.303
 4030SOL     OW12988   0.782   1.812   2.360
 4030SOL    HW112989   0.743   1.856   2.279
 4030SOL    HW212990   0.877   1.838   2.370
 4031SOL     OW12991   5.993   6.305   0.175
 4031SOL    HW112992   6.039   6.219   0.196
 4031SOL    HW212993   6.057   6.381   0.189
 4032SOL     OW12994   4.856   0.546   2.511
 4032SOL    HW112995   4.913   0.552   2.429
 4032SOL    HW212996   4.895   0.605   2.582
 4033SOL     OW12997   1.642   2.257   2.519
 4033SOL    HW112998   1.574   2.213   2.461
 4033SOL    HW212999   1.605   2.343   2.554
 4034SOL     OW13000   0.589   3.031   5.470
 4034SOL    HW113001   0.659   3.103   5.463
 4034SOL    HW213002   0.507   3.059   5.421
 4035SOL     OW13003   4.607   1.984   1.706
 4035SOL    HW113004   4.542   1.953   1.636
 4035SOL    HW213005   4.564   2.055   1.762
 4036SOL     OW13006   2.863   5.567   3.275
 4036SOL    HW113007   2.907   5.656   3.269
 4036SOL    HW213008   2.780   5.567   3.219
 4037SOL     OW13009   2.646   1.645   5.697
 4037SOL    HW113010   2.703   1.681   5.623
 4037SOL    HW213011   2.556   1.620   5.662
 4038SOL     OW13012   3.382   4.711   5.751
 4038SOL    HW113013   3.361   4.617   5.778
 4038SOL    HW213014   3.451   4.709   5.678
 4039SOL     OW13015   5.583   5.272   1.322
 4039SOL    HW113016   5.644   5.280   1.400
 4039SOL    HW213017   5.544   5.362   1.301
 4040SOL     OW13018   3.033   6.552   5.106
 4040SOL    HW113019   3.102   6.610   5.062
 4040SOL    HW213020   3.006   6.593   5.193
 4041SOL     OW13021   2.406   6.761   1.482
 4041SOL    HW113022   2.330   6.827   1.486
 4041SOL    HW213023   2.490   6.809   1.456
 4042SOL     OW13024   6.849   1.348   2.705
 4042SOL    HW113025   6.918   1.418   2.725
 4042SOL    HW213026   6.859   1.317   2.610
 4043SOL     OW13027   5.341   3.401   6.188
 4043SOL    HW113028   5.277   3.337   6.147
 4043SOL    HW213029   5.370   3.469   6.120
 4044SOL     OW13030   4.939   4.325   3.118
 4044SOL    HW113031   4.985   4.263   3.182
 4044SOL    HW213032   4.840   4.319   3.133
 4045SOL     OW13033   5.173   1.291   5.455
 4045SOL    HW113034   5.089   1.256   5.498
 4045SOL    HW213035   5.211   1.221   5.395
 4046SOL     OW13036   5.787   1.635   3.086
 4046SOL    HW113037   5.765   1.559   3.148
 4046SOL    HW213038   5.869   1.681   3.119
 4047SOL     OW13039   2.582   3.103   6.582
 4047SOL    HW113040   2.677   3.113   6.553
 4047SOL    HW213041   2.530   3.059   6.510
 4048SOL     OW13042   4.503   2.005   2.394
 4048SOL    HW113043   4.441   1.985   2.470
 4048SOL    HW213044   4.553   2.089   2.413
 4049SOL     OW13045   4.296   4.285   0.688
 4049SOL    HW113046   4.233   4.208   0.675
 4049SOL    HW213047   4.247   4.361   0.733
 4050SOL     OW13048   1.120   5.582   2.173
 4050SOL    HW113049   1.171   5.517   2.116
 4050SOL    HW213050   1.159   5.673   2.163
 4051SOL     OW13051   5.595   1.100   4.719
 4051SOL    HW113052   5.641   1.188   4.732
 4051SOL    HW213053   5.535   1.082   4.797
 4052SOL     OW13054   6.055   1.780   3.117
 4052SOL    HW113055   6.043   1.853   3.051
 4052SOL    HW213056   6.151   1.774   3.144
 4053SOL     OW13057   1.035   5.155   4.301
 4053SOL    HW113058   1.043   5.060   4.329
 4053SOL    HW213059   1.122   5.187   4.264
 4054SOL     OW13060   4.021   3.704   1.432
 4054SOL    HW113061   4.047   3.672   1.523
 4054SOL    HW213062   3.923   3.724   1.431
 4055SOL     OW13063   0.620   3.800   0.082
 4055SOL    HW113064   0.684   3.743   0.030
 4055SOL    HW213065   0.621   3.772   0.178
 4056SOL     OW13066   5.033   3.610   0.528
 4056SOL    HW113067   5.115   3.617   0.471
 4056SOL    HW213068   5.060   3.612   0.625
 4057SOL     OW13069   0.345   3.545   0.261
 4057SOL    HW113070   0.328   3.602   0.180
 4057SOL    HW213071   0.416   3.478   0.239
 4058SOL     OW13072   2.340   0.765   5.116
 4058SOL    HW113073   2.371   0.673   5.092
 4058SOL    HW213074   2.282   0.801   5.042
 4059SOL     OW13075   0.198   1.562   3.566
 4059SOL    HW113076   0.149   1.571   3.480
 4059SOL    HW213077   0.154   1.491   3.622
 4060SOL     OW13078   6.810   6.274   4.668
 4060SOL    HW113079   6.731   6.217   4.691
 4060SOL    HW213080   6.885   6.215   4.636
 4061SOL     OW13081   1.198   5.249   0.613
 4061SOL    HW113082   1.145   5.334   0.610
 4061SOL    HW213083   1.290   5.268   0.646
 4062SOL     OW13084   1.907   2.794   1.334
 4062SOL    HW113085   1.983   2.842   1.379
 4062SOL    HW213086   1.932   2.773   1.239
 4063SOL     OW13087   4.092   0.593   0.355
 4063SOL    HW113088   4.068   0.571   0.261
 4063SOL    HW213089   4.166   0.661   0.356
 4064SOL     OW13090   1.778   1.536   5.837
 4064SOL    HW113091   1.820   1.509   5.924
 4064SOL    HW213092   1.811   1.627   5.811
 4065SOL     OW13093   2.857   6.425   0.879
 4065SOL    HW113094   2.846   6.476   0.965
 4065SOL    HW213095   2.777   6.439   0.821
 4066SOL     OW13096   0.610   3.689   3.538
 4066SOL    HW113097   0.521   3.717   3.501
 4066SOL    HW213098   0.615   3.714   3.634
 4067SOL     OW13099   5.357   5.242   0.666
 4067SOL    HW113100   5.446   5.208   0.696
 4067SOL    HW213101   5.291   5.234   0.741
 4068SOL     OW13102   2.283   2.897   4.771
 4068SOL    HW113103   2.330   2.940   4.847
 4068SOL    HW213104   2.196   2.859   4.801
 4069SOL     OW13105   4.306   6.725   6.567
 4069SOL    HW113106   4.281   6.629   6.579
 4069SOL    HW213107   4.295   6.774   6.654
 4070SOL     OW13108   1.292   3.298   3.711
 4070SOL    HW113109   1.266   3.207   3.745
 4070SOL    HW213110   1.214   3.340   3.666
 4071SOL     OW13111   1.196   0.563   3.671
 4071SOL    HW113112   1.207   0.569   3.770
 4071SOL    HW213113   1.264   0.621   3.626
 4072SOL     OW13114   2.713   5.014   2.983
 4072SOL    HW113115   2.699   4.994   2.886
 4072SOL    HW213116   2.795   5.069   2.995
 4073SOL     OW13117   3.791   4.817   0.267
 4073SOL    HW113118   3.784   4.836   0.169
 4073SOL    HW213119   3.702   4.786   0.301
 4074SOL     OW13120   1.825   5.297   3.019
 4074SOL    HW113121   1.726   5.288   3.008
 4074SOL    HW213122   1.861   5.216   3.065
 4075SOL     OW13123   6.769   1.204   1.113
 4075SOL    HW113124   6.711   1.268   1.064
 4075SOL    HW213125   6.840   1.255   1.162
 4076SOL     OW13126   2.281   4.199   5.366
 4076SOL    HW113127   2.336   4.136   5.311
 4076SOL    HW213128   2.184   4.186   5.347
 4077SOL     OW13129   2.821   0.543   1.895
 4077SOL    HW113130   2.785   0.620   1.947
 4077SOL    HW213131   2.918   0.560   1.874
 4078SOL     OW13132   3.144   5.064   2.537
 4078SOL    HW113133   3.153   4.997   2.463
 4078SOL    HW213134   3.118   5.018   2.621
 4079SOL     OW13135   0.814   2.066   4.139
 4079SOL    HW113136   0.895   2.102   4.094
 4079SOL    HW213137   0.810   1.967   4.127
 4080SOL     OW13138   6.273   1.830   5.045
 4080SOL    HW113139   6.213   1.880   4.983
 4080SOL    HW213140   6.323   1.760   4.993
 4081SOL     OW13141   1.608   3.317   3.975
 4081SOL    HW113142   1.547   3.386   3.937
 4081SOL    HW213143   1.560   3.229   3.980
 4082SOL     OW13144   0.918   3.135   1.177
 4082SOL    HW113145   0.933   3.173   1.269
 4082SOL    HW213146   0.890   3.040   1.185
 4083SOL     OW13147   5.567   2.921   4.650
 4083SOL    HW113148   5.610   2.839   4.690
 4083SOL    HW213149   5.502   2.959   4.714
 4084SOL     OW13150   0.415   1.548   3.949
 4084SOL    HW113151   0.444   1.454   3.928
 4084SOL    HW213152   0.466   1.581   4.029
 4085SOL     OW13153   2.871   6.145   0.814
 4085SOL    HW113154   2.828   6.206   0.881
 4085SOL    HW213155   2.811   6.134   0.735
 4086SOL     OW13156   1.308   5.415   0.276
 4086SOL    HW113157   1.317   5.415   0.375
 4086SOL    HW213158   1.245   5.487   0.247
 4087SOL     OW13159   1.526   1.690   2.536
 4087SOL    HW113160   1.553   1.740   2.618
 4087SOL    HW213161   1.478   1.752   2.474
 4088SOL     OW13162   6.959   1.976   0.870
 4088SOL    HW113163   6.966   1.920   0.952
 4088SOL    HW213164   6.997   1.926   0.792
 4089SOL     OW13165   1.014   1.374   5.052
 4089SOL    HW113166   1.019   1.405   4.957
 4089SOL    HW213167   1.013   1.453   5.113
 4090SOL     OW13168   1.883   4.737   5.506
 4090SOL    HW113169   1.975   4.704   5.529
 4090SOL    HW213170   1.815   4.673   5.541
 4091SOL     OW13171   4.776   6.320   0.518
 4091SOL    HW113172   4.728   6.236   0.541
 4091SOL    HW213173   4.862   6.298   0.471
 4092SOL     OW13174   0.334   2.717   4.679
 4092SOL    HW113175   0.311   2.789   4.745
 4092SOL    HW213176   0.279   2.729   4.596
 4093SOL     OW13177   5.800   0.782   4.412
 4093SOL    HW113178   5.781   0.796   4.509
 4093SOL    HW213179   5.842   0.864   4.374
 4094SOL     OW13180   2.509   4.490   5.237
 4094SOL    HW113181   2.592   4.516   5.287
 4094SOL    HW213182   2.453   4.430   5.294
 4095SOL     OW13183   1.351   3.426   6.451
 4095SOL    HW113184   1.307   3.515   6.462
 4095SOL    HW213185   1.283   3.358   6.426
 4096SOL     OW13186   4.126   4.759   1.928
 4096SOL    HW113187   4.162   4.849   1.903
 4096SOL    HW213188   4.180   4.688   1.883
 4097SOL     OW13189   3.167   3.452   5.075
 4097SOL    HW113190   3.120   3.386   5.016
 4097SOL    HW213191   3.231   3.505   5.020
 4098SOL     OW13192   0.150   2.251   2.725
 4098SOL    HW113193   0.197   2.176   2.677
 4098SOL    HW213194   0.054   2.226   2.739
 4099SOL     OW13195   4.280   6.147   2.119
 4099SOL    HW113196   4.206   6.194   2.168
 4099SOL    HW213197   4.246   6.117   2.029
 4100SOL     OW13198   3.970   5.749   3.165
 4100SOL    HW113199   3.956   5.764   3.067
 4100SOL    HW213200   3.992   5.653   3.182
 4101SOL     OW13201   5.392   0.888   6.185
 4101SOL    HW113202   5.487   0.883   6.158
 4101SOL    HW213203   5.373   0.816   6.252
 4102SOL     OW13204   6.035   1.438   0.522
 4102SOL    HW113205   6.006   1.374   0.593
 4102SOL    HW213206   6.120   1.407   0.481
 4103SOL     OW13207   0.452   0.250   2.418
 4103SOL    HW113208   0.371   0.307   2.433
 4103SOL    HW213209   0.530   0.290   2.466
 4104SOL     OW13210   1.620   4.961   3.018
 4104SOL    HW113211   1.650   4.931   3.108
 4104SOL    HW213212   1.614   5.061   3.016
 4105SOL     OW13213   5.032   4.847   0.117
 4105SOL    HW113214   5.075   4.823   0.030
 4105SOL    HW213215   4.938   4.877   0.100
 4106SOL     OW13216   6.763   3.489   5.258
 4106SOL    HW113217   6.720   3.498   5.167
 4106SOL    HW213218   6.704   3.435   5.317
 4107SOL     OW13219   0.107   0.653   0.984
 4107SOL    HW113220   0.057   0.587   0.928
 4107SOL    HW213221   0.069   0.744   0.970
 4108SOL     OW13222   6.307   3.331   5.760
 4108SOL    HW113223   6.383   3.270   5.785
 4108SOL    HW213224   6.273   3.306   5.669
 4109SOL     OW13225   3.381   6.113   3.679
 4109SOL    HW113226   3.315   6.046   3.714
 4109SOL    HW213227   3.426   6.076   3.598
 4110SOL     OW13228   4.957   3.435   5.750
 4110SOL    HW113229   4.971   3.372   5.826
 4110SOL    HW213230   4.888   3.397   5.687
 4111SOL     OW13231   4.712   2.998   6.633
 4111SOL    HW113232   4.660   2.955   6.706
 4111SOL    HW213233   4.790   3.047   6.672
 4112SOL     OW13234   3.667   1.239   4.270
 4112SOL    HW113235   3.724   1.319   4.288
 4112SOL    HW213236   3.720   1.171   4.218
 4113SOL     OW13237   3.546   5.245   4.533
 4113SOL    HW113238   3.490   5.291   4.602
 4113SOL    HW213239   3.536   5.146   4.541
 4114SOL     OW13240   2.987   1.896   2.401
 4114SOL    HW113241   3.013   1.977   2.349
 4114SOL    HW213242   2.977   1.921   2.498
 4115SOL     OW13243   5.299   4.650   1.933
 4115SOL    HW113244   5.344   4.620   2.017
 4115SOL    HW213245   5.368   4.676   1.865
 4116SOL     OW13246   2.832   1.200   1.889
 4116SOL    HW113247   2.749   1.217   1.942
 4116SOL    HW213248   2.912   1.214   1.947
 4117SOL     OW13249   1.153   5.642   1.309
 4117SOL    HW113250   1.094   5.719   1.288
 4117SOL    HW213251   1.128   5.603   1.397
 4118SOL     OW13252   2.231   6.538   0.477
 4118SOL    HW113253   2.217   6.630   0.512
 4118SOL    HW213254   2.143   6.491   0.469
 4119SOL     OW13255   4.186   0.761   3.613
 4119SOL    HW113256   4.129   0.799   3.686
 4119SOL    HW213257   4.268   0.818   3.601
 4120SOL     OW13258   3.763   0.653   1.552
 4120SOL    HW113259   3.762   0.753   1.546
 4120SOL    HW213260   3.848   0.623   1.594
 4121SOL     OW13261   6.416   2.905   5.125
 4121SOL    HW113262   6.461   2.977   5.072
 4121SOL    HW213263   6.335   2.874   5.076
 4122SOL     OW13264   1.477   6.040   5.967
 4122SOL    HW113265   1.410   6.055   6.040
 4122SOL    HW213266   1.471   5.946   5.935
 4123SOL     OW13267   5.181   3.811   6.473
 4123SOL    HW113268   5.260   3.773   6.521
 4123SOL    HW213269   5.200   3.907   6.449
 4124SOL     OW13270   5.190   0.034   3.983
 4124SOL    HW113271   5.210   0.111   4.043
 4124SOL    HW213272   5.161   0.069   3.894
 4125SOL     OW13273   4.945   1.339   1.069
 4125SOL    HW113274   4.882   1.276   1.024
 4125SOL    HW213275   4.894   1.417   1.105
 4126SOL     OW13276   2.036   4.346   4.304
 4126SOL    HW113277   2.131   4.366   4.327
 4126SOL    HW213278   2.026   4.335   4.205
 4127SOL     OW13279   6.407   3.559   5.661
 4127SOL    HW113280   6.320   3.607   5.654
 4127SOL    HW213281   6.394   3.472   5.708
 4128SOL     OW13282   0.825   1.991   2.797
 4128SOL    HW113283   0.918   2.012   2.830
 4128SOL    HW213284   0.773   2.075   2.786
 4129SOL     OW13285   5.474   2.540   5.710
 4129SOL    HW113286   5.426   2.500   5.632
 4129SOL    HW213287   5.561   2.492   5.722
 4130SOL     OW13288   5.808   4.104   0.801
 4130SOL    HW113289   5.851   4.024   0.842
 4130SOL    HW213290   5.843   4.117   0.708
 4131SOL     OW13291   6.662   4.610   3.429
 4131SOL    HW113292   6.588   4.610   3.362
 4131SOL    HW213293   6.651   4.687   3.492
 4132SOL     OW13294   5.230   2.455   3.883
 4132SOL    HW113295   5.139   2.496   3.886
 4132SOL    HW213296   5.238   2.385   3.953
 4133SOL     OW13297   3.516   1.352   1.040
 4133SOL    HW113298   3.495   1.278   1.103
 4133SOL    HW213299   3.602   1.395   1.065
 4134SOL     OW13300   1.043   1.366   6.927
 4134SOL    HW113301   0.970   1.302   6.954
 4134SOL    HW213302   1.004   1.456   6.909
 4135SOL     OW13303   1.168   0.645   1.343
 4135SOL    HW113304   1.173   0.693   1.430
 4135SOL    HW213305   1.085   0.589   1.340
 4136SOL     OW13306   1.129   2.128   3.491
 4136SOL    HW113307   1.100   2.218   3.522
 4136SOL    HW213308   1.154   2.131   3.394
 4137SOL     OW13309   3.061   4.571   6.421
 4137SOL    HW113310   3.082   4.638   6.350
 4137SOL    HW213311   3.022   4.618   6.500
 4138SOL     OW13312   4.247   4.875   3.346
 4138SOL    HW113313   4.245   4.887   3.247
 4138SOL    HW213314   4.298   4.950   3.388
 4139SOL     OW13315   2.115   1.228   0.105
 4139SOL    HW113316   2.144   1.231   0.200
 4139SOL    HW213317   2.187   1.267   0.047
 4140SOL     OW13318   4.618   1.451   5.153
 4140SOL    HW113319   4.655   1.379   5.212
 4140SOL    HW213320   4.581   1.525   5.209
 4141SOL     OW13321   5.293   5.740   0.636
 4141SOL    HW113322   5.230   5.663   0.621
 4141SOL    HW213323   5.384   5.714   0.603
 4142SOL     OW13324   6.166   3.905   1.579
 4142SOL    HW113325   6.151   3.839   1.506
 4142SOL    HW213326   6.179   3.996   1.540
 4143SOL     OW13327   0.264   2.711   1.192
 4143SOL    HW113328   0.173   2.723   1.230
 4143SOL    HW213329   0.275   2.770   1.112
 4144SOL     OW13330   4.624   0.862   2.865
 4144SOL    HW113331   4.580   0.939   2.911
 4144SOL    HW213332   4.572   0.837   2.784
 4145SOL     OW13333   2.088   6.693   2.551
 4145SOL    HW113334   2.051   6.688   2.644
 4145SOL    HW213335   2.066   6.610   2.501
 4146SOL     OW13336   5.160   6.390   0.299
 4146SOL    HW113337   5.245   6.426   0.338
 4146SOL    HW213338   5.122   6.456   0.234
 4147SOL     OW13339   3.356   2.121   5.613
 4147SOL    HW113340   3.262   2.087   5.611
 4147SOL    HW213341   3.396   2.114   5.521
 4148SOL     OW13342   6.406   0.637   3.420
 4148SOL    HW113343   6.324   0.689   3.446
 4148SOL    HW213344   6.474   0.644   3.494
 4149SOL     OW13345   5.348   3.870   1.940
 4149SOL    HW113346   5.345   3.793   1.876
 4149SOL    HW213347   5.291   3.944   1.904
 4150SOL     OW13348   5.117   0.665   6.615
 4150SOL    HW113349   5.150   0.696   6.704
 4150SOL    HW213350   5.030   0.616   6.626
 4151SOL     OW13351   0.688   5.414   0.728
 4151SOL    HW113352   0.763   5.358   0.693
 4151SOL    HW213353   0.626   5.436   0.653
 4152SOL     OW13354   3.546   4.260   1.470
 4152SOL    HW113355   3.579   4.243   1.563
 4152SOL    HW213356   3.594   4.200   1.406
 4153SOL     OW13357   6.149   5.026   5.621
 4153SOL    HW113358   6.085   4.965   5.667
 4153SOL    HW213359   6.209   5.067   5.689
 4154SOL     OW13360   5.248   2.965   6.086
 4154SOL    HW113361   5.158   2.921   6.087
 4154SOL    HW213362   5.293   2.947   5.998
 4155SOL     OW13363   0.915   3.270   1.724
 4155SOL    HW113364   0.974   3.328   1.668
 4155SOL    HW213365   0.886   3.321   1.805
 4156SOL     OW13366   5.982   6.773   5.451
 4156SOL    HW113367   6.037   6.701   5.408
 4156SOL    HW213368   5.937   6.827   5.381
 4157SOL     OW13369   3.587   0.967   5.005
 4157SOL    HW113370   3.497   1.000   4.979
 4157SOL    HW213371   3.617   0.896   4.940
 4158SOL     OW13372   1.002   6.639   3.986
 4158SOL    HW113373   1.080   6.596   4.031
 4158SOL    HW213374   0.997   6.610   3.891
 4159SOL     OW13375   0.813   3.002   5.004
 4159SOL    HW113376   0.903   3.039   5.028
 4159SOL    HW213377   0.775   2.955   5.084
 4160SOL     OW13378   1.493   0.934   0.856
 4160SOL    HW113379   1.581   0.889   0.867
 4160SOL    HW213380   1.419   0.868   0.870
 4161SOL     OW13381   6.329   1.758   0.554
 4161SOL    HW113382   6.304   1.842   0.603
 4161SOL    HW213383   6.290   1.679   0.602
 4162SOL     OW13384   6.268   0.098   5.452
 4162SOL    HW113385   6.281   0.068   5.357
 4162SOL    HW213386   6.305   0.029   5.514
 4163SOL     OW13387   5.526   1.592   3.993
 4163SOL    HW113388   5.609   1.572   4.046
 4163SOL    HW213389   5.447   1.549   4.035
 4164SOL     OW13390   2.223   0.339   5.900
 4164SOL    HW113391   2.158   0.415   5.904
 4164SOL    HW213392   2.285   0.351   5.823
 4165SOL     OW13393   3.849   6.603   2.304
 4165SOL    HW113394   3.872   6.599   2.207
 4165SOL    HW213395   3.830   6.511   2.337
 4166SOL     OW13396   5.752   2.590   1.041
 4166SOL    HW113397   5.851   2.605   1.041
 4166SOL    HW213398   5.723   2.560   1.132
 4167SOL     OW13399   1.643   2.736   1.451
 4167SOL    HW113400   1.721   2.790   1.419
 4167SOL    HW213401   1.620   2.762   1.544
 4168SOL     OW13402   1.300   5.126   0.932
 4168SOL    HW113403   1.292   5.027   0.936
 4168SOL    HW213404   1.377   5.151   0.872
 4169SOL     OW13405   5.890   3.632   4.452
 4169SOL    HW113406   5.816   3.643   4.520
 4169SOL    HW213407   5.850   3.623   4.361
 4170SOL     OW13408   4.446   2.439   5.634
 4170SOL    HW113409   4.522   2.394   5.587
 4170SOL    HW213410   4.454   2.538   5.621
 4171SOL     OW13411   5.880   3.935   1.951
 4171SOL    HW113412   5.859   3.897   1.862
 4171SOL    HW213413   5.876   4.035   1.946
 4172SOL     OW13414   1.952   1.913   0.174
 4172SOL    HW113415   1.904   1.843   0.121
 4172SOL    HW213416   1.944   2.001   0.128
 4173SOL     OW13417   5.308   3.776   5.132
 4173SOL    HW113418   5.239   3.844   5.112
 4173SOL    HW213419   5.292   3.737   5.223
 4174SOL     OW13420   4.757   1.182   4.466
 4174SOL    HW113421   4.736   1.132   4.382
 4174SOL    HW213422   4.747   1.121   4.545
 4175SOL     OW13423   3.032   0.907   2.651
 4175SOL    HW113424   2.958   0.930   2.589
 4175SOL    HW213425   3.098   0.848   2.604
 4176SOL     OW13426   5.522   6.424   2.846
 4176SOL    HW113427   5.571   6.492   2.792
 4176SOL    HW213428   5.466   6.470   2.915
 4177SOL     OW13429   6.926   5.717   2.710
 4177SOL    HW113430   6.942   5.750   2.804
 4177SOL    HW213431   6.828   5.717   2.691
 4178SOL     OW13432   3.712   2.477   5.693
 4178SOL    HW113433   3.677   2.471   5.786
 4178SOL    HW213434   3.764   2.561   5.682
 4179SOL     OW13435   5.553   3.158   6.226
 4179SOL    HW113436   5.549   3.215   6.308
 4179SOL    HW213437   5.461   3.148   6.188
 4180SOL     OW13438   4.268   3.832   1.768
 4180SOL    HW113439   4.302   3.927   1.764
 4180SOL    HW213440   4.267   3.794   1.676
 4181SOL     OW13441   0.536   1.109   6.759
 4181SOL    HW113442   0.597   1.036   6.729
 4181SOL    HW213443   0.530   1.109   6.859
 4182SOL     OW13444   5.502   1.167   3.538
 4182SOL    HW113445   5.576   1.232   3.526
 4182SOL    HW213446   5.425   1.212   3.583
 4183SOL     OW13447   1.206   1.561   1.228
 4183SOL    HW113448   1.210   1.592   1.323
 4183SOL    HW213449   1.256   1.626   1.170
 4184SOL     OW13450   4.563   5.516   0.253
 4184SOL    HW113451   4.615   5.438   0.217
 4184SOL    HW213452   4.515   5.489   0.336
 4185SOL     OW13453   0.056   0.413   4.225
 4185SOL    HW113454   0.156   0.416   4.216
 4185SOL    HW213455   0.024   0.320   4.204
 4186SOL     OW13456   2.849   4.132   0.989
 4186SOL    HW113457   2.831   4.175   1.077
 4186SOL    HW213458   2.907   4.192   0.933
 4187SOL     OW13459   4.467   3.926   6.873
 4187SOL    HW113460   4.432   3.969   6.955
 4187SOL    HW213461   4.545   3.979   6.838
 4188SOL     OW13462   4.847   6.429   4.589
 4188SOL    HW113463   4.897   6.444   4.675
 4188SOL    HW213464   4.876   6.497   4.521
 4189SOL     OW13465   2.371   2.674   3.898
 4189SOL    HW113466   2.316   2.753   3.926
 4189SOL    HW213467   2.411   2.632   3.979
 4190SOL     OW13468   3.167   0.110   1.334
 4190SOL    HW113469   3.218   0.043   1.280
 4190SOL    HW213470   3.104   0.160   1.274
 4191SOL     OW13471   6.286   1.676   2.134
 4191SOL    HW113472   6.317   1.680   2.039
 4191SOL    HW213473   6.210   1.741   2.147
 4192SOL     OW13474   6.329   1.747   3.178
 4192SOL    HW113475   6.425   1.775   3.177
 4192SOL    HW213476   6.322   1.652   3.145
 4193SOL     OW13477   1.516   0.041   1.942
 4193SOL    HW113478   1.507   0.110   1.870
 4193SOL    HW213479   1.486   0.080   2.029
 4194SOL     OW13480   0.448   0.708   4.576
 4194SOL    HW113481   0.372   0.675   4.520
 4194SOL    HW213482   0.460   0.646   4.654
 4195SOL     OW13483   4.787   0.701   2.184
 4195SOL    HW113484   4.887   0.696   2.181
 4195SOL    HW213485   4.753   0.735   2.097
 4196SOL     OW13486   4.565   2.435   3.461
 4196SOL    HW113487   4.526   2.455   3.371
 4196SOL    HW213488   4.551   2.338   3.482
 4197SOL     OW13489   4.408   4.658   3.842
 4197SOL    HW113490   4.417   4.611   3.930
 4197SOL    HW213491   4.317   4.700   3.835
 4198SOL     OW13492   5.650   3.725   5.830
 4198SOL    HW113493   5.626   3.714   5.734
 4198SOL    HW213494   5.691   3.814   5.845
 4199SOL     OW13495   3.064   4.062   5.208
 4199SOL    HW113496   3.005   4.027   5.136
 4199SOL    HW213497   3.054   4.005   5.290
 4200SOL     OW13498   2.401   7.006   6.175
 4200SOL    HW113499   2.340   0.067   6.177
 4200SOL    HW213500   2.432   6.985   6.267
 4201SOL     OW13501   5.644   6.336   4.308
 4201SOL    HW113502   5.706   6.395   4.256
 4201SOL    HW213503   5.652   6.242   4.276
 4202SOL     OW13504   5.282   4.465   4.231
 4202SOL    HW113505   5.324   4.374   4.230
 4202SOL    HW213506   5.192   4.459   4.274
 4203SOL     OW13507   5.470   5.462   3.746
 4203SOL    HW113508   5.570   5.466   3.743
 4203SOL    HW213509   5.434   5.475   3.654
 4204SOL     OW13510   3.390   3.748   0.578
 4204SOL    HW113511   3.329   3.812   0.625
 4204SOL    HW213512   3.399   3.664   0.633
 4205SOL     OW13513   2.769   5.347   2.973
 4205SOL    HW113514   2.709   5.398   3.035
 4205SOL    HW213515   2.728   5.344   2.882
 4206SOL     OW13516   5.825   6.980   4.389
 4206SOL    HW113517   5.878   6.934   4.318
 4206SOL    HW213518   5.883   6.999   4.468
 4207SOL     OW13519   0.909   0.517   1.336
 4207SOL    HW113520   0.847   0.454   1.382
 4207SOL    HW213521   0.863   0.604   1.320
 4208SOL     OW13522   1.058   3.475   1.583
 4208SOL    HW113523   1.127   3.545   1.567
 4208SOL    HW213524   0.967   3.517   1.578
 4209SOL     OW13525   3.019   0.315   4.949
 4209SOL    HW113526   3.098   0.375   4.938
 4209SOL    HW213527   3.027   0.267   5.037
 4210SOL     OW13528   5.016   2.576   0.598
 4210SOL    HW113529   5.090   2.610   0.656
 4210SOL    HW213530   5.010   2.477   0.607
 4211SOL     OW13531   4.766   4.106   3.334
 4211SOL    HW113532   4.823   4.091   3.415
 4211SOL    HW213533   4.778   4.030   3.270
 4212SOL     OW13534   6.398   0.061   2.314
 4212SOL    HW113535   6.321   7.016   2.315
 4212SOL    HW213536   6.368   0.151   2.282
 4213SOL     OW13537   0.931   0.426   2.233
 4213SOL    HW113538   0.858   0.358   2.243
 4213SOL    HW213539   0.931   0.488   2.311
 4214SOL     OW13540   1.674   3.701   4.601
 4214SOL    HW113541   1.595   3.747   4.560
 4214SOL    HW213542   1.729   3.767   4.650
 4215SOL     OW13543   0.766   5.462   4.518
 4215SOL    HW113544   0.863   5.468   4.540
 4215SOL    HW213545   0.719   5.546   4.548
 4216SOL     OW13546   1.669   3.343   5.310
 4216SOL    HW113547   1.647   3.422   5.253
 4216SOL    HW213548   1.741   3.289   5.266
 4217SOL     OW13549   6.787   0.344   3.448
 4217SOL    HW113550   6.768   0.383   3.357
 4217SOL    HW213551   6.815   0.418   3.510
 4218SOL     OW13552   3.383   6.717   3.100
 4218SOL    HW113553   3.438   6.770   3.035
 4218SOL    HW213554   3.294   6.698   3.061
 4219SOL     OW13555   4.798   6.278   3.460
 4219SOL    HW113556   4.858   6.358   3.453
 4219SOL    HW213557   4.848   6.202   3.501
 4220SOL     OW13558   0.474   3.405   3.190
 4220SOL    HW113559   0.511   3.350   3.265
 4220SOL    HW213560   0.381   3.434   3.214
 4221SOL     OW13561   5.446   5.578   6.126
 4221SOL    HW113562   5.348   5.563   6.124
 4221SOL    HW213563   5.494   5.492   6.110
 4222SOL     OW13564   3.891   2.592   0.150
 4222SOL    HW113565   3.968   2.546   0.104
 4222SOL    HW213566   3.882   2.685   0.115
 4223SOL     OW13567   3.815   4.006   2.712
 4223SOL    HW113568   3.832   4.032   2.617
 4223SOL    HW213569   3.722   4.033   2.738
 4224SOL     OW13570   4.188   2.276   4.885
 4224SOL    HW113571   4.166   2.201   4.947
 4224SOL    HW213572   4.226   2.352   4.939
 4225SOL     OW13573   5.294   0.555   5.024
 4225SOL    HW113574   5.198   0.581   5.014
 4225SOL    HW213575   5.346   0.592   4.947
 4226SOL     OW13576   1.526   1.146   3.446
 4226SOL    HW113577   1.566   1.229   3.407
 4226SOL    HW213578   1.428   1.143   3.424
 4227SOL     OW13579   5.819   4.299   0.405
 4227SOL    HW113580   5.886   4.305   0.331
 4227SOL    HW213581   5.798   4.390   0.439
 4228SOL     OW13582   6.262   5.572   2.396
 4228SOL    HW113583   6.170   5.594   2.429
 4228SOL    HW213584   6.330   5.618   2.454
 4229SOL     OW13585   4.897   4.940   5.664
 4229SOL    HW113586   4.807   4.938   5.622
 4229SOL    HW213587   4.923   5.034   5.685
 4230SOL     OW13588   3.193   0.193   4.374
 4230SOL    HW113589   3.218   0.129   4.302
 4230SOL    HW213590   3.220   0.286   4.346
 4231SOL     OW13591   3.741   6.185   5.509
 4231SOL    HW113592   3.785   6.096   5.506
 4231SOL    HW213593   3.769   6.234   5.592
 4232SOL     OW13594   2.311   3.948   1.932
 4232SOL    HW113595   2.240   3.879   1.918
 4232SOL    HW213596   2.400   3.908   1.913
 4233SOL     OW13597   5.440   6.977   1.070
 4233SOL    HW113598   5.530   6.968   1.114
 4233SOL    HW213599   5.368   6.957   1.136
 4234SOL     OW13600   3.298   4.058   5.467
 4234SOL    HW113601   3.229   3.992   5.436
 4234SOL    HW213602   3.323   4.118   5.391
 4235SOL     OW13603   6.762   3.428   5.753
 4235SOL    HW113604   6.723   3.484   5.827
 4235SOL    HW213605   6.709   3.441   5.670
 4236SOL     OW13606   1.119   4.281   4.894
 4236SOL    HW113607   1.079   4.368   4.864
 4236SOL    HW213608   1.148   4.229   4.813
 4237SOL     OW13609   5.016   4.218   4.340
 4237SOL    HW113610   4.966   4.282   4.398
 4237SOL    HW213611   5.108   4.204   4.376
 4238SOL     OW13612   4.042   5.059   3.880
 4238SOL    HW113613   4.052   5.097   3.787
 4238SOL    HW213614   3.946   5.038   3.897
 4239SOL     OW13615   4.828   5.665   5.782
 4239SOL    HW113616   4.863   5.613   5.860
 4239SOL    HW213617   4.835   5.763   5.801
 4240SOL     OW13618   2.761   4.473   6.645
 4240SOL    HW113619   2.678   4.456   6.592
 4240SOL    HW213620   2.812   4.549   6.604
 4241SOL     OW13621   3.529   0.911   7.003
 4241SOL    HW113622   3.577   0.884   0.069
 4241SOL    HW213623   3.469   0.836   6.974
 4242SOL     OW13624   1.237   0.247   2.431
 4242SOL    HW113625   1.335   0.233   2.418
 4242SOL    HW213626   1.195   0.270   2.343
 4243SOL     OW13627   1.619   3.090   3.519
 4243SOL    HW113628   1.672   3.068   3.601
 4243SOL    HW213629   1.536   3.034   3.517
 4244SOL     OW13630   3.470   6.277   1.644
 4244SOL    HW113631   3.532   6.201   1.626
 4244SOL    HW213632   3.378   6.240   1.664
 4245SOL     OW13633   6.745   3.205   1.860
 4245SOL    HW113634   6.743   3.133   1.791
 4245SOL    HW213635   6.673   3.189   1.928
 4246SOL     OW13636   4.320   2.416   4.098
 4246SOL    HW113637   4.242   2.411   4.036
 4246SOL    HW213638   4.298   2.368   4.183
 4247SOL     OW13639   2.084   4.618   6.296
 4247SOL    HW113640   2.094   4.539   6.357
 4247SOL    HW213641   2.134   4.696   6.333
 4248SOL     OW13642   1.628   0.191   2.943
 4248SOL    HW113643   1.557   0.250   2.982
 4248SOL    HW213644   1.603   0.166   2.850
 4249SOL     OW13645   6.408   6.827   5.433
 4249SOL    HW113646   6.493   6.869   5.404
 4249SOL    HW213647   6.348   6.813   5.354
 4250SOL     OW13648   6.328   5.839   4.133
 4250SOL    HW113649   6.363   5.849   4.040
 4250SOL    HW213650   6.247   5.897   4.144
 4251SOL     OW13651   6.084   2.543   5.493
 4251SOL    HW113652   6.061   2.446   5.499
 4251SOL    HW213653   6.133   2.561   5.408
 4252SOL     OW13654   0.229   6.514   6.931
 4252SOL    HW113655   0.272   6.430   6.963
 4252SOL    HW213656   0.231   6.583   7.004
 4253SOL     OW13657   4.546   5.461   2.757
 4253SOL    HW113658   4.614   5.389   2.748
 4253SOL    HW213659   4.470   5.429   2.815
 4254SOL     OW13660   2.081   2.647   6.024
 4254SOL    HW113661   2.006   2.589   6.057
 4254SOL    HW213662   2.043   2.727   5.977
 4255SOL     OW13663   1.308   3.295   3.291
 4255SOL    HW113664   1.353   3.340   3.213
 4255SOL    HW213665   1.361   3.312   3.374
 4256SOL     OW13666   0.430   6.042   1.406
 4256SOL    HW113667   0.391   6.132   1.428
 4256SOL    HW213668   0.459   5.997   1.490
 4257SOL     OW13669   6.519   0.008   4.193
 4257SOL    HW113670   6.424   0.035   4.207
 4257SOL    HW213671   6.533   7.000   4.097
 4258SOL     OW13672   3.207   5.838   0.683
 4258SOL    HW113673   3.116   5.854   0.722
 4258SOL    HW213674   3.232   5.741   0.693
 4259SOL     OW13675   1.241   0.369   0.365
 4259SOL    HW113676   1.273   0.381   0.459
 4259SOL    HW213677   1.205   0.455   0.331
 4260SOL     OW13678   5.277   0.910   4.477
 4260SOL    HW113679   5.362   0.954   4.447
 4260SOL    HW213680   5.294   0.812   4.491
 4261SOL     OW13681   2.721   6.280   4.310
 4261SOL    HW113682   2.748   6.376   4.316
 4261SOL    HW213683   2.779   6.233   4.244
 4262SOL     OW13684   2.532   4.454   6.511
 4262SOL    HW113685   2.441   4.442   6.550
 4262SOL    HW213686   2.524   4.494   6.420
 4263SOL     OW13687   1.676   1.894   3.685
 4263SOL    HW113688   1.744   1.839   3.733
 4263SOL    HW213689   1.618   1.941   3.752
 4264SOL     OW13690   4.864   1.715   5.547
 4264SOL    HW113691   4.826   1.803   5.516
 4264SOL    HW213692   4.955   1.703   5.507
 4265SOL     OW13693   2.524   0.027   5.922
 4265SOL    HW113694   2.500   6.999   6.008
 4265SOL    HW213695   2.479   6.997   5.846
 4266SOL     OW13696   1.695   5.006   1.669
 4266SOL    HW113697   1.710   5.047   1.578
 4266SOL    HW213698   1.625   5.058   1.717
 4267SOL     OW13699   1.125   4.173   4.625
 4267SOL    HW113700   1.128   4.073   4.626
 4267SOL    HW213701   1.056   4.204   4.559
 4268SOL     OW13702   1.320   4.067   6.336
 4268SOL    HW113703   1.405   4.092   6.382
 4268SOL    HW213704   1.295   4.139   6.271
 4269SOL     OW13705   2.942   1.403   5.191
 4269SOL    HW113706   3.009   1.477   5.189
 4269SOL    HW213707   2.912   1.389   5.286
 4270SOL     OW13708   3.525   3.012   0.010
 4270SOL    HW113709   3.517   2.923   6.981
 4270SOL    HW213710   3.565   3.079   6.966
 4271SOL     OW13711   6.736   1.067   1.502
 4271SOL    HW113712   6.732   1.010   1.584
 4271SOL    HW213713   6.657   1.129   1.500
 4272SOL     OW13714   6.838   0.793   6.479
 4272SOL    HW113715   6.888   0.861   6.532
 4272SOL    HW213716   6.787   0.734   6.541
 4273SOL     OW13717   2.900   6.111   4.520
 4273SOL    HW113718   2.843   6.190   4.497
 4273SOL    HW213719   2.871   6.073   4.608
 4274SOL     OW13720   6.831   1.494   2.321
 4274SOL    HW113721   6.863   1.550   2.245
 4274SOL    HW213722   6.767   1.547   2.376
 4275SOL     OW13723   0.364   2.247   3.314
 4275SOL    HW113724   0.299   2.206   3.378
 4275SOL    HW213725   0.438   2.291   3.366
 4276SOL     OW13726   2.098   5.930   3.098
 4276SOL    HW113727   2.150   5.945   3.014
 4276SOL    HW213728   2.152   5.878   3.163
 4277SOL     OW13729   6.545   5.555   2.940
 4277SOL    HW113730   6.579   5.638   2.896
 4277SOL    HW213731   6.468   5.577   2.999
 4278SOL     OW13732   1.258   6.800   1.141
 4278SOL    HW113733   1.243   6.897   1.123
 4278SOL    HW213734   1.209   6.773   1.224
 4279SOL     OW13735   1.098   1.754   4.002
 4279SOL    HW113736   1.191   1.740   3.969
 4279SOL    HW213737   1.035   1.756   3.925
 4280SOL     OW13738   2.034   6.314   6.421
 4280SOL    HW113739   2.082   6.297   6.335
 4280SOL    HW213740   1.938   6.336   6.402
 4281SOL     OW13741   5.521   5.810   3.160
 4281SOL    HW113742   5.590   5.883   3.154
 4281SOL    HW213743   5.476   5.798   3.072
 4282SOL     OW13744   4.532   5.308   1.856
 4282SOL    HW113745   4.628   5.287   1.837
 4282SOL    HW213746   4.519   5.407   1.859
 4283SOL     OW13747   4.830   1.599   4.638
 4283SOL    HW113748   4.739   1.590   4.681
 4283SOL    HW213749   4.896   1.542   4.687
 4284SOL     OW13750   4.632   5.132   6.281
 4284SOL    HW113751   4.645   5.135   6.182
 4284SOL    HW213752   4.536   5.115   6.303
 4285SOL     OW13753   3.780   1.324   6.126
 4285SOL    HW113754   3.697   1.376   6.104
 4285SOL    HW213755   3.754   1.236   6.167
 4286SOL     OW13756   5.961   0.443   6.529
 4286SOL    HW113757   6.029   0.413   6.462
 4286SOL    HW213758   5.964   0.542   6.537
 4287SOL     OW13759   3.531   0.804   1.141
 4287SOL    HW113760   3.570   0.735   1.202
 4287SOL    HW213761   3.432   0.810   1.157
 4288SOL     OW13762   6.933   6.140   2.060
 4288SOL    HW113763   6.923   6.067   1.993
 4288SOL    HW213764   0.012   6.153   2.082
 4289SOL     OW13765   0.292   4.768   4.679
 4289SOL    HW113766   0.361   4.715   4.729
 4289SOL    HW213767   0.328   4.794   4.589
 4290SOL     OW13768   0.527   1.263   3.091
 4290SOL    HW113769   0.602   1.274   3.025
 4290SOL    HW213770   0.551   1.310   3.176
 4291SOL     OW13771   3.789   4.584   6.391
 4291SOL    HW113772   3.774   4.509   6.327
 4291SOL    HW213773   3.857   4.557   6.459
 4292SOL     OW13774   6.351   1.409   1.791
 4292SOL    HW113775   6.441   1.367   1.804
 4292SOL    HW213776   6.298   1.400   1.876
 4293SOL     OW13777   3.762   2.896   6.804
 4293SOL    HW113778   3.663   2.885   6.810
 4293SOL    HW213779   3.806   2.806   6.814
 4294SOL     OW13780   2.577   1.678   6.555
 4294SOL    HW113781   2.496   1.732   6.578
 4294SOL    HW213782   2.628   1.658   6.639
 4295SOL     OW13783   4.380   6.071   2.977
 4295SOL    HW113784   4.417   5.978   2.980
 4295SOL    HW213785   4.420   6.121   2.900
 4296SOL     OW13786   2.506   6.648   2.772
 4296SOL    HW113787   2.543   6.626   2.863
 4296SOL    HW213788   2.544   6.584   2.705
 4297SOL     OW13789   5.391   5.355   0.383
 4297SOL    HW113790   5.390   5.296   0.464
 4297SOL    HW213791   5.298   5.366   0.349
 4298SOL     OW13792   1.934   0.400   0.684
 4298SOL    HW113793   2.030   0.416   0.706
 4298SOL    HW213794   1.927   0.343   0.603
 4299SOL     OW13795   1.047   2.648   6.998
 4299SOL    HW113796   1.016   2.614   0.069
 4299SOL    HW213797   1.110   2.581   6.957
 4300SOL     OW13798   2.889   0.210   1.701
 4300SOL    HW113799   2.889   0.254   1.791
 4300SOL    HW213800   2.953   0.134   1.701
 4301SOL     OW13801   2.291   5.776   6.918
 4301SOL    HW113802   2.283   5.698   6.981
 4301SOL    HW213803   2.219   5.842   6.938
 4302SOL     OW13804   2.951   4.763   5.758
 4302SOL    HW113805   2.921   4.781   5.664
 4302SOL    HW213806   2.881   4.711   5.806
 4303SOL     OW13807   5.122   5.670   3.151
 4303SOL    HW113808   5.084   5.710   3.067
 4303SOL    HW213809   5.160   5.580   3.132
 4304SOL     OW13810   3.294   4.149   1.388
 4304SOL    HW113811   3.323   4.064   1.343
 4304SOL    HW213812   3.367   4.182   1.447
 4305SOL     OW13813   1.001   6.457   5.912
 4305SOL    HW113814   1.047   6.451   5.823
 4305SOL    HW213815   0.979   6.552   5.932
 4306SOL     OW13816   5.520   4.171   4.882
 4306SOL    HW113817   5.493   4.263   4.855
 4306SOL    HW213818   5.464   4.104   4.833
 4307SOL     OW13819   0.393   0.968   5.700
 4307SOL    HW113820   0.421   0.940   5.792
 4307SOL    HW213821   0.372   0.888   5.645
 4308SOL     OW13822   4.912   5.539   6.223
 4308SOL    HW113823   4.921   5.480   6.303
 4308SOL    HW213824   4.831   5.513   6.171
 4309SOL     OW13825   1.117   0.964   0.108
 4309SOL    HW113826   1.171   1.022   0.169
 4309SOL    HW213827   1.174   0.936   0.030
 4310SOL     OW13828   6.585   2.177   3.038
 4310SOL    HW113829   6.553   2.271   3.048
 4310SOL    HW213830   6.669   2.177   2.982
 4311SOL     OW13831   0.682   6.902   1.685
 4311SOL    HW113832   0.735   6.860   1.759
 4311SOL    HW213833   0.737   6.974   1.642
 4312SOL     OW13834   6.601   4.564   2.541
 4312SOL    HW113835   6.672   4.625   2.576
 4312SOL    HW213836   6.552   4.608   2.466
 4313SOL     OW13837   0.163   2.999   6.520
 4313SOL    HW113838   0.146   3.063   6.446
 4313SOL    HW213839   0.206   3.047   6.597
 4314SOL     OW13840   0.886   1.512   6.304
 4314SOL    HW113841   0.889   1.610   6.283
 4314SOL    HW213842   0.868   1.460   6.221
 4315SOL     OW13843   2.648   1.104   5.107
 4315SOL    HW113844   2.640   1.047   5.025
 4315SOL    HW213845   2.615   1.196   5.087
 4316SOL     OW13846   4.720   5.972   1.723
 4316SOL    HW113847   4.702   5.931   1.812
 4316SOL    HW213848   4.784   5.915   1.672
 4317SOL     OW13849   4.764   0.769   6.017
 4317SOL    HW113850   4.690   0.714   5.978
 4317SOL    HW213851   4.743   0.866   6.005
 4318SOL     OW13852   0.895   6.416   4.370
 4318SOL    HW113853   0.963   6.487   4.386
 4318SOL    HW213854   0.911   6.339   4.432
 4319SOL     OW13855   1.197   4.236   2.613
 4319SOL    HW113856   1.188   4.153   2.667
 4319SOL    HW213857   1.107   4.265   2.581
 4320SOL     OW13858   3.440   0.082   0.515
 4320SOL    HW113859   3.496   0.020   0.570
 4320SOL    HW213860   3.344   0.057   0.524
 4321SOL     OW13861   6.580   6.639   3.181
 4321SOL    HW113862   6.506   6.698   3.149
 4321SOL    HW213863   6.542   6.569   3.242
 4322SOL     OW13864   1.771   2.373   5.155
 4322SOL    HW113865   1.855   2.318   5.159
 4322SOL    HW213866   1.692   2.314   5.163
 4323SOL     OW13867   4.720   4.996   0.329
 4323SOL    HW113868   4.687   4.964   0.419
 4323SOL    HW213869   4.646   5.045   0.283
 4324SOL     OW13870   0.883   4.791   5.459
 4324SOL    HW113871   0.875   4.836   5.548
 4324SOL    HW213872   0.876   4.692   5.471
 4325SOL     OW13873   2.054   6.909   2.368
 4325SOL    HW113874   2.066   6.841   2.440
 4325SOL    HW213875   2.131   6.973   2.370
 4326SOL     OW13876   5.049   2.088   1.790
 4326SOL    HW113877   5.080   2.036   1.710
 4326SOL    HW213878   5.082   2.043   1.874
 4327SOL     OW13879   2.707   5.611   3.526
 4327SOL    HW113880   2.686   5.534   3.586
 4327SOL    HW213881   2.744   5.577   3.440
 4328SOL     OW13882   6.644   0.305   4.152
 4328SOL    HW113883   6.678   0.211   4.143
 4328SOL    HW213884   6.715   0.361   4.195
 4329SOL     OW13885   6.838   2.419   6.830
 4329SOL    HW113886   6.773   2.469   6.886
 4329SOL    HW213887   6.930   2.429   6.869
 4330SOL     OW13888   2.745   5.201   4.535
 4330SOL    HW113889   2.836   5.227   4.505
 4330SOL    HW213890   2.687   5.282   4.538
 4331SOL     OW13891   5.891   2.038   1.950
 4331SOL    HW113892   5.933   2.120   1.989
 4331SOL    HW213893   5.792   2.047   1.950
 4332SOL     OW13894   1.164   5.305   1.713
 4332SOL    HW113895   1.227   5.376   1.745
 4332SOL    HW213896   1.165   5.229   1.778
 4333SOL     OW13897   4.292   2.254   6.114
 4333SOL    HW113898   4.285   2.213   6.023
 4333SOL    HW213899   4.386   2.284   6.129
 4334SOL     OW13900   0.029   2.860   4.412
 4334SOL    HW113901   7.014   2.936   4.469
 4334SOL    HW213902   0.119   2.883   4.375
 4335SOL     OW13903   2.719   3.872   1.550
 4335SOL    HW113904   2.659   3.877   1.470
 4335SOL    HW213905   2.812   3.853   1.521
 4336SOL     OW13906   2.623   6.026   5.283
 4336SOL    HW113907   2.544   5.965   5.275
 4336SOL    HW213908   2.631   6.080   5.199
 4337SOL     OW13909   0.892   5.230   3.858
 4337SOL    HW113910   0.828   5.178   3.915
 4337SOL    HW213911   0.842   5.269   3.779
 4338SOL     OW13912   3.149   2.439   5.840
 4338SOL    HW113913   3.078   2.442   5.770
 4338SOL    HW213914   3.231   2.396   5.803
 4339SOL     OW13915   4.162   4.940   5.946
 4339SOL    HW113916   4.172   4.880   6.026
 4339SOL    HW213917   4.188   4.889   5.864
 4340SOL     OW13918   6.439   3.932   1.683
 4340SOL    HW113919   6.370   3.907   1.615
 4340SOL    HW213920   6.393   3.966   1.765
 4341SOL     OW13921   6.397   6.121   1.458
 4341SOL    HW113922   6.366   6.033   1.491
 4341SOL    HW213923   6.366   6.193   1.520
 4342SOL     OW13924   5.062   3.647   2.400
 4342SOL    HW113925   5.002   3.726   2.415
 4342SOL    HW213926   5.032   3.599   2.318
 4343SOL     OW13927   3.896   6.661   5.883
 4343SOL    HW113928   3.972   6.597   5.882
 4343SOL    HW213929   3.897   6.717   5.800
 4344SOL     OW13930   0.090   3.703   3.080
 4344SOL    HW113931   0.133   3.767   3.016
 4344SOL    HW213932   0.119   3.609   3.059
 4345SOL     OW13933   3.225   3.180   2.831
 4345SOL    HW113934   3.283   3.144   2.904
 4345SOL    HW213935   3.266   3.262   2.793
 4346SOL     OW13936   1.185   2.799   2.613
 4346SOL    HW113937   1.108   2.855   2.585
 4346SOL    HW213938   1.173   2.769   2.708
 4347SOL     OW13939   6.764   5.452   0.353
 4347SOL    HW113940   6.860   5.425   0.350
 4347SOL    HW213941   6.712   5.396   0.288
 4348SOL     OW13942   5.939   5.052   4.597
 4348SOL    HW113943   5.964   4.995   4.519
 4348SOL    HW213944   5.919   4.994   4.676
 4349SOL     OW13945   0.430   3.381   4.278
 4349SOL    HW113946   0.359   3.316   4.253
 4349SOL    HW213947   0.483   3.345   4.355
 4350SOL     OW13948   3.459   0.903   4.033
 4350SOL    HW113949   3.403   0.961   3.974
 4350SOL    HW213950   3.533   0.957   4.073
 4351SOL     OW13951   0.726   5.728   0.565
 4351SOL    HW113952   0.667   5.689   0.494
 4351SOL    HW213953   0.690   5.706   0.655
 4352SOL     OW13954   3.480   4.909   1.485
 4352SOL    HW113955   3.462   5.005   1.504
 4352SOL    HW213956   3.454   4.854   1.565
 4353SOL     OW13957   2.475   2.834   1.104
 4353SOL    HW113958   2.574   2.832   1.098
 4353SOL    HW213959   2.441   2.922   1.069
 4354SOL     OW13960   5.696   6.571   2.701
 4354SOL    HW113961   5.776   6.585   2.760
 4354SOL    HW213962   5.688   6.646   2.637
 4355SOL     OW13963   1.839   5.105   2.507
 4355SOL    HW113964   1.889   5.126   2.590
 4355SOL    HW213965   1.761   5.167   2.499
 4356SOL     OW13966   6.350   2.860   5.401
 4356SOL    HW113967   6.280   2.925   5.432
 4356SOL    HW213968   6.362   2.869   5.302
 4357SOL     OW13969   5.487   0.484   1.886
 4357SOL    HW113970   5.511   0.537   1.968
 4357SOL    HW213971   5.468   0.546   1.811
 4358SOL     OW13972   3.056   0.283   0.484
 4358SOL    HW113973   3.010   0.328   0.561
 4358SOL    HW213974   3.113   0.350   0.436
 4359SOL     OW13975   3.005   1.812   0.910
 4359SOL    HW113976   2.964   1.721   0.901
 4359SOL    HW213977   2.980   1.850   0.999
 4360SOL     OW13978   2.387   4.778   4.024
 4360SOL    HW113979   2.315   4.749   3.962
 4360SOL    HW213980   2.357   4.763   4.119
 4361SOL     OW13981   0.087   2.013   0.209
 4361SOL    HW113982   0.105   1.984   0.115
 4361SOL    HW213983   0.165   2.063   0.245
 4362SOL     OW13984   1.020   5.516   3.236
 4362SOL    HW113985   1.088   5.588   3.222
 4362SOL    HW213986   1.018   5.457   3.155
 4363SOL     OW13987   4.185   1.062   2.414
 4363SOL    HW113988   4.276   1.035   2.382
 4363SOL    HW213989   4.190   1.154   2.453
 4364SOL     OW13990   4.016   3.073   2.928
 4364SOL    HW113991   4.078   3.044   2.855
 4364SOL    HW213992   3.922   3.049   2.904
 4365SOL     OW13993   1.786   0.938   1.112
 4365SOL    HW113994   1.857   0.917   1.044
 4365SOL    HW213995   1.800   1.032   1.145
 4366SOL     OW13996   4.863   6.807   4.675
 4366SOL    HW113997   4.948   6.785   4.724
 4366SOL    HW213998   4.814   6.879   4.724
 4367SOL     OW13999   2.985   6.320   3.102
 4367SOL    HW114000   2.954   6.362   3.187
 4367SOL    HW214001   2.912   6.324   3.034
 4368SOL     OW14002   4.754   4.142   3.797
 4368SOL    HW114003   4.810   4.147   3.715
 4368SOL    HW214004   4.676   4.204   3.787
 4369SOL     OW14005   5.275   4.036   3.675
 4369SOL    HW114006   5.203   4.016   3.609
 4369SOL    HW214007   5.364   4.025   3.632
 4370SOL     OW14008   3.743   4.509   1.623
 4370SOL    HW114009   3.655   4.462   1.618
 4370SOL    HW214010   3.740   4.580   1.692
 4371SOL     OW14011   2.139   0.832   1.603
 4371SOL    HW114012   2.179   0.878   1.524
 4371SOL    HW214013   2.207   0.769   1.642
 4372SOL     OW14014   1.395   3.203   4.781
 4372SOL    HW114015   1.487   3.226   4.811
 4372SOL    HW214016   1.386   3.104   4.772
 4373SOL     OW14017   3.363   0.982   6.539
 4373SOL    HW114018   3.308   1.002   6.620
 4373SOL    HW214019   3.345   0.888   6.509
 4374SOL     OW14020   2.674   6.642   0.830
 4374SOL    HW114021   2.624   6.728   0.826
 4374SOL    HW214022   2.742   6.640   0.756
 4375SOL     OW14023   4.476   1.611   5.311
 4375SOL    HW114024   4.468   1.700   5.264
 4375SOL    HW214025   4.496   1.627   5.407
 4376SOL     OW14026   2.182   5.945   6.620
 4376SOL    HW114027   2.135   5.901   6.697
 4376SOL    HW214028   2.153   6.040   6.614
 4377SOL     OW14029   5.353   6.901   6.357
 4377SOL    HW114030   5.439   6.853   6.373
 4377SOL    HW214031   5.301   6.906   6.442
 4378SOL     OW14032   2.567   5.475   2.390
 4378SOL    HW114033   2.643   5.414   2.365
 4378SOL    HW214034   2.603   5.552   2.443
 4379SOL     OW14035   1.045   0.109   1.527
 4379SOL    HW114036   1.047   0.187   1.465
 4379SOL    HW214037   0.971   0.121   1.594
 4380SOL     OW14038   2.079   4.908   4.484
 4380SOL    HW114039   2.097   4.838   4.553
 4380SOL    HW214040   2.145   4.982   4.494
 4381SOL     OW14041   4.940   6.257   5.504
 4381SOL    HW114042   5.036   6.257   5.475
 4381SOL    HW214043   4.888   6.319   5.445
 4382SOL     OW14044   4.900   3.331   3.327
 4382SOL    HW114045   4.892   3.337   3.427
 4382SOL    HW214046   4.957   3.405   3.294
 4383SOL     OW14047   1.038   1.774   6.977
 4383SOL    HW114048   0.965   1.824   0.007
 4383SOL    HW214049   1.000   1.691   6.936
 4384SOL     OW14050   3.888   6.653   1.449
 4384SOL    HW114051   3.923   6.580   1.391
 4384SOL    HW214052   3.801   6.686   1.413
 4385SOL     OW14053   6.027   1.595   2.267
 4385SOL    HW114054   6.036   1.639   2.177
 4385SOL    HW214055   5.990   1.660   2.333
 4386SOL     OW14056   1.168   3.764   6.753
 4386SOL    HW114057   1.160   3.736   6.658
 4386SOL    HW214058   1.120   3.698   6.811
 4387SOL     OW14059   6.943   2.705   1.818
 4387SOL    HW114060   7.004   2.627   1.804
 4387SOL    HW214061   6.997   2.789   1.824
 4388SOL     OW14062   3.204   1.560   5.170
 4388SOL    HW114063   3.231   1.486   5.110
 4388SOL    HW214064   3.283   1.618   5.191
 4389SOL     OW14065   5.604   1.957   2.060
 4389SOL    HW114066   5.593   1.865   2.022
 4389SOL    HW214067   5.555   2.022   2.002
 4390SOL     OW14068   4.345   2.581   1.551
 4390SOL    HW114069   4.317   2.596   1.456
 4390SOL    HW214070   4.267   2.594   1.611
 4391SOL     OW14071   0.618   5.768   1.171
 4391SOL    HW114072   0.590   5.700   1.239
 4391SOL    HW214073   0.637   5.723   1.084
 4392SOL     OW14074   5.272   3.320   4.286
 4392SOL    HW114075   5.227   3.252   4.343
 4392SOL    HW214076   5.242   3.412   4.313
 4393SOL     OW14077   4.777   5.657   3.547
 4393SOL    HW114078   4.848   5.656   3.476
 4393SOL    HW214079   4.716   5.735   3.531
 4394SOL     OW14080   4.744   1.034   2.564
 4394SOL    HW114081   4.679   0.985   2.623
 4394SOL    HW214082   4.778   0.972   2.494
 4395SOL     OW14083   4.802   1.866   1.429
 4395SOL    HW114084   4.818   1.947   1.486
 4395SOL    HW214085   4.735   1.807   1.474
 4396SOL     OW14086   0.967   0.868   4.376
 4396SOL    HW114087   1.001   0.954   4.338
 4396SOL    HW214088   0.967   0.874   4.476
 4397SOL     OW14089   6.658   0.253   6.356
 4397SOL    HW114090   6.618   0.197   6.284
 4397SOL    HW214091   6.597   0.329   6.377
 4398SOL     OW14092   0.056   4.958   4.028
 4398SOL    HW114093   7.005   4.889   4.007
 4398SOL    HW214094   0.011   5.046   4.042
 4399SOL     OW14095   2.687   1.492   1.326
 4399SOL    HW114096   2.663   1.539   1.411
 4399SOL    HW214097   2.603   1.470   1.276
 4400SOL     OW14098   3.610   5.646   3.796
 4400SOL    HW114099   3.517   5.636   3.833
 4400SOL    HW214100   3.605   5.683   3.703
 4401SOL     OW14101   5.601   6.802   4.338
 4401SOL    HW114102   5.629   6.706   4.333
 4401SOL    HW214103   5.680   6.859   4.357
 4402SOL     OW14104   6.516   0.726   3.193
 4402SOL    HW114105   6.468   0.696   3.275
 4402SOL    HW214106   6.452   0.777   3.134
 4403SOL     OW14107   0.900   6.803   2.801
 4403SOL    HW114108   0.869   6.829   2.892
 4403SOL    HW214109   0.871   6.872   2.735
 4404SOL     OW14110   1.701   4.284   3.636
 4404SOL    HW114111   1.785   4.264   3.584
 4404SOL    HW214112   1.678   4.205   3.693
 4405SOL     OW14113   3.803   4.184   6.552
 4405SOL    HW114114   3.846   4.273   6.543
 4405SOL    HW214115   3.773   4.171   6.646
 4406SOL     OW14116   5.502   3.558   1.969
 4406SOL    HW114117   5.459   3.542   2.058
 4406SOL    HW214118   5.540   3.472   1.934
 4407SOL     OW14119   0.189   6.678   0.158
 4407SOL    HW114120   0.110   6.703   0.214
 4407SOL    HW214121   0.246   6.759   0.142
 4408SOL     OW14122   4.958   6.104   0.674
 4408SOL    HW114123   5.005   6.017   0.667
 4408SOL    HW214124   4.968   6.141   0.767
 4409SOL     OW14125   2.164   1.311   2.103
 4409SOL    HW114126   2.083   1.363   2.075
 4409SOL    HW214127   2.237   1.324   2.036
 4410SOL     OW14128   2.625   5.618   1.572
 4410SOL    HW114129   2.677   5.654   1.650
 4410SOL    HW214130   2.687   5.576   1.507
 4411SOL     OW14131   3.789   2.950   2.882
 4411SOL    HW114132   3.702   2.947   2.833
 4411SOL    HW214133   3.842   2.868   2.861
 4412SOL     OW14134   3.943   1.698   6.049
 4412SOL    HW114135   3.940   1.632   6.124
 4412SOL    HW214136   3.884   1.776   6.069
 4413SOL     OW14137   4.165   5.593   4.454
 4413SOL    HW114138   4.109   5.542   4.519
 4413SOL    HW214139   4.129   5.582   4.362
 4414SOL     OW14140   3.294   5.635   1.643
 4414SOL    HW114141   3.334   5.625   1.552
 4414SOL    HW214142   3.206   5.587   1.646
 4415SOL     OW14143   4.717   1.921   1.006
 4415SOL    HW114144   4.700   1.944   0.910
 4415SOL    HW214145   4.776   1.840   1.010
 4416SOL     OW14146   3.562   1.400   3.902
 4416SOL    HW114147   3.649   1.381   3.855
 4416SOL    HW214148   3.506   1.317   3.902
 4417SOL     OW14149   0.490   0.600   0.581
 4417SOL    HW114150   0.399   0.641   0.585
 4417SOL    HW214151   0.510   0.554   0.667
 4418SOL     OW14152   4.453   0.507   3.735
 4418SOL    HW114153   4.504   0.500   3.649
 4418SOL    HW214154   4.396   0.589   3.734
 4419SOL     OW14155   0.034   5.673   0.452
 4419SOL    HW114156   0.003   5.615   0.376
 4419SOL    HW214157   0.133   5.665   0.461
 4420SOL     OW14158   4.257   0.685   6.984
 4420SOL    HW114159   4.282   0.777   7.013
 4420SOL    HW214160   4.327   0.619   7.013
 4421SOL     OW14161   1.799   1.967   3.441
 4421SOL    HW114162   1.890   1.991   3.476
 4421SOL    HW214163   1.734   1.962   3.517
 4422SOL     OW14164   2.019   3.960   5.952
 4422SOL    HW114165   2.042   3.896   5.878
 4422SOL    HW214166   2.017   4.053   5.915
 4423SOL     OW14167   6.865   1.406   6.558
 4423SOL    HW114168   6.958   1.381   6.530
 4423SOL    HW214169   6.865   1.427   6.656
 4424SOL     OW14170   7.013   6.519   3.947
 4424SOL    HW114171   6.972   6.430   3.968
 4424SOL    HW214172   0.094   6.514   3.963
 4425SOL     OW14173   4.531   4.560   0.254
 4425SOL    HW114174   4.487   4.536   0.167
 4425SOL    HW214175   4.534   4.479   0.313
 4426SOL     OW14176   1.052   0.240   5.250
 4426SOL    HW114177   1.045   0.167   5.182
 4426SOL    HW214178   1.148   0.252   5.275
 4427SOL     OW14179   1.330   6.252   3.257
 4427SOL    HW114180   1.340   6.277   3.353
 4427SOL    HW214181   1.391   6.308   3.201
 4428SOL     OW14182   2.786   5.807   3.111
 4428SOL    HW114183   2.721   5.883   3.115
 4428SOL    HW214184   2.868   5.831   3.164
 4429SOL     OW14185   3.601   0.707   3.160
 4429SOL    HW114186   3.548   0.780   3.205
 4429SOL    HW214187   3.552   0.674   3.080
 4430SOL     OW14188   1.413   0.413   1.409
 4430SOL    HW114189   1.404   0.379   1.502
 4430SOL    HW214190   1.346   0.486   1.394
 4431SOL     OW14191   2.159   1.803   3.866
 4431SOL    HW114192   2.223   1.754   3.926
 4431SOL    HW214193   2.210   1.865   3.806
 4432SOL     OW14194   2.935   3.556   3.973
 4432SOL    HW114195   2.963   3.469   3.933
 4432SOL    HW214196   3.016   3.614   3.988
 4433SOL     OW14197   6.866   0.572   3.604
 4433SOL    HW114198   6.777   0.612   3.621
 4433SOL    HW214199   6.927   0.641   3.563
 4434SOL     OW14200   5.072   2.286   4.453
 4434SOL    HW114201   5.029   2.246   4.534
 4434SOL    HW214202   5.017   2.263   4.372
 4435SOL     OW14203   3.539   3.120   2.315
 4435SOL    HW114204   3.506   3.026   2.308
 4435SOL    HW214205   3.486   3.178   2.253
 4436SOL     OW14206   4.946   0.562   0.468
 4436SOL    HW114207   4.893   0.497   0.522
 4436SOL    HW214208   4.888   0.639   0.442
 4437SOL     OW14209   3.441   0.377   4.396
 4437SOL    HW114210   3.466   0.351   4.303
 4437SOL    HW214211   3.502   0.449   4.428
 4438SOL     OW14212   3.792   3.776   6.375
 4438SOL    HW114213   3.785   3.738   6.467
 4438SOL    HW214214   3.870   3.734   6.327
 4439SOL     OW14215   2.588   4.925   2.342
 4439SOL    HW114216   2.594   4.976   2.256
 4439SOL    HW214217   2.509   4.863   2.339
 4440SOL     OW14218   6.996   0.325   6.720
 4440SOL    HW114219   7.000   0.265   6.641
 4440SOL    HW214220   6.961   0.415   6.692
 4441SOL     OW14221   5.603   2.421   3.784
 4441SOL    HW114222   5.538   2.483   3.827
 4441SOL    HW214223   5.565   2.329   3.781
 4442SOL     OW14224   1.998   6.701   2.130
 4442SOL    HW114225   1.991   6.797   2.156
 4442SOL    HW214226   1.962   6.644   2.204
 4443SOL     OW14227   2.513   1.476   6.037
 4443SOL    HW114228   2.489   1.399   6.096
 4443SOL    HW214229   2.593   1.452   5.983
 4444SOL     OW14230   5.484   0.798   2.567
 4444SOL    HW114231   5.495   0.890   2.607
 4444SOL    HW214232   5.564   0.776   2.512
 4445SOL     OW14233   1.638   1.288   6.188
 4445SOL    HW114234   1.566   1.322   6.127
 4445SOL    HW214235   1.725   1.329   6.162
 4446SOL     OW14236   5.647   5.767   3.795
 4446SOL    HW114237   5.578   5.735   3.730
 4446SOL    HW214238   5.606   5.776   3.886
 4447SOL     OW14239   4.947   3.258   4.888
 4447SOL    HW114240   4.952   3.158   4.888
 4447SOL    HW214241   4.908   3.289   4.975
 4448SOL     OW14242   2.769   2.868   6.427
 4448SOL    HW114243   2.708   2.852   6.349
 4448SOL    HW214244   2.737   2.814   6.505
 4449SOL     OW14245   0.839   1.519   5.431
 4449SOL    HW114246   0.853   1.423   5.455
 4449SOL    HW214247   0.741   1.538   5.426
 4450SOL     OW14248   4.082   3.790   3.416
 4450SOL    HW114249   4.051   3.881   3.385
 4450SOL    HW214250   4.089   3.789   3.515
 4451SOL     OW14251   6.886   4.389   1.691
 4451SOL    HW114252   6.899   4.453   1.767
 4451SOL    HW214253   6.838   4.308   1.724
 4452SOL     OW14254   6.380   4.611   6.229
 4452SOL    HW114255   6.427   4.678   6.171
 4452SOL    HW214256   6.396   4.519   6.194
 4453SOL     OW14257   5.101   1.913   1.221
 4453SOL    HW114258   5.029   1.925   1.291
 4453SOL    HW214259   5.132   2.003   1.190
 4454SOL     OW14260   5.676   3.032   1.183
 4454SOL    HW114261   5.652   2.940   1.152
 4454SOL    HW214262   5.645   3.044   1.277
 4455SOL     OW14263   4.593   1.701   1.510
 4455SOL    HW114264   4.542   1.688   1.424
 4455SOL    HW214265   4.536   1.671   1.586
 4456SOL     OW14266   1.497   5.774   2.641
 4456SOL    HW114267   1.570   5.798   2.705
 4456SOL    HW214268   1.461   5.683   2.664
 4457SOL     OW14269   5.089   2.039   6.832
 4457SOL    HW114270   5.081   1.971   6.759
 4457SOL    HW214271   5.148   2.113   6.801
 4458SOL     OW14272   3.870   1.887   6.779
 4458SOL    HW114273   3.848   1.971   6.828
 4458SOL    HW214274   3.937   1.834   6.831
 4459SOL     OW14275   5.221   6.228   5.833
 4459SOL    HW114276   5.296   6.286   5.799
 4459SOL    HW214277   5.226   6.138   5.789
 4460SOL     OW14278   1.408   1.365   6.030
 4460SOL    HW114279   1.445   1.415   5.952
 4460SOL    HW214280   1.347   1.425   6.082
 4461SOL     OW14281   2.451   0.559   2.163
 4461SOL    HW114282   2.443   0.536   2.260
 4461SOL    HW214283   2.508   0.491   2.117
 4462SOL     OW14284   6.834   5.624   1.277
 4462SOL    HW114285   6.813   5.626   1.375
 4462SOL    HW214286   6.901   5.695   1.256
 4463SOL     OW14287   1.466   3.647   5.624
 4463SOL    HW114288   1.513   3.644   5.536
 4463SOL    HW214289   1.487   3.734   5.670
 4464SOL     OW14290   5.909   3.220   6.818
 4464SOL    HW114291   5.820   3.240   6.776
 4464SOL    HW214292   5.954   3.148   6.767
 4465SOL     OW14293   1.083   5.943   1.708
 4465SOL    HW114294   1.058   5.942   1.611
 4465SOL    HW214295   1.169   5.993   1.720
 4466SOL     OW14296   0.513   2.363   3.504
 4466SOL    HW114297   0.579   2.436   3.520
 4466SOL    HW214298   0.495   2.314   3.590
 4467SOL     OW14299   1.224   0.223   3.107
 4467SOL    HW114300   1.182   0.243   3.195
 4467SOL    HW214301   1.205   0.128   3.081
 4468SOL     OW14302   1.359   2.279   0.111
 4468SOL    HW114303   1.368   2.285   0.210
 4468SOL    HW214304   1.263   2.266   0.087
 4469SOL     OW14305   4.345   6.946   0.304
 4469SOL    HW114306   4.364   6.936   0.206
 4469SOL    HW214307   4.280   0.003   0.318
 4470SOL     OW14308   4.841   5.215   1.109
 4470SOL    HW114309   4.847   5.305   1.065
 4470SOL    HW214310   4.762   5.214   1.171
 4471SOL     OW14311   6.350   3.526   0.503
 4471SOL    HW114312   6.307   3.555   0.417
 4471SOL    HW214313   6.449   3.545   0.499
 4472SOL     OW14314   1.952   4.562   1.601
 4472SOL    HW114315   1.911   4.573   1.511
 4472SOL    HW214316   1.936   4.645   1.655
 4473SOL     OW14317   0.737   0.160   5.632
 4473SOL    HW114318   0.680   0.088   5.590
 4473SOL    HW214319   0.833   0.141   5.614
 4474SOL     OW14320   6.053   0.706   3.765
 4474SOL    HW114321   6.084   0.624   3.812
 4474SOL    HW214322   5.962   0.692   3.728
 4475SOL     OW14323   1.325   4.136   6.808
 4475SOL    HW114324   1.330   4.235   6.796
 4475SOL    HW214325   1.317   4.114   6.905
 4476SOL     OW14326   5.024   6.254   2.518
 4476SOL    HW114327   5.109   6.203   2.533
 4476SOL    HW214328   4.960   6.197   2.468
 4477SOL     OW14329   1.542   1.428   7.009
 4477SOL    HW114330   1.577   1.366   6.939
 4477SOL    HW214331   1.449   1.400   0.017
 4478SOL     OW14332   1.479   5.329   1.667
 4478SOL    HW114333   1.427   5.406   1.629
 4478SOL    HW214334   1.575   5.356   1.679
 4479SOL     OW14335   0.197   0.247   5.672
 4479SOL    HW114336   0.296   0.242   5.669
 4479SOL    HW214337   0.159   0.226   5.582
 4480SOL     OW14338   1.025   4.803   3.903
 4480SOL    HW114339   1.055   4.892   3.868
 4480SOL    HW214340   0.991   4.747   3.828
 4481SOL     OW14341   0.979   6.777   3.601
 4481SOL    HW114342   1.012   6.870   3.612
 4481SOL    HW214343   0.895   6.778   3.547
 4482SOL     OW14344   0.600   4.291   3.998
 4482SOL    HW114345   0.512   4.337   3.989
 4482SOL    HW214346   0.638   4.309   4.089
 4483SOL     OW14347   4.994   2.750   1.738
 4483SOL    HW114348   4.974   2.724   1.833
 4483SOL    HW214349   4.926   2.815   1.706
 4484SOL     OW14350   4.121   2.675   6.386
 4484SOL    HW114351   4.051   2.728   6.434
 4484SOL    HW214352   4.092   2.659   6.292
 4485SOL     OW14353   4.665   0.776   6.752
 4485SOL    HW114354   4.735   0.847   6.747
 4485SOL    HW214355   4.630   0.770   6.846
 4486SOL     OW14356   6.830   2.547   3.923
 4486SOL    HW114357   6.782   2.600   3.993
 4486SOL    HW214358   6.924   2.529   3.954
 4487SOL     OW14359   3.325   2.846   5.894
 4487SOL    HW114360   3.245   2.826   5.838
 4487SOL    HW214361   3.306   2.926   5.952
 4488SOL     OW14362   6.852   1.372   5.862
 4488SOL    HW114363   6.848   1.310   5.783
 4488SOL    HW214364   6.938   1.423   5.859
 4489SOL     OW14365   6.693   0.814   3.000
 4489SOL    HW114366   6.782   0.836   3.038
 4489SOL    HW214367   6.630   0.790   3.074
 4490SOL     OW14368   6.909   2.359   3.331
 4490SOL    HW114369   6.989   2.380   3.388
 4490SOL    HW214370   6.896   2.433   3.265
 4491SOL     OW14371   1.827   3.170   3.092
 4491SOL    HW114372   1.901   3.203   3.035
 4491SOL    HW214373   1.749   3.232   3.085
 4492SOL     OW14374   4.448   3.523   6.674
 4492SOL    HW114375   4.483   3.437   6.711
 4492SOL    HW214376   4.494   3.543   6.587
 4493SOL     OW14377   5.851   5.089   3.100
 4493SOL    HW114378   5.840   5.003   3.049
 4493SOL    HW214379   5.911   5.151   3.050
 4494SOL     OW14380   6.058   3.433   3.854
 4494SOL    HW114381   5.992   3.370   3.897
 4494SOL    HW214382   6.149   3.392   3.855
 4495SOL     OW14383   4.544   6.201   2.131
 4495SOL    HW114384   4.445   6.197   2.139
 4495SOL    HW214385   4.586   6.146   2.203
 4496SOL     OW14386   4.898   4.496   5.745
 4496SOL    HW114387   4.815   4.451   5.711
 4496SOL    HW214388   4.978   4.442   5.721
 4497SOL     OW14389   6.449   5.336   0.879
 4497SOL    HW114390   6.489   5.427   0.887
 4497SOL    HW214391   6.349   5.343   0.885
 4498SOL     OW14392   0.400   4.233   6.887
 4498SOL    HW114393   0.440   4.174   6.957
 4498SOL    HW214394   0.382   4.179   6.804
 4499SOL     OW14395   6.353   3.015   6.619
 4499SOL    HW114396   6.295   3.054   6.548
 4499SOL    HW214397   6.435   2.976   6.577
 4500SOL     OW14398   3.399   3.759   4.702
 4500SOL    HW114399   3.350   3.701   4.637
 4500SOL    HW214400   3.497   3.749   4.688
 4501SOL     OW14401   1.032   4.532   4.767
 4501SOL    HW114402   1.025   4.630   4.749
 4501SOL    HW214403   1.097   4.492   4.702
 4502SOL     OW14404   6.393   2.932   6.902
 4502SOL    HW114405   6.354   2.992   6.832
 4502SOL    HW214406   6.411   2.986   6.985
 4503SOL     OW14407   1.322   1.932   2.931
 4503SOL    HW114408   1.343   1.853   2.989
 4503SOL    HW214409   1.400   1.951   2.872
 4504SOL     OW14410   4.579   2.516   4.786
 4504SOL    HW114411   4.526   2.522   4.870
 4504SOL    HW214412   4.627   2.602   4.771
 4505SOL     OW14413   1.930   5.185   5.818
 4505SOL    HW114414   1.867   5.134   5.759
 4505SOL    HW214415   1.993   5.239   5.762
 4506SOL     OW14416   4.031   0.104   5.313
 4506SOL    HW114417   4.054   0.108   5.216
 4506SOL    HW214418   4.095   0.043   5.360
 4507SOL     OW14419   6.252   4.417   1.543
 4507SOL    HW114420   6.168   4.420   1.597
 4507SOL    HW214421   6.325   4.466   1.590
 4508SOL     OW14422   1.260   4.572   0.513
 4508SOL    HW114423   1.195   4.501   0.487
 4508SOL    HW214424   1.327   4.585   0.440
 4509SOL     OW14425   1.066   2.070   3.960
 4509SOL    HW114426   1.154   2.093   3.920
 4509SOL    HW214427   1.051   1.971   3.955
 4510SOL     OW14428   3.920   6.837   5.185
 4510SOL    HW114429   3.892   6.907   5.252
 4510SOL    HW214430   3.911   6.746   5.226
 4511SOL     OW14431   6.145   3.197   6.474
 4511SOL    HW114432   6.211   3.246   6.532
 4511SOL    HW214433   6.178   3.197   6.380
 4512SOL     OW14434   2.976   4.758   0.393
 4512SOL    HW114435   2.893   4.812   0.402
 4512SOL    HW214436   2.967   4.673   0.446
 4513SOL     OW14437   5.264   0.753   1.915
 4513SOL    HW114438   5.176   0.786   1.881
 4513SOL    HW214439   5.322   0.728   1.838
 4514SOL     OW14440   3.577   1.472   5.751
 4514SOL    HW114441   3.486   1.501   5.722
 4514SOL    HW214442   3.605   1.391   5.699
 4515SOL     OW14443   0.145   5.196   1.030
 4515SOL    HW114444   0.195   5.112   1.050
 4515SOL    HW214445   0.051   5.188   1.062
 4516SOL     OW14446   1.281   6.872   4.708
 4516SOL    HW114447   1.215   6.813   4.661
 4516SOL    HW214448   1.237   6.957   4.734
 4517SOL     OW14449   3.819   6.989   5.440
 4517SOL    HW114450   3.729   0.012   5.453
 4517SOL    HW214451   3.881   0.041   5.402
 4518SOL     OW14452   1.027   1.084   4.169
 4518SOL    HW114453   1.114   1.091   4.120
 4518SOL    HW214454   1.031   1.139   4.253
 4519SOL     OW14455   6.290   2.634   4.609
 4519SOL    HW114456   6.291   2.676   4.518
 4519SOL    HW214457   6.249   2.698   4.675
 4520SOL     OW14458   0.623   4.476   3.395
 4520SOL    HW114459   0.568   4.463   3.312
 4520SOL    HW214460   0.692   4.404   3.402
 4521SOL     OW14461   5.711   2.401   5.705
 4521SOL    HW114462   5.789   2.463   5.706
 4521SOL    HW214463   5.740   2.310   5.734
 4522SOL     OW14464   5.820   0.259   3.734
 4522SOL    HW114465   5.733   0.231   3.774
 4522SOL    HW214466   5.838   0.355   3.756
 4523SOL     OW14467   3.769   3.361   6.545
 4523SOL    HW114468   3.675   3.339   6.517
 4523SOL    HW214469   3.834   3.309   6.489
 4524SOL     OW14470   5.908   0.477   5.154
 4524SOL    HW114471   5.854   0.394   5.140
 4524SOL    HW214472   5.882   0.546   5.086
 4525SOL     OW14473   6.607   1.690   5.342
 4525SOL    HW114474   6.561   1.690   5.431
 4525SOL    HW214475   6.675   1.763   5.340
 4526SOL     OW14476   3.781   1.035   0.556
 4526SOL    HW114477   3.861   1.051   0.499
 4526SOL    HW214478   3.784   0.943   0.594
 4527SOL     OW14479   3.796   1.342   3.763
 4527SOL    HW114480   3.810   1.243   3.754
 4527SOL    HW214481   3.817   1.386   3.675
 4528SOL     OW14482   5.677   0.288   6.287
 4528SOL    HW114483   5.720   0.323   6.205
 4528SOL    HW214484   5.583   0.320   6.292
 4529SOL     OW14485   3.630   0.012   3.364
 4529SOL    HW114486   3.713   0.002   3.418
 4529SOL    HW214487   3.597   6.939   3.336
 4530SOL     OW14488   0.570   3.094   4.859
 4530SOL    HW114489   0.552   3.066   4.954
 4530SOL    HW214490   0.594   3.014   4.805
 4531SOL     OW14491   6.901   3.280   3.469
 4531SOL    HW114492   6.862   3.371   3.486
 4531SOL    HW214493   7.000   3.284   3.484
 4532SOL     OW14494   6.677   1.778   0.308
 4532SOL    HW114495   6.581   1.750   0.318
 4532SOL    HW214496   6.699   1.847   0.377
 4533SOL     OW14497   2.857   6.029   2.778
 4533SOL    HW114498   2.851   5.989   2.686
 4533SOL    HW214499   2.813   5.968   2.843
 4534SOL     OW14500   6.584   3.818   5.665
 4534SOL    HW114501   6.526   3.736   5.666
 4534SOL    HW214502   6.671   3.796   5.621
 4535SOL     OW14503   4.998   2.833   2.403
 4535SOL    HW114504   5.049   2.892   2.466
 4535SOL    HW214505   5.006   2.870   2.310
 4536SOL     OW14506   6.829   1.278   4.053
 4536SOL    HW114507   6.804   1.262   4.148
 4536SOL    HW214508   6.747   1.285   3.997
 4537SOL     OW14509   3.789   3.012   5.744
 4537SOL    HW114510   3.737   2.967   5.817
 4537SOL    HW214511   3.739   3.003   5.657
 4538SOL     OW14512   3.400   1.258   2.485
 4538SOL    HW114513   3.310   1.256   2.528
 4538SOL    HW214514   3.469   1.282   2.553
 4539SOL     OW14515   1.053   1.907   2.437
 4539SOL    HW114516   1.127   1.952   2.487
 4539SOL    HW214517   1.083   1.886   2.344
 4540SOL     OW14518   3.161   2.972   4.463
 4540SOL    HW114519   3.206   2.939   4.379
 4540SOL    HW214520   3.224   2.962   4.540
 4541SOL     OW14521   6.078   1.456   1.132
 4541SOL    HW114522   6.065   1.437   1.035
 4541SOL    HW214523   6.103   1.372   1.180
 4542SOL     OW14524   4.661   0.350   4.009
 4542SOL    HW114525   4.685   0.357   3.912
 4542SOL    HW214526   4.602   0.427   4.034
 4543SOL     OW14527   5.382   1.763   1.761
 4543SOL    HW114528   5.433   1.836   1.806
 4543SOL    HW214529   5.335   1.799   1.680
 4544SOL     OW14530   3.650   4.803   6.365
 4544SOL    HW114531   3.706   4.871   6.411
 4544SOL    HW214532   3.703   4.719   6.351
 4545SOL     OW14533   4.050   2.822   5.920
 4545SOL    HW114534   4.091   2.903   5.877
 4545SOL    HW214535   4.006   2.766   5.849
 4546SOL     OW14536   0.929   6.698   6.006
 4546SOL    HW114537   0.972   6.729   6.091
 4546SOL    HW214538   0.830   6.691   6.020
 4547SOL     OW14539   4.600   1.971   1.274
 4547SOL    HW114540   4.628   1.993   1.180
 4547SOL    HW214541   4.680   1.942   1.326
 4548SOL     OW14542   1.506   3.056   3.975
 4548SOL    HW114543   1.409   3.036   3.959
 4548SOL    HW214544   1.539   2.999   4.051
 4549SOL     OW14545   5.077   1.914   2.499
 4549SOL    HW114546   5.043   1.990   2.443
 4549SOL    HW214547   5.036   1.917   2.590
 4550SOL     OW14548   1.442   6.258   4.761
 4550SOL    HW114549   1.425   6.168   4.720
 4550SOL    HW214550   1.434   6.251   4.860
 4551SOL     OW14551   0.537   2.571   5.985
 4551SOL    HW114552   0.503   2.649   6.037
 4551SOL    HW214553   0.637   2.576   5.979
 4552SOL     OW14554   0.130   3.130   3.996
 4552SOL    HW114555   0.103   3.224   4.014
 4552SOL    HW214556   0.048   3.074   3.982
 4553SOL     OW14557   5.188   4.783   0.584
 4553SOL    HW114558   5.283   4.812   0.594
 4553SOL    HW214559   5.158   4.739   0.669
 4554SOL     OW14560   5.522   0.010   3.148
 4554SOL    HW114561   5.449   6.974   3.190
 4554SOL    HW214562   5.550   0.084   3.210
 4555SOL     OW14563   5.559   1.671   0.248
 4555SOL    HW114564   5.614   1.588   0.237
 4555SOL    HW214565   5.594   1.725   0.324
 4556SOL     OW14566   4.996   1.317   4.525
 4556SOL    HW114567   4.906   1.332   4.484
 4556SOL    HW214568   5.046   1.403   4.529
 4557SOL     OW14569   5.175   0.135   5.826
 4557SOL    HW114570   5.079   0.116   5.805
 4557SOL    HW214571   5.227   0.143   5.741
 4558SOL     OW14572   6.669   3.303   6.072
 4558SOL    HW114573   6.582   3.293   6.025
 4558SOL    HW214574   6.654   3.341   6.163
 4559SOL     OW14575   0.790   6.643   1.509
 4559SOL    HW114576   0.703   6.626   1.555
 4559SOL    HW214577   0.778   6.716   1.442
 4560SOL     OW14578   5.026   2.764   3.017
 4560SOL    HW114579   5.089   2.830   3.060
 4560SOL    HW214580   4.932   2.790   3.038
 4561SOL     OW14581   3.166   0.022   6.365
 4561SOL    HW114582   3.179   6.957   6.419
 4561SOL    HW214583   3.068   0.043   6.359
 4562SOL     OW14584   3.460   5.164   5.355
 4562SOL    HW114585   3.557   5.186   5.365
 4562SOL    HW214586   3.426   5.199   5.268
 4563SOL     OW14587   5.281   2.094   6.513
 4563SOL    HW114588   5.281   2.094   6.413
 4563SOL    HW214589   5.349   2.159   6.547
 4564SOL     OW14590   1.888   5.866   6.742
 4564SOL    HW114591   1.835   5.951   6.745
 4564SOL    HW214592   1.832   5.794   6.701
 4565SOL     OW14593   2.142   0.736   3.973
 4565SOL    HW114594   2.062   0.742   3.914
 4565SOL    HW214595   2.118   0.767   4.065
 4566SOL     OW14596   0.866   1.903   0.211
 4566SOL    HW114597   0.789   1.839   0.221
 4566SOL    HW214598   0.933   1.885   0.282
 4567SOL     OW14599   6.831   0.714   0.529
 4567SOL    HW114600   6.794   0.775   0.599
 4567SOL    HW214601   6.818   0.619   0.558
 4568SOL     OW14602   3.510   5.077   4.842
 4568SOL    HW114603   3.456   5.053   4.761
 4568SOL    HW214604   3.470   5.032   4.923
 4569SOL     OW14605   0.294   1.761   4.260
 4569SOL    HW114606   0.269   1.800   4.172
 4569SOL    HW214607   0.379   1.709   4.251
 4570SOL     OW14608   6.848   5.271   4.364
 4570SOL    HW114609   6.876   5.238   4.454
 4570SOL    HW214610   6.756   5.237   4.344
 4571SOL     OW14611   3.785   3.269   4.167
 4571SOL    HW114612   3.874   3.275   4.212
 4571SOL    HW214613   3.759   3.173   4.158
 4572SOL     OW14614   2.378   6.270   1.789
 4572SOL    HW114615   2.444   6.217   1.842
 4572SOL    HW214616   2.337   6.340   1.848
 4573SOL     OW14617   5.574   6.886   0.732
 4573SOL    HW114618   5.638   6.900   0.657
 4573SOL    HW214619   5.563   6.971   0.783
 4574SOL     OW14620   1.003   4.431   2.134
 4574SOL    HW114621   1.097   4.400   2.124
 4574SOL    HW214622   0.941   4.361   2.098
 4575SOL     OW14623   6.688   0.031   1.931
 4575SOL    HW114624   6.734   0.108   1.976
 4575SOL    HW214625   6.723   0.022   1.838
 4576SOL     OW14626   3.147   5.944   4.870
 4576SOL    HW114627   3.236   5.969   4.833
 4576SOL    HW214628   3.145   5.845   4.888
 4577SOL     OW14629   0.830   2.627   4.282
 4577SOL    HW114630   0.825   2.636   4.381
 4577SOL    HW214631   0.891   2.552   4.258
 4578SOL     OW14632   0.225   4.023   3.641
 4578SOL    HW114633   0.147   4.023   3.579
 4578SOL    HW214634   0.203   3.969   3.722
 4579SOL     OW14635   5.243   2.348   4.157
 4579SOL    HW114636   5.171   2.344   4.226
 4579SOL    HW214637   5.248   2.260   4.109
 4580SOL     OW14638   6.983   5.501   0.705
 4580SOL    HW114639   6.954   5.559   0.781
 4580SOL    HW214640   6.988   5.556   0.622
 4581SOL     OW14641   3.455   5.793   3.180
 4581SOL    HW114642   3.496   5.856   3.245
 4581SOL    HW214643   3.524   5.727   3.150
 4582SOL     OW14644   4.546   6.728   3.140
 4582SOL    HW114645   4.585   6.820   3.139
 4582SOL    HW214646   4.587   6.673   3.067
 4583SOL     OW14647   4.475   1.634   5.574
 4583SOL    HW114648   4.564   1.611   5.613
 4583SOL    HW214649   4.428   1.699   5.634
 4584SOL     OW14650   0.333   4.687   5.621
 4584SOL    HW114651   0.351   4.752   5.546
 4584SOL    HW214652   0.304   4.599   5.582
 4585SOL     OW14653   3.836   6.611   2.763
 4585SOL    HW114654   3.912   6.649   2.815
 4585SOL    HW214655   3.855   6.515   2.742
 4586SOL     OW14656   3.197   6.085   2.205
 4586SOL    HW114657   3.184   5.991   2.238
 4586SOL    HW214658   3.216   6.083   2.107
 4587SOL     OW14659   2.279   4.272   0.944
 4587SOL    HW114660   2.193   4.234   0.910
 4587SOL    HW214661   2.266   4.367   0.971
 4588SOL     OW14662   4.408   3.827   5.338
 4588SOL    HW114663   4.457   3.739   5.337
 4588SOL    HW214664   4.373   3.844   5.430
 4589SOL     OW14665   0.124   1.377   3.711
 4589SOL    HW114666   0.202   1.315   3.708
 4589SOL    HW214667   0.105   1.403   3.806
 4590SOL     OW14668   4.513   5.679   2.620
 4590SOL    HW114669   4.510   5.596   2.677
 4590SOL    HW214670   4.597   5.729   2.640
 4591SOL     OW14671   6.099   5.738   4.783
 4591SOL    HW114672   6.149   5.741   4.869
 4591SOL    HW214673   6.078   5.831   4.753
 4592SOL     OW14674   2.853   1.972   5.763
 4592SOL    HW114675   2.850   1.930   5.853
 4592SOL    HW214676   2.759   1.986   5.730
 4593SOL     OW14677   3.822   6.613   1.702
 4593SOL    HW114678   3.856   6.622   1.608
 4593SOL    HW214679   3.723   6.600   1.702
 4594SOL     OW14680   3.127   1.266   2.602
 4594SOL    HW114681   3.099   1.356   2.636
 4594SOL    HW214682   3.087   1.195   2.659
 4595SOL     OW14683   4.219   2.393   5.826
 4595SOL    HW114684   4.222   2.298   5.859
 4595SOL    HW214685   4.275   2.401   5.744
 4596SOL     OW14686   6.411   0.135   2.030
 4596SOL    HW114687   6.449   0.063   2.088
 4596SOL    HW214688   6.385   0.097   1.941
 4597SOL     OW14689   6.790   4.619   6.858
 4597SOL    HW114690   6.695   4.620   6.888
 4597SOL    HW214691   6.847   4.581   6.930
 4598SOL     OW14692   3.472   4.450   0.629
 4598SOL    HW114693   3.445   4.505   0.708
 4598SOL    HW214694   3.473   4.509   0.548
 4599SOL     OW14695   1.766   5.287   0.148
 4599SOL    HW114696   1.739   5.223   0.075
 4599SOL    HW214697   1.685   5.319   0.196
 4600SOL     OW14698   3.806   5.205   1.450
 4600SOL    HW114699   3.842   5.113   1.434
 4600SOL    HW214700   3.789   5.249   1.362
 4601SOL     OW14701   2.040   5.863   4.657
 4601SOL    HW114702   1.967   5.812   4.611
 4601SOL    HW214703   2.121   5.805   4.665
 4602SOL     OW14704   1.688   1.116   0.764
 4602SOL    HW114705   1.606   1.068   0.794
 4602SOL    HW214706   1.748   1.052   0.715
 4603SOL     OW14707   3.176   0.721   2.096
 4603SOL    HW114708   3.076   0.721   2.109
 4603SOL    HW214709   3.209   0.815   2.092
 4604SOL     OW14710   2.756   0.390   2.460
 4604SOL    HW114711   2.827   0.460   2.457
 4604SOL    HW214712   2.691   0.411   2.533
 4605SOL     OW14713   5.170   6.821   5.791
 4605SOL    HW114714   5.081   6.850   5.757
 4605SOL    HW214715   5.188   6.865   5.879
 4606SOL     OW14716   6.907   6.506   5.753
 4606SOL    HW114717   6.999   6.468   5.760
 4606SOL    HW214718   6.857   6.490   5.838
 4607SOL     OW14719   2.311   2.152   1.620
 4607SOL    HW114720   2.298   2.245   1.585
 4607SOL    HW214721   2.359   2.157   1.708
 4608SOL     OW14722   1.700   3.622   5.451
 4608SOL    HW114723   1.698   3.718   5.422
 4608SOL    HW214724   1.711   3.564   5.370
 4609SOL     OW14725   3.979   6.787   6.566
 4609SOL    HW114726   4.067   6.761   6.606
 4609SOL    HW214727   3.911   6.716   6.587
 4610SOL     OW14728   0.735   3.297   6.787
 4610SOL    HW114729   0.746   3.354   6.868
 4610SOL    HW214730   0.758   3.202   6.809
 4611SOL     OW14731   0.761   3.460   7.010
 4611SOL    HW114732   0.781   3.540   6.953
 4611SOL    HW214733   0.835   3.446   0.058
 4612SOL     OW14734   2.297   0.279   6.173
 4612SOL    HW114735   2.375   0.338   6.194
 4612SOL    HW214736   2.279   0.280   6.074
 4613SOL     OW14737   2.736   5.788   2.321
 4613SOL    HW114738   2.791   5.779   2.237
 4613SOL    HW214739   2.759   5.714   2.384
 4614SOL     OW14740   1.889   5.458   0.613
 4614SOL    HW114741   1.915   5.540   0.563
 4614SOL    HW214742   1.911   5.377   0.559
 4615SOL     OW14743   0.098   2.856   0.344
 4615SOL    HW114744   0.000   2.835   0.348
 4615SOL    HW214745   0.125   2.905   0.427
 4616SOL     OW14746   5.704   1.164   0.007
 4616SOL    HW114747   5.776   1.231   0.024
 4616SOL    HW214748   5.690   1.108   0.089
 4617SOL     OW14749   0.317   3.305   1.980
 4617SOL    HW114750   0.372   3.338   2.057
 4617SOL    HW214751   0.369   3.237   1.929
 4618SOL     OW14752   1.075   2.069   6.232
 4618SOL    HW114753   1.018   2.128   6.290
 4618SOL    HW214754   1.055   1.973   6.252
 4619SOL     OW14755   3.341   0.657   3.909
 4619SOL    HW114756   3.363   0.695   3.819
 4619SOL    HW214757   3.367   0.723   3.980
 4620SOL     OW14758   2.422   4.308   6.270
 4620SOL    HW114759   2.442   4.260   6.185
 4620SOL    HW214760   2.323   4.305   6.288
 4621SOL     OW14761   0.464   6.628   6.324
 4621SOL    HW114762   0.542   6.689   6.341
 4621SOL    HW214763   0.459   6.608   6.226
 4622SOL     OW14764   2.494   3.545   1.013
 4622SOL    HW114765   2.395   3.545   1.026
 4622SOL    HW214766   2.523   3.455   0.979
 4623SOL     OW14767   6.074   4.236   2.354
 4623SOL    HW114768   6.127   4.321   2.352
 4623SOL    HW214769   5.977   4.257   2.342
 4624SOL     OW14770   4.713   6.836   5.424
 4624SOL    HW114771   4.639   6.883   5.376
 4624SOL    HW214772   4.740   6.755   5.372
 4625SOL     OW14773   0.996   3.064   6.659
 4625SOL    HW114774   1.076   3.015   6.694
 4625SOL    HW214775   0.937   3.000   6.611
 4626SOL     OW14776   5.908   5.263   2.082
 4626SOL    HW114777   5.939   5.205   2.007
 4626SOL    HW214778   5.972   5.254   2.159
 4627SOL     OW14779   2.147   0.738   5.868
 4627SOL    HW114780   2.091   0.714   5.947
 4627SOL    HW214781   2.131   0.672   5.795
 4628SOL     OW14782   0.040   3.902   1.946
 4628SOL    HW114783   0.118   3.942   1.897
 4628SOL    HW214784   0.061   3.808   1.972
 4629SOL     OW14785   3.316   5.314   5.161
 4629SOL    HW114786   3.276   5.330   5.071
 4629SOL    HW214787   3.373   5.392   5.186
 4630SOL     OW14788   2.213   0.464   2.681
 4630SOL    HW114789   2.259   0.444   2.767
 4630SOL    HW214790   2.153   0.543   2.692
 4631SOL     OW14791   2.504   0.842   2.408
 4631SOL    HW114792   2.490   0.894   2.324
 4631SOL    HW214793   2.416   0.808   2.442
 4632SOL     OW14794   5.287   5.299   3.905
 4632SOL    HW114795   5.306   5.204   3.880
 4632SOL    HW214796   5.341   5.360   3.846
 4633SOL     OW14797   5.871   2.607   5.646
 4633SOL    HW114798   5.877   2.669   5.725
 4633SOL    HW214799   5.939   2.634   5.578
 4634SOL     OW14800   3.687   4.515   0.987
 4634SOL    HW114801   3.676   4.538   0.891
 4634SOL    HW214802   3.620   4.565   1.042
 4635SOL     OW14803   5.080   4.298   1.384
 4635SOL    HW114804   4.989   4.334   1.363
 4635SOL    HW214805   5.115   4.248   1.304
 4636SOL     OW14806   1.692   4.999   0.707
 4636SOL    HW114807   1.710   4.923   0.768
 4636SOL    HW214808   1.740   5.081   0.740
 4637SOL     OW14809   1.461   1.118   5.188
 4637SOL    HW114810   1.428   1.202   5.231
 4637SOL    HW214811   1.517   1.067   5.254
 4638SOL     OW14812   5.429   3.662   6.505
 4638SOL    HW114813   5.430   3.690   6.409
 4638SOL    HW214814   5.457   3.739   6.563
 4639SOL     OW14815   6.949   3.243   5.560
 4639SOL    HW114816   6.962   3.272   5.655
 4639SOL    HW214817   6.855   3.210   5.549
 4640SOL     OW14818   5.837   3.891   2.678
 4640SOL    HW114819   5.851   3.854   2.770
 4640SOL    HW214820   5.769   3.836   2.630
 4641SOL     OW14821   2.836   4.392   5.593
 4641SOL    HW114822   2.915   4.374   5.535
 4641SOL    HW214823   2.860   4.375   5.689
 4642SOL     OW14824   5.440   5.613   4.493
 4642SOL    HW114825   5.514   5.555   4.459
 4642SOL    HW214826   5.420   5.589   4.589
 4643SOL     OW14827   4.044   2.966   1.361
 4643SOL    HW114828   4.052   3.066   1.360
 4643SOL    HW214829   3.971   2.939   1.424
 4644SOL     OW14830   2.473   4.904   4.930
 4644SOL    HW114831   2.514   4.986   4.890
 4644SOL    HW214832   2.542   4.854   4.983
 4645SOL     OW14833   1.837   6.054   4.771
 4645SOL    HW114834   1.897   6.012   4.704
 4645SOL    HW214835   1.831   5.995   4.852
 4646SOL     OW14836   3.650   0.485   1.760
 4646SOL    HW114837   3.676   0.556   1.694
 4646SOL    HW214838   3.621   0.528   1.846
 4647SOL     OW14839   6.752   0.593   4.620
 4647SOL    HW114840   6.847   0.559   4.620
 4647SOL    HW214841   6.689   0.516   4.631
 4648SOL     OW14842   1.924   4.911   2.866
 4648SOL    HW114843   1.885   4.935   2.955
 4648SOL    HW214844   1.988   4.835   2.878
 4649SOL     OW14845   5.601   6.713   6.372
 4649SOL    HW114846   5.646   6.708   6.461
 4649SOL    HW214847   5.670   6.727   6.301
 4650SOL     OW14848   0.084   4.830   1.902
 4650SOL    HW114849   0.152   4.810   1.973
 4650SOL    HW214850   0.044   4.744   1.870
 4651SOL     OW14851   0.153   1.853   1.244
 4651SOL    HW114852   0.103   1.834   1.329
 4651SOL    HW214853   0.177   1.950   1.240
 4652SOL     OW14854   6.922   6.151   5.991
 4652SOL    HW114855   6.984   6.217   6.035
 4652SOL    HW214856   6.934   6.156   5.892
 4653SOL     OW14857   0.938   5.807   6.666
 4653SOL    HW114858   0.912   5.897   6.630
 4653SOL    HW214859   0.866   5.741   6.644
 4654SOL     OW14860   0.976   1.485   6.556
 4654SOL    HW114861   1.074   1.497   6.539
 4654SOL    HW214862   0.925   1.500   6.471
 4655SOL     OW14863   0.653   5.559   3.537
 4655SOL    HW114864   0.703   5.536   3.453
 4655SOL    HW214865   0.615   5.651   3.529
 4656SOL     OW14866   1.947   0.168   3.230
 4656SOL    HW114867   2.027   0.210   3.188
 4656SOL    HW214868   1.931   0.077   3.190
 4657SOL     OW14869   6.021   0.064   6.815
 4657SOL    HW114870   6.029   0.163   6.822
 4657SOL    HW214871   6.078   0.021   6.884
 4658SOL     OW14872   5.333   0.794   3.594
 4658SOL    HW114873   5.247   0.744   3.600
 4658SOL    HW214874   5.359   0.827   3.685
 4659SOL     OW14875   2.282   2.346   4.358
 4659SOL    HW114876   2.221   2.272   4.385
 4659SOL    HW214877   2.235   2.406   4.294
 4660SOL     OW14878   6.509   1.074   5.725
 4660SOL    HW114879   6.555   1.126   5.653
 4660SOL    HW214880   6.474   0.988   5.687
 4661SOL     OW14881   4.127   3.485   3.586
 4661SOL    HW114882   4.142   3.389   3.560
 4661SOL    HW214883   4.137   3.543   3.505
 4662SOL     OW14884   5.227   0.432   4.375
 4662SOL    HW114885   5.139   0.475   4.355
 4662SOL    HW214886   5.232   0.343   4.329
 4663SOL     OW14887   6.967   1.700   2.179
 4663SOL    HW114888   6.968   1.647   2.095
 4663SOL    HW214889   6.900   1.774   2.172
 4664SOL     OW14890   3.260   2.765   0.312
 4664SOL    HW114891   3.200   2.699   0.358
 4664SOL    HW214892   3.298   2.724   0.229
 4665SOL     OW14893   5.514   0.893   6.960
 4665SOL    HW114894   5.608   0.877   6.990
 4665SOL    HW214895   5.451   0.859   0.012
 4666SOL     OW14896   2.332   1.507   0.339
 4666SOL    HW114897   2.364   1.593   0.377
 4666SOL    HW214898   2.410   1.456   0.303
 4667SOL     OW14899   0.619   5.422   5.617
 4667SOL    HW114900   0.637   5.515   5.584
 4667SOL    HW214901   0.531   5.420   5.665
 4668SOL     OW14902   5.625   1.690   4.764
 4668SOL    HW114903   5.529   1.679   4.792
 4668SOL    HW214904   5.636   1.777   4.717
 4669SOL     OW14905   2.725   0.428   0.967
 4669SOL    HW114906   2.728   0.332   0.942
 4669SOL    HW214907   2.717   0.484   0.885
 4670SOL     OW14908   2.022   0.860   4.174
 4670SOL    HW114909   1.935   0.870   4.126
 4670SOL    HW214910   2.011   0.800   4.253
 4671SOL     OW14911   5.640   3.765   0.814
 4671SOL    HW114912   5.716   3.830   0.824
 4671SOL    HW214913   5.665   3.695   0.748
 4672SOL     OW14914   2.196   3.490   5.664
 4672SOL    HW114915   2.229   3.414   5.609
 4672SOL    HW214916   2.136   3.548   5.609
 4673SOL     OW14917   3.709   0.403   2.606
 4673SOL    HW114918   3.673   0.394   2.699
 4673SOL    HW214919   3.633   0.420   2.543
 4674SOL     OW14920   4.212   6.002   6.309
 4674SOL    HW114921   4.256   6.083   6.272
 4674SOL    HW214922   4.195   6.015   6.407
 4675SOL     OW14923   1.498   4.133   5.932
 4675SOL    HW114924   1.570   4.202   5.932
 4675SOL    HW214925   1.430   4.156   6.002
 4676SOL     OW14926   1.051   5.707   4.058
 4676SOL    HW114927   0.982   5.773   4.029
 4676SOL    HW214928   1.021   5.614   4.034
 4677SOL     OW14929   0.779   3.134   0.917
 4677SOL    HW114930   0.723   3.209   0.883
 4677SOL    HW214931   0.837   3.166   0.993
 4678SOL     OW14932   2.353   4.311   2.379
 4678SOL    HW114933   2.329   4.308   2.281
 4678SOL    HW214934   2.423   4.381   2.394
 4679SOL     OW14935   4.527   0.051   1.616
 4679SOL    HW114936   4.581   0.017   1.693
 4679SOL    HW214937   4.512   0.149   1.626
 4680SOL     OW14938   1.674   0.685   0.852
 4680SOL    HW114939   1.658   0.592   0.819
 4680SOL    HW214940   1.753   0.685   0.913
 4681SOL     OW14941   4.972   5.655   2.146
 4681SOL    HW114942   4.920   5.585   2.097
 4681SOL    HW214943   5.055   5.676   2.094
 4682SOL     OW14944   3.553   4.182   0.102
 4682SOL    HW114945   3.649   4.156   0.108
 4682SOL    HW214946   3.545   4.282   0.107
 4683SOL     OW14947   6.238   4.505   3.778
 4683SOL    HW114948   6.270   4.435   3.841
 4683SOL    HW214949   6.141   4.523   3.795
 4684SOL     OW14950   5.660   6.542   0.440
 4684SOL    HW114951   5.721   6.583   0.372
 4684SOL    HW214952   5.673   6.587   0.528
 4685SOL     OW14953   3.261   3.940   5.018
 4685SOL    HW114954   3.304   3.944   4.928
 4685SOL    HW214955   3.163   3.959   5.009
 4686SOL     OW14956   3.495   6.137   0.586
 4686SOL    HW114957   3.454   6.097   0.668
 4686SOL    HW214958   3.536   6.064   0.531
 4687SOL     OW14959   3.066   0.748   2.895
 4687SOL    HW114960   3.006   0.803   2.837
 4687SOL    HW214961   3.161   0.763   2.869
 4688SOL     OW14962   5.680   3.264   5.456
 4688SOL    HW114963   5.619   3.334   5.492
 4688SOL    HW214964   5.641   3.173   5.474
 4689SOL     OW14965   6.428   0.933   2.601
 4689SOL    HW114966   6.371   0.884   2.535
 4689SOL    HW214967   6.408   0.901   2.693
 4690SOL     OW14968   2.141   2.112   1.020
 4690SOL    HW114969   2.174   2.123   0.927
 4690SOL    HW214970   2.217   2.120   1.084
 4691SOL     OW14971   6.711   4.175   1.718
 4691SOL    HW114972   6.634   4.222   1.674
 4691SOL    HW214973   6.760   4.122   1.650
 4692SOL     OW14974   5.128   3.428   2.014
 4692SOL    HW114975   5.162   3.359   1.950
 4692SOL    HW214976   5.203   3.458   2.073
 4693SOL     OW14977   1.417   0.704   3.547
 4693SOL    HW114978   1.470   0.696   3.462
 4693SOL    HW214979   1.441   0.629   3.607
 4694SOL     OW14980   1.815   0.602   0.040
 4694SOL    HW114981   1.795   0.513   7.017
 4694SOL    HW214982   1.743   0.667   0.015
 4695SOL     OW14983   1.213   6.400   1.477
 4695SOL    HW114984   1.114   6.389   1.476
 4695SOL    HW214985   1.249   6.374   1.567
 4696SOL     OW14986   2.390   5.304   5.804
 4696SOL    HW114987   2.469   5.249   5.776
 4696SOL    HW214988   2.422   5.391   5.841
 4697SOL     OW14989   3.955   5.432   1.545
 4697SOL    HW114990   3.899   5.357   1.510
 4697SOL    HW214991   4.019   5.396   1.613
 4698SOL     OW14992   4.884   1.353   4.235
 4698SOL    HW114993   4.972   1.306   4.224
 4698SOL    HW214994   4.897   1.434   4.292
 4699SOL     OW14995   1.440   0.009   2.233
 4699SOL    HW114996   1.391   6.960   2.290
 4699SOL    HW214997   1.503   0.061   2.290
 4700SOL     OW14998   6.030   1.800   2.057
 4700SOL    HW114999   5.981   1.742   1.993
 4700SOL    HW215000   5.977   1.883   2.075
 4701SOL     OW15001   3.109   2.193   1.843
 4701SOL    HW115002   3.162   2.116   1.877
 4701SOL    HW215003   3.047   2.225   1.915
 4702SOL     OW15004   5.328   4.963   6.706
 4702SOL    HW115005   5.425   4.987   6.708
 4702SOL    HW215006   5.272   5.045   6.714
 4703SOL     OW15007   0.889   5.573   3.723
 4703SOL    HW115008   0.797   5.553   3.691
 4703SOL    HW215009   0.927   5.648   3.669
 4704SOL     OW15010   1.297   5.492   5.015
 4704SOL    HW115011   1.355   5.514   5.093
 4704SOL    HW215012   1.263   5.398   5.024
 4705SOL     OW15013   3.365   2.100   1.657
 4705SOL    HW115014   3.272   2.128   1.632
 4705SOL    HW215015   3.367   2.071   1.753
 4706SOL     OW15016   2.792   1.096   0.735
 4706SOL    HW115017   2.811   1.186   0.694
 4706SOL    HW215018   2.780   1.029   0.662
 4707SOL     OW15019   1.690   6.305   1.619
 4707SOL    HW115020   1.606   6.270   1.661
 4707SOL    HW215021   1.669   6.388   1.568
 4708SOL     OW15022   1.290   2.647   4.211
 4708SOL    HW115023   1.239   2.567   4.180
 4708SOL    HW215024   1.345   2.683   4.136
 4709SOL     OW15025   4.739   4.049   5.190
 4709SOL    HW115026   4.748   4.119   5.119
 4709SOL    HW215027   4.794   4.074   5.270
 4710SOL     OW15028   6.445   5.830   5.109
 4710SOL    HW115029   6.520   5.816   5.044
 4710SOL    HW215030   6.476   5.803   5.200
 4711SOL     OW15031   5.206   3.830   2.652
 4711SOL    HW115032   5.261   3.749   2.633
 4711SOL    HW215033   5.207   3.891   2.573
 4712SOL     OW15034   4.659   4.367   5.671
 4712SOL    HW115035   4.615   4.452   5.642
 4712SOL    HW215036   4.641   4.295   5.604
 4713SOL     OW15037   6.176   4.285   1.069
 4713SOL    HW115038   6.163   4.192   1.103
 4713SOL    HW215039   6.099   4.312   1.012
 4714SOL     OW15040   4.492   1.479   6.762
 4714SOL    HW115041   4.487   1.381   6.782
 4714SOL    HW215042   4.424   1.528   6.817
 4715SOL     OW15043   6.037   1.406   2.020
 4715SOL    HW115044   6.031   1.328   1.958
 4715SOL    HW215045   6.119   1.397   2.077
 4716SOL     OW15046   3.811   4.983   6.090
 4716SOL    HW115047   3.810   4.899   6.037
 4716SOL    HW215048   3.739   5.044   6.058
 4717SOL     OW15049   2.961   5.115   5.150
 4717SOL    HW115050   3.022   5.138   5.226
 4717SOL    HW215051   2.967   5.017   5.132
 4718SOL     OW15052   4.636   4.729   1.187
 4718SOL    HW115053   4.734   4.708   1.186
 4718SOL    HW215054   4.621   4.814   1.237
 4719SOL     OW15055   0.203   4.233   4.013
 4719SOL    HW115056   0.222   4.205   4.108
 4719SOL    HW215057   0.274   4.297   3.983
 4720SOL     OW15058   2.025   3.294   6.707
 4720SOL    HW115059   2.101   3.255   6.655
 4720SOL    HW215060   2.062   3.355   6.778
 4721SOL     OW15061   6.821   2.688   2.856
 4721SOL    HW115062   6.901   2.743   2.830
 4721SOL    HW215063   6.751   2.747   2.895
 4722SOL     OW15064   1.179   5.529   6.897
 4722SOL    HW115065   1.111   5.601   6.910
 4722SOL    HW215066   1.151   5.447   6.946
 4723SOL     OW15067   3.916   4.025   0.414
 4723SOL    HW115068   3.926   4.082   0.496
 4723SOL    HW215069   3.821   3.994   0.407
 4724SOL     OW15070   0.724   6.567   5.017
 4724SOL    HW115071   0.647   6.527   4.967
 4724SOL    HW215072   0.782   6.618   4.953
 4725SOL     OW15073   5.170   5.708   1.132
 4725SOL    HW115074   5.132   5.733   1.043
 4725SOL    HW215075   5.270   5.717   1.128
 4726SOL     OW15076   0.971   3.437   5.707
 4726SOL    HW115077   0.997   3.343   5.684
 4726SOL    HW215078   0.966   3.446   5.807
 4727SOL     OW15079   0.110   4.787   1.150
 4727SOL    HW115080   0.046   4.842   1.204
 4727SOL    HW215081   0.173   4.847   1.102
 4728SOL     OW15082   6.727   1.515   4.675
 4728SOL    HW115083   6.712   1.417   4.686
 4728SOL    HW215084   6.820   1.538   4.704
 4729SOL     OW15085   5.950   1.610   1.869
 4729SOL    HW115086   5.864   1.588   1.822
 4729SOL    HW215087   5.985   1.527   1.914
 4730SOL     OW15088   3.215   6.935   4.530
 4730SOL    HW115089   3.290   6.958   4.593
 4730SOL    HW215090   3.210   7.005   4.458
 4731SOL     OW15091   3.280   6.599   0.488
 4731SOL    HW115092   3.301   6.540   0.565
 4731SOL    HW215093   3.346   6.583   0.414
 4732SOL     OW15094   0.357   4.979   4.381
 4732SOL    HW115095   0.270   5.027   4.369
 4732SOL    HW215096   0.354   4.893   4.330
 4733SOL     OW15097   1.992   3.829   3.013
 4733SOL    HW115098   2.009   3.739   3.054
 4733SOL    HW215099   1.899   3.832   2.976
 4734SOL     OW15100   4.960   3.422   6.639
 4734SOL    HW115101   4.957   3.496   6.572
 4734SOL    HW215102   5.055   3.409   6.669
 4735SOL     OW15103   0.318   0.705   4.885
 4735SOL    HW115104   0.224   0.692   4.852
 4735SOL    HW215105   0.339   0.803   4.889
 4736SOL     OW15106   6.037   2.132   3.561
 4736SOL    HW115107   6.043   2.232   3.559
 4736SOL    HW215108   6.112   2.096   3.617
 4737SOL     OW15109   2.251   5.008   6.964
 4737SOL    HW115110   2.208   4.918   6.954
 4737SOL    HW215111   2.182   5.076   6.988
 4738SOL     OW15112   1.094   6.651   3.244
 4738SOL    HW115113   1.129   6.650   3.337
 4738SOL    HW215114   1.052   6.740   3.224
 4739SOL     OW15115   6.585   2.837   2.933
 4739SOL    HW115116   6.507   2.808   2.878
 4739SOL    HW215117   6.563   2.824   3.030
 4740SOL     OW15118   0.751   0.725   1.445
 4740SOL    HW115119   0.737   0.803   1.383
 4740SOL    HW215120   0.764   0.759   1.538
 4741SOL     OW15121   4.574   4.435   1.704
 4741SOL    HW115122   4.532   4.374   1.771
 4741SOL    HW215123   4.633   4.501   1.751
 4742SOL     OW15124   2.215   5.813   2.336
 4742SOL    HW115125   2.187   5.879   2.405
 4742SOL    HW215126   2.313   5.823   2.318
 4743SOL     OW15127   2.553   2.675   0.303
 4743SOL    HW115128   2.572   2.731   0.222
 4743SOL    HW215129   2.528   2.734   0.379
 4744SOL     OW15130   1.663   2.818   4.984
 4744SOL    HW115131   1.587   2.767   5.024
 4744SOL    HW215132   1.675   2.905   5.031
 4745SOL     OW15133   2.985   6.040   5.071
 4745SOL    HW115134   2.968   6.121   5.015
 4745SOL    HW215135   3.031   5.971   5.016
 4746SOL     OW15136   6.182   0.570   0.533
 4746SOL    HW115137   6.094   0.576   0.486
 4746SOL    HW215138   6.168   0.531   0.623
 4747SOL     OW15139   6.637   2.552   1.588
 4747SOL    HW115140   6.720   2.563   1.641
 4747SOL    HW215141   6.559   2.542   1.649
 4748SOL     OW15142   1.711   0.722   1.542
 4748SOL    HW115143   1.720   0.672   1.455
 4748SOL    HW215144   1.741   0.816   1.529
 4749SOL     OW15145   1.952   0.095   6.286
 4749SOL    HW115146   2.035   0.111   6.340
 4749SOL    HW215147   1.926   7.017   6.293
 4750SOL     OW15148   0.607   1.391   4.482
 4750SOL    HW115149   0.672   1.337   4.428
 4750SOL    HW215150   0.547   1.442   4.421
 4751SOL     OW15151   1.285   3.548   5.994
 4751SOL    HW115152   1.201   3.493   5.995
 4751SOL    HW215153   1.352   3.509   6.057
 4752SOL     OW15154   2.840   6.165   1.742
 4752SOL    HW115155   2.763   6.227   1.757
 4752SOL    HW215156   2.924   6.218   1.732
 4753SOL     OW15157   6.982   0.139   4.758
 4753SOL    HW115158   0.009   0.075   4.821
 4753SOL    HW215159   0.033   0.190   4.707
 4754SOL     OW15160   0.608   0.340   5.398
 4754SOL    HW115161   0.703   0.360   5.374
 4754SOL    HW215162   0.605   0.279   5.477
 4755SOL     OW15163   2.407   1.827   0.655
 4755SOL    HW115164   2.466   1.849   0.577
 4755SOL    HW215165   2.354   1.907   0.680
 4756SOL     OW15166   5.151   2.930   1.239
 4756SOL    HW115167   5.118   2.900   1.329
 4756SOL    HW215168   5.169   2.851   1.181
 4757SOL     OW15169   2.004   1.944   1.765
 4757SOL    HW115170   1.955   1.929   1.679
 4757SOL    HW215171   1.960   2.018   1.816
 4758SOL     OW15172   5.048   4.215   5.031
 4758SOL    HW115173   5.060   4.192   4.934
 4758SOL    HW215174   4.953   4.242   5.047
 4759SOL     OW15175   5.943   4.771   5.273
 4759SOL    HW115176   5.851   4.760   5.310
 4759SOL    HW215177   6.010   4.755   5.345
 4760SOL     OW15178   1.640   2.161   0.659
 4760SOL    HW115179   1.717   2.129   0.715
 4760SOL    HW215180   1.626   2.098   0.583
 4761SOL     OW15181   1.474   5.618   5.205
 4761SOL    HW115182   1.469   5.705   5.254
 4761SOL    HW215183   1.556   5.617   5.148
 4762SOL     OW15184   3.282   0.274   2.748
 4762SOL    HW115185   3.220   0.223   2.688
 4762SOL    HW215186   3.372   0.231   2.746
 4763SOL     OW15187   5.701   5.520   4.711
 4763SOL    HW115188   5.732   5.570   4.631
 4763SOL    HW215189   5.609   5.549   4.736
 4764SOL     OW15190   4.087   3.379   4.898
 4764SOL    HW115191   4.027   3.450   4.860
 4764SOL    HW215192   4.104   3.310   4.829
 4765SOL     OW15193   6.429   5.033   4.983
 4765SOL    HW115194   6.338   5.009   4.949
 4765SOL    HW215195   6.436   5.007   5.079
 4766SOL     OW15196   2.803   0.243   3.532
 4766SOL    HW115197   2.877   0.195   3.485
 4766SOL    HW215198   2.752   0.298   3.467
 4767SOL     OW15199   4.304   5.726   6.324
 4767SOL    HW115200   4.330   5.810   6.372
 4767SOL    HW215201   4.239   5.748   6.251
 4768SOL     OW15202   0.297   1.010   4.999
 4768SOL    HW115203   0.363   0.954   5.050
 4768SOL    HW215204   0.340   1.045   4.916
 4769SOL     OW15205   3.394   0.004   1.756
 4769SOL    HW115206   3.450   0.086   1.747
 4769SOL    HW215207   3.452   6.940   1.753
 4770SOL     OW15208   2.477   0.243   3.866
 4770SOL    HW115209   2.421   0.261   3.785
 4770SOL    HW215210   2.567   0.212   3.837
 4771SOL     OW15211   3.703   4.159   5.408
 4771SOL    HW115212   3.738   4.169   5.315
 4771SOL    HW215213   3.632   4.227   5.424
 4772SOL     OW15214   2.232   2.415   1.474
 4772SOL    HW115215   2.284   2.500   1.471
 4772SOL    HW215216   2.185   2.401   1.386
 4773SOL     OW15217   6.230   5.867   3.500
 4773SOL    HW115218   6.263   5.943   3.445
 4773SOL    HW215219   6.169   5.901   3.572
 4774SOL     OW15220   1.074   4.404   0.455
 4774SOL    HW115221   1.038   4.366   0.541
 4774SOL    HW215222   1.048   4.344   0.379
 4775SOL     OW15223   2.635   1.267   2.297
 4775SOL    HW115224   2.709   1.330   2.320
 4775SOL    HW215225   2.627   1.261   2.197
 4776SOL     OW15226   3.739   5.248   1.698
 4776SOL    HW115227   3.757   5.236   1.600
 4776SOL    HW215228   3.767   5.340   1.726
 4777SOL     OW15229   2.783   4.468   1.357
 4777SOL    HW115230   2.824   4.380   1.333
 4777SOL    HW215231   2.734   4.459   1.444
 4778SOL     OW15232   4.995   3.982   1.701
 4778SOL    HW115233   4.978   3.885   1.686
 4778SOL    HW215234   4.951   4.011   1.786
 4779SOL     OW15235   5.117   0.877   3.217
 4779SOL    HW115236   5.201   0.831   3.188
 4779SOL    HW215237   5.117   0.886   3.317
 4780SOL     OW15238   1.731   6.722   5.542
 4780SOL    HW115239   1.760   6.628   5.525
 4780SOL    HW215240   1.800   6.770   5.595
 4781SOL     OW15241   2.002   5.515   2.065
 4781SOL    HW115242   1.939   5.550   1.996
 4781SOL    HW215243   1.951   5.489   2.147
 4782SOL     OW15244   5.781   6.225   6.590
 4782SOL    HW115245   5.736   6.242   6.677
 4782SOL    HW215246   5.837   6.304   6.566
 4783SOL     OW15247   6.434   4.360   1.778
 4783SOL    HW115248   6.461   4.301   1.855
 4783SOL    HW215249   6.406   4.449   1.813
 4784SOL     OW15250   6.118   4.379   5.262
 4784SOL    HW115251   6.075   4.362   5.173
 4784SOL    HW215252   6.196   4.441   5.250
 4785SOL     OW15253   6.162   0.326   0.714
 4785SOL    HW115254   6.180   0.383   0.795
 4785SOL    HW215255   6.068   0.293   0.717
 4786SOL     OW15256   1.455   3.203   2.629
 4786SOL    HW115257   1.431   3.122   2.576
 4786SOL    HW215258   1.412   3.283   2.589
 4787SOL     OW15259   3.603   2.037   2.223
 4787SOL    HW115260   3.682   1.975   2.226
 4787SOL    HW215261   3.610   2.095   2.142
 4788SOL     OW15262   1.077   5.767   5.300
 4788SOL    HW115263   1.030   5.707   5.364
 4788SOL    HW215264   1.075   5.727   5.208
 4789SOL     OW15265   6.275   0.168   0.548
 4789SOL    HW115266   6.373   0.186   0.555
 4789SOL    HW215267   6.225   0.239   0.598
 4790SOL     OW15268   5.109   0.971   0.325
 4790SOL    HW115269   5.144   0.881   0.352
 4790SOL    HW215270   5.131   0.988   0.229
 4791SOL     OW15271   4.978   0.326   2.667
 4791SOL    HW115272   4.939   0.368   2.585
 4791SOL    HW215273   4.915   0.337   2.743
 4792SOL     OW15274   2.541   2.358   1.617
 4792SOL    HW115275   2.513   2.445   1.575
 4792SOL    HW215276   2.635   2.337   1.590
 4793SOL     OW15277   1.050   6.783   6.293
 4793SOL    HW115278   1.147   6.799   6.314
 4793SOL    HW215279   0.995   6.854   6.335
 4794SOL     OW15280   3.756   0.824   2.058
 4794SOL    HW115281   3.821   0.748   2.056
 4794SOL    HW215282   3.783   0.889   2.130
 4795SOL     OW15283   6.316   2.823   4.424
 4795SOL    HW115284   6.328   2.912   4.467
 4795SOL    HW215285   6.251   2.830   4.349
 4796SOL     OW15286   5.953   3.873   0.873
 4796SOL    HW115287   6.052   3.880   0.865
 4796SOL    HW215288   5.931   3.822   0.956
 4797SOL     OW15289   0.269   4.846   5.042
 4797SOL    HW115290   0.361   4.874   5.015
 4797SOL    HW215291   0.206   4.863   4.965
 4798SOL     OW15292   6.627   4.096   4.947
 4798SOL    HW115293   6.533   4.121   4.971
 4798SOL    HW215294   6.666   4.167   4.888
 4799SOL     OW15295   4.144   1.295   5.115
 4799SOL    HW115296   4.172   1.241   5.035
 4799SOL    HW215297   4.044   1.293   5.122
 4800SOL     OW15298   1.879   1.870   4.404
 4800SOL    HW115299   1.803   1.845   4.343
 4800SOL    HW215300   1.965   1.859   4.354
 4801SOL     OW15301   0.694   2.517   1.114
 4801SOL    HW115302   0.792   2.534   1.121
 4801SOL    HW215303   0.677   2.418   1.116
 4802SOL     OW15304   1.970   0.842   2.512
 4802SOL    HW115305   1.906   0.845   2.435
 4802SOL    HW215306   2.052   0.896   2.489
 4803SOL     OW15307   0.898   6.847   0.931
 4803SOL    HW115308   0.914   6.813   0.838
 4803SOL    HW215309   0.914   6.773   0.996
 4804SOL     OW15310   4.252   5.630   0.266
 4804SOL    HW115311   4.312   5.669   0.335
 4804SOL    HW215312   4.305   5.574   0.202
 4805SOL     OW15313   0.890   2.042   0.510
 4805SOL    HW115314   0.927   1.950   0.509
 4805SOL    HW215315   0.887   2.076   0.604
 4806SOL     OW15316   0.939   2.953   3.365
 4806SOL    HW115317   0.860   2.893   3.353
 4806SOL    HW215318   1.020   2.910   3.325
 4807SOL     OW15319   0.347   6.602   0.948
 4807SOL    HW115320   0.404   6.589   0.866
 4807SOL    HW215321   0.383   6.677   1.002
 4808SOL     OW15322   5.009   3.452   1.357
 4808SOL    HW115323   5.012   3.403   1.270
 4808SOL    HW215324   4.963   3.540   1.344
 4809SOL     OW15325   4.270   5.861   6.800
 4809SOL    HW115326   4.251   5.863   6.898
 4809SOL    HW215327   4.369   5.866   6.785
 4810SOL     OW15328   0.840   0.443   0.724
 4810SOL    HW115329   0.783   0.362   0.709
 4810SOL    HW215330   0.823   0.509   0.650
 4811SOL     OW15331   4.964   5.848   2.464
 4811SOL    HW115332   5.062   5.866   2.460
 4811SOL    HW215333   4.914   5.928   2.433
 4812SOL     OW15334   6.388   5.219   4.255
 4812SOL    HW115335   6.323   5.142   4.261
 4812SOL    HW215336   6.348   5.299   4.299
 4813SOL     OW15337   5.745   2.973   2.411
 4813SOL    HW115338   5.776   2.896   2.466
 4813SOL    HW215339   5.744   2.947   2.314
 4814SOL     OW15340   6.992   3.143   1.457
 4814SOL    HW115341   6.918   3.209   1.442
 4814SOL    HW215342   0.056   3.173   1.409
 4815SOL     OW15343   3.948   6.279   2.401
 4815SOL    HW115344   4.043   6.257   2.424
 4815SOL    HW215345   3.931   6.254   2.306
 4816SOL     OW15346   5.431   5.328   3.389
 4816SOL    HW115347   5.403   5.374   3.304
 4816SOL    HW215348   5.353   5.276   3.425
 4817SOL     OW15349   6.869   1.776   6.702
 4817SOL    HW115350   6.814   1.774   6.618
 4817SOL    HW215351   6.824   1.835   6.769
 4818SOL     OW15352   0.308   6.377   4.341
 4818SOL    HW115353   0.391   6.403   4.390
 4818SOL    HW215354   0.331   6.308   4.272
 4819SOL     OW15355   1.409   2.866   0.618
 4819SOL    HW115356   1.345   2.816   0.676
 4819SOL    HW215357   1.500   2.864   0.660
 4820SOL     OW15358   0.619   2.939   2.687
 4820SOL    HW115359   0.699   2.892   2.651
 4820SOL    HW215360   0.639   2.975   2.778
 4821SOL     OW15361   6.578   5.748   3.510
 4821SOL    HW115362   6.520   5.668   3.527
 4821SOL    HW215363   6.560   5.818   3.579
 4822SOL     OW15364   2.093   3.552   4.764
 4822SOL    HW115365   2.120   3.531   4.670
 4822SOL    HW215366   2.145   3.632   4.796
 4823SOL     OW15367   1.676   2.583   1.764
 4823SOL    HW115368   1.765   2.627   1.778
 4823SOL    HW215369   1.681   2.521   1.686
 4824SOL     OW15370   6.024   1.500   6.453
 4824SOL    HW115371   6.080   1.440   6.511
 4824SOL    HW215372   6.059   1.593   6.459
 4825SOL     OW15373   1.422   6.776   3.487
 4825SOL    HW115374   1.405   6.858   3.540
 4825SOL    HW215375   1.467   6.800   3.401
 4826SOL     OW15376   4.307   0.694   1.364
 4826SOL    HW115377   4.264   0.604   1.374
 4826SOL    HW215378   4.363   0.712   1.445
 4827SOL     OW15379   7.014   1.928   0.465
 4827SOL    HW115380   0.021   1.953   0.371
 4827SOL    HW215381   6.919   1.955   0.483
 4828SOL     OW15382   5.051   1.063   4.387
 4828SOL    HW115383   5.145   1.046   4.415
 4828SOL    HW215384   5.011   1.134   4.446
 4829SOL     OW15385   4.107   6.910   4.993
 4829SOL    HW115386   4.046   6.893   5.070
 4829SOL    HW215387   4.094   7.005   4.962
 4830SOL     OW15388   2.650   6.043   3.083
 4830SOL    HW115389   2.741   6.085   3.092
 4830SOL    HW215390   2.585   6.095   3.138
 4831SOL     OW15391   3.126   4.583   5.333
 4831SOL    HW115392   3.050   4.551   5.277
 4831SOL    HW215393   3.124   4.535   5.421
 4832SOL     OW15394   3.544   3.536   4.349
 4832SOL    HW115395   3.559   3.531   4.250
 4832SOL    HW215396   3.603   3.470   4.395
 4833SOL     OW15397   6.274   3.369   4.585
 4833SOL    HW115398   6.224   3.391   4.502
 4833SOL    HW215399   6.355   3.427   4.592
 4834SOL     OW15400   1.076   4.826   1.177
 4834SOL    HW115401   1.068   4.727   1.165
 4834SOL    HW215402   1.094   4.848   1.273
 4835SOL     OW15403   6.901   2.630   5.830
 4835SOL    HW115404   6.903   2.535   5.797
 4835SOL    HW215405   6.979   2.680   5.791
 4836SOL     OW15406   4.826   1.636   5.836
 4836SOL    HW115407   4.819   1.668   5.742
 4836SOL    HW215408   4.919   1.654   5.870
 4837SOL     OW15409   0.144   3.879   3.874
 4837SOL    HW115410   0.140   3.806   3.943
 4837SOL    HW215411   0.070   3.944   3.889
 4838SOL     OW15412   2.365   3.743   5.740
 4838SOL    HW115413   2.271   3.777   5.733
 4838SOL    HW215414   2.378   3.668   5.675
 4839SOL     OW15415   2.459   1.460   0.757
 4839SOL    HW115416   2.483   1.403   0.835
 4839SOL    HW215417   2.369   1.434   0.723
 4840SOL     OW15418   6.073   3.879   4.368
 4840SOL    HW115419   6.168   3.850   4.359
 4840SOL    HW215420   6.017   3.801   4.397
 4841SOL     OW15421   3.123   6.335   3.392
 4841SOL    HW115422   3.127   6.345   3.491
 4841SOL    HW215423   3.189   6.397   3.349
 4842SOL     OW15424   3.604   5.487   2.936
 4842SOL    HW115425   3.543   5.442   2.871
 4842SOL    HW215426   3.664   5.419   2.978
 4843SOL     OW15427   7.002   1.336   0.062
 4843SOL    HW115428   6.905   1.351   0.044
 4843SOL    HW215429   0.039   1.376   7.006
 4844SOL     OW15430   2.024   5.757   5.210
 4844SOL    HW115431   2.049   5.768   5.114
 4844SOL    HW215432   2.053   5.667   5.242
 4845SOL     OW15433   4.899   3.518   4.753
 4845SOL    HW115434   4.855   3.434   4.721
 4845SOL    HW215435   4.869   3.538   4.847
 4846SOL     OW15436   6.490   3.542   4.596
 4846SOL    HW115437   6.486   3.636   4.632
 4846SOL    HW215438   6.573   3.497   4.629
 4847SOL     OW15439   2.768   6.263   6.372
 4847SOL    HW115440   2.713   6.346   6.364
 4847SOL    HW215441   2.784   6.224   6.281
 4848SOL     OW15442   4.523   0.931   4.201
 4848SOL    HW115443   4.612   0.976   4.189
 4848SOL    HW215444   4.523   0.843   4.153
 4849SOL     OW15445   2.391   6.272   1.386
 4849SOL    HW115446   2.452   6.208   1.432
 4849SOL    HW215447   2.388   6.358   1.437
 4850SOL     OW15448   4.007   0.210   0.906
 4850SOL    HW115449   4.007   0.264   0.822
 4850SOL    HW215450   3.983   0.269   0.984
 4851SOL     OW15451   3.462   4.339   6.390
 4851SOL    HW115452   3.402   4.270   6.432
 4851SOL    HW215453   3.418   4.429   6.395
 4852SOL     OW15454   5.803   4.831   5.543
 4852SOL    HW115455   5.729   4.780   5.586
 4852SOL    HW215456   5.883   4.832   5.603
 4853SOL     OW15457   4.196   6.861   2.709
 4853SOL    HW115458   4.286   6.871   2.667
 4853SOL    HW215459   4.138   6.804   2.650
 4854SOL     OW15460   4.903   6.360   2.185
 4854SOL    HW115461   4.944   6.419   2.255
 4854SOL    HW215462   4.904   6.406   2.097
 4855SOL     OW15463   4.810   4.971   6.049
 4855SOL    HW115464   4.864   4.915   5.985
 4855SOL    HW215465   4.797   4.921   6.135
 4856SOL     OW15466   0.442   3.978   2.963
 4856SOL    HW115467   0.461   4.023   2.876
 4856SOL    HW215468   0.518   3.919   2.988
 4857SOL     OW15469   2.176   2.485   5.334
 4857SOL    HW115470   2.151   2.521   5.424
 4857SOL    HW215471   2.274   2.469   5.331
 4858SOL     OW15472   1.481   6.130   4.432
 4858SOL    HW115473   1.381   6.139   4.428
 4858SOL    HW215474   1.507   6.080   4.515
 4859SOL     OW15475   6.817   6.090   2.989
 4859SOL    HW115476   6.777   6.174   3.025
 4859SOL    HW215477   6.897   6.112   2.934
 4860SOL     OW15478   4.262   5.471   1.964
 4860SOL    HW115479   4.326   5.410   2.013
 4860SOL    HW215480   4.307   5.559   1.949
 4861SOL     OW15481   0.370   4.147   5.889
 4861SOL    HW115482   0.442   4.125   5.824
 4861SOL    HW215483   0.357   4.246   5.893
 4862SOL     OW15484   1.998   5.917   4.307
 4862SOL    HW115485   1.917   5.887   4.359
 4862SOL    HW215486   2.080   5.877   4.349
 4863SOL     OW15487   5.626   2.187   2.593
 4863SOL    HW115488   5.683   2.110   2.623
 4863SOL    HW215489   5.541   2.152   2.553
 4864SOL     OW15490   2.052   1.465   0.947
 4864SOL    HW115491   2.097   1.527   1.012
 4864SOL    HW215492   1.953   1.480   0.950
 4865SOL     OW15493   3.551   5.715   4.827
 4865SOL    HW115494   3.585   5.665   4.748
 4865SOL    HW215495   3.493   5.791   4.796
 4866SOL     OW15496   0.484   4.697   1.954
 4866SOL    HW115497   0.495   4.600   1.977
 4866SOL    HW215498   0.526   4.716   1.866
 4867SOL     OW15499   5.298   4.865   3.859
 4867SOL    HW115500   5.288   4.950   3.807
 4867SOL    HW215501   5.220   4.805   3.841
 4868SOL     OW15502   1.607   6.586   1.304
 4868SOL    HW115503   1.586   6.582   1.402
 4868SOL    HW215504   1.532   6.544   1.253
 4869SOL     OW15505   6.279   1.619   1.053
 4869SOL    HW115506   6.348   1.655   1.117
 4869SOL    HW215507   6.215   1.561   1.103
 4870SOL     OW15508   6.856   0.174   0.737
 4870SOL    HW115509   6.904   0.144   0.655
 4870SOL    HW215510   6.829   0.095   0.791
 4871SOL     OW15511   1.304   3.343   4.557
 4871SOL    HW115512   1.328   3.305   4.646
 4871SOL    HW215513   1.328   3.440   4.555
 4872SOL     OW15514   0.830   0.343   4.346
 4872SOL    HW115515   0.833   0.283   4.266
 4872SOL    HW215516   0.916   0.393   4.354
 4873SOL     OW15517   1.138   6.359   4.974
 4873SOL    HW115518   1.095   6.330   5.060
 4873SOL    HW215519   1.236   6.342   4.979
 4874SOL     OW15520   5.423   2.890   3.868
 4874SOL    HW115521   5.381   2.975   3.836
 4874SOL    HW215522   5.487   2.910   3.942
 4875SOL     OW15523   6.063   2.954   6.263
 4875SOL    HW115524   5.987   3.005   6.306
 4875SOL    HW215525   6.038   2.857   6.258
 4876SOL     OW15526   0.039   1.614   6.983
 4876SOL    HW115527   6.992   1.657   0.028
 4876SOL    HW215528   0.129   1.609   0.008
 4877SOL     OW15529   6.176   1.264   1.301
 4877SOL    HW115530   6.155   1.278   1.397
 4877SOL    HW215531   6.265   1.304   1.280
 4878SOL     OW15532   0.130   2.915   1.851
 4878SOL    HW115533   0.076   2.927   1.935
 4878SOL    HW215534   0.130   3.001   1.799
 4879SOL     OW15535   4.609   5.843   3.238
 4879SOL    HW115536   4.659   5.914   3.187
 4879SOL    HW215537   4.602   5.870   3.333
 4880SOL     OW15538   5.972   2.331   6.221
 4880SOL    HW115539   6.061   2.294   6.248
 4880SOL    HW215540   5.918   2.351   6.303
 4881SOL     OW15541   3.009   5.429   6.993
 4881SOL    HW115542   2.982   5.458   6.901
 4881SOL    HW215543   3.106   5.447   7.006
 4882SOL     OW15544   4.696   6.843   6.750
 4882SOL    HW115545   4.640   6.868   6.671
 4882SOL    HW215546   4.728   6.926   6.795
 4883SOL     OW15547   6.268   5.546   0.617
 4883SOL    HW115548   6.254   5.447   0.610
 4883SOL    HW215549   6.362   5.568   0.591
 4884SOL     OW15550   3.660   6.436   1.957
 4884SOL    HW115551   3.652   6.485   1.870
 4884SOL    HW215552   3.607   6.483   2.027
 4885SOL     OW15553   1.999   6.988   2.832
 4885SOL    HW115554   2.043   0.059   2.818
 4885SOL    HW215555   2.068   6.916   2.834
 4886SOL     OW15556   6.094   0.978   6.113
 4886SOL    HW115557   6.068   0.888   6.148
 4886SOL    HW215558   6.012   1.036   6.109
 4887SOL     OW15559   0.477   1.624   5.669
 4887SOL    HW115560   0.539   1.688   5.623
 4887SOL    HW215561   0.484   1.636   5.768
 4888SOL     OW15562   3.118   5.583   2.011
 4888SOL    HW115563   3.211   5.591   2.047
 4888SOL    HW215564   3.093   5.487   2.006
 4889SOL     OW15565   1.405   2.962   6.480
 4889SOL    HW115566   1.446   2.901   6.547
 4889SOL    HW215567   1.321   2.921   6.444
 4890SOL     OW15568   1.175   0.260   4.424
 4890SOL    HW115569   1.191   0.182   4.363
 4890SOL    HW215570   1.258   0.278   4.477
 4891SOL     OW15571   1.870   3.509   0.954
 4891SOL    HW115572   1.910   3.420   0.932
 4891SOL    HW215573   1.943   3.577   0.960
 4892SOL     OW15574   1.464   5.619   1.579
 4892SOL    HW115575   1.506   5.696   1.626
 4892SOL    HW215576   1.495   5.617   1.484
 4893SOL     OW15577   1.088   3.352   6.056
 4893SOL    HW115578   0.988   3.349   6.053
 4893SOL    HW215579   1.123   3.263   6.086
 4894SOL     OW15580   1.677   1.003   3.132
 4894SOL    HW115581   1.590   0.960   3.157
 4894SOL    HW215582   1.672   1.101   3.150
 4895SOL     OW15583   5.685   4.352   0.141
 4895SOL    HW115584   5.631   4.277   0.178
 4895SOL    HW215585   5.714   4.329   0.048
 4896SOL     OW15586   4.360   5.758   3.112
 4896SOL    HW115587   4.316   5.802   3.191
 4896SOL    HW215588   4.458   5.779   3.112
 4897SOL     OW15589   3.105   5.775   6.172
 4897SOL    HW115590   3.158   5.696   6.142
 4897SOL    HW215591   3.167   5.847   6.204
 4898SOL     OW15592   6.170   2.459   4.861
 4898SOL    HW115593   6.253   2.469   4.915
 4898SOL    HW215594   6.194   2.452   4.764
 4899SOL     OW15595   5.045   4.498   4.370
 4899SOL    HW115596   4.956   4.475   4.410
 4899SOL    HW215597   5.098   4.550   4.436
 4900SOL     OW15598   0.570   6.645   5.430
 4900SOL    HW115599   0.589   6.703   5.350
 4900SOL    HW215600   0.507   6.573   5.404
 4901SOL     OW15601   0.211   6.945   3.215
 4901SOL    HW115602   0.214   0.011   3.160
 4901SOL    HW215603   0.301   6.928   3.254
 4902SOL     OW15604   3.111   4.960   1.921
 4902SOL    HW115605   3.040   4.934   1.855
 4902SOL    HW215606   3.085   4.930   2.013
 4903SOL     OW15607   5.560   5.953   5.756
 4903SOL    HW115608   5.631   5.996   5.701
 4903SOL    HW215609   5.590   5.863   5.785
 4904SOL     OW15610   3.430   5.975   3.435
 4904SOL    HW115611   3.508   6.025   3.397
 4904SOL    HW215612   3.346   6.008   3.393
 4905SOL     OW15613   6.552   3.592   3.377
 4905SOL    HW115614   6.452   3.589   3.375
 4905SOL    HW215615   6.588   3.505   3.342
 4906SOL     OW15616   5.155   0.601   1.307
 4906SOL    HW115617   5.130   0.574   1.214
 4906SOL    HW215618   5.080   0.654   1.347
 4907SOL     OW15619   2.363   1.853   2.542
 4907SOL    HW115620   2.339   1.941   2.501
 4907SOL    HW215621   2.366   1.862   2.641
 4908SOL     OW15622   3.903   5.196   0.405
 4908SOL    HW115623   3.944   5.285   0.385
 4908SOL    HW215624   3.803   5.206   0.410
 4909SOL     OW15625   5.828   0.148   5.717
 4909SOL    HW115626   5.781   0.220   5.665
 4909SOL    HW215627   5.927   0.158   5.707
 4910SOL     OW15628   5.926   6.984   6.580
 4910SOL    HW115629   5.952   0.014   6.664
 4910SOL    HW215630   5.991   7.005   6.507
 4911SOL     OW15631   0.914   3.000   6.154
 4911SOL    HW115632   0.874   3.048   6.076
 4911SOL    HW215633   0.847   2.934   6.190
 4912SOL     OW15634   2.529   2.384   2.210
 4912SOL    HW115635   2.559   2.361   2.117
 4912SOL    HW215636   2.571   2.321   2.275
 4913SOL     OW15637   2.935   3.561   2.387
 4913SOL    HW115638   2.872   3.545   2.310
 4913SOL    HW215639   2.981   3.475   2.411
 4914SOL     OW15640   1.621   6.284   2.334
 4914SOL    HW115641   1.548   6.222   2.363
 4914SOL    HW215642   1.658   6.253   2.246
 4915SOL     OW15643   2.995   6.032   3.107
 4915SOL    HW115644   3.043   6.120   3.110
 4915SOL    HW215645   2.976   6.007   3.012
 4916SOL     OW15646   1.811   1.541   2.394
 4916SOL    HW115647   1.816   1.599   2.475
 4916SOL    HW215648   1.721   1.498   2.389
 4917SOL     OW15649   2.273   5.315   6.428
 4917SOL    HW115650   2.234   5.223   6.431
 4917SOL    HW215651   2.336   5.327   6.504
 4918SOL     OW15652   2.079   0.367   3.787
 4918SOL    HW115653   1.984   0.338   3.789
 4918SOL    HW215654   2.107   0.397   3.879
 4919SOL     OW15655   2.605   3.104   1.554
 4919SOL    HW115656   2.551   3.173   1.603
 4919SOL    HW215657   2.552   3.068   1.477
 4920SOL     OW15658   4.175   0.797   0.595
 4920SOL    HW115659   4.124   0.883   0.584
 4920SOL    HW215660   4.136   0.746   0.671
 4921SOL     OW15661   1.500   4.153   1.938
 4921SOL    HW115662   1.431   4.221   1.964
 4921SOL    HW215663   1.584   4.200   1.910
 4922SOL     OW15664   0.777   2.808   5.597
 4922SOL    HW115665   0.848   2.738   5.602
 4922SOL    HW215666   0.736   2.807   5.506
 4923SOL     OW15667   3.231   2.050   0.749
 4923SOL    HW115668   3.136   2.080   0.736
 4923SOL    HW215669   3.233   1.951   0.758
 4924SOL     OW15670   0.246   3.934   4.488
 4924SOL    HW115671   0.268   3.868   4.415
 4924SOL    HW215672   0.300   3.914   4.569
 4925SOL     OW15673   4.539   5.632   6.190
 4925SOL    HW115674   4.464   5.659   6.250
 4925SOL    HW215675   4.579   5.546   6.223
 4926SOL     OW15676   3.813   2.824   1.503
 4926SOL    HW115677   3.742   2.783   1.446
 4926SOL    HW215678   3.860   2.752   1.554
 4927SOL     OW15679   4.004   3.823   3.046
 4927SOL    HW115680   3.923   3.882   3.050
 4927SOL    HW215681   4.079   3.865   3.097
 4928SOL     OW15682   0.731   6.114   0.577
 4928SOL    HW115683   0.652   6.133   0.636
 4928SOL    HW215684   0.806   6.177   0.601
 4929SOL     OW15685   0.582   5.170   4.231
 4929SOL    HW115686   0.501   5.113   4.246
 4929SOL    HW215687   0.565   5.262   4.267
 4930SOL     OW15688   0.334   2.418   0.462
 4930SOL    HW115689   0.388   2.422   0.546
 4930SOL    HW215690   0.354   2.498   0.406
 4931SOL     OW15691   6.583   0.133   1.026
 4931SOL    HW115692   6.623   0.045   1.002
 4931SOL    HW215693   6.655   0.197   1.054
 4932SOL     OW15694   4.192   2.089   1.209
 4932SOL    HW115695   4.131   2.010   1.223
 4932SOL    HW215696   4.198   2.141   1.294
 4933SOL     OW15697   2.912   1.026   5.052
 4933SOL    HW115698   2.952   1.021   5.144
 4933SOL    HW215699   2.813   1.041   5.060
 4934SOL     OW15700   1.762   5.618   5.180
 4934SOL    HW115701   1.768   5.716   5.199
 4934SOL    HW215702   1.841   5.571   5.220
 4935SOL     OW15703   1.526   1.138   0.418
 4935SOL    HW115704   1.567   1.197   0.488
 4935SOL    HW215705   1.552   1.043   0.434
 4936SOL     OW15706   4.543   5.779   1.336
 4936SOL    HW115707   4.569   5.870   1.302
 4936SOL    HW215708   4.495   5.789   1.424
 4937SOL     OW15709   1.055   3.076   5.381
 4937SOL    HW115710   1.048   3.158   5.325
 4937SOL    HW215711   1.019   3.095   5.472
 4938SOL     OW15712   3.354   4.824   1.735
 4938SOL    HW115713   3.284   4.867   1.792
 4938SOL    HW215714   3.420   4.777   1.794
 4939SOL     OW15715   0.782   1.499   1.718
 4939SOL    HW115716   0.775   1.470   1.813
 4939SOL    HW215717   0.878   1.492   1.688
 4940SOL     OW15718   0.284   1.458   5.319
 4940SOL    HW115719   0.362   1.412   5.276
 4940SOL    HW215720   0.279   1.431   5.415
 4941SOL     OW15721   4.146   2.656   5.684
 4941SOL    HW115722   4.237   2.689   5.711
 4941SOL    HW215723   4.114   2.589   5.751
 4942SOL     OW15724   0.590   1.384   3.316
 4942SOL    HW115725   0.604   1.483   3.305
 4942SOL    HW215726   0.494   1.367   3.340
 4943SOL     OW15727   5.441   2.643   6.987
 4943SOL    HW115728   5.357   2.622   6.938
 4943SOL    HW215729   5.452   2.579   0.046
 4944SOL     OW15730   0.962   5.679   6.925
 4944SOL    HW115731   0.943   5.736   6.845
 4944SOL    HW215732   0.883   5.621   6.943
 4945SOL     OW15733   2.168   0.767   5.535
 4945SOL    HW115734   2.108   0.832   5.489
 4945SOL    HW215735   2.245   0.743   5.475
 4946SOL     OW15736   2.723   5.348   0.202
 4946SOL    HW115737   2.823   5.346   0.197
 4946SOL    HW215738   2.694   5.389   0.288
 4947SOL     OW15739   1.259   0.593   0.939
 4947SOL    HW115740   1.171   0.547   0.955
 4947SOL    HW215741   1.317   0.534   0.883
 4948SOL     OW15742   1.900   2.183   1.845
 4948SOL    HW115743   1.953   2.262   1.814
 4948SOL    HW215744   1.807   2.212   1.867
 4949SOL     OW15745   0.103   4.513   6.241
 4949SOL    HW115746   0.027   4.536   6.301
 4949SOL    HW215747   0.122   4.590   6.180
 4950SOL     OW15748   3.381   4.431   5.791
 4950SOL    HW115749   3.424   4.377   5.719
 4950SOL    HW215750   3.357   4.371   5.868
 4951SOL     OW15751   4.922   5.598   2.863
 4951SOL    HW115752   4.854   5.655   2.817
 4951SOL    HW215753   4.985   5.560   2.795
 4952SOL     OW15754   0.483   6.987   6.437
 4952SOL    HW115755   0.537   6.919   6.386
 4952SOL    HW215756   0.544   0.040   6.471
 4953SOL     OW15757   1.178   2.470   4.947
 4953SOL    HW115758   1.233   2.510   4.875
 4953SOL    HW215759   1.157   2.539   5.016
 4954SOL     OW15760   3.070   3.620   4.850
 4954SOL    HW115761   3.050   3.538   4.796
 4954SOL    HW215762   3.168   3.624   4.869
 4955SOL     OW15763   4.165   5.530   5.868
 4955SOL    HW115764   4.241   5.469   5.885
 4955SOL    HW215765   4.108   5.493   5.794
 4956SOL     OW15766   3.056   0.191   5.213
 4956SOL    HW115767   3.105   0.201   5.299
 4956SOL    HW215768   3.093   0.113   5.162
 4957SOL     OW15769   5.848   4.568   6.685
 4957SOL    HW115770   5.796   4.652   6.674
 4957SOL    HW215771   5.795   4.502   6.738
 4958SOL     OW15772   4.183   5.929   0.530
 4958SOL    HW115773   4.213   6.006   0.587
 4958SOL    HW215774   4.084   5.918   0.538
 4959SOL     OW15775   0.281   2.429   2.852
 4959SOL    HW115776   0.238   2.355   2.800
 4959SOL    HW215777   0.264   2.415   2.949
 4960SOL     OW15778   5.083   4.903   3.506
 4960SOL    HW115779   5.028   4.977   3.546
 4960SOL    HW215780   5.180   4.923   3.519
 4961SOL     OW15781   3.175   2.095   1.319
 4961SOL    HW115782   3.200   2.075   1.414
 4961SOL    HW215783   3.221   2.032   1.258
 4962SOL     OW15784   1.025   4.071   0.752
 4962SOL    HW115785   1.125   4.059   0.754
 4962SOL    HW215786   0.999   4.115   0.666
 4963SOL     OW15787   0.473   3.893   6.460
 4963SOL    HW115788   0.571   3.870   6.463
 4963SOL    HW215789   0.456   3.953   6.382
 4964SOL     OW15790   2.403   6.668   4.481
 4964SOL    HW115791   2.343   6.591   4.502
 4964SOL    HW215792   2.350   6.753   4.484
 4965SOL     OW15793   1.293   6.043   2.938
 4965SOL    HW115794   1.302   6.130   2.891
 4965SOL    HW215795   1.203   6.003   2.916
 4966SOL     OW15796   3.264   6.507   4.101
 4966SOL    HW115797   3.210   6.457   4.169
 4966SOL    HW215798   3.223   6.597   4.087
 4967SOL     OW15799   4.269   4.747   4.779
 4967SOL    HW115800   4.175   4.779   4.792
 4967SOL    HW215801   4.297   4.693   4.858
 4968SOL     OW15802   0.036   2.781   3.336
 4968SOL    HW115803   0.130   2.749   3.339
 4968SOL    HW215804   7.004   2.748   3.417
 4969SOL     OW15805   0.135   5.784   4.234
 4969SOL    HW115806   0.156   5.762   4.329
 4969SOL    HW215807   0.153   5.881   4.218
 4970SOL     OW15808   1.340   1.728   1.076
 4970SOL    HW115809   1.439   1.736   1.064
 4970SOL    HW215810   1.295   1.812   1.043
 4971SOL     OW15811   0.128   5.995   2.442
 4971SOL    HW115812   0.032   5.984   2.468
 4971SOL    HW215813   0.185   5.992   2.524
 4972SOL     OW15814   0.590   4.505   0.635
 4972SOL    HW115815   0.508   4.560   0.649
 4972SOL    HW215816   0.654   4.555   0.576
 4973SOL     OW15817   6.279   1.259   0.895
 4973SOL    HW115818   6.328   1.344   0.878
 4973SOL    HW215819   6.326   1.208   0.968
 4974SOL     OW15820   3.652   6.620   5.079
 4974SOL    HW115821   3.748   6.601   5.063
 4974SOL    HW215822   3.641   6.667   5.167
 4975SOL     OW15823   5.144   4.922   0.954
 4975SOL    HW115824   5.210   4.888   1.021
 4975SOL    HW215825   5.097   4.844   0.912
 4976SOL     OW15826   1.636   7.001   3.405
 4976SOL    HW115827   1.628   0.046   3.328
 4976SOL    HW215828   1.700   0.020   3.471
 4977SOL     OW15829   1.193   4.360   5.704
 4977SOL    HW115830   1.149   4.343   5.616
 4977SOL    HW215831   1.291   4.345   5.695
 4978SOL     OW15832   5.684   4.420   4.390
 4978SOL    HW115833   5.635   4.374   4.464
 4978SOL    HW215834   5.660   4.517   4.388
 4979SOL     OW15835   2.528   6.676   5.982
 4979SOL    HW115836   2.578   6.613   6.043
 4979SOL    HW215837   2.450   6.714   6.032
 4980SOL     OW15838   5.300   3.121   3.858
 4980SOL    HW115839   5.221   3.181   3.852
 4980SOL    HW215840   5.329   3.113   3.954
 4981SOL     OW15841   2.940   4.795   2.621
 4981SOL    HW115842   2.992   4.855   2.681
 4981SOL    HW215843   2.847   4.783   2.658
 4982SOL     OW15844   3.749   1.894   5.677
 4982SOL    HW115845   3.757   1.803   5.718
 4982SOL    HW215846   3.661   1.934   5.702
 4983SOL     OW15847   5.803   5.535   2.975
 4983SOL    HW115848   5.815   5.562   3.070
 4983SOL    HW215849   5.890   5.545   2.926
 4984SOL     OW15850   4.889   3.632   3.667
 4984SOL    HW115851   4.901   3.726   3.700
 4984SOL    HW215852   4.792   3.611   3.658
 4985SOL     OW15853   5.793   0.561   2.357
 4985SOL    HW115854   5.725   0.494   2.387
 4985SOL    HW215855   5.880   0.514   2.343
 4986SOL     OW15856   0.866   4.768   1.543
 4986SOL    HW115857   0.965   4.779   1.529
 4986SOL    HW215858   0.817   4.830   1.482
 4987SOL     OW15859   0.628   1.328   2.176
 4987SOL    HW115860   0.637   1.241   2.224
 4987SOL    HW215861   0.584   1.395   2.237
 4988SOL     OW15862   6.362   5.833   3.839
 4988SOL    HW115863   6.403   5.744   3.820
 4988SOL    HW215864   6.278   5.844   3.785
 4989SOL     OW15865   4.643   0.459   3.499
 4989SOL    HW115866   4.593   0.378   3.469
 4989SOL    HW215867   4.738   0.453   3.469
 4990SOL     OW15868   4.558   2.486   5.303
 4990SOL    HW115869   4.474   2.432   5.300
 4990SOL    HW215870   4.564   2.534   5.390
 4991SOL     OW15871   1.213   4.563   5.882
 4991SOL    HW115872   1.189   4.502   5.807
 4991SOL    HW215873   1.286   4.522   5.936
 4992SOL     OW15874   0.843   3.340   3.687
 4992SOL    HW115875   0.772   3.302   3.628
 4992SOL    HW215876   0.805   3.419   3.737
 4993SOL     OW15877   2.844   6.349   3.762
 4993SOL    HW115878   2.843   6.302   3.675
 4993SOL    HW215879   2.880   6.288   3.833
 4994SOL     OW15880   3.372   4.915   5.455
 4994SOL    HW115881   3.460   4.877   5.482
 4994SOL    HW215882   3.384   5.011   5.427
 4995SOL     OW15883   0.224   0.866   6.132
 4995SOL    HW115884   0.168   0.783   6.125
 4995SOL    HW215885   0.265   0.886   6.043
 4996SOL     OW15886   0.162   1.468   3.971
 4996SOL    HW115887   0.230   1.538   3.949
 4996SOL    HW215888   0.209   1.382   3.993
 4997SOL     OW15889   4.260   1.764   1.605
 4997SOL    HW115890   4.282   1.845   1.551
 4997SOL    HW215891   4.222   1.792   1.693
 4998SOL     OW15892   1.003   3.668   3.293
 4998SOL    HW115893   1.076   3.676   3.361
 4998SOL    HW215894   0.949   3.752   3.291
 4999SOL     OW15895   0.620   2.989   4.409
 4999SOL    HW115896   0.704   3.028   4.371
 4999SOL    HW215897   0.616   2.891   4.388
 5000SOL     OW15898   3.096   5.788   2.883
 5000SOL    HW115899   3.180   5.740   2.908
 5000SOL    HW215900   3.018   5.744   2.927
 5001SOL     OW15901   0.413   6.206   3.449
 5001SOL    HW115902   0.504   6.171   3.430
 5001SOL    HW215903   0.394   6.202   3.547
 5002SOL     OW15904   1.473   4.083   3.814
 5002SOL    HW115905   1.512   4.155   3.871
 5002SOL    HW215906   1.381   4.062   3.846
 5003SOL     OW15907   4.520   0.747   3.512
 5003SOL    HW115908   4.442   0.692   3.482
 5003SOL    HW215909   4.493   0.804   3.590
 5004SOL     OW15910   3.296   5.457   0.026
 5004SOL    HW115911   3.272   5.522   0.097
 5004SOL    HW215912   3.395   5.451   0.018
 5005SOL     OW15913   2.914   2.851   0.158
 5005SOL    HW115914   2.899   2.850   0.257
 5005SOL    HW215915   2.916   2.758   0.124
 5006SOL     OW15916   4.771   1.796   1.815
 5006SOL    HW115917   4.704   1.859   1.777
 5006SOL    HW215918   4.801   1.830   1.904
 5007SOL     OW15919   5.769   6.478   2.037
 5007SOL    HW115920   5.779   6.523   1.949
 5007SOL    HW215921   5.843   6.413   2.051
 5008SOL     OW15922   5.415   7.015   2.413
 5008SOL    HW115923   5.395   6.978   2.322
 5008SOL    HW215924   5.511   6.998   2.436
 5009SOL     OW15925   6.611   2.368   0.415
 5009SOL    HW115926   6.586   2.275   0.389
 5009SOL    HW215927   6.631   2.371   0.513
 5010SOL     OW15928   3.376   3.635   1.344
 5010SOL    HW115929   3.429   3.699   1.399
 5010SOL    HW215930   3.394   3.651   1.247
 5011SOL     OW15931   2.128   2.989   6.826
 5011SOL    HW115932   2.176   2.914   6.873
 5011SOL    HW215933   2.192   3.065   6.812
 5012SOL     OW15934   6.238   1.835   6.208
 5012SOL    HW115935   6.152   1.870   6.170
 5012SOL    HW215936   6.279   1.771   6.144
 5013SOL     OW15937   5.880   6.964   5.907
 5013SOL    HW115938   5.845   0.036   5.881
 5013SOL    HW215939   5.920   6.919   5.827
 5014SOL     OW15940   6.044   3.315   1.704
 5014SOL    HW115941   6.057   3.384   1.633
 5014SOL    HW215942   6.133   3.284   1.736
 5015SOL     OW15943   5.555   6.943   4.084
 5015SOL    HW115944   5.576   0.022   4.102
 5015SOL    HW215945   5.550   6.893   4.170
 5016SOL     OW15946   2.066   3.404   5.886
 5016SOL    HW115947   2.130   3.435   5.816
 5016SOL    HW215948   2.016   3.482   5.923
 5017SOL     OW15949   0.708   3.235   2.191
 5017SOL    HW115950   0.659   3.148   2.193
 5017SOL    HW215951   0.642   3.310   2.194
 5018SOL     OW15952   1.325   0.123   0.273
 5018SOL    HW115953   1.257   0.085   0.212
 5018SOL    HW215954   1.287   0.204   0.320
 5019SOL     OW15955   1.647   5.187   4.763
 5019SOL    HW115956   1.731   5.139   4.788
 5019SOL    HW215957   1.661   5.286   4.773
 5020SOL     OW15958   2.494   0.035   4.231
 5020SOL    HW115959   2.556   0.040   4.153
 5020SOL    HW215960   2.528   6.985   4.297
 5021SOL     OW15961   2.130   0.828   0.377
 5021SOL    HW115962   2.210   0.883   0.401
 5021SOL    HW215963   2.050   0.888   0.368
 5022SOL     OW15964   6.528   3.033   1.355
 5022SOL    HW115965   6.582   2.949   1.352
 5022SOL    HW215966   6.546   3.080   1.441
 5023SOL     OW15967   6.795   4.183   2.303
 5023SOL    HW115968   6.817   4.217   2.395
 5023SOL    HW215969   6.853   4.105   2.281
 5024SOL     OW15970   4.054   3.566   1.182
 5024SOL    HW115971   4.024   3.587   1.275
 5024SOL    HW215972   4.007   3.484   1.149
 5025SOL     OW15973   4.322   1.129   4.236
 5025SOL    HW115974   4.396   1.062   4.233
 5025SOL    HW215975   4.349   1.211   4.185
 5026SOL     OW15976   4.085   6.748   4.740
 5026SOL    HW115977   4.115   6.821   4.678
 5026SOL    HW215978   4.075   6.786   4.832
 5027SOL     OW15979   5.334   6.691   0.185
 5027SOL    HW115980   5.254   6.672   0.128
 5027SOL    HW215981   5.416   6.693   0.128
 5028SOL     OW15982   6.093   1.928   2.571
 5028SOL    HW115983   6.164   1.990   2.538
 5028SOL    HW215984   6.075   1.947   2.668
 5029SOL     OW15985   5.809   2.079   2.822
 5029SOL    HW115986   5.798   2.088   2.921
 5029SOL    HW215987   5.906   2.092   2.799
 5030SOL     OW15988   0.150   4.339   6.560
 5030SOL    HW115989   0.079   4.309   6.497
 5030SOL    HW215990   0.196   4.259   6.599
 5031SOL     OW15991   6.523   6.659   6.140
 5031SOL    HW115992   6.436   6.610   6.134
 5031SOL    HW215993   6.555   6.658   6.235
 5032SOL     OW15994   2.543   3.379   5.345
 5032SOL    HW115995   2.604   3.458   5.336
 5032SOL    HW215996   2.595   3.295   5.334
 5033SOL     OW15997   2.201   0.542   6.840
 5033SOL    HW115998   2.207   0.634   6.803
 5033SOL    HW215999   2.163   0.545   6.932
 5034SOL     OW16000   4.414   6.498   4.552
 5034SOL    HW116001   4.458   6.561   4.489
 5034SOL    HW216002   4.449   6.513   4.644
 5035SOL     OW16003   1.851   3.405   3.871
 5035SOL    HW116004   1.764   3.389   3.918
 5035SOL    HW216005   1.836   3.467   3.795
 5036SOL     OW16006   6.820   2.204   5.496
 5036SOL    HW116007   6.919   2.210   5.495
 5036SOL    HW216008   6.780   2.293   5.472
 5037SOL     OW16009   4.432   4.010   1.240
 5037SOL    HW116010   4.486   4.040   1.318
 5037SOL    HW216011   4.349   3.965   1.272
 5038SOL     OW16012   4.101   3.346   4.128
 5038SOL    HW116013   4.088   3.440   4.159
 5038SOL    HW216014   4.151   3.345   4.042
 5039SOL     OW16015   1.016   3.575   6.941
 5039SOL    HW116016   1.006   3.551   0.020
 5039SOL    HW216017   1.031   3.492   6.887
 5040SOL     OW16018   0.257   0.683   5.592
 5040SOL    HW116019   0.288   0.600   5.545
 5040SOL    HW216020   0.299   0.689   5.682
 5041SOL     OW16021   6.993   3.312   1.774
 5041SOL    HW116022   6.903   3.300   1.817
 5041SOL    HW216023   6.996   3.260   1.688
 5042SOL     OW16024   0.457   2.836   6.057
 5042SOL    HW116025   0.401   2.813   6.136
 5042SOL    HW216026   0.415   2.912   6.008
 5043SOL     OW16027   4.034   6.428   1.340
 5043SOL    HW116028   4.063   6.439   1.435
 5043SOL    HW216029   4.095   6.480   1.280
 5044SOL     OW16030   5.884   4.782   0.771
 5044SOL    HW116031   5.948   4.857   0.751
 5044SOL    HW216032   5.801   4.794   0.718
 5045SOL     OW16033   6.284   3.326   6.664
 5045SOL    HW116034   6.340   3.243   6.658
 5045SOL    HW216035   6.320   3.386   6.735
 5046SOL     OW16036   3.651   3.207   2.955
 5046SOL    HW116037   3.559   3.192   2.991
 5046SOL    HW216038   3.707   3.125   2.972
 5047SOL     OW16039   0.820   3.877   3.287
 5047SOL    HW116040   0.860   3.937   3.216
 5047SOL    HW216041   0.722   3.867   3.271
 5048SOL     OW16042   1.747   0.836   5.611
 5048SOL    HW116043   1.733   0.896   5.533
 5048SOL    HW216044   1.663   0.785   5.630
 5049SOL     OW16045   5.001   1.435   6.613
 5049SOL    HW116046   5.056   1.514   6.640
 5049SOL    HW216047   4.925   1.465   6.555
 5050SOL     OW16048   1.645   0.431   0.750
 5050SOL    HW116049   1.739   0.416   0.722
 5050SOL    HW216050   1.585   0.424   0.670
 5051SOL     OW16051   4.350   5.213   1.270
 5051SOL    HW116052   4.292   5.289   1.301
 5051SOL    HW216053   4.305   5.166   1.194
 5052SOL     OW16054   2.822   1.319   5.435
 5052SOL    HW116055   2.730   1.357   5.421
 5052SOL    HW216056   2.814   1.223   5.460
 5053SOL     OW16057   6.946   6.830   1.666
 5053SOL    HW116058   6.927   6.871   1.577
 5053SOL    HW216059   6.866   6.842   1.725
 5054SOL     OW16060   3.483   5.048   3.910
 5054SOL    HW116061   3.411   5.011   3.851
 5054SOL    HW216062   3.489   5.147   3.898
 5055SOL     OW16063   6.560   3.182   6.759
 5055SOL    HW116064   6.528   3.186   6.664
 5055SOL    HW216065   6.642   3.125   6.763
 5056SOL     OW16066   5.244   4.169   4.542
 5056SOL    HW116067   5.342   4.154   4.549
 5056SOL    HW216068   5.215   4.241   4.604
 5057SOL     OW16069   0.935   5.767   2.417
 5057SOL    HW116070   0.841   5.773   2.383
 5057SOL    HW216071   0.976   5.681   2.388
 5058SOL     OW16072   3.090   5.261   5.375
 5058SOL    HW116073   3.112   5.193   5.445
 5058SOL    HW216074   3.175   5.297   5.335
 5059SOL     OW16075   0.572   0.234   1.955
 5059SOL    HW116076   0.642   0.210   2.023
 5059SOL    HW216077   0.504   0.294   1.997
 5060SOL     OW16078   6.416   1.842   5.521
 5060SOL    HW116079   6.478   1.921   5.526
 5060SOL    HW216080   6.357   1.841   5.601
 5061SOL     OW16081   5.313   4.100   0.003
 5061SOL    HW116082   5.370   4.022   0.028
 5061SOL    HW216083   5.257   4.127   0.081
 5062SOL     OW16084   0.543   0.495   0.824
 5062SOL    HW116085   0.480   0.535   0.891
 5062SOL    HW216086   0.600   0.427   0.869
 5063SOL     OW16087   1.361   6.534   1.168
 5063SOL    HW116088   1.319   6.623   1.151
 5063SOL    HW216089   1.298   6.461   1.139
 5064SOL     OW16090   4.824   2.942   0.019
 5064SOL    HW116091   4.877   2.858   0.030
 5064SOL    HW216092   4.886   3.021   0.018
 5065SOL     OW16093   2.205   6.136   5.393
 5065SOL    HW116094   2.163   6.212   5.344
 5065SOL    HW216095   2.301   6.157   5.411
 5066SOL     OW16096   5.098   4.941   1.431
 5066SOL    HW116097   5.087   4.992   1.346
 5066SOL    HW216098   5.187   4.897   1.432
 5067SOL     OW16099   4.730   0.926   0.153
 5067SOL    HW116100   4.809   0.954   0.098
 5067SOL    HW216101   4.694   1.006   0.202
 5068SOL     OW16102   2.774   4.961   1.203
 5068SOL    HW116103   2.730   4.871   1.212
 5068SOL    HW216104   2.861   4.961   1.253
 5069SOL     OW16105   0.646   5.176   3.377
 5069SOL    HW116106   0.587   5.099   3.402
 5069SOL    HW216107   0.739   5.158   3.410
 5070SOL     OW16108   4.922   3.270   4.408
 5070SOL    HW116109   4.886   3.238   4.321
 5070SOL    HW216110   4.867   3.232   4.483
 5071SOL     OW16111   4.133   1.001   6.731
 5071SOL    HW116112   4.151   1.016   6.634
 5071SOL    HW216113   4.214   1.025   6.784
 5072SOL     OW16114   1.334   4.120   1.059
 5072SOL    HW116115   1.356   4.167   0.974
 5072SOL    HW216116   1.417   4.113   1.116
 5073SOL     OW16117   4.252   1.933   3.864
 5073SOL    HW116118   4.154   1.925   3.851
 5073SOL    HW216119   4.274   2.023   3.901
 5074SOL     OW16120   3.104   4.270   6.187
 5074SOL    HW116121   3.127   4.274   6.284
 5074SOL    HW216122   3.019   4.220   6.175
 5075SOL     OW16123   0.109   5.707   4.588
 5075SOL    HW116124   0.194   5.672   4.550
 5075SOL    HW216125   0.036   5.639   4.576
 5076SOL     OW16126   3.492   0.089   1.370
 5076SOL    HW116127   3.413   0.081   1.309
 5076SOL    HW216128   3.507   0.186   1.391
 5077SOL     OW16129   0.329   2.301   2.275
 5077SOL    HW116130   0.338   2.400   2.280
 5077SOL    HW216131   0.342   2.272   2.180
 5078SOL     OW16132   1.086   1.020   3.786
 5078SOL    HW116133   1.136   1.042   3.870
 5078SOL    HW216134   1.054   0.926   3.790
 5079SOL     OW16135   4.033   5.113   5.434
 5079SOL    HW116136   4.094   5.046   5.476
 5079SOL    HW216137   4.006   5.082   5.344
 5080SOL     OW16138   5.749   6.592   5.561
 5080SOL    HW116139   5.795   6.659   5.503
 5080SOL    HW216140   5.790   6.593   5.652
 5081SOL     OW16141   3.217   3.437   3.605
 5081SOL    HW116142   3.130   3.388   3.602
 5081SOL    HW216143   3.201   3.530   3.640
 5082SOL     OW16144   6.246   5.750   4.554
 5082SOL    HW116145   6.205   5.717   4.639
 5082SOL    HW216146   6.320   5.688   4.527
 5083SOL     OW16147   1.444   5.882   1.689
 5083SOL    HW116148   1.394   5.877   1.603
 5083SOL    HW216149   1.518   5.948   1.681
 5084SOL     OW16150   2.003   6.111   3.774
 5084SOL    HW116151   1.934   6.172   3.736
 5084SOL    HW216152   1.974   6.016   3.762
 5085SOL     OW16153   6.395   3.155   6.027
 5085SOL    HW116154   6.407   3.092   5.950
 5085SOL    HW216155   6.445   3.121   6.106
 5086SOL     OW16156   6.576   5.220   3.369
 5086SOL    HW116157   6.483   5.257   3.374
 5086SOL    HW216158   6.632   5.280   3.313
 5087SOL     OW16159   0.263   5.670   5.476
 5087SOL    HW116160   0.242   5.758   5.433
 5087SOL    HW216161   0.178   5.621   5.494
 5088SOL     OW16162   5.470   0.485   0.035
 5088SOL    HW116163   5.469   0.393   7.013
 5088SOL    HW216164   5.524   0.484   0.119
 5089SOL     OW16165   5.031   2.967   3.581
 5089SOL    HW116166   5.096   2.892   3.574
 5089SOL    HW216167   5.081   3.053   3.589
 5090SOL     OW16168   1.281   4.851   0.971
 5090SOL    HW116169   1.261   4.774   0.910
 5090SOL    HW216170   1.244   4.831   1.062
 5091SOL     OW16171   1.727   5.666   2.305
 5091SOL    HW116172   1.715   5.731   2.380
 5091SOL    HW216173   1.638   5.630   2.277
 5092SOL     OW16174   3.677   2.598   1.748
 5092SOL    HW116175   3.690   2.678   1.807
 5092SOL    HW216176   3.657   2.518   1.805
 5093SOL     OW16177   0.458   2.159   1.073
 5093SOL    HW116178   0.399   2.184   0.996
 5093SOL    HW216179   0.552   2.185   1.053
 5094SOL     OW16180   6.921   0.189   6.470
 5094SOL    HW116181   6.942   0.092   6.482
 5094SOL    HW216182   6.831   0.199   6.427
 5095SOL     OW16183   2.940   0.304   5.547
 5095SOL    HW116184   2.882   0.373   5.589
 5095SOL    HW216185   2.967   0.333   5.455
 5096SOL     OW16186   4.170   5.048   1.887
 5096SOL    HW116187   4.252   5.059   1.831
 5096SOL    HW216188   4.094   5.095   1.843
 5097SOL     OW16189   0.635   0.350   6.398
 5097SOL    HW116190   0.543   0.388   6.396
 5097SOL    HW216191   0.665   0.329   6.305
 5098SOL     OW16192   0.284   2.581   2.238
 5098SOL    HW116193   0.267   2.676   2.267
 5098SOL    HW216194   0.272   2.574   2.140
 5099SOL     OW16195   0.668   6.513   4.269
 5099SOL    HW116196   0.759   6.478   4.292
 5099SOL    HW216197   0.628   6.560   4.348
 5100SOL     OW16198   5.045   6.426   6.171
 5100SOL    HW116199   5.030   6.525   6.164
 5100SOL    HW216200   4.976   6.387   6.232
 5101SOL     OW16201   4.575   6.067   0.537
 5101SOL    HW116202   4.519   6.149   0.519
 5101SOL    HW216203   4.593   6.019   0.452
 5102SOL     OW16204   3.673   6.231   4.922
 5102SOL    HW116205   3.659   6.245   5.020
 5102SOL    HW216206   3.739   6.157   4.908
 5103SOL     OW16207   0.996   0.644   4.662
 5103SOL    HW116208   0.948   0.647   4.750
 5103SOL    HW216209   0.933   0.617   4.590
 5104SOL     OW16210   1.554   6.841   1.126
 5104SOL    HW116211   1.627   6.841   1.195
 5104SOL    HW216212   1.466   6.825   1.170
 5105SOL     OW16213   2.252   3.405   6.468
 5105SOL    HW116214   2.348   3.419   6.447
 5105SOL    HW216215   2.203   3.381   6.384
 5106SOL     OW16216   3.222   0.472   2.194
 5106SOL    HW116217   3.198   0.397   2.132
 5106SOL    HW216218   3.187   0.558   2.158
 5107SOL     OW16219   1.535   7.008   5.565
 5107SOL    HW116220   1.529   6.936   5.634
 5107SOL    HW216221   1.565   6.969   5.478
 5108SOL     OW16222   2.882   3.645   3.707
 5108SOL    HW116223   2.851   3.618   3.798
 5108SOL    HW216224   2.839   3.585   3.639
 5109SOL     OW16225   0.087   1.077   1.168
 5109SOL    HW116226   0.180   1.114   1.167
 5109SOL    HW216227   0.027   1.138   1.220
 5110SOL     OW16228   2.238   5.846   5.385
 5110SOL    HW116229   2.218   5.943   5.402
 5110SOL    HW216230   2.158   5.802   5.345
 5111SOL     OW16231   1.784   1.251   0.329
 5111SOL    HW116232   1.823   1.260   0.237
 5111SOL    HW216233   1.699   1.199   0.324
 5112SOL     OW16234   0.334   6.703   3.859
 5112SOL    HW116235   0.351   6.698   3.760
 5112SOL    HW216236   0.264   6.771   3.877
 5113SOL     OW16237   0.962   6.678   6.554
 5113SOL    HW116238   1.004   6.763   6.584
 5113SOL    HW216239   0.863   6.683   6.564
 5114SOL     OW16240   3.659   4.944   0.037
 5114SOL    HW116241   3.597   4.865   0.044
 5114SOL    HW216242   3.615   5.025   0.076
 5115SOL     OW16243   1.989   3.884   5.489
 5115SOL    HW116244   2.027   3.805   5.440
 5115SOL    HW216245   1.953   3.949   5.423
 5116SOL     OW16246   0.546   3.668   1.428
 5116SOL    HW116247   0.462   3.719   1.445
 5116SOL    HW216248   0.524   3.574   1.402
 5117SOL     OW16249   2.430   4.471   4.156
 5117SOL    HW116250   2.390   4.413   4.084
 5117SOL    HW216251   2.513   4.514   4.121
 5118SOL     OW16252   4.377   6.703   1.447
 5118SOL    HW116253   4.434   6.672   1.371
 5118SOL    HW216254   4.334   6.790   1.423
 5119SOL     OW16255   6.422   0.312   2.672
 5119SOL    HW116256   6.451   0.407   2.684
 5119SOL    HW216257   6.419   0.289   2.575
 5120SOL     OW16258   4.717   1.203   3.015
 5120SOL    HW116259   4.793   1.142   3.038
 5120SOL    HW216260   4.750   1.280   2.961
 5121SOL     OW16261   0.747   3.582   4.943
 5121SOL    HW116262   0.836   3.612   4.978
 5121SOL    HW216263   0.739   3.483   4.953
 5122SOL     OW16264   1.987   6.102   3.308
 5122SOL    HW116265   2.021   6.045   3.232
 5122SOL    HW216266   2.044   6.086   3.389
 5123SOL     OW16267   5.751   4.462   2.234
 5123SOL    HW116268   5.760   4.487   2.138
 5123SOL    HW216269   5.719   4.541   2.286
 5124SOL     OW16270   2.839   5.928   0.236
 5124SOL    HW116271   2.882   5.927   0.326
 5124SOL    HW216272   2.877   5.854   0.180
 5125SOL     OW16273   6.742   2.339   6.067
 5125SOL    HW116274   6.708   2.415   6.011
 5125SOL    HW216275   6.667   2.302   6.122
 5126SOL     OW16276   4.494   3.186   6.520
 5126SOL    HW116277   4.479   3.221   6.613
 5126SOL    HW216278   4.565   3.116   6.522
 5127SOL     OW16279   5.427   2.943   6.872
 5127SOL    HW116280   5.463   2.855   6.905
 5127SOL    HW216281   5.452   2.955   6.776
 5128SOL     OW16282   0.889   6.868   6.787
 5128SOL    HW116283   0.979   6.898   6.755
 5128SOL    HW216284   0.894   6.772   6.814
 5129SOL     OW16285   4.115   2.242   2.386
 5129SOL    HW116286   4.165   2.277   2.306
 5129SOL    HW216287   4.180   2.223   2.460
 5130SOL     OW16288   0.879   6.725   4.853
 5130SOL    HW116289   0.918   6.765   4.935
 5130SOL    HW216290   0.938   6.745   4.774
 5131SOL     OW16291   3.459   4.930   3.344
 5131SOL    HW116292   3.411   4.876   3.274
 5131SOL    HW216293   3.556   4.909   3.342
 5132SOL     OW16294   3.636   1.224   6.683
 5132SOL    HW116295   3.614   1.304   6.738
 5132SOL    HW216296   3.582   1.226   6.599
 5133SOL     OW16297   4.740   4.650   6.842
 5133SOL    HW116298   4.676   4.723   6.865
 5133SOL    HW216299   4.808   4.685   6.778
 5134SOL     OW16300   5.996   5.963   0.385
 5134SOL    HW116301   5.924   5.903   0.421
 5134SOL    HW216302   5.995   5.962   0.285
 5135SOL     OW16303   0.138   2.883   2.563
 5135SOL    HW116304   0.228   2.858   2.599
 5135SOL    HW216305   0.091   2.801   2.530
 5136SOL     OW16306   1.057   1.231   6.071
 5136SOL    HW116307   1.101   1.165   6.009
 5136SOL    HW216308   1.071   1.202   6.165
 5137SOL     OW16309   5.329   0.714   4.209
 5137SOL    HW116310   5.233   0.685   4.211
 5137SOL    HW216311   5.370   0.702   4.299
 5138SOL     OW16312   3.066   3.247   3.342
 5138SOL    HW116313   3.009   3.288   3.271
 5138SOL    HW216314   3.106   3.162   3.309
 5139SOL     OW16315   2.966   0.695   5.708
 5139SOL    HW116316   3.025   0.620   5.681
 5139SOL    HW216317   3.023   0.774   5.734
 5140SOL     OW16318   3.304   3.643   6.389
 5140SOL    HW116319   3.262   3.552   6.389
 5140SOL    HW216320   3.252   3.704   6.330
 5141SOL     OW16321   6.697   2.824   1.297
 5141SOL    HW116322   6.689   2.725   1.289
 5141SOL    HW216323   6.746   2.847   1.381
 5142SOL     OW16324   0.331   6.830   2.284
 5142SOL    HW116325   0.398   6.756   2.290
 5142SOL    HW216326   0.355   6.891   2.209
 5143SOL     OW16327   6.816   6.552   2.393
 5143SOL    HW116328   6.750   6.543   2.468
 5143SOL    HW216329   6.906   6.524   2.425
 5144SOL     OW16330   2.019   2.933   5.344
 5144SOL    HW116331   1.976   2.955   5.256
 5144SOL    HW216332   2.118   2.947   5.336
 5145SOL     OW16333   2.450   5.655   5.796
 5145SOL    HW116334   2.490   5.747   5.800
 5145SOL    HW216335   2.449   5.615   5.887
 5146SOL     OW16336   5.727   5.932   6.805
 5146SOL    HW116337   5.726   5.908   6.902
 5146SOL    HW216338   5.819   5.962   6.779
 5147SOL     OW16339   4.496   2.453   3.167
 5147SOL    HW116340   4.497   2.514   3.088
 5147SOL    HW216341   4.410   2.402   3.169
 5148SOL     OW16342   0.239   0.494   6.221
 5148SOL    HW116343   0.169   0.561   6.194
 5148SOL    HW216344   0.202   0.402   6.214
 5149SOL     OW16345   4.468   5.483   4.284
 5149SOL    HW116346   4.405   5.415   4.248
 5149SOL    HW216347   4.562   5.450   4.275
 5150SOL     OW16348   6.258   6.711   3.431
 5150SOL    HW116349   6.316   6.776   3.383
 5150SOL    HW216350   6.162   6.741   3.427
 5151SOL     OW16351   6.150   6.281   2.244
 5151SOL    HW116352   6.110   6.333   2.320
 5151SOL    HW216353   6.192   6.197   2.278
 5152SOL     OW16354   1.880   1.484   6.930
 5152SOL    HW116355   1.814   1.547   6.889
 5152SOL    HW216356   1.907   1.518   0.002
 5153SOL     OW16357   0.927   2.180   0.755
 5153SOL    HW116358   0.929   2.123   0.837
 5153SOL    HW216359   0.923   2.276   0.781
 5154SOL     OW16360   0.077   3.067   1.058
 5154SOL    HW116361   0.092   3.156   1.015
 5154SOL    HW216362   7.003   3.064   1.097
 5155SOL     OW16363   1.574   1.635   6.796
 5155SOL    HW116364   1.652   1.590   6.753
 5155SOL    HW216365   1.541   1.579   6.872
 5156SOL     OW16366   5.923   6.144   4.955
 5156SOL    HW116367   5.926   6.089   4.872
 5156SOL    HW216368   5.988   6.106   5.022
 5157SOL     OW16369   3.515   0.253   1.774
 5157SOL    HW116370   3.559   0.342   1.760
 5157SOL    HW216371   3.550   0.211   1.857
 5158SOL     OW16372   1.228   2.008   2.049
 5158SOL    HW116373   1.211   2.035   1.955
 5158SOL    HW216374   1.311   1.953   2.053
 5159SOL     OW16375   5.824   3.342   5.941
 5159SOL    HW116376   5.867   3.328   5.852
 5159SOL    HW216377   5.810   3.253   5.985
 5160SOL     OW16378   6.227   6.887   2.815
 5160SOL    HW116379   6.208   6.911   2.720
 5160SOL    HW216380   6.237   6.970   2.870
 5161SOL     OW16381   1.465   3.314   0.844
 5161SOL    HW116382   1.452   3.312   0.744
 5161SOL    HW216383   1.377   3.299   0.889
 5162SOL     OW16384   6.759   6.972   4.327
 5162SOL    HW116385   6.682   6.997   4.268
 5162SOL    HW216386   6.770   6.873   4.328
 5163SOL     OW16387   3.510   0.477   2.195
 5163SOL    HW116388   3.412   0.476   2.175
 5163SOL    HW216389   3.524   0.509   2.289
 5164SOL     OW16390   2.817   3.473   0.127
 5164SOL    HW116391   2.740   3.534   0.144
 5164SOL    HW216392   2.864   3.454   0.213
 5165SOL     OW16393   1.864   4.225   6.367
 5165SOL    HW116394   1.821   4.142   6.332
 5165SOL    HW216395   1.865   4.222   6.467
 5166SOL     OW16396   0.813   4.608   0.505
 5166SOL    HW116397   0.854   4.698   0.491
 5166SOL    HW216398   0.886   4.540   0.518
 5167SOL     OW16399   5.468   3.418   5.609
 5167SOL    HW116400   5.495   3.510   5.580
 5167SOL    HW216401   5.369   3.409   5.606
 5168SOL     OW16402   4.152   2.037   2.844
 5168SOL    HW116403   4.250   2.034   2.860
 5168SOL    HW216404   4.106   2.079   2.922
 5169SOL     OW16405   4.781   5.761   4.883
 5169SOL    HW116406   4.710   5.827   4.908
 5169SOL    HW216407   4.746   5.698   4.814
 5170SOL     OW16408   1.940   3.693   6.498
 5170SOL    HW116409   2.021   3.646   6.534
 5170SOL    HW216410   1.860   3.669   6.553
 5171SOL     OW16411   2.228   5.932   5.736
 5171SOL    HW116412   2.198   5.894   5.824
 5171SOL    HW216413   2.328   5.934   5.734
 5172SOL     OW16414   5.824   5.334   5.024
 5172SOL    HW116415   5.908   5.282   5.005
 5172SOL    HW216416   5.808   5.337   5.122
 5173SOL     OW16417   4.506   5.429   5.391
 5173SOL    HW116418   4.560   5.493   5.446
 5173SOL    HW216419   4.409   5.453   5.396
 5174SOL     OW16420   2.230   6.543   3.253
 5174SOL    HW116421   2.223   6.630   3.301
 5174SOL    HW216422   2.326   6.516   3.246
 5175SOL     OW16423   2.861   3.079   0.018
 5175SOL    HW116424   2.772   3.079   6.992
 5175SOL    HW216425   2.873   2.994   0.071
 5176SOL     OW16426   6.284   5.744   6.537
 5176SOL    HW116427   6.335   5.821   6.576
 5176SOL    HW216428   6.201   5.728   6.591
 5177SOL     OW16429   6.228   0.005   0.814
 5177SOL    HW116430   6.276   6.979   0.738
 5177SOL    HW216431   6.230   0.104   0.802
 5178SOL     OW16432   1.324   4.129   1.685
 5178SOL    HW116433   1.273   4.212   1.661
 5178SOL    HW216434   1.405   4.154   1.737
 5179SOL     OW16435   4.598   5.839   2.953
 5179SOL    HW116436   4.644   5.789   2.879
 5179SOL    HW216437   4.644   5.926   2.967
 5180SOL     OW16438   1.959   5.177   2.771
 5180SOL    HW116439   1.925   5.224   2.852
 5180SOL    HW216440   1.949   5.078   2.783
 5181SOL     OW16441   6.386   0.470   5.877
 5181SOL    HW116442   6.354   0.379   5.850
 5181SOL    HW216443   6.469   0.492   5.827
 5182SOL     OW16444   2.479   6.320   2.820
 5182SOL    HW116445   2.467   6.221   2.830
 5182SOL    HW216446   2.418   6.354   2.749
 5183SOL     OW16447   4.367   2.206   3.895
 5183SOL    HW116448   4.357   2.267   3.816
 5183SOL    HW216449   4.365   2.259   3.979
 5184SOL     OW16450   1.985   1.290   3.205
 5184SOL    HW116451   1.897   1.243   3.208
 5184SOL    HW216452   2.009   1.322   3.297
 5185SOL     OW16453   6.814   0.764   2.255
 5185SOL    HW116454   6.913   0.756   2.264
 5185SOL    HW216455   6.773   0.777   2.345
 5186SOL     OW16456   6.751   4.128   6.597
 5186SOL    HW116457   6.685   4.088   6.660
 5186SOL    HW216458   6.807   4.196   6.646
 5187SOL     OW16459   1.237   4.780   5.217
 5187SOL    HW116460   1.224   4.682   5.206
 5187SOL    HW216461   1.303   4.813   5.150
 5188SOL     OW16462   5.909   0.191   2.350
 5188SOL    HW116463   5.915   0.093   2.366
 5188SOL    HW216464   5.980   0.238   2.403
 5189SOL     OW16465   5.036   6.649   6.445
 5189SOL    HW116466   5.086   6.619   6.364
 5189SOL    HW216467   5.076   6.733   6.481
 5190SOL     OW16468   1.870   4.791   0.117
 5190SOL    HW116469   1.808   4.825   0.047
 5190SOL    HW216470   1.925   4.867   0.152
 5191SOL     OW16471   2.640   4.810   1.862
 5191SOL    HW116472   2.692   4.731   1.894
 5191SOL    HW216473   2.693   4.860   1.794
 5192SOL     OW16474   1.394   4.595   2.388
 5192SOL    HW116475   1.379   4.585   2.486
 5192SOL    HW216476   1.481   4.641   2.372
 5193SOL     OW16477   5.955   1.157   5.354
 5193SOL    HW116478   6.028   1.118   5.298
 5193SOL    HW216479   5.970   1.255   5.365
 5194SOL     OW16480   4.913   1.028   5.765
 5194SOL    HW116481   4.832   0.971   5.779
 5194SOL    HW216482   4.932   1.081   5.848
 5195SOL     OW16483   0.520   0.617   5.256
 5195SOL    HW116484   0.556   0.586   5.168
 5195SOL    HW216485   0.554   0.556   5.328
 5196SOL     OW16486   6.168   6.516   3.620
 5196SOL    HW116487   6.213   6.556   3.540
 5196SOL    HW216488   6.097   6.578   3.653
 5197SOL     OW16489   0.894   2.799   4.860
 5197SOL    HW116490   0.870   2.886   4.902
 5197SOL    HW216491   0.827   2.776   4.789
 5198SOL     OW16492   6.176   4.791   3.357
 5198SOL    HW116493   6.265   4.746   3.368
 5198SOL    HW216494   6.180   4.853   3.279
 5199SOL     OW16495   0.320   4.588   1.175
 5199SOL    HW116496   0.260   4.665   1.195
 5199SOL    HW216497   0.415   4.619   1.180
 5200SOL     OW16498   6.737   3.518   4.958
 5200SOL    HW116499   6.826   3.562   4.958
 5200SOL    HW216500   6.666   3.586   4.974
 5201SOL     OW16501   0.607   5.428   4.291
 5201SOL    HW116502   0.664   5.420   4.209
 5201SOL    HW216503   0.665   5.427   4.372
 5202SOL     OW16504   0.780   4.530   1.633
 5202SOL    HW116505   0.843   4.452   1.635
 5202SOL    HW216506   0.829   4.611   1.600
 5203SOL     OW16507   0.507   2.881   0.108
 5203SOL    HW116508   0.487   2.837   0.020
 5203SOL    HW216509   0.437   2.949   0.128
 5204SOL     OW16510   4.616   4.392   6.857
 5204SOL    HW116511   4.669   4.477   6.862
 5204SOL    HW216512   4.519   4.412   6.866
 5205SOL     OW16513   1.462   0.133   0.733
 5205SOL    HW116514   1.557   0.134   0.702
 5205SOL    HW216515   1.442   0.047   0.780
 5206SOL     OW16516   0.302   4.401   4.789
 5206SOL    HW116517   0.332   4.496   4.795
 5206SOL    HW216518   0.275   4.381   4.695
 5207SOL     OW16519   1.737   4.512   3.807
 5207SOL    HW116520   1.722   4.467   3.895
 5207SOL    HW216521   1.710   4.449   3.733
 5208SOL     OW16522   4.759   0.739   0.340
 5208SOL    HW116523   4.749   0.806   0.266
 5208SOL    HW216524   4.728   0.779   0.426
 5209SOL     OW16525   5.439   5.719   2.551
 5209SOL    HW116526   5.531   5.690   2.579
 5209SOL    HW216527   5.444   5.764   2.462
 5210SOL     OW16528   4.466   4.458   3.287
 5210SOL    HW116529   4.375   4.483   3.319
 5210SOL    HW216530   4.529   4.456   3.365
 5211SOL     OW16531   3.702   3.695   2.368
 5211SOL    HW116532   3.719   3.603   2.404
 5211SOL    HW216533   3.789   3.744   2.359
 5212SOL     OW16534   0.855   1.008   0.039
 5212SOL    HW116535   0.784   0.947   0.075
 5212SOL    HW216536   0.945   0.977   0.070
 5213SOL     OW16537   4.431   2.561   6.346
 5213SOL    HW116538   4.496   2.533   6.416
 5213SOL    HW216539   4.341   2.576   6.389
 5214SOL     OW16540   5.764   1.750   6.640
 5214SOL    HW116541   5.713   1.795   6.714
 5214SOL    HW216542   5.808   1.668   6.676
 5215SOL     OW16543   5.822   5.105   2.538
 5215SOL    HW116544   5.775   5.042   2.600
 5215SOL    HW216545   5.902   5.143   2.585
 5216SOL     OW16546   4.681   5.525   1.348
 5216SOL    HW116547   4.778   5.546   1.359
 5216SOL    HW216548   4.629   5.610   1.345
 5217SOL     OW16549   2.965   5.136   3.751
 5217SOL    HW116550   2.966   5.070   3.825
 5217SOL    HW216551   3.035   5.206   3.767
 5218SOL     OW16552   1.570   6.822   4.733
 5218SOL    HW116553   1.581   6.768   4.817
 5218SOL    HW216554   1.473   6.842   4.719
 5219SOL     OW16555   2.430   5.770   0.675
 5219SOL    HW116556   2.427   5.850   0.736
 5219SOL    HW216557   2.506   5.781   0.611
 5220SOL     OW16558   0.769   6.961   2.220
 5220SOL    HW116559   0.768   6.878   2.164
 5220SOL    HW216560   0.697   6.956   2.289
 5221SOL     OW16561   5.154   1.817   5.083
 5221SOL    HW116562   5.075   1.757   5.100
 5221SOL    HW216563   5.124   1.898   5.033
 5222SOL     OW16564   0.931   6.611   2.534
 5222SOL    HW116565   0.956   6.515   2.520
 5222SOL    HW216566   0.858   6.617   2.601
 5223SOL     OW16567   5.518   0.109   0.847
 5223SOL    HW116568   5.432   0.120   0.797
 5223SOL    HW216569   5.503   0.048   0.925
 5224SOL     OW16570   5.351   1.451   3.125
 5224SOL    HW116571   5.402   1.439   3.210
 5224SOL    HW216572   5.291   1.531   3.133
 5225SOL     OW16573   5.768   6.174   5.197
 5225SOL    HW116574   5.818   6.246   5.245
 5225SOL    HW216575   5.811   6.157   5.108
 5226SOL     OW16576   1.819   6.106   4.002
 5226SOL    HW116577   1.801   6.020   3.953
 5226SOL    HW216578   1.776   6.102   4.093
 5227SOL     OW16579   5.572   3.873   3.351
 5227SOL    HW116580   5.524   3.798   3.397
 5227SOL    HW216581   5.667   3.847   3.334
 5228SOL     OW16582   5.327   0.375   0.978
 5228SOL    HW116583   5.425   0.374   1.000
 5228SOL    HW216584   5.277   0.324   1.049
 5229SOL     OW16585   1.295   4.491   4.610
 5229SOL    HW116586   1.360   4.460   4.679
 5229SOL    HW216587   1.291   4.426   4.535
 5230SOL     OW16588   1.557   6.335   6.553
 5230SOL    HW116589   1.465   6.343   6.590
 5230SOL    HW216590   1.553   6.338   6.453
 5231SOL     OW16591   3.629   3.033   3.793
 5231SOL    HW116592   3.688   2.998   3.721
 5231SOL    HW216593   3.640   3.132   3.799
 5232SOL     OW16594   5.204   3.079   5.547
 5232SOL    HW116595   5.270   3.123   5.486
 5232SOL    HW216596   5.114   3.123   5.536
 5233SOL     OW16597   0.657   1.099   2.370
 5233SOL    HW116598   0.686   1.003   2.362
 5233SOL    HW216599   0.615   1.113   2.459
 5234SOL     OW16600   4.418   6.028   1.088
 5234SOL    HW116601   4.337   6.023   1.145
 5234SOL    HW216602   4.406   5.971   1.007
 5235SOL     OW16603   1.306   3.523   1.307
 5235SOL    HW116604   1.213   3.548   1.281
 5235SOL    HW216605   1.337   3.445   1.254
 5236SOL     OW16606   5.127   3.188   1.134
 5236SOL    HW116607   5.122   3.090   1.156
 5236SOL    HW216608   5.222   3.214   1.121
 5237SOL     OW16609   2.438   1.925   4.681
 5237SOL    HW116610   2.495   1.851   4.716
 5237SOL    HW216611   2.361   1.940   4.742
 5238SOL     OW16612   1.827   3.996   0.948
 5238SOL    HW116613   1.739   3.982   0.903
 5238SOL    HW216614   1.812   4.036   1.038
 5239SOL     OW16615   3.039   3.254   4.888
 5239SOL    HW116616   2.982   3.321   4.840
 5239SOL    HW216617   3.058   3.176   4.827
 5240SOL     OW16618   3.163   1.992   5.050
 5240SOL    HW116619   3.113   1.976   4.965
 5240SOL    HW216620   3.183   2.090   5.058
 5241SOL     OW16621   2.698   5.525   5.751
 5241SOL    HW116622   2.688   5.426   5.740
 5241SOL    HW216623   2.623   5.571   5.704
 5242SOL     OW16624   5.057   1.140   6.065
 5242SOL    HW116625   5.007   1.159   6.149
 5242SOL    HW216626   5.063   1.041   6.051
 5243SOL     OW16627   0.618   3.733   0.412
 5243SOL    HW116628   0.625   3.819   0.463
 5243SOL    HW216629   0.526   3.695   0.424
 5244SOL     OW16630   5.408   3.861   6.688
 5244SOL    HW116631   5.449   3.806   6.760
 5244SOL    HW216632   5.398   3.956   6.720
 5245SOL     OW16633   4.866   4.011   6.323
 5245SOL    HW116634   4.885   3.921   6.282
 5245SOL    HW216635   4.813   3.999   6.407
 5246SOL     OW16636   0.771   3.440   2.895
 5246SOL    HW116637   0.795   3.446   2.992
 5246SOL    HW216638   0.852   3.416   2.842
 5247SOL     OW16639   0.814   5.172   1.153
 5247SOL    HW116640   0.911   5.192   1.138
 5247SOL    HW216641   0.758   5.224   1.088
 5248SOL     OW16642   4.525   0.871   6.560
 5248SOL    HW116643   4.582   0.825   6.629
 5248SOL    HW216644   4.541   0.969   6.564
 5249SOL     OW16645   1.638   5.350   5.166
 5249SOL    HW116646   1.549   5.358   5.212
 5249SOL    HW216647   1.694   5.430   5.186
 5250SOL     OW16648   0.391   1.605   6.418
 5250SOL    HW116649   0.369   1.581   6.513
 5250SOL    HW216650   0.383   1.524   6.360
 5251SOL     OW16651   7.002   2.694   1.242
 5251SOL    HW116652   6.938   2.620   1.222
 5251SOL    HW216653   7.008   2.707   1.341
 5252SOL     OW16654   3.927   6.247   0.621
 5252SOL    HW116655   3.899   6.168   0.566
 5252SOL    HW216656   4.019   6.232   0.657
 5253SOL     OW16657   5.989   2.999   3.664
 5253SOL    HW116658   5.902   3.045   3.680
 5253SOL    HW216659   6.057   3.031   3.730
 5254SOL     OW16660   4.484   1.179   3.935
 5254SOL    HW116661   4.554   1.180   3.864
 5254SOL    HW216662   4.472   1.271   3.972
 5255SOL     OW16663   3.402   6.735   4.843
 5255SOL    HW116664   3.466   6.670   4.801
 5255SOL    HW216665   3.423   6.827   4.809
 5256SOL     OW16666   5.880   6.591   2.928
 5256SOL    HW116667   5.806   6.559   2.988
 5256SOL    HW216668   5.964   6.597   2.981
 5257SOL     OW16669   3.539   1.634   1.728
 5257SOL    HW116670   3.446   1.613   1.701
 5257SOL    HW216671   3.538   1.699   1.804
 5258SOL     OW16672   5.880   2.390   1.882
 5258SOL    HW116673   5.942   2.347   1.948
 5258SOL    HW216674   5.800   2.332   1.868
 5259SOL     OW16675   5.184   4.345   2.463
 5259SOL    HW116676   5.174   4.255   2.420
 5259SOL    HW216677   5.190   4.415   2.392
 5260SOL     OW16678   5.354   3.514   1.375
 5260SOL    HW116679   5.323   3.424   1.408
 5260SOL    HW216680   5.275   3.568   1.347
 5261SOL     OW16681   2.023   2.173   4.781
 5261SOL    HW116682   2.059   2.230   4.855
 5261SOL    HW216683   1.970   2.229   4.718
 5262SOL     OW16684   2.350   0.288   1.736
 5262SOL    HW116685   2.264   0.336   1.754
 5262SOL    HW216686   2.423   0.355   1.719
 5263SOL     OW16687   1.157   6.408   0.374
 5263SOL    HW116688   1.161   6.318   0.417
 5263SOL    HW216689   1.082   6.412   0.309
 5264SOL     OW16690   0.565   2.473   0.654
 5264SOL    HW116691   0.613   2.386   0.666
 5264SOL    HW216692   0.560   2.521   0.742
 5265SOL     OW16693   5.142   4.532   2.282
 5265SOL    HW116694   5.084   4.536   2.201
 5265SOL    HW216695   5.108   4.596   2.351
 5266SOL     OW16696   2.178   6.796   1.006
 5266SOL    HW116697   2.202   6.893   1.005
 5266SOL    HW216698   2.129   6.775   1.091
 5267SOL     OW16699   4.988   4.330   4.659
 5267SOL    HW116700   4.890   4.350   4.646
 5267SOL    HW216701   4.999   4.271   4.739
 5268SOL     OW16702   5.919   4.689   5.013
 5268SOL    HW116703   5.844   4.624   4.998
 5268SOL    HW216704   5.924   4.712   5.110
 5269SOL     OW16705   1.178   5.495   4.312
 5269SOL    HW116706   1.108   5.435   4.271
 5269SOL    HW216707   1.152   5.590   4.298
 5270SOL     OW16708   6.638   3.115   2.869
 5270SOL    HW116709   6.617   3.017   2.871
 5270SOL    HW216710   6.599   3.159   2.950
 5271SOL     OW16711   5.199   4.442   4.818
 5271SOL    HW116712   5.115   4.433   4.764
 5271SOL    HW216713   5.178   4.492   4.903
 5272SOL     OW16714   1.535   1.090   4.117
 5272SOL    HW116715   1.575   1.175   4.084
 5272SOL    HW216716   1.542   1.086   4.216
 5273SOL     OW16717   0.627   1.023   4.887
 5273SOL    HW116718   0.651   1.121   4.884
 5273SOL    HW216719   0.548   1.006   4.828
 5274SOL     OW16720   6.383   5.450   3.799
 5274SOL    HW116721   6.439   5.526   3.833
 5274SOL    HW216722   6.312   5.428   3.867
 5275SOL     OW16723   2.587   6.848   6.738
 5275SOL    HW116724   2.546   6.808   6.820
 5275SOL    HW216725   2.598   6.776   6.669
 5276SOL     OW16726   0.266   0.268   1.011
 5276SOL    HW116727   0.237   0.258   0.916
 5276SOL    HW216728   0.314   0.185   1.040
 5277SOL     OW16729   0.992   1.618   2.540
 5277SOL    HW116730   0.932   1.679   2.489
 5277SOL    HW216731   0.953   1.601   2.631
 5278SOL     OW16732   0.950   4.731   6.281
 5278SOL    HW116733   1.049   4.736   6.276
 5278SOL    HW216734   0.919   4.644   6.242
 5279SOL     OW16735   2.577   6.012   6.395
 5279SOL    HW116736   2.649   5.959   6.351
 5279SOL    HW216737   2.526   5.953   6.458
 5280SOL     OW16738   4.545   6.765   5.144
 5280SOL    HW116739   4.506   6.705   5.213
 5280SOL    HW216740   4.580   6.848   5.187
 5281SOL     OW16741   2.874   0.372   5.246
 5281SOL    HW116742   2.785   0.332   5.268
 5281SOL    HW216743   2.939   0.299   5.224
 5282SOL     OW16744   1.390   6.817   1.532
 5282SOL    HW116745   1.410   6.903   1.485
 5282SOL    HW216746   1.389   6.832   1.630
 5283SOL     OW16747   0.704   0.846   4.505
 5283SOL    HW116748   0.785   0.853   4.447
 5283SOL    HW216749   0.687   0.749   4.526
 5284SOL     OW16750   4.256   2.582   1.271
 5284SOL    HW116751   4.307   2.563   1.188
 5284SOL    HW216752   4.196   2.505   1.291
 5285SOL     OW16753   1.639   1.837   4.242
 5285SOL    HW116754   1.647   1.799   4.149
 5285SOL    HW216755   1.560   1.898   4.246
 5286SOL     OW16756   6.200   3.229   1.396
 5286SOL    HW116757   6.198   3.161   1.469
 5286SOL    HW216758   6.294   3.257   1.378
 5287SOL     OW16759   2.352   4.987   1.295
 5287SOL    HW116760   2.276   5.039   1.333
 5287SOL    HW216761   2.411   4.955   1.370
 5288SOL     OW16762   4.228   0.427   1.638
 5288SOL    HW116763   4.220   0.421   1.538
 5288SOL    HW216764   4.152   0.482   1.674
 5289SOL     OW16765   2.304   4.777   6.238
 5289SOL    HW116766   2.301   4.693   6.185
 5289SOL    HW216767   2.250   4.848   6.192
 5290SOL     OW16768   1.291   2.856   5.024
 5290SOL    HW116769   1.357   2.913   5.075
 5290SOL    HW216770   1.307   2.868   4.926
 5291SOL     OW16771   2.738   4.733   4.480
 5291SOL    HW116772   2.756   4.685   4.567
 5291SOL    HW216773   2.644   4.716   4.452
 5292SOL     OW16774   6.899   3.878   5.946
 5292SOL    HW116775   6.920   3.795   5.998
 5292SOL    HW216776   6.943   3.957   5.989
 5293SOL     OW16777   2.202   6.328   4.211
 5293SOL    HW116778   2.277   6.263   4.200
 5293SOL    HW216779   2.123   6.281   4.249
 5294SOL     OW16780   3.831   0.518   5.612
 5294SOL    HW116781   3.870   0.604   5.648
 5294SOL    HW216782   3.892   0.443   5.636
 5295SOL     OW16783   2.679   1.843   2.478
 5295SOL    HW116784   2.610   1.791   2.427
 5295SOL    HW216785   2.757   1.862   2.419
 5296SOL     OW16786   4.997   5.010   1.848
 5296SOL    HW116787   4.991   4.978   1.942
 5296SOL    HW216788   5.076   5.070   1.838
 5297SOL     OW16789   2.990   5.313   0.267
 5297SOL    HW116790   2.997   5.244   0.339
 5297SOL    HW216791   3.023   5.274   0.181
 5298SOL     OW16792   2.080   0.546   0.084
 5298SOL    HW116793   1.981   0.563   0.086
 5298SOL    HW216794   2.112   0.524   0.176
 5299SOL     OW16795   3.161   1.488   1.295
 5299SOL    HW116796   3.159   1.504   1.196
 5299SOL    HW216797   3.144   1.392   1.314
 5300SOL     OW16798   2.277   4.593   0.189
 5300SOL    HW116799   2.209   4.585   0.262
 5300SOL    HW216800   2.238   4.646   0.114
 5301SOL     OW16801   5.345   0.298   5.992
 5301SOL    HW116802   5.255   0.262   5.968
 5301SOL    HW216803   5.375   0.258   6.078
 5302SOL     OW16804   5.634   6.221   3.146
 5302SOL    HW116805   5.631   6.230   3.245
 5302SOL    HW216806   5.678   6.134   3.122
 5303SOL     OW16807   0.610   5.283   6.015
 5303SOL    HW116808   0.581   5.202   5.963
 5303SOL    HW216809   0.564   5.364   5.979
 5304SOL     OW16810   6.882   0.591   2.048
 5304SOL    HW116811   6.950   0.549   2.108
 5304SOL    HW216812   6.826   0.655   2.101
 5305SOL     OW16813   1.242   5.209   3.326
 5305SOL    HW116814   1.299   5.283   3.289
 5305SOL    HW216815   1.165   5.247   3.376
 5306SOL     OW16816   0.174   3.242   6.025
 5306SOL    HW116817   0.246   3.307   6.048
 5306SOL    HW216818   0.106   3.287   5.968
 5307SOL     OW16819   6.370   1.442   1.519
 5307SOL    HW116820   6.301   1.497   1.472
 5307SOL    HW216821   6.374   1.469   1.615
 5308SOL     OW16822   1.560   4.063   3.218
 5308SOL    HW116823   1.554   4.125   3.296
 5308SOL    HW216824   1.474   4.067   3.165
 5309SOL     OW16825   6.115   6.140   2.622
 5309SOL    HW116826   6.213   6.145   2.641
 5309SOL    HW216827   6.070   6.220   2.659
 5310SOL     OW16828   5.477   2.977   2.528
 5310SOL    HW116829   5.570   3.002   2.499
 5310SOL    HW216830   5.464   2.879   2.514
 5311SOL     OW16831   5.963   0.184   0.337
 5311SOL    HW116832   5.944   0.182   0.435
 5311SOL    HW216833   6.030   0.114   0.314
 5312SOL     OW16834   6.978   6.589   0.559
 5312SOL    HW116835   0.021   6.518   0.593
 5312SOL    HW216836   6.912   6.549   0.495
 5313SOL     OW16837   0.786   5.305   5.223
 5313SOL    HW116838   0.837   5.375   5.173
 5313SOL    HW216839   0.842   5.270   5.298
 5314SOL     OW16840   6.188   0.927   1.851
 5314SOL    HW116841   6.176   0.849   1.790
 5314SOL    HW216842   6.283   0.959   1.846
 5315SOL     OW16843   4.275   1.257   4.484
 5315SOL    HW116844   4.267   1.228   4.389
 5315SOL    HW216845   4.345   1.328   4.492
 5316SOL     OW16846   0.563   2.327   4.511
 5316SOL    HW116847   0.477   2.276   4.505
 5316SOL    HW216848   0.602   2.315   4.602
 5317SOL     OW16849   6.574   2.324   6.486
 5317SOL    HW116850   6.541   2.319   6.392
 5317SOL    HW216851   6.570   2.419   6.518
 5318SOL     OW16852   6.744   3.572   6.770
 5318SOL    HW116853   6.801   3.515   6.829
 5318SOL    HW216854   6.763   3.553   6.674
 5319SOL     OW16855   4.450   6.628   1.148
 5319SOL    HW116856   4.466   6.616   1.050
 5319SOL    HW216857   4.532   6.602   1.199
 5320SOL     OW16858   2.959   5.883   0.768
 5320SOL    HW116859   2.932   5.978   0.787
 5320SOL    HW216860   2.880   5.833   0.733
 5321SOL     OW16861   1.636   3.852   4.916
 5321SOL    HW116862   1.601   3.759   4.927
 5321SOL    HW216863   1.713   3.851   4.852
 5322SOL     OW16864   5.458   6.864   2.165
 5322SOL    HW116865   5.449   6.777   2.117
 5322SOL    HW216866   5.553   6.895   2.160
 5323SOL     OW16867   3.986   1.220   5.473
 5323SOL    HW116868   4.069   1.276   5.469
 5323SOL    HW216869   3.981   1.164   5.390
 5324SOL     OW16870   2.080   1.620   0.439
 5324SOL    HW116871   2.155   1.585   0.384
 5324SOL    HW216872   2.026   1.543   0.475
 5325SOL     OW16873   2.313   1.995   4.903
 5325SOL    HW116874   2.302   1.944   4.988
 5325SOL    HW216875   2.222   2.022   4.869
 5326SOL     OW16876   6.199   6.883   2.304
 5326SOL    HW116877   6.130   6.901   2.234
 5326SOL    HW216878   6.185   6.792   2.343
 5327SOL     OW16879   6.019   2.643   5.157
 5327SOL    HW116880   6.076   2.564   5.177
 5327SOL    HW216881   5.943   2.646   5.222
 5328SOL     OW16882   4.102   4.712   0.052
 5328SOL    HW116883   4.124   4.749   0.142
 5328SOL    HW216884   4.006   4.683   0.050
 5329SOL     OW16885   1.792   6.437   6.303
 5329SOL    HW116886   1.696   6.423   6.282
 5329SOL    HW216887   1.800   6.499   6.382
 5330SOL     OW16888   2.663   3.557   0.470
 5330SOL    HW116889   2.565   3.564   0.448
 5330SOL    HW216890   2.697   3.646   0.499
 5331SOL     OW16891   6.265   0.691   6.420
 5331SOL    HW116892   6.225   0.601   6.404
 5331SOL    HW216893   6.192   0.760   6.425
 5332SOL     OW16894   1.229   4.954   2.250
 5332SOL    HW116895   1.171   4.875   2.230
 5332SOL    HW216896   1.195   5.033   2.200
 5333SOL     OW16897   0.706   6.019   4.167
 5333SOL    HW116898   0.792   6.037   4.119
 5333SOL    HW216899   0.671   5.928   4.141
 5334SOL     OW16900   2.818   0.216   4.262
 5334SOL    HW116901   2.776   0.176   4.180
 5334SOL    HW216902   2.780   0.307   4.277
 5335SOL     OW16903   6.859   5.802   0.702
 5335SOL    HW116904   6.939   5.777   0.756
 5335SOL    HW216905   6.783   5.741   0.722
 5336SOL     OW16906   1.617   3.862   2.249
 5336SOL    HW116907   1.589   3.794   2.182
 5336SOL    HW216908   1.713   3.888   2.232
 5337SOL     OW16909   4.562   4.552   1.395
 5337SOL    HW116910   4.534   4.568   1.490
 5337SOL    HW216911   4.558   4.638   1.345
 5338SOL     OW16912   6.539   2.261   6.210
 5338SOL    HW116913   6.494   2.174   6.230
 5338SOL    HW216914   6.479   2.316   6.152
 5339SOL     OW16915   6.681   1.965   3.542
 5339SOL    HW116916   6.639   1.999   3.458
 5339SOL    HW216917   6.615   1.974   3.617
 5340SOL     OW16918   5.330   2.188   6.892
 5340SOL    HW116919   5.270   2.204   6.971
 5340SOL    HW216920   5.341   2.273   6.842
 5341SOL     OW16921   4.292   0.299   0.099
 5341SOL    HW116922   4.325   0.207   0.076
 5341SOL    HW216923   4.201   0.291   0.141
 5342SOL     OW16924   3.592   0.752   5.706
 5342SOL    HW116925   3.598   0.729   5.609
 5342SOL    HW216926   3.683   0.753   5.747
 5343SOL     OW16927   3.917   3.834   2.330
 5343SOL    HW116928   3.921   3.923   2.376
 5343SOL    HW216929   3.998   3.780   2.353
 5344SOL     OW16930   2.257   2.138   3.070
 5344SOL    HW116931   2.218   2.230   3.078
 5344SOL    HW216932   2.253   2.109   2.974
 5345SOL     OW16933   4.521   6.697   1.892
 5345SOL    HW116934   4.598   6.743   1.847
 5345SOL    HW216935   4.446   6.685   1.826
 5346SOL     OW16936   2.888   6.536   2.870
 5346SOL    HW116937   2.828   6.461   2.899
 5346SOL    HW216938   2.915   6.521   2.775
 5347SOL     OW16939   0.542   1.916   1.190
 5347SOL    HW116940   0.604   1.866   1.130
 5347SOL    HW216941   0.512   2.000   1.145
 5348SOL     OW16942   0.678   0.899   6.604
 5348SOL    HW116943   0.647   0.806   6.588
 5348SOL    HW216944   0.706   0.940   6.517
 5349SOL     OW16945   6.334   0.585   1.482
 5349SOL    HW116946   6.401   0.531   1.431
 5349SOL    HW216947   6.248   0.588   1.432
 5350SOL     OW16948   2.143   1.529   6.201
 5350SOL    HW116949   2.207   1.592   6.158
 5350SOL    HW216950   2.148   1.537   6.300
 5351SOL     OW16951   4.385   6.880   2.050
 5351SOL    HW116952   4.333   6.932   1.983
 5351SOL    HW216953   4.444   6.814   2.004
 5352SOL     OW16954   3.308   5.579   3.871
 5352SOL    HW116955   3.252   5.646   3.921
 5352SOL    HW216956   3.272   5.569   3.778
 5353SOL     OW16957   5.571   5.707   4.979
 5353SOL    HW116958   5.666   5.736   4.994
 5353SOL    HW216959   5.542   5.735   4.887
 5354SOL     OW16960   1.002   3.997   1.335
 5354SOL    HW116961   1.028   4.082   1.288
 5354SOL    HW216962   0.958   4.020   1.422
 5355SOL     OW16963   4.781   2.340   4.903
 5355SOL    HW116964   4.872   2.366   4.872
 5355SOL    HW216965   4.723   2.422   4.909
 5356SOL     OW16966   6.376   3.693   1.186
 5356SOL    HW116967   6.375   3.618   1.252
 5356SOL    HW216968   6.467   3.704   1.148
 5357SOL     OW16969   3.810   0.132   0.093
 5357SOL    HW116970   3.769   0.065   0.155
 5357SOL    HW216971   3.766   0.126   0.003
 5358SOL     OW16972   4.836   3.124   0.708
 5358SOL    HW116973   4.750   3.145   0.662
 5358SOL    HW216974   4.816   3.079   0.795
 5359SOL     OW16975   2.051   0.771   6.729
 5359SOL    HW116976   2.064   0.847   6.793
 5359SOL    HW216977   1.960   0.732   6.742
 5360SOL     OW16978   3.382   6.861   6.699
 5360SOL    HW116979   3.398   6.920   6.778
 5360SOL    HW216980   3.284   6.845   6.688
 5361SOL     OW16981   2.311   1.060   5.919
 5361SOL    HW116982   2.245   0.992   5.952
 5361SOL    HW216983   2.290   1.085   5.824
 5362SOL     OW16984   5.113   5.128   2.657
 5362SOL    HW116985   5.041   5.182   2.614
 5362SOL    HW216986   5.091   5.030   2.648
 5363SOL     OW16987   0.977   5.581   6.089
 5363SOL    HW116988   0.929   5.606   6.005
 5363SOL    HW216989   0.986   5.481   6.094
 5364SOL     OW16990   0.753   6.139   0.978
 5364SOL    HW116991   0.850   6.122   0.964
 5364SOL    HW216992   0.742   6.218   1.038
 5365SOL     OW16993   4.275   2.063   5.917
 5365SOL    HW116994   4.254   2.018   6.004
 5365SOL    HW216995   4.345   2.011   5.869
 5366SOL     OW16996   3.856   3.261   6.985
 5366SOL    HW116997   3.770   3.238   6.939
 5366SOL    HW216998   3.847   3.245   0.066
 5367SOL     OW16999   0.321   4.958   1.077
 5367SOL    HW117000   0.354   4.980   1.169
 5367SOL    HW217001   0.400   4.946   1.016
 5368SOL     OW17002   6.221   1.621   3.834
 5368SOL    HW117003   6.295   1.681   3.804
 5368SOL    HW217004   6.157   1.672   3.892
 5369SOL     OW17005   1.788   4.202   3.133
 5369SOL    HW117006   1.700   4.156   3.145
 5369SOL    HW217007   1.818   4.191   3.038
 5370SOL     OW17008   3.599   3.031   1.265
 5370SOL    HW117009   3.627   2.935   1.259
 5370SOL    HW217010   3.502   3.037   1.288
 5371SOL     OW17011   0.750   4.280   4.855
 5371SOL    HW117012   0.774   4.353   4.790
 5371SOL    HW217013   0.656   4.252   4.840
 5372SOL     OW17014   2.688   5.369   2.712
 5372SOL    HW117015   2.593   5.379   2.681
 5372SOL    HW217016   2.748   5.360   2.633
 5373SOL     OW17017   3.267   5.244   3.751
 5373SOL    HW117018   3.217   5.172   3.799
 5373SOL    HW217019   3.332   5.287   3.813
 5374SOL     OW17020   3.005   2.132   0.397
 5374SOL    HW117021   2.947   2.087   0.329
 5374SOL    HW217022   3.060   2.063   0.444
 5375SOL     OW17023   1.397   4.518   4.011
 5375SOL    HW117024   1.469   4.586   3.994
 5375SOL    HW217025   1.369   4.522   4.107
 5376SOL     OW17026   1.647   3.388   1.018
 5376SOL    HW117027   1.596   3.372   0.933
 5376SOL    HW217028   1.739   3.422   0.997
 5377SOL     OW17029   0.262   0.989   0.810
 5377SOL    HW117030   0.342   0.950   0.857
 5377SOL    HW217031   0.288   1.074   0.766
 5378SOL     OW17032   5.527   0.700   0.357
 5378SOL    HW117033   5.592   0.762   0.313
 5378SOL    HW217034   5.550   0.606   0.331
 5379SOL     OW17035   0.222   6.063   2.060
 5379SOL    HW117036   0.261   5.973   2.080
 5379SOL    HW217037   0.240   6.125   2.136
 5380SOL     OW17038   3.153   0.520   3.719
 5380SOL    HW117039   3.186   0.582   3.790
 5380SOL    HW217040   3.219   0.446   3.705
 5381SOL     OW17041   5.935   4.250   1.302
 5381SOL    HW117042   5.886   4.164   1.285
 5381SOL    HW217043   5.888   4.324   1.254
 5382SOL     OW17044   1.830   0.417   1.319
 5382SOL    HW117045   1.924   0.446   1.300
 5382SOL    HW217046   1.766   0.481   1.277
 5383SOL     OW17047   2.548   2.059   5.050
 5383SOL    HW117048   2.483   2.115   5.100
 5383SOL    HW217049   2.499   1.988   4.998
 5384SOL     OW17050   5.895   6.797   3.959
 5384SOL    HW117051   5.822   6.728   3.960
 5384SOL    HW217052   5.981   6.755   3.987
 5385SOL     OW17053   3.522   3.897   2.458
 5385SOL    HW117054   3.566   3.819   2.415
 5385SOL    HW217055   3.502   3.876   2.553
 5386SOL     OW17056   5.535   6.350   4.673
 5386SOL    HW117057   5.505   6.397   4.590
 5386SOL    HW217058   5.615   6.397   4.711
 5387SOL     OW17059   2.923   5.358   1.722
 5387SOL    HW117060   2.856   5.287   1.702
 5387SOL    HW217061   2.917   5.384   1.818
 5388SOL     OW17062   5.671   0.199   2.516
 5388SOL    HW117063   5.726   0.204   2.433
 5388SOL    HW217064   5.677   0.106   2.554
 5389SOL     OW17065   4.867   2.173   0.821
 5389SOL    HW117066   4.806   2.250   0.805
 5389SOL    HW217067   4.925   2.193   0.900
 5390SOL     OW17068   5.988   4.790   5.753
 5390SOL    HW117069   6.041   4.785   5.838
 5390SOL    HW217070   5.951   4.699   5.732
 5391SOL     OW17071   2.546   2.916   0.141
 5391SOL    HW117072   2.603   2.908   0.059
 5391SOL    HW217073   2.591   2.977   0.206
 5392SOL     OW17074   6.390   3.352   2.160
 5392SOL    HW117075   6.422   3.352   2.255
 5392SOL    HW217076   6.292   3.328   2.158
 5393SOL     OW17077   6.981   6.941   6.503
 5393SOL    HW117078   6.968   6.846   6.530
 5393SOL    HW217079   0.057   6.955   6.473
 5394SOL     OW17080   0.842   4.129   5.946
 5394SOL    HW117081   0.898   4.211   5.948
 5394SOL    HW217082   0.759   4.143   6.001
 5395SOL     OW17083   3.781   1.279   0.280
 5395SOL    HW117084   3.798   1.185   0.251
 5395SOL    HW217085   3.728   1.278   0.365
 5396SOL     OW17086   4.942   3.529   2.177
 5396SOL    HW117087   5.027   3.486   2.150
 5396SOL    HW217088   4.870   3.460   2.185
 5397SOL     OW17089   0.105   3.643   1.607
 5397SOL    HW117090   0.032   3.685   1.661
 5397SOL    HW217091   0.166   3.592   1.667
 5398SOL     OW17092   2.963   2.424   1.703
 5398SOL    HW117093   3.062   2.413   1.696
 5398SOL    HW217094   2.936   2.414   1.799
 5399SOL     OW17095   1.757   5.805   1.241
 5399SOL    HW117096   1.762   5.848   1.331
 5399SOL    HW217097   1.730   5.873   1.173
 5400SOL     OW17098   2.959   4.257   0.524
 5400SOL    HW117099   3.057   4.276   0.516
 5400SOL    HW217100   2.945   4.174   0.578
 5401SOL     OW17101   6.264   2.947   1.760
 5401SOL    HW117102   6.229   3.030   1.805
 5401SOL    HW217103   6.250   2.955   1.661
 5402SOL     OW17104   1.020   6.245   1.742
 5402SOL    HW117105   0.994   6.302   1.664
 5402SOL    HW217106   1.101   6.284   1.786
 5403SOL     OW17107   0.113   2.724   6.458
 5403SOL    HW117108   0.056   2.667   6.518
 5403SOL    HW217109   0.122   2.815   6.499
 5404SOL     OW17110   1.944   2.832   3.511
 5404SOL    HW117111   1.980   2.887   3.435
 5404SOL    HW217112   1.971   2.874   3.597
 5405SOL     OW17113   6.313   5.121   5.854
 5405SOL    HW117114   6.380   5.099   5.925
 5405SOL    HW217115   6.255   5.196   5.885
 5406SOL     OW17116   2.091   0.563   5.671
 5406SOL    HW117117   2.016   0.518   5.622
 5406SOL    HW217118   2.127   0.637   5.615
 5407SOL     OW17119   4.196   3.314   6.851
 5407SOL    HW117120   4.151   3.227   6.833
 5407SOL    HW217121   4.127   3.385   6.867
 5408SOL     OW17122   2.718   0.593   6.537
 5408SOL    HW117123   2.818   0.602   6.536
 5408SOL    HW217124   2.691   0.515   6.480
 5409SOL     OW17125   3.711   0.836   2.497
 5409SOL    HW117126   3.676   0.884   2.415
 5409SOL    HW217127   3.807   0.812   2.483
 5410SOL     OW17128   2.630   2.082   2.250
 5410SOL    HW117129   2.681   2.123   2.325
 5410SOL    HW217130   2.651   2.130   2.164
 5411SOL     OW17131   0.488   5.578   5.120
 5411SOL    HW117132   0.400   5.624   5.109
 5411SOL    HW217133   0.474   5.488   5.162
 5412SOL     OW17134   6.368   2.548   0.737
 5412SOL    HW117135   6.413   2.588   0.657
 5412SOL    HW217136   6.430   2.552   0.815
 5413SOL     OW17137   2.222   0.916   1.327
 5413SOL    HW117138   2.135   0.876   1.299
 5413SOL    HW217139   2.253   0.981   1.257
 5414SOL     OW17140   3.861   1.340   5.131
 5414SOL    HW117141   3.807   1.381   5.204
 5414SOL    HW217142   3.846   1.241   5.129
 5415SOL     OW17143   6.241   5.066   2.050
 5415SOL    HW117144   6.324   5.026   2.011
 5415SOL    HW217145   6.234   5.162   2.023
 5416SOL     OW17146   4.506   5.469   4.844
 5416SOL    HW117147   4.589   5.414   4.846
 5416SOL    HW217148   4.468   5.470   4.751
 5417SOL     OW17149   3.454   6.952   4.703
 5417SOL    HW117150   3.414   7.014   4.771
 5417SOL    HW217151   3.505   7.005   4.636
 5418SOL     OW17152   3.607   0.376   2.921
 5418SOL    HW117153   3.695   0.393   2.966
 5418SOL    HW217154   3.566   0.463   2.895
 5419SOL     OW17155   3.461   4.397   6.711
 5419SOL    HW117156   3.545   4.346   6.728
 5419SOL    HW217157   3.410   4.355   6.636
 5420SOL     OW17158   1.265   1.589   2.687
 5420SOL    HW117159   1.180   1.611   2.638
 5420SOL    HW217160   1.343   1.628   2.639
 5421SOL     OW17161   1.589   3.620   2.093
 5421SOL    HW117162   1.569   3.533   2.048
 5421SOL    HW217163   1.686   3.623   2.117
 5422SOL     OW17164   2.448   3.304   1.228
 5422SOL    HW117165   2.382   3.296   1.153
 5422SOL    HW217166   2.431   3.389   1.278
 5423SOL     OW17167   5.773   3.199   0.043
 5423SOL    HW117168   5.858   3.160   0.009
 5423SOL    HW217169   5.781   3.216   0.141
 5424SOL     OW17170   5.211   3.832   4.227
 5424SOL    HW117171   5.228   3.743   4.270
 5424SOL    HW217172   5.249   3.832   4.134
 5425SOL     OW17173   4.904   0.865   5.189
 5425SOL    HW117174   4.875   0.939   5.250
 5425SOL    HW217175   4.825   0.807   5.168
 5426SOL     OW17176   6.067   0.143   5.079
 5426SOL    HW117177   6.087   0.178   4.987
 5426SOL    HW217178   5.974   0.169   5.105
 5427SOL     OW17179   3.915   5.696   6.393
 5427SOL    HW117180   3.954   5.622   6.448
 5427SOL    HW217181   3.914   5.669   6.297
 5428SOL     OW17182   1.504   0.219   0.076
 5428SOL    HW117183   1.449   0.262   0.005
 5428SOL    HW217184   1.447   0.197   0.155
 5429SOL     OW17185   0.980   2.734   6.515
 5429SOL    HW117186   0.975   2.638   6.485
 5429SOL    HW217187   0.971   2.738   6.614
 5430SOL     OW17188   1.984   2.773   5.787
 5430SOL    HW117189   1.971   2.861   5.741
 5430SOL    HW217190   2.064   2.727   5.749
 5431SOL     OW17191   3.729   5.886   5.036
 5431SOL    HW117192   3.823   5.915   5.051
 5431SOL    HW217193   3.724   5.831   4.952
 5432SOL     OW17194   5.115   6.755   1.172
 5432SOL    HW117195   5.058   6.796   1.102
 5432SOL    HW217196   5.122   6.817   1.250
 5433SOL     OW17197   0.672   1.633   4.985
 5433SOL    HW117198   0.704   1.611   4.893
 5433SOL    HW217199   0.739   1.693   5.030
 5434SOL     OW17200   2.781   0.474   5.679
 5434SOL    HW117201   2.823   0.564   5.675
 5434SOL    HW217202   2.688   0.478   5.641
 5435SOL     OW17203   4.584   0.407   1.962
 5435SOL    HW117204   4.567   0.396   2.060
 5435SOL    HW217205   4.645   0.334   1.931
 5436SOL     OW17206   4.816   4.090   2.882
 5436SOL    HW117207   4.806   4.053   2.790
 5436SOL    HW217208   4.776   4.181   2.886
 5437SOL     OW17209   3.102   3.658   6.932
 5437SOL    HW117210   3.068   3.579   6.881
 5437SOL    HW217211   3.046   3.738   6.912
 5438SOL     OW17212   6.246   1.906   0.987
 5438SOL    HW117213   6.206   1.814   0.989
 5438SOL    HW217214   6.210   1.960   1.063
 5439SOL     OW17215   1.041   2.163   1.455
 5439SOL    HW117216   1.087   2.154   1.543
 5439SOL    HW217217   1.102   2.132   1.382
 5440SOL     OW17218   0.898   1.650   1.079
 5440SOL    HW117219   0.802   1.624   1.092
 5440SOL    HW217220   0.953   1.567   1.069
 5441SOL     OW17221   3.779   1.976   3.181
 5441SOL    HW117222   3.755   1.881   3.164
 5441SOL    HW217223   3.703   2.021   3.230
 5442SOL     OW17224   3.956   0.470   2.538
 5442SOL    HW117225   3.860   0.461   2.563
 5442SOL    HW217226   3.995   0.552   2.582
 5443SOL     OW17227   3.318   6.997   5.348
 5443SOL    HW117228   3.275   6.960   5.266
 5443SOL    HW217229   3.258   6.982   5.427
 5444SOL     OW17230   6.830   7.013   3.350
 5444SOL    HW117231   6.860   0.043   3.433
 5444SOL    HW217232   6.887   6.932   3.335
 5445SOL     OW17233   5.667   3.696   2.300
 5445SOL    HW117234   5.733   3.671   2.229
 5445SOL    HW217235   5.585   3.733   2.257
 5446SOL     OW17236   6.048   5.631   5.997
 5446SOL    HW117237   5.956   5.640   5.959
 5446SOL    HW217238   6.058   5.693   6.075
 5447SOL     OW17239   3.763   2.327   0.105
 5447SOL    HW117240   3.801   2.416   0.129
 5447SOL    HW217241   3.747   2.273   0.187
 5448SOL     OW17242   5.549   2.150   5.366
 5448SOL    HW117243   5.571   2.240   5.404
 5448SOL    HW217244   5.583   2.144   5.272
 5449SOL     OW17245   0.962   3.378   6.598
 5449SOL    HW117246   0.903   3.312   6.643
 5449SOL    HW217247   1.001   3.337   6.515
 5450SOL     OW17248   2.234   0.048   0.926
 5450SOL    HW117249   2.265   0.086   1.013
 5450SOL    HW217250   2.135   0.055   0.919
 5451SOL     OW17251   0.866   6.509   2.994
 5451SOL    HW117252   0.873   6.410   2.993
 5451SOL    HW217253   0.921   6.548   2.920
 5452SOL     OW17254   2.504   4.119   6.490
 5452SOL    HW117255   2.483   4.052   6.419
 5452SOL    HW217256   2.487   4.212   6.455
 5453SOL     OW17257   6.093   5.047   6.684
 5453SOL    HW117258   6.091   5.124   6.748
 5453SOL    HW217259   6.179   4.996   6.697
 5454SOL     OW17260   7.010   4.527   0.007
 5454SOL    HW117261   0.044   4.565   0.084
 5454SOL    HW217262   0.040   4.447   6.989
 5455SOL     OW17263   6.709   3.436   0.733
 5455SOL    HW117264   6.636   3.368   0.727
 5455SOL    HW217265   6.671   3.527   0.714
 5456SOL     OW17266   3.189   6.814   0.350
 5456SOL    HW117267   3.234   6.813   0.261
 5456SOL    HW217268   3.228   6.743   0.408
 5457SOL     OW17269   5.986   3.091   0.860
 5457SOL    HW117270   5.898   3.092   0.909
 5457SOL    HW217271   6.060   3.078   0.925
 5458SOL     OW17272   1.996   4.332   6.801
 5458SOL    HW117273   2.065   4.271   6.841
 5458SOL    HW217274   1.911   4.282   6.786
 5459SOL     OW17275   1.753   4.719   6.413
 5459SOL    HW117276   1.763   4.633   6.364
 5459SOL    HW217277   1.833   4.733   6.472
 5460SOL     OW17278   3.009   0.285   1.195
 5460SOL    HW117279   2.996   0.377   1.159
 5460SOL    HW217280   2.923   0.235   1.193
 5461SOL     OW17281   4.747   0.046   5.011
 5461SOL    HW117282   4.738   0.135   4.966
 5461SOL    HW217283   4.702   6.994   4.955
 5462SOL     OW17284   1.321   0.376   0.652
 5462SOL    HW117285   1.397   0.316   0.678
 5462SOL    HW217286   1.356   0.467   0.630
 5463SOL     OW17287   6.564   2.551   0.905
 5463SOL    HW117288   6.614   2.493   0.840
 5463SOL    HW217289   6.603   2.643   0.904
 5464SOL     OW17290   1.928   6.906   4.445
 5464SOL    HW117291   2.018   6.874   4.475
 5464SOL    HW217292   1.928   7.006   4.441
 5465SOL     OW17293   2.618   0.310   5.324
 5465SOL    HW117294   2.573   0.389   5.366
 5465SOL    HW217295   2.551   0.237   5.309
 5466SOL     OW17296   4.588   4.531   4.569
 5466SOL    HW117297   4.577   4.614   4.624
 5466SOL    HW217298   4.522   4.531   4.494
 5467SOL     OW17299   5.507   1.411   2.261
 5467SOL    HW117300   5.595   1.456   2.275
 5467SOL    HW217301   5.491   1.344   2.333
 5468SOL     OW17302   4.311   1.789   4.952
 5468SOL    HW117303   4.261   1.782   4.866
 5468SOL    HW217304   4.270   1.728   5.020
 5469SOL     OW17305   4.346   4.226   6.738
 5469SOL    HW117306   4.260   4.185   6.708
 5469SOL    HW217307   4.402   4.156   6.783
 5470SOL     OW17308   1.744   4.970   3.889
 5470SOL    HW117309   1.797   5.053   3.907
 5470SOL    HW217310   1.777   4.896   3.948
 5471SOL     OW17311   6.642   5.770   1.876
 5471SOL    HW117312   6.692   5.698   1.924
 5471SOL    HW217313   6.693   5.856   1.882
 5472SOL     OW17314   3.832   4.794   5.845
 5472SOL    HW117315   3.754   4.735   5.869
 5472SOL    HW217316   3.908   4.737   5.813
 5473SOL     OW17317   1.212   3.701   3.483
 5473SOL    HW117318   1.171   3.634   3.545
 5473SOL    HW217319   1.304   3.724   3.514
 5474SOL     OW17320   1.460   5.646   3.678
 5474SOL    HW117321   1.415   5.558   3.666
 5474SOL    HW217322   1.406   5.703   3.739
 5475SOL     OW17323   2.693   2.262   1.262
 5475SOL    HW117324   2.696   2.348   1.210
 5475SOL    HW217325   2.700   2.282   1.360
 5476SOL     OW17326   1.338   3.155   6.180
 5476SOL    HW117327   1.347   3.202   6.268
 5476SOL    HW217328   1.276   3.077   6.190
 5477SOL     OW17329   2.143   3.093   2.928
 5477SOL    HW117330   2.171   3.189   2.920
 5477SOL    HW217331   2.178   3.056   3.014
 5478SOL     OW17332   5.988   5.933   5.435
 5478SOL    HW117333   6.079   5.937   5.478
 5478SOL    HW217334   5.998   5.946   5.336
 5479SOL     OW17335   4.778   0.663   5.041
 5479SOL    HW117336   4.710   0.732   5.019
 5479SOL    HW217337   4.736   0.590   5.096
 5480SOL     OW17338   0.450   3.756   4.238
 5480SOL    HW117339   0.549   3.769   4.234
 5480SOL    HW217340   0.428   3.693   4.313
 5481SOL     OW17341   4.361   6.527   3.890
 5481SOL    HW117342   4.295   6.513   3.815
 5481SOL    HW217343   4.404   6.440   3.913
 5482SOL     OW17344   1.682   4.295   1.250
 5482SOL    HW117345   1.737   4.295   1.334
 5482SOL    HW217346   1.680   4.202   1.213
 5483SOL     OW17347   0.306   2.547   5.810
 5483SOL    HW117348   0.384   2.531   5.870
 5483SOL    HW217349   0.230   2.488   5.838
 5484SOL     OW17350   4.659   0.892   4.970
 5484SOL    HW117351   4.640   0.887   5.068
 5484SOL    HW217352   4.708   0.977   4.949
 5485SOL     OW17353   2.866   0.625   5.318
 5485SOL    HW117354   2.864   0.526   5.306
 5485SOL    HW217355   2.873   0.669   5.228
 5486SOL     OW17356   2.887   6.337   4.989
 5486SOL    HW117357   2.936   6.411   5.035
 5486SOL    HW217358   2.933   6.314   4.903
 5487SOL     OW17359   3.606   5.356   5.825
 5487SOL    HW117360   3.522   5.386   5.780
 5487SOL    HW217361   3.665   5.311   5.757
 5488SOL     OW17362   6.013   1.561   0.809
 5488SOL    HW117363   5.932   1.521   0.766
 5488SOL    HW217364   5.984   1.633   0.873
 5489SOL     OW17365   6.867   4.120   3.049
 5489SOL    HW117366   6.876   4.029   3.090
 5489SOL    HW217367   6.934   4.182   3.090
 5490SOL     OW17368   1.820   6.563   2.889
 5490SOL    HW117369   1.825   6.644   2.830
 5490SOL    HW217370   1.892   6.568   2.958
 5491SOL     OW17371   6.333   4.338   0.520
 5491SOL    HW117372   6.280   4.292   0.591
 5491SOL    HW217373   6.391   4.408   0.562
 5492SOL     OW17374   6.907   2.409   6.261
 5492SOL    HW117375   6.974   2.475   6.229
 5492SOL    HW217376   6.853   2.376   6.183
 5493SOL     OW17377   3.546   3.785   1.154
 5493SOL    HW117378   3.640   3.794   1.122
 5493SOL    HW217379   3.493   3.731   1.089
 5494SOL     OW17380   5.827   3.905   5.211
 5494SOL    HW117381   5.794   3.811   5.219
 5494SOL    HW217382   5.897   3.910   5.140
 5495SOL     OW17383   5.902   6.761   0.749
 5495SOL    HW117384   5.964   6.685   0.771
 5495SOL    HW217385   5.811   6.725   0.730
 5496SOL     OW17386   3.822   0.269   4.224
 5496SOL    HW117387   3.729   0.277   4.187
 5496SOL    HW217388   3.820   0.288   4.322
 5497SOL     OW17389   1.358   0.731   5.830
 5497SOL    HW117390   1.438   0.746   5.888
 5497SOL    HW217391   1.288   0.799   5.852
 5498SOL     OW17392   0.877   5.187   1.554
 5498SOL    HW117393   0.975   5.188   1.577
 5498SOL    HW217394   0.825   5.223   1.632
 5499SOL     OW17395   2.206   0.591   4.820
 5499SOL    HW117396   2.296   0.553   4.841
 5499SOL    HW217397   2.203   0.620   4.724
 5500SOL     OW17398   2.819   0.801   0.883
 5500SOL    HW117399   2.827   0.802   0.982
 5500SOL    HW217400   2.828   0.895   0.848
 5501SOL     OW17401   3.706   3.650   6.620
 5501SOL    HW117402   3.716   3.701   6.706
 5501SOL    HW217403   3.737   3.556   6.634
 5502SOL     OW17404   4.575   2.525   0.491
 5502SOL    HW117405   4.571   2.623   0.509
 5502SOL    HW217406   4.569   2.475   0.577
 5503SOL     OW17407   6.346   4.062   0.935
 5503SOL    HW117408   6.404   4.073   1.015
 5503SOL    HW217409   6.291   3.979   0.943
 5504SOL     OW17410   3.563   1.477   6.783
 5504SOL    HW117411   3.611   1.559   6.752
 5504SOL    HW217412   3.465   1.488   6.767
 5505SOL     OW17413   2.922   5.178   3.124
 5505SOL    HW117414   2.954   5.205   3.214
 5505SOL    HW217415   2.839   5.229   3.101
 5506SOL     OW17416   0.570   3.300   6.009
 5506SOL    HW117417   0.579   3.324   6.105
 5506SOL    HW217418   0.483   3.335   5.974
 5507SOL     OW17419   2.752   6.780   0.082
 5507SOL    HW117420   2.720   6.710   0.018
 5507SOL    HW217421   2.794   6.855   0.031
 5508SOL     OW17422   6.736   0.846   6.238
 5508SOL    HW117423   6.785   0.819   6.321
 5508SOL    HW217424   6.638   0.849   6.257
 5509SOL     OW17425   6.878   5.111   1.084
 5509SOL    HW117426   6.861   5.182   1.017
 5509SOL    HW217427   6.862   5.021   1.043
 5510SOL     OW17428   4.227   4.919   0.277
 5510SOL    HW117429   4.148   4.948   0.332
 5510SOL    HW217430   4.253   4.826   0.302
 5511SOL     OW17431   0.455   2.007   5.672
 5511SOL    HW117432   0.389   1.994   5.598
 5511SOL    HW217433   0.542   1.964   5.647
 5512SOL     OW17434   2.616   1.009   2.033
 5512SOL    HW117435   2.529   0.996   2.080
 5512SOL    HW217436   2.639   1.106   2.033
 5513SOL     OW17437   4.285   4.280   0.359
 5513SOL    HW117438   4.213   4.313   0.419
 5513SOL    HW217439   4.250   4.204   0.303
 5514SOL     OW17440   2.923   1.134   0.353
 5514SOL    HW117441   2.956   1.112   0.261
 5514SOL    HW217442   2.972   1.078   0.420
 5515SOL     OW17443   2.434   5.905   2.491
 5515SOL    HW117444   2.489   5.849   2.554
 5515SOL    HW217445   2.478   5.908   2.402
 5516SOL     OW17446   1.685   2.175   5.480
 5516SOL    HW117447   1.607   2.161   5.541
 5516SOL    HW217448   1.709   2.272   5.478
 5517SOL     OW17449   0.904   2.587   3.318
 5517SOL    HW117450   0.850   2.627   3.243
 5517SOL    HW217451   0.999   2.619   3.311
 5518SOL     OW17452   4.586   4.865   6.863
 5518SOL    HW117453   4.496   4.827   6.885
 5518SOL    HW217454   4.578   4.926   6.784
 5519SOL     OW17455   4.585   2.466   4.063
 5519SOL    HW117456   4.489   2.476   4.040
 5519SOL    HW217457   4.597   2.387   4.124
 5520SOL     OW17458   5.027   6.909   1.394
 5520SOL    HW117459   5.052   6.855   1.474
 5520SOL    HW217460   4.977   6.991   1.423
 5521SOL     OW17461   4.915   6.070   2.119
 5521SOL    HW117462   4.906   6.035   2.026
 5521SOL    HW217463   4.940   6.167   2.116
 5522SOL     OW17464   6.008   5.858   1.160
 5522SOL    HW117465   6.067   5.939   1.172
 5522SOL    HW217466   5.924   5.885   1.113
 5523SOL     OW17467   5.218   0.818   0.962
 5523SOL    HW117468   5.174   0.907   0.970
 5523SOL    HW217469   5.149   0.746   0.969
 5524SOL     OW17470   2.367   1.667   4.058
 5524SOL    HW117471   2.309   1.599   4.103
 5524SOL    HW217472   2.371   1.749   4.115
 5525SOL     OW17473   5.803   1.233   1.771
 5525SOL    HW117474   5.902   1.221   1.782
 5525SOL    HW217475   5.770   1.176   1.696
 5526SOL     OW17476   5.560   4.782   3.923
 5526SOL    HW117477   5.468   4.813   3.903
 5526SOL    HW217478   5.558   4.684   3.946
 5527SOL     OW17479   5.708   1.273   3.871
 5527SOL    HW117480   5.742   1.341   3.936
 5527SOL    HW217481   5.608   1.279   3.866
 5528SOL     OW17482   0.918   1.015   6.780
 5528SOL    HW117483   0.914   1.004   6.879
 5528SOL    HW217484   0.858   0.948   6.736
 5529SOL     OW17485   3.570   0.630   1.982
 5529SOL    HW117486   3.540   0.580   2.063
 5529SOL    HW217487   3.632   0.704   2.009
 5530SOL     OW17488   6.262   2.286   0.899
 5530SOL    HW117489   6.332   2.354   0.878
 5530SOL    HW217490   6.286   2.199   0.856
 5531SOL     OW17491   2.230   3.926   0.960
 5531SOL    HW117492   2.178   3.946   1.043
 5531SOL    HW217493   2.322   3.964   0.968
 5532SOL     OW17494   1.445   2.763   0.382
 5532SOL    HW117495   1.471   2.841   0.325
 5532SOL    HW217496   1.446   2.790   0.478
 5533SOL     OW17497   3.214   1.751   2.447
 5533SOL    HW117498   3.249   1.833   2.402
 5533SOL    HW217499   3.114   1.753   2.448
 5534SOL     OW17500   1.696   0.393   4.943
 5534SOL    HW117501   1.632   0.419   4.870
 5534SOL    HW217502   1.788   0.426   4.921
 5535SOL     OW17503   0.264   1.623   2.904
 5535SOL    HW117504   0.258   1.706   2.960
 5535SOL    HW217505   0.308   1.644   2.817
 5536SOL     OW17506   3.849   6.240   4.388
 5536SOL    HW117507   3.875   6.183   4.310
 5536SOL    HW217508   3.890   6.331   4.378
 5537SOL     OW17509   2.746   1.437   3.548
 5537SOL    HW117510   2.651   1.450   3.520
 5537SOL    HW217511   2.799   1.518   3.523
 5538SOL     OW17512   4.559   5.037   4.971
 5538SOL    HW117513   4.635   5.073   5.026
 5538SOL    HW217514   4.476   5.088   4.991
 5539SOL     OW17515   2.442   4.497   0.453
 5539SOL    HW117516   2.494   4.466   0.533
 5539SOL    HW217517   2.346   4.475   0.464
 5540SOL     OW17518   5.011   5.374   1.701
 5540SOL    HW117519   5.072   5.451   1.686
 5540SOL    HW217520   5.031   5.302   1.634
 5541SOL     OW17521   4.860   1.365   5.762
 5541SOL    HW117522   4.850   1.461   5.789
 5541SOL    HW217523   4.802   1.346   5.683
 5542SOL     OW17524   5.249   4.486   6.738
 5542SOL    HW117525   5.288   4.398   6.711
 5542SOL    HW217526   5.273   4.505   6.833
 5543SOL     OW17527   6.999   2.091   6.014
 5543SOL    HW117528   0.028   2.062   5.930
 5543SOL    HW217529   6.901   2.075   6.004
 5544SOL     OW17530   5.882   1.083   6.796
 5544SOL    HW117531   5.881   0.983   6.795
 5544SOL    HW217532   5.799   1.116   6.841
 5545SOL     OW17533   2.601   2.388   1.886
 5545SOL    HW117534   2.690   2.430   1.904
 5545SOL    HW217535   2.595   2.362   1.790
 5546SOL     OW17536   3.135   5.019   5.544
 5546SOL    HW117537   3.216   4.966   5.519
 5546SOL    HW217538   3.057   4.957   5.557
 5547SOL     OW17539   3.713   6.012   4.359
 5547SOL    HW117540   3.654   5.972   4.430
 5547SOL    HW217541   3.728   6.109   4.379
 5548SOL     OW17542   0.211   2.749   5.031
 5548SOL    HW117543   0.157   2.672   4.996
 5548SOL    HW217544   0.151   2.812   5.080
 5549SOL     OW17545   3.309   4.604   0.321
 5549SOL    HW117546   3.241   4.676   0.309
 5549SOL    HW217547   3.285   4.526   0.263
 5550SOL     OW17548   3.491   6.882   2.552
 5550SOL    HW117549   3.438   6.821   2.611
 5550SOL    HW217550   3.547   6.828   2.489
 5551SOL     OW17551   0.050   1.517   2.748
 5551SOL    HW117552   0.148   1.540   2.754
 5551SOL    HW217553   0.020   1.480   2.836
 5552SOL     OW17554   0.880   2.645   1.440
 5552SOL    HW117555   0.869   2.741   1.463
 5552SOL    HW217556   0.826   2.589   1.503
 5553SOL     OW17557   5.137   6.357   6.995
 5553SOL    HW117558   5.062   6.319   0.033
 5553SOL    HW217559   5.131   6.457   6.996
 5554SOL     OW17560   3.164   1.168   4.082
 5554SOL    HW117561   3.070   1.172   4.049
 5554SOL    HW217562   3.192   1.259   4.113
 5555SOL     OW17563   0.825   6.135   2.053
 5555SOL    HW117564   0.869   6.219   2.021
 5555SOL    HW217565   0.854   6.116   2.147
 5556SOL     OW17566   0.473   0.896   4.360
 5556SOL    HW117567   0.538   0.869   4.431
 5556SOL    HW217568   0.520   0.950   4.291
 5557SOL     OW17569   2.847   0.831   3.443
 5557SOL    HW117570   2.799   0.906   3.398
 5557SOL    HW217571   2.939   0.861   3.469
 5558SOL     OW17572   5.035   2.396   4.807
 5558SOL    HW117573   5.092   2.314   4.809
 5558SOL    HW217574   5.093   2.477   4.815
 5559SOL     OW17575   2.954   0.532   1.078
 5559SOL    HW117576   2.924   0.622   1.109
 5559SOL    HW217577   2.879   0.487   1.030
 5560SOL     OW17578   6.978   1.230   4.551
 5560SOL    HW117579   6.950   1.317   4.511
 5560SOL    HW217580   0.006   1.247   4.639
 5561SOL     OW17581   1.760   3.792   2.882
 5561SOL    HW117582   1.751   3.697   2.851
 5561SOL    HW217583   1.670   3.826   2.910
 5562SOL     OW17584   2.902   2.207   6.504
 5562SOL    HW117585   2.975   2.191   6.570
 5562SOL    HW217586   2.935   2.188   6.412
 5563SOL     OW17587   3.937   4.344   1.693
 5563SOL    HW117588   3.869   4.416   1.682
 5563SOL    HW217589   3.894   4.262   1.730
 5564SOL     OW17590   6.169   3.941   2.110
 5564SOL    HW117591   6.071   3.955   2.097
 5564SOL    HW217592   6.189   3.937   2.208
 5565SOL     OW17593   2.996   2.939   5.501
 5565SOL    HW117594   2.977   2.989   5.417
 5565SOL    HW217595   3.012   3.004   5.576
 5566SOL     OW17596   1.920   4.672   0.603
 5566SOL    HW117597   1.823   4.665   0.629
 5566SOL    HW217598   1.941   4.766   0.579
 5567SOL     OW17599   1.958   5.323   3.333
 5567SOL    HW117600   1.922   5.234   3.306
 5567SOL    HW217601   2.042   5.311   3.386
 5568SOL     OW17602   3.783   2.616   1.101
 5568SOL    HW117603   3.785   2.537   1.162
 5568SOL    HW217604   3.784   2.585   1.006
 5569SOL     OW17605   5.531   2.112   6.712
 5569SOL    HW117606   5.564   2.206   6.704
 5569SOL    HW217607   5.465   2.106   6.787
 5570SOL     OW17608   0.663   3.582   5.295
 5570SOL    HW117609   0.700   3.637   5.370
 5570SOL    HW217610   0.619   3.641   5.228
 5571SOL     OW17611   6.334   4.534   6.769
 5571SOL    HW117612   6.277   4.589   6.708
 5571SOL    HW217613   6.276   4.469   6.819
 5572SOL     OW17614   5.745   2.642   5.289
 5572SOL    HW117615   5.727   2.662   5.192
 5572SOL    HW217616   5.770   2.726   5.336
 5573SOL     OW17617   0.345   3.729   0.462
 5573SOL    HW117618   0.340   3.643   0.411
 5573SOL    HW217619   0.323   3.711   0.558
 5574SOL     OW17620   0.431   6.241   4.638
 5574SOL    HW117621   0.359   6.264   4.704
 5574SOL    HW217622   0.507   6.304   4.650
 5575SOL     OW17623   0.839   1.064   1.322
 5575SOL    HW117624   0.869   1.093   1.413
 5575SOL    HW217625   0.743   1.038   1.326
 5576SOL     OW17626   6.028   5.947   0.125
 5576SOL    HW117627   6.042   5.851   0.101
 5576SOL    HW217628   6.092   6.004   0.074
 5577SOL     OW17629   2.118   3.905   4.863
 5577SOL    HW117630   2.191   3.944   4.919
 5577SOL    HW217631   2.070   3.834   4.914
 5578SOL     OW17632   3.264   2.028   6.221
 5578SOL    HW117633   3.176   2.015   6.175
 5578SOL    HW217634   3.252   2.018   6.319
 5579SOL     OW17635   4.806   5.227   1.782
 5579SOL    HW117636   4.864   5.301   1.750
 5579SOL    HW217637   4.862   5.153   1.818
 5580SOL     OW17638   5.305   0.852   1.391
 5580SOL    HW117639   5.405   0.842   1.391
 5580SOL    HW217640   5.264   0.771   1.350
 5581SOL     OW17641   2.471   2.811   0.530
 5581SOL    HW117642   2.538   2.844   0.597
 5581SOL    HW217643   2.425   2.890   0.488
 5582SOL     OW17644   3.454   2.895   3.361
 5582SOL    HW117645   3.523   2.967   3.367
 5582SOL    HW217646   3.463   2.832   3.437
 5583SOL     OW17647   4.457   0.508   0.063
 5583SOL    HW117648   4.383   0.443   0.083
 5583SOL    HW217649   4.531   0.495   0.129
 5584SOL     OW17650   5.126   3.002   3.106
 5584SOL    HW117651   5.075   3.073   3.058
 5584SOL    HW217652   5.195   3.045   3.164
 5585SOL     OW17653   0.077   6.876   4.547
 5585SOL    HW117654   0.051   6.959   4.497
 5585SOL    HW217655   0.109   6.807   4.483
 5586SOL     OW17656   2.363   1.380   6.644
 5586SOL    HW117657   2.292   1.443   6.612
 5586SOL    HW217658   2.368   1.301   6.583
 5587SOL     OW17659   3.725   6.599   4.227
 5587SOL    HW117660   3.641   6.550   4.251
 5587SOL    HW217661   3.772   6.628   4.311
 5588SOL     OW17662   4.649   0.539   5.908
 5588SOL    HW117663   4.568   0.506   5.859
 5588SOL    HW217664   4.648   0.504   6.002
 5589SOL     OW17665   3.260   3.990   6.756
 5589SOL    HW117666   3.349   3.970   6.715
 5589SOL    HW217667   3.273   4.031   6.846
 5590SOL     OW17668   6.665   6.825   3.759
 5590SOL    HW117669   6.573   6.809   3.722
 5590SOL    HW217670   6.733   6.792   3.693
 5591SOL     OW17671   5.503   0.211   6.982
 5591SOL    HW117672   5.569   0.154   0.014
 5591SOL    HW217673   5.465   0.159   6.906
 5592SOL     OW17674   1.576   2.000   2.852
 5592SOL    HW117675   1.596   1.917   2.905
 5592SOL    HW217676   1.650   2.016   2.787
 5593SOL     OW17677   1.845   3.883   4.723
 5593SOL    HW117678   1.906   3.926   4.789
 5593SOL    HW217679   1.885   3.890   4.631
 5594SOL     OW17680   2.831   1.529   6.216
 5594SOL    HW117681   2.877   1.548   6.302
 5594SOL    HW217682   2.736   1.504   6.234
 5595SOL     OW17683   0.377   1.842   6.066
 5595SOL    HW117684   0.335   1.849   6.157
 5595SOL    HW217685   0.435   1.922   6.051
 5596SOL     OW17686   4.922   2.164   3.516
 5596SOL    HW117687   4.919   2.264   3.519
 5596SOL    HW217688   4.843   2.129   3.466
 5597SOL     OW17689   0.307   1.852   6.330
 5597SOL    HW117690   0.346   1.769   6.370
 5597SOL    HW217691   0.216   1.868   6.368
 5598SOL     OW17692   6.880   1.843   4.174
 5598SOL    HW117693   6.894   1.812   4.080
 5598SOL    HW217694   6.930   1.783   4.237
 5599SOL     OW17695   5.322   2.482   2.959
 5599SOL    HW117696   5.280   2.466   2.870
 5599SOL    HW217697   5.342   2.394   3.002
 5600SOL     OW17698   1.929   2.239   2.439
 5600SOL    HW117699   1.933   2.307   2.366
 5600SOL    HW217700   1.835   2.233   2.474
 5601SOL     OW17701   5.414   3.574   5.980
 5601SOL    HW117702   5.489   3.606   5.923
 5601SOL    HW217703   5.330   3.570   5.926
 5602SOL     OW17704   6.284   2.357   2.127
 5602SOL    HW117705   6.252   2.385   2.217
 5602SOL    HW217706   6.326   2.435   2.080
 5603SOL     OW17707   3.427   2.277   6.005
 5603SOL    HW117708   3.461   2.219   6.079
 5603SOL    HW217709   3.335   2.247   5.979
 5604SOL     OW17710   0.979   6.485   3.741
 5604SOL    HW117711   1.021   6.502   3.651
 5604SOL    HW217712   1.034   6.419   3.791
 5605SOL     OW17713   4.231   6.853   3.993
 5605SOL    HW117714   4.306   6.801   3.951
 5605SOL    HW217715   4.257   6.949   4.003
 5606SOL     OW17716   4.624   2.806   0.350
 5606SOL    HW117717   4.720   2.816   0.375
 5606SOL    HW217718   4.571   2.880   0.392
 5607SOL     OW17719   0.231   2.438   3.126
 5607SOL    HW117720   0.239   2.379   3.206
 5607SOL    HW217721   0.274   2.526   3.145
 5608SOL     OW17722   5.055   0.760   3.905
 5608SOL    HW117723   5.120   0.773   3.831
 5608SOL    HW217724   5.009   0.847   3.925
 5609SOL     OW17725   6.939   0.635   7.012
 5609SOL    HW117726   0.006   0.582   7.009
 5609SOL    HW217727   6.898   0.637   6.920
 5610SOL     OW17728   6.059   6.121   6.809
 5610SOL    HW117729   6.063   6.143   6.712
 5610SOL    HW217730   6.059   6.205   6.863
 5611SOL     OW17731   6.319   4.040   1.902
 5611SOL    HW117732   6.398   4.088   1.942
 5611SOL    HW217733   6.273   3.988   1.974
 5612SOL     OW17734   3.990   1.779   0.619
 5612SOL    HW117735   3.986   1.790   0.718
 5612SOL    HW217736   3.954   1.862   0.575
 5613SOL     OW17737   5.945   5.173   5.838
 5613SOL    HW117738   5.908   5.244   5.778
 5613SOL    HW217739   5.891   5.090   5.829
 5614SOL     OW17740   5.136   2.853   4.441
 5614SOL    HW117741   5.139   2.770   4.497
 5614SOL    HW217742   5.071   2.840   4.366
 5615SOL     OW17743   0.549   3.111   3.611
 5615SOL    HW117744   0.460   3.130   3.652
 5615SOL    HW217745   0.557   3.162   3.525
 5616SOL     OW17746   2.056   3.358   2.667
 5616SOL    HW117747   1.999   3.277   2.653
 5616SOL    HW217748   2.137   3.332   2.720
 5617SOL     OW17749   1.432   4.819   6.039
 5617SOL    HW117750   1.399   4.727   6.060
 5617SOL    HW217751   1.355   4.883   6.038
 5618SOL     OW17752   5.011   6.507   2.427
 5618SOL    HW117753   4.912   6.514   2.430
 5618SOL    HW217754   5.039   6.412   2.436
 5619SOL     OW17755   3.411   3.282   3.223
 5619SOL    HW117756   3.373   3.202   3.176
 5619SOL    HW217757   3.410   3.360   3.161
 5620SOL     OW17758   4.981   4.949   4.063
 5620SOL    HW117759   4.918   4.937   3.985
 5620SOL    HW217760   4.938   5.008   4.131
 5621SOL     OW17761   1.514   2.808   6.704
 5621SOL    HW117762   1.560   2.861   6.775
 5621SOL    HW217763   1.454   2.741   6.748
 5622SOL     OW17764   4.720   5.364   4.218
 5622SOL    HW117765   4.800   5.376   4.275
 5622SOL    HW217766   4.748   5.357   4.122
 5623SOL     OW17767   4.371   4.986   3.794
 5623SOL    HW117768   4.287   4.931   3.796
 5623SOL    HW217769   4.434   4.953   3.865
 5624SOL     OW17770   5.033   4.628   3.195
 5624SOL    HW117771   5.028   4.530   3.176
 5624SOL    HW217772   5.128   4.653   3.215
 5625SOL     OW17773   3.045   6.388   6.387
 5625SOL    HW117774   3.027   6.437   6.301
 5625SOL    HW217775   2.970   6.324   6.404
 5626SOL     OW17776   0.878   4.825   6.545
 5626SOL    HW117777   0.802   4.796   6.603
 5626SOL    HW217778   0.859   4.800   6.450
 5627SOL     OW17779   1.292   5.783   0.032
 5627SOL    HW117780   1.221   5.843   7.014
 5627SOL    HW217781   1.255   5.723   0.103
 5628SOL     OW17782   2.389   3.564   0.423
 5628SOL    HW117783   2.401   3.659   0.393
 5628SOL    HW217784   2.390   3.504   0.343
 5629SOL     OW17785   6.887   3.571   3.524
 5629SOL    HW117786   6.853   3.648   3.471
 5629SOL    HW217787   6.963   3.601   3.582
 5630SOL     OW17788   0.581   3.438   0.633
 5630SOL    HW117789   0.660   3.454   0.574
 5630SOL    HW217790   0.537   3.352   0.608
 5631SOL     OW17791   3.905   1.442   1.441
 5631SOL    HW117792   3.807   1.462   1.435
 5631SOL    HW217793   3.954   1.522   1.473
 5632SOL     OW17794   4.822   6.601   5.738
 5632SOL    HW117795   4.759   6.549   5.680
 5632SOL    HW217796   4.860   6.540   5.808
 5633SOL     OW17797   1.385   5.593   5.581
 5633SOL    HW117798   1.451   5.559   5.514
 5633SOL    HW217799   1.311   5.527   5.592
 5634SOL     OW17800   2.986   0.459   1.544
 5634SOL    HW117801   3.079   0.435   1.518
 5634SOL    HW217802   2.934   0.375   1.564
 5635SOL     OW17803   3.179   0.816   1.806
 5635SOL    HW117804   3.268   0.800   1.764
 5635SOL    HW217805   3.190   0.878   1.884
 5636SOL     OW17806   4.918   0.631   5.738
 5636SOL    HW117807   4.856   0.656   5.813
 5636SOL    HW217808   5.013   0.649   5.765
 5637SOL     OW17809   5.097   6.842   4.811
 5637SOL    HW117810   5.157   6.919   4.830
 5637SOL    HW217811   5.151   6.759   4.799
 5638SOL     OW17812   6.769   5.300   0.908
 5638SOL    HW117813   6.801   5.283   0.815
 5638SOL    HW217814   6.670   5.286   0.912
 5639SOL     OW17815   2.602   0.412   1.724
 5639SOL    HW117816   2.648   0.411   1.635
 5639SOL    HW217817   2.659   0.461   1.790
 5640SOL     OW17818   3.057   6.718   3.609
 5640SOL    HW117819   3.136   6.666   3.576
 5640SOL    HW217820   2.998   6.741   3.531
 5641SOL     OW17821   6.920   4.288   4.362
 5641SOL    HW117822   6.842   4.300   4.424
 5641SOL    HW217823   7.001   4.264   4.415
 5642SOL     OW17824   2.395   3.744   6.545
 5642SOL    HW117825   2.418   3.828   6.495
 5642SOL    HW217826   2.313   3.759   6.600
 5643SOL     OW17827   6.027   2.419   4.311
 5643SOL    HW117828   5.971   2.454   4.386
 5643SOL    HW217829   6.048   2.493   4.247
 5644SOL     OW17830   4.022   0.574   4.879
 5644SOL    HW117831   4.112   0.542   4.909
 5644SOL    HW217832   3.951   0.514   4.917
 5645SOL     OW17833   6.266   6.173   3.773
 5645SOL    HW117834   6.237   6.251   3.829
 5645SOL    HW217835   6.261   6.089   3.828
 5646SOL     OW17836   6.504   6.560   4.045
 5646SOL    HW117837   6.457   6.544   4.131
 5646SOL    HW217838   6.452   6.521   3.969
 5647SOL     OW17839   0.115   4.285   6.949
 5647SOL    HW117840   0.116   4.295   0.031
 5647SOL    HW217841   0.209   4.282   6.915
 5648SOL     OW17842   2.658   0.997   4.858
 5648SOL    HW117843   2.686   1.088   4.825
 5648SOL    HW217844   2.732   0.932   4.843
 5649SOL     OW17845   1.002   6.806   5.086
 5649SOL    HW117846   1.094   6.781   5.055
 5649SOL    HW217847   0.967   6.735   5.147
 5650SOL     OW17848   6.270   4.956   6.163
 5650SOL    HW117849   6.278   5.034   6.226
 5650SOL    HW217850   6.358   4.939   6.119
 5651SOL     OW17851   6.023   1.350   2.434
 5651SOL    HW117852   6.034   1.288   2.356
 5651SOL    HW217853   6.035   1.299   2.519
 5652SOL     OW17854   5.527   4.086   0.676
 5652SOL    HW117855   5.603   4.042   0.629
 5652SOL    HW217856   5.494   4.028   0.750
 5653SOL     OW17857   2.344   6.268   6.726
 5653SOL    HW117858   2.247   6.247   6.715
 5653SOL    HW217859   2.359   6.310   6.816
 5654SOL     OW17860   1.260   6.269   6.339
 5654SOL    HW117861   1.173   6.312   6.365
 5654SOL    HW217862   1.298   6.222   6.418
 5655SOL     OW17863   0.424   5.413   3.333
 5655SOL    HW117864   0.510   5.364   3.343
 5655SOL    HW217865   0.438   5.493   3.275
 5656SOL     OW17866   3.542   5.853   6.327
 5656SOL    HW117867   3.555   5.770   6.381
 5656SOL    HW217868   3.471   5.838   6.259
 5657SOL     OW17869   3.978   5.560   2.014
 5657SOL    HW117870   3.944   5.511   2.094
 5657SOL    HW217871   4.071   5.530   1.993
 5658SOL     OW17872   5.636   6.773   5.023
 5658SOL    HW117873   5.622   6.676   5.042
 5658SOL    HW217874   5.675   6.817   5.104
 5659SOL     OW17875   3.564   4.093   2.849
 5659SOL    HW117876   3.542   4.111   2.945
 5659SOL    HW217877   3.484   4.112   2.793
 5660SOL     OW17878   6.279   6.591   1.002
 5660SOL    HW117879   6.310   6.531   1.075
 5660SOL    HW217880   6.192   6.633   1.028
 5661SOL     OW17881   6.561   5.514   4.865
 5661SOL    HW117882   6.606   5.474   4.785
 5661SOL    HW217883   6.514   5.598   4.838
 5662SOL     OW17884   2.044   4.170   4.803
 5662SOL    HW117885   2.127   4.216   4.834
 5662SOL    HW217886   2.066   4.105   4.731
 5663SOL     OW17887   2.216   3.905   0.299
 5663SOL    HW117888   2.243   3.993   0.260
 5663SOL    HW217889   2.118   3.891   0.283
 5664SOL     OW17890   0.330   5.883   2.678
 5664SOL    HW117891   0.379   5.948   2.619
 5664SOL    HW217892   0.387   5.858   2.756
 5665SOL     OW17893   1.499   1.513   5.821
 5665SOL    HW117894   1.462   1.467   5.740
 5665SOL    HW217895   1.599   1.513   5.817
 5666SOL     OW17896   6.241   6.067   0.035
 5666SOL    HW117897   6.270   6.125   0.111
 5666SOL    HW217898   6.322   6.032   7.005
 5667SOL     OW17899   6.154   5.947   3.115
 5667SOL    HW117900   6.137   6.005   3.036
 5667SOL    HW217901   6.253   5.929   3.123
 5668SOL     OW17902   5.636   3.027   5.582
 5668SOL    HW117903   5.640   2.931   5.608
 5668SOL    HW217904   5.652   3.084   5.662
 5669SOL     OW17905   7.001   3.551   4.967
 5669SOL    HW117906   0.017   3.533   5.059
 5669SOL    HW217907   7.005   3.467   4.913
 5670SOL     OW17908   1.835   3.504   2.780
 5670SOL    HW117909   1.932   3.489   2.796
 5670SOL    HW217910   1.792   3.420   2.748
 5671SOL     OW17911   1.472   1.389   5.580
 5671SOL    HW117912   1.531   1.368   5.502
 5671SOL    HW217913   1.411   1.465   5.557
 5672SOL     OW17914   5.563   3.938   5.538
 5672SOL    HW117915   5.569   3.986   5.451
 5672SOL    HW217916   5.472   3.952   5.579
 5673SOL     OW17917   1.384   0.670   1.170
 5673SOL    HW117918   1.303   0.667   1.228
 5673SOL    HW217919   1.358   0.651   1.076
 5674SOL     OW17920   6.714   3.295   1.184
 5674SOL    HW117921   6.724   3.310   1.282
 5674SOL    HW217922   6.628   3.336   1.152
 5675SOL     OW17923   4.017   1.363   5.957
 5675SOL    HW117924   3.936   1.351   6.014
 5675SOL    HW217925   4.099   1.352   6.012
 5676SOL     OW17926   3.315   6.674   1.811
 5676SOL    HW117927   3.235   6.632   1.854
 5676SOL    HW217928   3.299   6.682   1.712
 5677SOL     OW17929   0.035   1.391   4.183
 5677SOL    HW117930   0.095   1.434   4.116
 5677SOL    HW217931   6.974   1.350   4.136
 5678SOL     OW17932   1.987   5.111   3.605
 5678SOL    HW117933   1.994   5.203   3.643
 5678SOL    HW217934   1.994   5.044   3.678
 5679SOL     OW17935   2.918   5.657   5.449
 5679SOL    HW117936   2.969   5.684   5.367
 5679SOL    HW217937   2.844   5.595   5.424
 5680SOL     OW17938   2.258   6.818   6.029
 5680SOL    HW117939   2.316   6.879   6.083
 5680SOL    HW217940   2.193   6.873   5.976
 5681SOL     OW17941   1.945   3.898   0.228
 5681SOL    HW117942   1.906   3.891   0.320
 5681SOL    HW217943   1.880   3.859   0.162
 5682SOL     OW17944   0.793   3.790   3.839
 5682SOL    HW117945   0.875   3.804   3.783
 5682SOL    HW217946   0.748   3.878   3.854
 5683SOL     OW17947   3.684   3.284   4.546
 5683SOL    HW117948   3.669   3.269   4.644
 5683SOL    HW217949   3.620   3.227   4.494
 5684SOL     OW17950   2.929   3.803   3.400
 5684SOL    HW117951   2.843   3.847   3.426
 5684SOL    HW217952   3.002   3.833   3.461
 5685SOL     OW17953   0.899   5.649   1.704
 5685SOL    HW117954   0.820   5.596   1.734
 5685SOL    HW217955   0.947   5.685   1.785
 5686SOL     OW17956   3.786   5.571   0.083
 5686SOL    HW117957   3.808   5.474   0.094
 5686SOL    HW217958   3.717   5.581   0.011
 5687SOL     OW17959   4.294   5.217   6.095
 5687SOL    HW117960   4.334   5.287   6.035
 5687SOL    HW217961   4.201   5.199   6.066
 5688SOL     OW17962   5.705   1.922   2.621
 5688SOL    HW117963   5.728   1.832   2.584
 5688SOL    HW217964   5.752   1.936   2.708
 5689SOL     OW17965   4.345   2.900   5.966
 5689SOL    HW117966   4.306   2.911   6.057
 5689SOL    HW217967   4.399   2.981   5.942
 5690SOL     OW17968   4.737   6.512   2.353
 5690SOL    HW117969   4.763   6.439   2.291
 5690SOL    HW217970   4.671   6.572   2.307
 5691SOL     OW17971   2.207   0.187   3.084
 5691SOL    HW117972   2.222   0.194   2.985
 5691SOL    HW217973   2.216   0.091   3.112
 5692SOL     OW17974   5.832   3.252   0.318
 5692SOL    HW117975   5.880   3.195   0.384
 5692SOL    HW217976   5.895   3.322   0.283
 5693SOL     OW17977   4.739   2.843   2.509
 5693SOL    HW117978   4.686   2.771   2.464
 5693SOL    HW217979   4.836   2.828   2.492
 5694SOL     OW17980   1.192   1.923   4.416
 5694SOL    HW117981   1.279   1.962   4.387
 5694SOL    HW217982   1.202   1.883   4.508
 5695SOL     OW17983   1.814   3.643   3.721
 5695SOL    HW117984   1.762   3.599   3.649
 5695SOL    HW217985   1.766   3.725   3.753
 5696SOL     OW17986   3.584   0.168   5.840
 5696SOL    HW117987   3.645   0.226   5.894
 5696SOL    HW217988   3.490   0.201   5.848
 5697SOL     OW17989   6.157   3.254   0.181
 5697SOL    HW117990   6.136   3.302   0.266
 5697SOL    HW217991   6.146   3.317   0.104
 5698SOL     OW17992   0.865   4.250   2.773
 5698SOL    HW117993   0.767   4.243   2.791
 5698SOL    HW217994   0.880   4.271   2.676
 5699SOL     OW17995   6.368   1.595   4.932
 5699SOL    HW117996   6.354   1.512   4.880
 5699SOL    HW217997   6.403   1.573   5.023
 5700SOL     OW17998   1.193   5.425   2.879
 5700SOL    HW117999   1.121   5.411   2.947
 5700SOL    HW218000   1.207   5.523   2.865
 5701SOL     OW18001   5.490   4.914   1.876
 5701SOL    HW118002   5.562   4.982   1.879
 5701SOL    HW218003   5.520   4.831   1.924
 5702SOL     OW18004   2.438   0.395   6.698
 5702SOL    HW118005   2.362   0.444   6.742
 5702SOL    HW218006   2.508   0.375   6.766
 5703SOL     OW18007   4.520   4.074   1.480
 5703SOL    HW118008   4.461   4.076   1.561
 5703SOL    HW218009   4.603   4.126   1.497
 5704SOL     OW18010   4.626   5.380   3.903
 5704SOL    HW118011   4.685   5.311   3.945
 5704SOL    HW218012   4.530   5.350   3.908
 5705SOL     OW18013   6.212   1.835   2.866
 5705SOL    HW118014   6.201   1.756   2.807
 5705SOL    HW218015   6.307   1.867   2.860
 5706SOL     OW18016   2.378   1.009   6.847
 5706SOL    HW118017   2.423   0.999   6.936
 5706SOL    HW218018   2.431   1.073   6.791
 5707SOL     OW18019   2.991   2.180   6.254
 5707SOL    HW118020   3.039   2.193   6.167
 5707SOL    HW218021   2.949   2.089   6.255
 5708SOL     OW18022   6.144   0.141   2.125
 5708SOL    HW118023   6.241   0.151   2.104
 5708SOL    HW218024   6.122   0.044   2.134
 5709SOL     OW18025   0.840   1.235   2.694
 5709SOL    HW118026   0.912   1.166   2.689
 5709SOL    HW218027   0.842   1.291   2.611
 5710SOL     OW18028   3.068   4.313   6.472
 5710SOL    HW118029   2.995   4.300   6.540
 5710SOL    HW218030   3.062   4.404   6.433
 5711SOL     OW18031   4.998   1.532   4.849
 5711SOL    HW118032   5.070   1.463   4.853
 5711SOL    HW218033   5.023   1.609   4.907
 5712SOL     OW18034   6.803   6.106   6.371
 5712SOL    HW118035   6.832   6.174   6.304
 5712SOL    HW218036   6.876   6.039   6.385
 5713SOL     OW18037   6.966   2.715   2.493
 5713SOL    HW118038   6.918   2.738   2.409
 5713SOL    HW218039   6.978   2.616   2.499
 5714SOL     OW18040   2.037   0.736   6.142
 5714SOL    HW118041   2.129   0.758   6.175
 5714SOL    HW218042   2.004   0.654   6.188
 5715SOL     OW18043   1.666   6.932   2.969
 5715SOL    HW118044   1.688   6.902   2.876
 5715SOL    HW218045   1.653   0.014   2.969
 5716SOL     OW18046   1.941   2.975   5.064
 5716SOL    HW118047   1.928   2.901   4.998
 5716SOL    HW218048   2.012   3.037   5.030
 5717SOL     OW18049   0.761   3.506   0.387
 5717SOL    HW118050   0.851   3.546   0.404
 5717SOL    HW218051   0.694   3.579   0.371
 5718SOL     OW18052   2.119   4.834   5.161
 5718SOL    HW118053   2.022   4.860   5.159
 5718SOL    HW218054   2.128   4.743   5.201
 5719SOL     OW18055   2.616   0.301   6.872
 5719SOL    HW118056   2.647   0.256   6.788
 5719SOL    HW218057   2.546   0.244   6.916
 5720SOL     OW18058   1.901   5.173   3.956
 5720SOL    HW118059   1.911   5.213   3.864
 5720SOL    HW218060   1.963   5.219   4.019
 5721SOL     OW18061   0.210   4.648   0.891
 5721SOL    HW118062   0.283   4.674   0.954
 5721SOL    HW218063   0.151   4.580   0.935
 5722SOL     OW18064   5.112   1.215   4.169
 5722SOL    HW118065   5.074   1.157   4.241
 5722SOL    HW218066   5.209   1.229   4.185
 5723SOL     OW18067   1.285   4.668   0.788
 5723SOL    HW118068   1.246   4.633   0.703
 5723SOL    HW218069   1.330   4.593   0.837
 5724SOL     OW18070   5.077   1.924   6.585
 5724SOL    HW118071   5.157   1.971   6.547
 5724SOL    HW218072   5.000   1.931   6.522
 5725SOL     OW18073   5.207   5.368   6.035
 5725SOL    HW118074   5.129   5.383   5.974
 5725SOL    HW218075   5.176   5.319   6.116
 5726SOL     OW18076   4.533   3.084   5.830
 5726SOL    HW118077   4.622   3.079   5.874
 5726SOL    HW218078   4.544   3.089   5.731
 5727SOL     OW18079   5.831   2.318   3.872
 5727SOL    HW118080   5.824   2.220   3.855
 5727SOL    HW218081   5.748   2.364   3.838
 5728SOL     OW18082   5.333   0.682   6.351
 5728SOL    HW118083   5.337   0.606   6.287
 5728SOL    HW218084   5.239   0.693   6.385
 5729SOL     OW18085   0.781   3.337   5.257
 5729SOL    HW118086   0.729   3.420   5.280
 5729SOL    HW218087   0.871   3.363   5.224
 5730SOL     OW18088   3.878   5.308   0.071
 5730SOL    HW118089   3.857   5.237   0.138
 5730SOL    HW218090   3.966   5.350   0.094
 5731SOL     OW18091   3.665   0.867   4.481
 5731SOL    HW118092   3.570   0.896   4.472
 5731SOL    HW218093   3.721   0.945   4.510
 5732SOL     OW18094   5.595   3.880   3.900
 5732SOL    HW118095   5.664   3.855   3.832
 5732SOL    HW218096   5.621   3.967   3.942
 5733SOL     OW18097   2.830   6.972   0.689
 5733SOL    HW118098   2.833   7.004   0.594
 5733SOL    HW218099   2.920   6.938   0.715
 5734SOL     OW18100   2.099   5.814   6.383
 5734SOL    HW118101   2.123   5.836   6.478
 5734SOL    HW218102   2.182   5.820   6.326
 5735SOL     OW18103   5.084   0.566   2.347
 5735SOL    HW118104   5.141   0.487   2.323
 5735SOL    HW218105   5.124   0.614   2.425
 5736SOL     OW18106   6.076   4.689   6.913
 5736SOL    HW118107   6.090   4.727   6.822
 5736SOL    HW218108   6.026   4.603   6.906
 5737SOL     OW18109   4.810   5.083   1.545
 5737SOL    HW118110   4.886   5.122   1.493
 5737SOL    HW218111   4.795   5.137   1.627
 5738SOL     OW18112   2.826   0.896   0.536
 5738SOL    HW118113   2.920   0.863   0.546
 5738SOL    HW218114   2.798   0.887   0.441
 5739SOL     OW18115   2.222   1.138   5.544
 5739SOL    HW118116   2.164   1.068   5.503
 5739SOL    HW218117   2.179   1.173   5.627
 5740SOL     OW18118   4.910   3.503   1.839
 5740SOL    HW118119   4.870   3.424   1.792
 5740SOL    HW218120   4.977   3.471   1.905
 5741SOL     OW18121   0.244   3.581   4.365
 5741SOL    HW118122   0.302   3.502   4.348
 5741SOL    HW218123   0.242   3.601   4.463
 5742SOL     OW18124   5.165   0.523   3.466
 5742SOL    HW118125   5.172   0.487   3.373
 5742SOL    HW218126   5.212   0.462   3.530
 5743SOL     OW18127   3.456   5.739   6.875
 5743SOL    HW118128   3.494   5.802   6.807
 5743SOL    HW218129   3.377   5.782   6.920
 5744SOL     OW18130   4.964   6.769   3.232
 5744SOL    HW118131   4.980   6.852   3.284
 5744SOL    HW218132   4.911   6.704   3.286
 5745SOL     OW18133   1.095   3.020   1.808
 5745SOL    HW118134   1.136   3.026   1.717
 5745SOL    HW218135   1.014   3.078   1.813
 5746SOL     OW18136   4.906   6.574   3.433
 5746SOL    HW118137   4.827   6.572   3.494
 5746SOL    HW218138   4.986   6.606   3.483
 5747SOL     OW18139   1.739   6.590   0.867
 5747SOL    HW118140   1.659   6.535   0.894
 5747SOL    HW218141   1.791   6.615   0.948
 5748SOL     OW18142   0.093   6.054   0.900
 5748SOL    HW118143   0.024   6.095   0.959
 5748SOL    HW218144   0.150   5.992   0.954
 5749SOL     OW18145   1.909   5.795   6.178
 5749SOL    HW118146   1.960   5.822   6.260
 5749SOL    HW218147   1.966   5.737   6.120
 5750SOL     OW18148   6.760   3.143   4.359
 5750SOL    HW118149   6.734   3.228   4.313
 5750SOL    HW218150   6.690   3.118   4.425
 5751SOL     OW18151   1.094   3.836   4.796
 5751SOL    HW118152   1.036   3.903   4.843
 5751SOL    HW218153   1.185   3.874   4.782
 5752SOL     OW18154   4.861   0.576   0.747
 5752SOL    HW118155   4.808   0.581   0.832
 5752SOL    HW218156   4.877   0.668   0.713
 5753SOL     OW18157   3.841   4.294   5.188
 5753SOL    HW118158   3.843   4.219   5.122
 5753SOL    HW218159   3.754   4.343   5.179
 5754SOL     OW18160   0.893   5.583   1.151
 5754SOL    HW118161   0.852   5.514   1.211
 5754SOL    HW218162   0.881   5.555   1.055
 5755SOL     OW18163   1.591   2.410   0.037
 5755SOL    HW118164   1.502   2.365   0.033
 5755SOL    HW218165   1.583   2.497   0.084
 5756SOL     OW18166   6.120   6.243   1.815
 5756SOL    HW118167   6.092   6.232   1.720
 5756SOL    HW218168   6.101   6.159   1.865
 5757SOL     OW18169   6.632   1.037   4.492
 5757SOL    HW118170   6.539   1.010   4.466
 5757SOL    HW218171   6.688   0.956   4.504
 5758SOL     OW18172   5.856   6.838   2.785
 5758SOL    HW118173   5.897   6.754   2.820
 5758SOL    HW218174   5.760   6.843   2.814
 5759SOL     OW18175   3.310   0.034   1.125
 5759SOL    HW118176   3.237   7.006   1.073
 5759SOL    HW218177   3.355   0.101   1.066
 5760SOL     OW18178   1.211   3.042   0.598
 5760SOL    HW118179   1.137   2.989   0.639
 5760SOL    HW218180   1.284   2.980   0.569
 5761SOL     OW18181   5.910   0.244   4.650
 5761SOL    HW118182   5.986   0.288   4.603
 5761SOL    HW218183   5.944   0.164   4.701
 5762SOL     OW18184   6.546   5.508   6.726
 5762SOL    HW118185   6.499   5.457   6.654
 5762SOL    HW218186   6.638   5.533   6.695
 5763SOL     OW18187   5.727   0.104   0.167
 5763SOL    HW118188   5.786   0.164   0.221
 5763SOL    HW218189   5.713   0.018   0.217
 5764SOL     OW18190   5.062   6.511   3.653
 5764SOL    HW118191   5.094   6.604   3.669
 5764SOL    HW218192   5.005   6.481   3.730
 5765SOL     OW18193   6.144   5.137   2.293
 5765SOL    HW118194   6.184   5.100   2.377
 5765SOL    HW218195   6.192   5.101   2.214
 5766SOL     OW18196   0.340   1.274   4.628
 5766SOL    HW118197   0.302   1.360   4.663
 5766SOL    HW218198   0.435   1.289   4.599
 5767SOL     OW18199   3.997   6.467   6.874
 5767SOL    HW118200   3.902   6.436   6.882
 5767SOL    HW218201   4.057   6.388   6.862
 5768SOL     OW18202   0.620   0.381   4.667
 5768SOL    HW118203   0.687   0.441   4.710
 5768SOL    HW218204   0.545   0.364   4.730
 5769SOL     OW18205   1.592   3.948   6.158
 5769SOL    HW118206   1.515   3.918   6.213
 5769SOL    HW218207   1.564   3.957   6.062
 5770SOL     OW18208   1.786   4.539   2.036
 5770SOL    HW118209   1.847   4.605   1.992
 5770SOL    HW218210   1.824   4.514   2.125
 5771SOL     OW18211   3.182   5.570   3.628
 5771SOL    HW118212   3.101   5.525   3.666
 5771SOL    HW218213   3.162   5.601   3.535
 5772SOL     OW18214   2.880   0.243   2.695
 5772SOL    HW118215   2.781   0.260   2.691
 5772SOL    HW218216   2.927   0.308   2.636
 5773SOL     OW18217   4.836   1.506   2.502
 5773SOL    HW118218   4.803   1.591   2.461
 5773SOL    HW218219   4.769   1.434   2.488
 5774SOL     OW18220   0.483   6.619   2.172
 5774SOL    HW118221   0.509   6.671   2.090
 5774SOL    HW218222   0.397   6.572   2.156
 5775SOL     OW18223   6.780   5.622   1.570
 5775SOL    HW118224   6.714   5.697   1.564
 5775SOL    HW218225   6.740   5.547   1.623
 5776SOL     OW18226   2.710   1.379   4.142
 5776SOL    HW118227   2.684   1.431   4.224
 5776SOL    HW218228   2.689   1.432   4.061
 5777SOL     OW18229   1.734   6.448   2.499
 5777SOL    HW118230   1.703   6.542   2.485
 5777SOL    HW218231   1.682   6.387   2.438
 5778SOL     OW18232   0.711   1.848   0.964
 5778SOL    HW118233   0.647   1.795   0.908
 5778SOL    HW218234   0.791   1.791   0.986
 5779SOL     OW18235   6.046   1.398   5.754
 5779SOL    HW118236   5.958   1.376   5.796
 5779SOL    HW218237   6.118   1.396   5.824
 5780SOL     OW18238   4.941   5.910   3.987
 5780SOL    HW118239   4.925   5.936   4.082
 5780SOL    HW218240   5.037   5.927   3.963
 5781SOL     OW18241   0.300   5.152   5.076
 5781SOL    HW118242   0.321   5.123   4.983
 5781SOL    HW218243   0.256   5.077   5.125
 5782SOL     OW18244   0.548   0.218   0.095
 5782SOL    HW118245   0.519   0.196   0.002
 5782SOL    HW218246   0.613   0.294   0.092
 5783SOL     OW18247   1.189   2.155   0.566
 5783SOL    HW118248   1.237   2.074   0.598
 5783SOL    HW218249   1.116   2.178   0.630
 5784SOL     OW18250   6.470   5.909   6.634
 5784SOL    HW118251   6.565   5.884   6.623
 5784SOL    HW218252   6.458   5.957   6.721
 5785SOL     OW18253   1.224   1.497   0.285
 5785SOL    HW118254   1.201   1.590   0.314
 5785SOL    HW218255   1.322   1.483   0.294
 5786SOL     OW18256   5.806   5.021   1.609
 5786SOL    HW118257   5.895   5.052   1.574
 5786SOL    HW218258   5.782   4.934   1.566
 5787SOL     OW18259   2.596   2.746   6.085
 5787SOL    HW118260   2.534   2.771   6.011
 5787SOL    HW218261   2.545   2.735   6.170
 5788SOL     OW18262   2.367   1.148   3.853
 5788SOL    HW118263   2.456   1.175   3.817
 5788SOL    HW218264   2.305   1.129   3.777
 5789SOL     OW18265   4.021   4.869   6.240
 5789SOL    HW118266   4.022   4.773   6.213
 5789SOL    HW218267   3.944   4.915   6.196
 5790SOL     OW18268   0.758   2.950   3.649
 5790SOL    HW118269   0.833   2.953   3.583
 5790SOL    HW218270   0.694   3.025   3.631
 5791SOL     OW18271   2.249   0.723   3.263
 5791SOL    HW118272   2.229   0.740   3.166
 5791SOL    HW218273   2.218   0.631   3.288
 5792SOL     OW18274   6.577   2.403   2.425
 5792SOL    HW118275   6.499   2.352   2.461
 5792SOL    HW218276   6.545   2.480   2.371
 5793SOL     OW18277   0.226   0.455   3.768
 5793SOL    HW118278   0.238   0.398   3.687
 5793SOL    HW218279   0.252   0.403   3.849
 5794SOL     OW18280   4.643   4.110   6.819
 5794SOL    HW118281   4.733   4.097   6.861
 5794SOL    HW218282   4.614   4.205   6.833
 5795SOL     OW18283   5.980   4.368   6.961
 5795SOL    HW118284   5.883   4.372   6.939
 5795SOL    HW218285   6.032   4.352   6.877
 5796SOL     OW18286   3.824   1.555   0.567
 5796SOL    HW118287   3.869   1.643   0.584
 5796SOL    HW218288   3.873   1.483   0.615
 5797SOL     OW18289   2.835   1.749   5.524
 5797SOL    HW118290   2.835   1.845   5.553
 5797SOL    HW218291   2.908   1.700   5.572
 5798SOL     OW18292   6.901   4.548   4.644
 5798SOL    HW118293   6.835   4.621   4.664
 5798SOL    HW218294   6.907   4.536   4.545
 5799SOL     OW18295   5.355   0.369   3.606
 5799SOL    HW118296   5.380   0.353   3.701
 5799SOL    HW218297   5.355   0.283   3.556
 5800SOL     OW18298   6.149   5.310   1.132
 5800SOL    HW118299   6.113   5.402   1.122
 5800SOL    HW218300   6.215   5.308   1.207
 5801SOL     OW18301   2.397   1.743   3.485
 5801SOL    HW118302   2.370   1.678   3.414
 5801SOL    HW218303   2.497   1.753   3.484
 5802SOL     OW18304   0.982   3.624   5.109
 5802SOL    HW118305   1.015   3.549   5.167
 5802SOL    HW218306   1.058   3.686   5.090
 5803SOL     OW18307   1.528   5.006   0.161
 5803SOL    HW118308   1.480   4.943   0.222
 5803SOL    HW218309   1.468   5.084   0.142
 5804SOL     OW18310   6.131   3.468   4.375
 5804SOL    HW118311   6.062   3.539   4.390
 5804SOL    HW218312   6.109   3.416   4.292
 5805SOL     OW18313   5.266   3.349   6.717
 5805SOL    HW118314   5.363   3.328   6.708
 5805SOL    HW218315   5.218   3.270   6.755
 5806SOL     OW18316   0.921   6.359   0.258
 5806SOL    HW118317   0.899   6.276   0.311
 5806SOL    HW218318   0.923   6.337   0.161
 5807SOL     OW18319   1.845   3.596   2.196
 5807SOL    HW118320   1.886   3.510   2.228
 5807SOL    HW218321   1.918   3.660   2.170
 5808SOL     OW18322   6.757   3.682   2.781
 5808SOL    HW118323   6.722   3.741   2.853
 5808SOL    HW218324   6.747   3.727   2.692
 5809SOL     OW18325   6.903   3.513   4.219
 5809SOL    HW118326   6.888   3.557   4.130
 5809SOL    HW218327   6.888   3.580   4.292
 5810SOL     OW18328   2.660   2.273   2.457
 5810SOL    HW118329   2.732   2.238   2.516
 5810SOL    HW218330   2.598   2.331   2.510
 5811SOL     OW18331   2.454   1.635   3.791
 5811SOL    HW118332   2.453   1.541   3.755
 5811SOL    HW218333   2.397   1.640   3.873
 5812SOL     OW18334   4.481   0.832   4.781
 5812SOL    HW118335   4.541   0.871   4.850
 5812SOL    HW218336   4.422   0.903   4.743
 5813SOL     OW18337   1.793   0.800   5.326
 5813SOL    HW118338   1.835   0.762   5.244
 5813SOL    HW218339   1.847   0.774   5.406
 5814SOL     OW18340   0.107   5.126   0.769
 5814SOL    HW118341   0.048   5.045   0.762
 5814SOL    HW218342   0.117   5.152   0.865
 5815SOL     OW18343   3.082   1.526   2.671
 5815SOL    HW118344   3.059   1.521   2.768
 5815SOL    HW218345   3.154   1.595   2.657
 5816SOL     OW18346   4.896   0.191   0.795
 5816SOL    HW118347   4.830   0.211   0.868
 5816SOL    HW218348   4.973   0.256   0.801
 5817SOL     OW18349   5.120   3.232   5.227
 5817SOL    HW118350   5.053   3.294   5.185
 5817SOL    HW218351   5.074   3.149   5.257
 5818SOL     OW18352   6.002   6.656   6.243
 5818SOL    HW118353   5.914   6.702   6.235
 5818SOL    HW218354   6.017   6.597   6.163
 5819SOL     OW18355   6.077   0.182   1.473
 5819SOL    HW118356   6.095   0.271   1.431
 5819SOL    HW218357   5.987   0.149   1.444
 5820SOL     OW18358   5.341   6.209   3.174
 5820SOL    HW118359   5.316   6.131   3.232
 5820SOL    HW218360   5.440   6.222   3.176
 5821SOL     OW18361   2.589   0.780   1.708
 5821SOL    HW118362   2.613   0.876   1.700
 5821SOL    HW218363   2.667   0.723   1.680
 5822SOL     OW18364   0.096   1.413   1.992
 5822SOL    HW118365   0.081   1.499   1.943
 5822SOL    HW218366   0.077   1.336   1.931
 5823SOL     OW18367   2.436   1.982   4.068
 5823SOL    HW118368   2.504   1.932   4.014
 5823SOL    HW218369   2.475   2.007   4.156
 5824SOL     OW18370   4.893   0.157   3.619
 5824SOL    HW118371   4.858   0.250   3.632
 5824SOL    HW218372   4.856   0.098   3.690
 5825SOL     OW18373   2.757   0.592   0.749
 5825SOL    HW118374   2.754   0.627   0.655
 5825SOL    HW218375   2.778   0.668   0.811
 5826SOL     OW18376   6.390   0.682   4.675
 5826SOL    HW118377   6.381   0.707   4.578
 5826SOL    HW218378   6.453   0.605   4.684
 5827SOL     OW18379   1.240   5.850   4.979
 5827SOL    HW118380   1.173   5.783   5.012
 5827SOL    HW218381   1.201   5.902   4.903
 5828SOL     OW18382   0.222   3.463   1.773
 5828SOL    HW118383   0.271   3.397   1.830
 5828SOL    HW218384   0.123   3.452   1.787
 5829SOL     OW18385   1.872   1.391   1.755
 5829SOL    HW118386   1.811   1.467   1.735
 5829SOL    HW218387   1.828   1.329   1.819
 5830SOL     OW18388   2.119   1.707   5.827
 5830SOL    HW118389   2.139   1.709   5.924
 5830SOL    HW218390   2.096   1.613   5.799
 5831SOL     OW18391   5.392   6.792   3.234
 5831SOL    HW118392   5.363   6.821   3.325
 5831SOL    HW218393   5.316   6.805   3.169
 5832SOL     OW18394   4.007   3.573   5.414
 5832SOL    HW118395   4.079   3.601   5.351
 5832SOL    HW218396   4.026   3.479   5.445
 5833SOL     OW18397   3.316   3.005   4.902
 5833SOL    HW118398   3.269   3.040   4.983
 5833SOL    HW218399   3.396   2.953   4.930
 5834SOL     OW18400   5.875   1.306   0.687
 5834SOL    HW118401   5.897   1.221   0.639
 5834SOL    HW218402   5.777   1.310   0.704
 5835SOL     OW18403   4.891   2.432   3.526
 5835SOL    HW118404   4.799   2.467   3.543
 5835SOL    HW218405   4.957   2.506   3.534
 5836SOL     OW18406   3.661   6.064   2.593
 5836SOL    HW118407   3.661   6.137   2.524
 5836SOL    HW218408   3.627   5.979   2.552
 5837SOL     OW18409   4.842   4.418   6.377
 5837SOL    HW118410   4.939   4.443   6.372
 5837SOL    HW218411   4.819   4.357   6.301
 5838SOL     OW18412   1.177   0.942   5.783
 5838SOL    HW118413   1.232   1.021   5.757
 5838SOL    HW218414   1.105   0.928   5.715
 5839SOL     OW18415   0.138   3.091   2.841
 5839SOL    HW118416   0.143   3.002   2.795
 5839SOL    HW218417   0.049   3.099   2.887
 5840SOL     OW18418   2.033   5.177   7.013
 5840SOL    HW118419   2.083   5.258   6.981
 5840SOL    HW218420   1.963   5.153   6.947
 5841SOL     OW18421   0.229   2.219   3.568
 5841SOL    HW118422   0.233   2.232   3.667
 5841SOL    HW218423   0.219   2.121   3.548
 5842SOL     OW18424   3.533   3.170   0.669
 5842SOL    HW118425   3.575   3.194   0.757
 5842SOL    HW218426   3.459   3.105   0.685
 5843SOL     OW18427   1.312   3.621   2.215
 5843SOL    HW118428   1.394   3.664   2.178
 5843SOL    HW218429   1.247   3.604   2.140
 5844SOL     OW18430   1.195   6.144   6.912
 5844SOL    HW118431   1.133   6.087   6.967
 5844SOL    HW218432   1.249   6.085   6.852
 5845SOL     OW18433   0.977   2.430   4.264
 5845SOL    HW118434   0.922   2.350   4.287
 5845SOL    HW218435   1.056   2.402   4.210
 5846SOL     OW18436   6.887   3.002   6.334
 5846SOL    HW118437   6.868   2.906   6.349
 5846SOL    HW218438   6.986   3.017   6.331
 5847SOL     OW18439   2.370   2.672   2.646
 5847SOL    HW118440   2.339   2.698   2.554
 5847SOL    HW218441   2.362   2.751   2.707
 5848SOL     OW18442   1.365   4.757   3.275
 5848SOL    HW118443   1.382   4.659   3.283
 5848SOL    HW218444   1.316   4.788   3.356
 5849SOL     OW18445   2.355   6.897   5.723
 5849SOL    HW118446   2.286   6.905   5.651
 5849SOL    HW218447   2.364   6.800   5.748
 5850SOL     OW18448   0.753   5.055   2.703
 5850SOL    HW118449   0.833   5.023   2.754
 5850SOL    HW218450   0.773   5.143   2.661
 5851SOL     OW18451   6.009   3.452   2.268
 5851SOL    HW118452   5.946   3.444   2.345
 5851SOL    HW218453   5.962   3.495   2.191
 5852SOL     OW18454   4.167   5.660   2.930
 5852SOL    HW118455   4.212   5.721   2.996
 5852SOL    HW218456   4.196   5.566   2.946
 5853SOL     OW18457   3.607   4.806   5.538
 5853SOL    HW118458   3.668   4.878   5.571
 5853SOL    HW218459   3.655   4.718   5.542
 5854SOL     OW18460   6.785   1.242   6.087
 5854SOL    HW118461   6.810   1.275   5.996
 5854SOL    HW218462   6.838   1.291   6.156
 5855SOL     OW18463   0.950   1.101   4.979
 5855SOL    HW118464   0.990   1.186   5.014
 5855SOL    HW218465   0.931   1.110   4.882
 5856SOL     OW18466   2.049   4.531   3.886
 5856SOL    HW118467   2.032   4.496   3.794
 5856SOL    HW218468   2.035   4.457   3.953
 5857SOL     OW18469   6.727   3.087   5.428
 5857SOL    HW118470   6.684   3.005   5.466
 5857SOL    HW218471   6.771   3.065   5.341
 5858SOL     OW18472   4.018   0.845   2.420
 5858SOL    HW118473   4.001   0.801   2.332
 5858SOL    HW218474   4.093   0.911   2.411
 5859SOL     OW18475   6.053   6.722   1.102
 5859SOL    HW118476   5.974   6.674   1.063
 5859SOL    HW218477   6.050   6.818   1.074
 5860SOL     OW18478   1.841   3.732   1.284
 5860SOL    HW118479   1.846   3.725   1.384
 5860SOL    HW218480   1.806   3.647   1.246
 5861SOL     OW18481   6.342   2.443   4.284
 5861SOL    HW118482   6.270   2.486   4.339
 5861SOL    HW218483   6.379   2.510   4.220
 5862SOL     OW18484   4.706   4.323   2.870
 5862SOL    HW118485   4.687   4.314   2.967
 5862SOL    HW218486   4.677   4.414   2.839
 5863SOL     OW18487   2.422   1.207   0.142
 5863SOL    HW118488   2.468   1.274   0.200
 5863SOL    HW218489   2.377   1.139   0.200
 5864SOL     OW18490   4.699   4.788   1.586
 5864SOL    HW118491   4.793   4.754   1.583
 5864SOL    HW218492   4.699   4.884   1.615
 5865SOL     OW18493   4.451   0.842   3.230
 5865SOL    HW118494   4.403   0.765   3.271
 5865SOL    HW218495   4.536   0.859   3.280
 5866SOL     OW18496   4.230   0.012   6.324
 5866SOL    HW118497   4.230   6.931   6.340
 5866SOL    HW218498   4.188   0.031   6.236
 5867SOL     OW18499   0.266   2.925   1.519
 5867SOL    HW118500   0.252   2.985   1.597
 5867SOL    HW218501   0.265   2.979   1.435
 5868SOL     OW18502   1.668   6.908   5.346
 5868SOL    HW118503   1.722   6.842   5.397
 5868SOL    HW218504   1.727   6.984   5.317
 5869SOL     OW18505   2.660   4.816   3.670
 5869SOL    HW118506   2.641   4.840   3.575
 5869SOL    HW218507   2.627   4.723   3.688
 5870SOL     OW18508   5.255   4.817   4.972
 5870SOL    HW118509   5.172   4.763   4.957
 5870SOL    HW218510   5.281   4.864   4.888
 5871SOL     OW18511   2.912   3.435   6.889
 5871SOL    HW118512   2.852   3.483   6.826
 5871SOL    HW218513   2.898   3.471   6.981
 5872SOL     OW18514   3.306   6.031   5.636
 5872SOL    HW118515   3.288   6.032   5.734
 5872SOL    HW218516   3.383   6.092   5.615
 5873SOL     OW18517   2.843   3.743   6.990
 5873SOL    HW118518   2.838   3.643   6.980
 5873SOL    HW218519   2.789   3.786   6.918
 5874SOL     OW18520   1.761   4.282   0.811
 5874SOL    HW118521   1.723   4.190   0.825
 5874SOL    HW218522   1.718   4.324   0.732
 5875SOL     OW18523   4.128   1.925   0.264
 5875SOL    HW118524   4.102   1.840   0.219
 5875SOL    HW218525   4.060   1.948   0.334
 5876SOL     OW18526   3.052   4.501   6.061
 5876SOL    HW118527   3.129   4.555   6.028
 5876SOL    HW218528   3.086   4.423   6.113
 5877SOL     OW18529   0.467   6.892   2.641
 5877SOL    HW118530   0.404   6.860   2.712
 5877SOL    HW218531   0.520   6.969   2.676
 5878SOL     OW18532   5.204   4.660   2.785
 5878SOL    HW118533   5.233   4.574   2.744
 5878SOL    HW218534   5.105   4.658   2.800
 5879SOL     OW18535   3.555   3.365   5.870
 5879SOL    HW118536   3.477   3.302   5.867
 5879SOL    HW218537   3.617   3.337   5.943
 5880SOL     OW18538   5.124   2.318   5.694
 5880SOL    HW118539   5.164   2.362   5.614
 5880SOL    HW218540   5.030   2.351   5.707
 5881SOL     OW18541   1.143   6.096   2.017
 5881SOL    HW118542   1.061   6.066   1.969
 5881SOL    HW218543   1.142   6.195   2.026
 5882SOL     OW18544   1.971   5.398   5.534
 5882SOL    HW118545   2.031   5.342   5.591
 5882SOL    HW218546   1.906   5.339   5.486
 5883SOL     OW18547   0.019   4.857   0.780
 5883SOL    HW118548   6.959   4.913   0.808
 5883SOL    HW218549   0.045   4.796   0.855
 5884SOL     OW18550   6.008   2.411   3.545
 5884SOL    HW118551   6.072   2.450   3.479
 5884SOL    HW218552   5.916   2.446   3.527
 5885SOL     OW18553   6.634   5.238   0.176
 5885SOL    HW118554   6.576   5.207   0.101
 5885SOL    HW218555   6.722   5.267   0.140
 5886SOL     OW18556   1.676   3.884   3.756
 5886SOL    HW118557   1.612   3.961   3.750
 5886SOL    HW218558   1.764   3.911   3.718
 5887SOL     OW18559   2.270   2.598   1.064
 5887SOL    HW118560   2.353   2.641   1.028
 5887SOL    HW218561   2.207   2.579   0.989
 5888SOL     OW18562   3.678   6.744   0.989
 5888SOL    HW118563   3.603   6.679   0.980
 5888SOL    HW218564   3.756   6.700   1.035
 5889SOL     OW18565   5.958   0.635   1.914
 5889SOL    HW118566   5.954   0.539   1.939
 5889SOL    HW218567   5.969   0.644   1.815
 5890SOL     OW18568   2.213   5.868   2.824
 5890SOL    HW118569   2.132   5.913   2.786
 5890SOL    HW218570   2.240   5.793   2.764
 5891SOL     OW18571   2.201   3.302   0.496
 5891SOL    HW118572   2.239   3.359   0.423
 5891SOL    HW218573   2.218   3.345   0.584
 5892SOL     OW18574   1.243   3.648   0.717
 5892SOL    HW118575   1.331   3.662   0.761
 5892SOL    HW218576   1.170   3.675   0.780
 5893SOL     OW18577   0.856   6.127   1.407
 5893SOL    HW118578   0.785   6.090   1.348
 5893SOL    HW218579   0.842   6.093   1.500
 5894SOL     OW18580   2.730   5.674   6.580
 5894SOL    HW118581   2.701   5.767   6.603
 5894SOL    HW218582   2.778   5.675   6.493
 5895SOL     OW18583   5.044   4.157   4.071
 5895SOL    HW118584   5.026   4.170   4.169
 5895SOL    HW218585   4.959   4.167   4.020
 5896SOL     OW18586   5.730   2.496   2.311
 5896SOL    HW118587   5.648   2.554   2.302
 5896SOL    HW218588   5.810   2.548   2.283
 5897SOL     OW18589   4.072   2.715   0.451
 5897SOL    HW118590   4.160   2.760   0.466
 5897SOL    HW218591   4.008   2.780   0.408
 5898SOL     OW18592   2.179   1.488   5.607
 5898SOL    HW118593   2.116   1.557   5.572
 5898SOL    HW218594   2.128   1.414   5.650
 5899SOL     OW18595   0.074   5.970   6.508
 5899SOL    HW118596   0.025   5.917   6.439
 5899SOL    HW218597   0.116   6.050   6.464
 5900SOL     OW18598   5.691   6.507   3.103
 5900SOL    HW118599   5.756   6.536   3.173
 5900SOL    HW218600   5.661   6.413   3.122
 5901SOL     OW18601   2.240   1.113   5.152
 5901SOL    HW118602   2.197   1.196   5.188
 5901SOL    HW218603   2.315   1.085   5.212
 5902SOL     OW18604   4.839   3.773   6.192
 5902SOL    HW118605   4.909   3.753   6.123
 5902SOL    HW218606   4.754   3.726   6.169
 5903SOL     OW18607   6.293   2.087   5.896
 5903SOL    HW118608   6.342   2.054   5.976
 5903SOL    HW218609   6.211   2.136   5.925
 5904SOL     OW18610   1.705   4.326   1.886
 5904SOL    HW118611   1.658   4.363   1.806
 5904SOL    HW218612   1.735   4.401   1.945
 5905SOL     OW18613   5.406   1.283   3.913
 5905SOL    HW118614   5.370   1.372   3.940
 5905SOL    HW218615   5.374   1.261   3.820
 5906SOL     OW18616   4.932   1.186   5.520
 5906SOL    HW118617   4.849   1.241   5.508
 5906SOL    HW218618   4.934   1.149   5.613
 5907SOL     OW18619   1.814   3.672   5.821
 5907SOL    HW118620   1.753   3.669   5.900
 5907SOL    HW218621   1.796   3.593   5.762
 5908SOL     OW18622   5.245   3.100   6.483
 5908SOL    HW118623   5.342   3.102   6.508
 5908SOL    HW218624   5.217   3.190   6.450
 5909SOL     OW18625   6.654   4.636   3.771
 5909SOL    HW118626   6.585   4.591   3.714
 5909SOL    HW218627   6.738   4.650   3.718
 5910SOL     OW18628   2.643   4.352   0.843
 5910SOL    HW118629   2.619   4.299   0.924
 5910SOL    HW218630   2.572   4.341   0.773
 5911SOL     OW18631   5.363   6.848   6.761
 5911SOL    HW118632   5.437   6.906   6.726
 5911SOL    HW218633   5.399   6.759   6.786
 5912SOL     OW18634   6.804   3.533   6.524
 5912SOL    HW118635   6.756   3.567   6.442
 5912SOL    HW218636   6.899   3.514   6.501
 5913SOL     OW18637   1.301   2.146   5.441
 5913SOL    HW118638   1.219   2.154   5.497
 5913SOL    HW218639   1.346   2.058   5.460
 5914SOL     OW18640   2.019   6.086   1.068
 5914SOL    HW118641   1.926   6.052   1.052
 5914SOL    HW218642   2.021   6.136   1.155
 5915SOL     OW18643   4.895   3.346   2.831
 5915SOL    HW118644   4.890   3.407   2.753
 5915SOL    HW218645   4.833   3.268   2.817
 5916SOL     OW18646   3.216   6.986   5.929
 5916SOL    HW118647   3.278   6.976   6.007
 5916SOL    HW218648   3.217   0.063   5.897
 5917SOL     OW18649   3.550   2.942   2.728
 5917SOL    HW118650   3.506   2.969   2.814
 5917SOL    HW218651   3.488   2.883   2.676
 5918SOL     OW18652   2.280   2.792   4.311
 5918SOL    HW118653   2.238   2.703   4.291
 5918SOL    HW218654   2.306   2.837   4.226
 5919SOL     OW18655   1.049   2.877   0.340
 5919SOL    HW118656   1.091   2.894   0.251
 5919SOL    HW218657   0.974   2.941   0.355
 5920SOL     OW18658   3.499   6.090   6.940
 5920SOL    HW118659   3.515   6.134   6.851
 5920SOL    HW218660   3.573   6.025   6.958
 5921SOL     OW18661   4.065   5.606   4.778
 5921SOL    HW118662   4.158   5.624   4.810
 5921SOL    HW218663   4.048   5.508   4.775
 5922SOL     OW18664   5.631   4.114   2.097
 5922SOL    HW118665   5.655   4.022   2.065
 5922SOL    HW218666   5.686   4.181   2.049
 5923SOL     OW18667   0.103   0.130   3.492
 5923SOL    HW118668   0.013   0.123   3.533
 5923SOL    HW218669   0.128   0.042   3.451
 5924SOL     OW18670   5.384   2.627   4.677
 5924SOL    HW118671   5.355   2.570   4.601
 5924SOL    HW218672   5.483   2.637   4.675
 5925SOL     OW18673   6.596   6.073   0.866
 5925SOL    HW118674   6.514   6.046   0.815
 5925SOL    HW218675   6.578   6.064   0.964
 5926SOL     OW18676   3.542   5.039   1.961
 5926SOL    HW118677   3.607   5.104   2.000
 5926SOL    HW218678   3.577   4.946   1.970
 5927SOL     OW18679   2.477   5.461   1.915
 5927SOL    HW118680   2.559   5.509   1.946
 5927SOL    HW218681   2.444   5.503   1.831
 5928SOL     OW18682   1.184   6.682   1.415
 5928SOL    HW118683   1.264   6.733   1.448
 5928SOL    HW218684   1.191   6.587   1.445
 5929SOL     OW18685   1.415   0.207   5.672
 5929SOL    HW118686   1.475   0.131   5.648
 5929SOL    HW218687   1.321   0.173   5.680
 5930SOL     OW18688   6.772   1.854   4.954
 5930SOL    HW118689   6.732   1.867   5.045
 5930SOL    HW218690   6.841   1.782   4.958
 5931SOL     OW18691   5.939   5.212   1.287
 5931SOL    HW118692   5.959   5.138   1.352
 5931SOL    HW218693   6.015   5.221   1.223
 5932SOL     OW18694   2.327   6.162   0.390
 5932SOL    HW118695   2.318   6.213   0.475
 5932SOL    HW218696   2.423   6.160   0.362
 5933SOL     OW18697   6.313   3.367   2.989
 5933SOL    HW118698   6.319   3.317   3.075
 5933SOL    HW218699   6.346   3.461   3.002
 5934SOL     OW18700   3.848   4.061   3.019
 5934SOL    HW118701   3.752   4.079   3.041
 5934SOL    HW218702   3.858   4.057   2.919
 5935SOL     OW18703   3.625   3.127   3.375
 5935SOL    HW118704   3.652   3.181   3.295
 5935SOL    HW218705   3.573   3.185   3.438
 5936SOL     OW18706   5.637   5.855   6.427
 5936SOL    HW118707   5.714   5.916   6.409
 5936SOL    HW218708   5.574   5.857   6.349
 5937SOL     OW18709   1.432   3.787   1.078
 5937SOL    HW118710   1.347   3.813   1.123
 5937SOL    HW218711   1.489   3.735   1.141
 5938SOL     OW18712   1.889   4.163   1.479
 5938SOL    HW118713   1.969   4.222   1.489
 5938SOL    HW218714   1.894   4.089   1.545
 5939SOL     OW18715   2.792   0.674   3.042
 5939SOL    HW118716   2.810   0.641   3.135
 5939SOL    HW218717   2.879   0.693   2.996
 5940SOL     OW18718   4.272   5.898   3.569
 5940SOL    HW118719   4.259   5.881   3.471
 5940SOL    HW218720   4.198   5.958   3.602
 5941SOL     OW18721   6.500   4.575   2.194
 5941SOL    HW118722   6.452   4.559   2.107
 5941SOL    HW218723   6.542   4.490   2.225
 5942SOL     OW18724   5.766   1.791   5.625
 5942SOL    HW118725   5.808   1.815   5.712
 5942SOL    HW218726   5.728   1.699   5.630
 5943SOL     OW18727   1.391   5.984   6.801
 5943SOL    HW118728   1.474   5.980   6.857
 5943SOL    HW218729   1.345   5.895   6.804
 5944SOL     OW18730   4.404   1.995   2.889
 5944SOL    HW118731   4.432   1.925   2.824
 5944SOL    HW218732   4.483   2.049   2.918
 5945SOL     OW18733   6.833   5.120   5.645
 5945SOL    HW118734   6.886   5.141   5.562
 5945SOL    HW218735   6.868   5.174   5.721
 5946SOL     OW18736   3.726   2.901   5.446
 5946SOL    HW118737   3.681   2.970   5.389
 5946SOL    HW218738   3.691   2.811   5.424
 5947SOL     OW18739   4.315   3.311   1.683
 5947SOL    HW118740   4.348   3.404   1.698
 5947SOL    HW218741   4.218   3.313   1.660
 5948SOL     OW18742   3.925   4.800   2.396
 5948SOL    HW118743   3.852   4.749   2.351
 5948SOL    HW218744   3.886   4.875   2.450
 5949SOL     OW18745   4.584   4.674   2.037
 5949SOL    HW118746   4.493   4.638   2.057
 5949SOL    HW218747   4.629   4.614   1.971
 5950SOL     OW18748   6.197   2.565   3.752
 5950SOL    HW118749   6.208   2.664   3.760
 5950SOL    HW218750   6.161   2.543   3.662
 5951SOL     OW18751   1.930   5.842   3.839
 5951SOL    HW118752   1.863   5.795   3.896
 5951SOL    HW218753   1.941   5.793   3.752
 5952SOL     OW18754   6.656   6.872   4.801
 5952SOL    HW118755   6.642   6.789   4.856
 5952SOL    HW218756   6.601   6.865   4.717
 5953SOL     OW18757   0.595   3.427   6.262
 5953SOL    HW118758   0.672   3.474   6.304
 5953SOL    HW218759   0.534   3.392   6.333
 5954SOL     OW18760   0.737   5.259   6.744
 5954SOL    HW118761   0.742   5.196   6.666
 5954SOL    HW218762   0.735   5.207   6.829
 5955SOL     OW18763   5.429   5.843   2.285
 5955SOL    HW118764   5.470   5.934   2.289
 5955SOL    HW218765   5.329   5.852   2.283
 5956SOL     OW18766   6.360   1.974   0.288
 5956SOL    HW118767   6.260   1.976   0.290
 5956SOL    HW218768   6.393   1.901   0.347
 5957SOL     OW18769   5.208   6.945   6.026
 5957SOL    HW118770   5.290   6.992   6.058
 5957SOL    HW218771   5.145   7.012   5.986
 5958SOL     OW18772   0.671   5.449   2.382
 5958SOL    HW118773   0.711   5.523   2.327
 5958SOL    HW218774   0.590   5.484   2.430
 5959SOL     OW18775   1.868   1.461   6.074
 5959SOL    HW118776   1.875   1.363   6.052
 5959SOL    HW218777   1.960   1.499   6.085
 5960SOL     OW18778   3.589   0.685   4.141
 5960SOL    HW118779   3.533   0.752   4.092
 5960SOL    HW218780   3.532   0.607   4.168
 5961SOL     OW18781   3.143   0.893   5.809
 5961SOL    HW118782   3.126   0.939   5.897
 5961SOL    HW218783   3.239   0.868   5.803
 5962SOL     OW18784   5.716   5.114   2.269
 5962SOL    HW118785   5.737   5.097   2.366
 5962SOL    HW218786   5.787   5.172   2.229
 5963SOL     OW18787   4.150   3.572   2.184
 5963SOL    HW118788   4.243   3.560   2.148
 5963SOL    HW218789   4.151   3.638   2.259
 5964SOL     OW18790   1.450   4.775   5.407
 5964SOL    HW118791   1.391   4.799   5.330
 5964SOL    HW218792   1.473   4.678   5.403
 5965SOL     OW18793   2.601   1.705   4.751
 5965SOL    HW118794   2.588   1.634   4.682
 5965SOL    HW218795   2.605   1.664   4.841
 5966SOL     OW18796   1.796   6.651   3.648
 5966SOL    HW118797   1.840   6.574   3.694
 5966SOL    HW218798   1.853   6.732   3.657
 5967SOL     OW18799   4.887   0.156   2.225
 5967SOL    HW118800   4.957   0.141   2.295
 5967SOL    HW218801   4.870   0.254   2.215
 5968SOL     OW18802   0.296   2.477   4.338
 5968SOL    HW118803   0.286   2.377   4.331
 5968SOL    HW218804   0.205   2.519   4.333
 5969SOL     OW18805   5.395   3.201   2.700
 5969SOL    HW118806   5.411   3.127   2.636
 5969SOL    HW218807   5.362   3.164   2.787
 5970SOL     OW18808   1.721   2.673   3.412
 5970SOL    HW118809   1.798   2.723   3.450
 5970SOL    HW218810   1.643   2.678   3.475
 5971SOL     OW18811   2.245   0.091   2.356
 5971SOL    HW118812   2.236   0.170   2.296
 5971SOL    HW218813   2.338   0.088   2.394
 5972SOL     OW18814   4.667   6.321   1.099
 5972SOL    HW118815   4.581   6.332   1.050
 5972SOL    HW218816   4.649   6.288   1.192
 5973SOL     OW18817   1.340   4.599   3.718
 5973SOL    HW118818   1.353   4.694   3.747
 5973SOL    HW218819   1.262   4.559   3.766
 5974SOL     OW18820   0.912   3.624   6.518
 5974SOL    HW118821   0.925   3.543   6.576
 5974SOL    HW218822   0.889   3.594   6.425
 5975SOL     OW18823   2.150   2.491   0.424
 5975SOL    HW118824   2.083   2.422   0.452
 5975SOL    HW218825   2.137   2.573   0.479
 5976SOL     OW18826   3.492   3.712   5.421
 5976SOL    HW118827   3.559   3.782   5.447
 5976SOL    HW218828   3.434   3.747   5.348
 5977SOL     OW18829   0.988   3.184   3.006
 5977SOL    HW118830   0.926   3.222   3.075
 5977SOL    HW218831   0.986   3.242   2.924
 5978SOL     OW18832   5.455   5.444   2.540
 5978SOL    HW118833   5.410   5.531   2.525
 5978SOL    HW218834   5.504   5.446   2.627
 5979SOL     OW18835   6.675   0.438   3.216
 5979SOL    HW118836   6.599   0.503   3.205
 5979SOL    HW218837   6.650   0.351   3.175
 5980SOL     OW18838   6.110   4.016   6.531
 5980SOL    HW118839   6.137   3.959   6.454
 5980SOL    HW218840   6.190   4.064   6.567
 5981SOL     OW18841   4.159   1.073   1.718
 5981SOL    HW118842   4.196   0.981   1.710
 5981SOL    HW218843   4.181   1.125   1.635
 5982SOL     OW18844   6.306   2.044   6.657
 5982SOL    HW118845   6.225   2.070   6.604
 5982SOL    HW218846   6.376   2.115   6.649
 5983SOL     OW18847   0.947   1.010   4.608
 5983SOL    HW118848   0.859   0.967   4.627
 5983SOL    HW218849   0.936   1.109   4.603
 5984SOL     OW18850   0.028   0.004   5.458
 5984SOL    HW118851   0.094   6.980   5.395
 5984SOL    HW218852   0.048   0.102   5.467
 5985SOL     OW18853   4.611   2.660   4.414
 5985SOL    HW118854   4.529   2.714   4.431
 5985SOL    HW218855   4.603   2.572   4.462
 5986SOL     OW18856   3.338   2.859   2.577
 5986SOL    HW118857   3.269   2.927   2.550
 5986SOL    HW218858   3.402   2.846   2.502
 5987SOL     OW18859   3.980   0.317   5.700
 5987SOL    HW118860   4.067   0.334   5.654
 5987SOL    HW218861   3.986   0.230   5.750
 5988SOL     OW18862   3.951   0.853   4.008
 5988SOL    HW118863   4.026   0.844   4.073
 5988SOL    HW218864   3.898   0.768   4.005
 5989SOL     OW18865   2.601   0.867   6.141
 5989SOL    HW118866   2.656   0.927   6.199
 5989SOL    HW218867   2.649   0.850   6.055
 5990SOL     OW18868   2.979   4.752   1.763
 5990SOL    HW118869   2.951   4.692   1.837
 5990SOL    HW218870   3.047   4.706   1.706
 5991SOL     OW18871   2.695   5.388   3.679
 5991SOL    HW118872   2.628   5.397   3.752
 5991SOL    HW218873   2.705   5.292   3.654
 5992SOL     OW18874   4.425   0.462   4.073
 5992SOL    HW118875   4.402   0.388   4.136
 5992SOL    HW218876   4.340   0.500   4.035
 5993SOL     OW18877   3.169   5.681   4.936
 5993SOL    HW118878   3.225   5.636   4.867
 5993SOL    HW218879   3.131   5.612   4.998
 5994SOL     OW18880   0.124   2.366   2.033
 5994SOL    HW118881   0.089   2.288   2.085
 5994SOL    HW218882   0.211   2.341   1.990
 5995SOL     OW18883   0.026   3.976   1.601
 5995SOL    HW118884   6.982   3.898   1.614
 5995SOL    HW218885   6.993   4.051   1.559
 5996SOL     OW18886   0.847   5.551   5.815
 5996SOL    HW118887   0.789   5.493   5.757
 5996SOL    HW218888   0.791   5.604   5.877
 5997SOL     OW18889   0.692   6.462   2.218
 5997SOL    HW118890   0.660   6.389   2.277
 5997SOL    HW218891   0.626   6.537   2.218
 5998SOL     OW18892   5.120   1.961   3.345
 5998SOL    HW118893   5.134   1.923   3.253
 5998SOL    HW218894   5.041   2.022   3.343
 5999SOL     OW18895   1.551   1.437   2.452
 5999SOL    HW118896   1.520   1.384   2.530
 5999SOL    HW218897   1.550   1.535   2.475
 6000SOL     OW18898   4.372   6.373   2.560
 6000SOL    HW118899   4.359   6.407   2.654
 6000SOL    HW218900   4.371   6.450   2.497
 6001SOL     OW18901   6.211   2.164   6.915
 6001SOL    HW118902   6.227   2.071   6.880
 6001SOL    HW218903   6.163   2.158   7.003
 6002SOL     OW18904   1.612   0.276   1.814
 6002SOL    HW118905   1.667   0.287   1.897
 6002SOL    HW218906   1.672   0.262   1.736
 6003SOL     OW18907   4.460   4.491   4.046
 6003SOL    HW118908   4.550   4.447   4.043
 6003SOL    HW218909   4.402   4.444   4.112
 6004SOL     OW18910   7.000   3.824   2.386
 6004SOL    HW118911   0.014   3.839   2.480
 6004SOL    HW218912   0.014   3.734   2.354
 6005SOL     OW18913   3.248   6.268   3.046
 6005SOL    HW118914   3.167   6.326   3.055
 6005SOL    HW218915   3.234   6.204   2.970
 6006SOL     OW18916   2.432   6.387   0.024
 6006SOL    HW118917   2.529   6.399   0.007
 6006SOL    HW218918   2.413   6.395   0.122
 6007SOL     OW18919   5.434   2.641   3.782
 6007SOL    HW118920   5.427   2.736   3.813
 6007SOL    HW218921   5.386   2.581   3.847
 6008SOL     OW18922   3.425   4.638   6.397
 6008SOL    HW118923   3.507   4.694   6.387
 6008SOL    HW218924   3.354   4.670   6.334
 6009SOL     OW18925   3.332   1.996   4.430
 6009SOL    HW118926   3.284   1.997   4.518
 6009SOL    HW218927   3.286   2.056   4.366
 6010SOL     OW18928   1.676   2.719   3.155
 6010SOL    HW118929   1.735   2.712   3.235
 6010SOL    HW218930   1.661   2.628   3.117
 6011SOL     OW18931   6.553   3.106   3.222
 6011SOL    HW118932   6.527   3.010   3.207
 6011SOL    HW218933   6.473   3.158   3.253
 6012SOL     OW18934   6.605   3.702   0.684
 6012SOL    HW118935   6.553   3.781   0.651
 6012SOL    HW218936   6.703   3.721   0.675
 6013SOL     OW18937   5.799   1.491   2.429
 6013SOL    HW118938   5.779   1.553   2.354
 6013SOL    HW218939   5.893   1.459   2.422
 6014SOL     OW18940   5.801   0.554   0.938
 6014SOL    HW118941   5.839   0.563   0.846
 6014SOL    HW218942   5.774   0.460   0.954
 6015SOL     OW18943   5.200   1.839   4.781
 6015SOL    HW118944   5.103   1.864   4.794
 6015SOL    HW218945   5.246   1.910   4.728
 6016SOL     OW18946   2.058   6.899   5.173
 6016SOL    HW118947   1.984   6.967   5.183
 6016SOL    HW218948   2.039   6.842   5.094
 6017SOL     OW18949   6.853   4.697   2.561
 6017SOL    HW118950   6.896   4.626   2.616
 6017SOL    HW218951   6.913   4.721   2.485
 6018SOL     OW18952   2.686   4.806   0.773
 6018SOL    HW118953   2.705   4.767   0.682
 6018SOL    HW218954   2.617   4.751   0.819
 6019SOL     OW18955   4.402   6.795   4.214
 6019SOL    HW118956   4.450   6.869   4.261
 6019SOL    HW218957   4.316   6.830   4.175
 6020SOL     OW18958   3.488   0.622   2.904
 6020SOL    HW118959   3.524   0.679   2.829
 6020SOL    HW218960   3.391   0.605   2.888
 6021SOL     OW18961   4.090   1.439   2.847
 6021SOL    HW118962   4.105   1.356   2.901
 6021SOL    HW218963   3.993   1.464   2.852
 6022SOL     OW18964   4.497   1.875   5.234
 6022SOL    HW118965   4.531   1.952   5.180
 6022SOL    HW218966   4.397   1.881   5.241
 6023SOL     OW18967   6.634   1.665   2.446
 6023SOL    HW118968   6.632   1.753   2.495
 6023SOL    HW218969   6.547   1.617   2.460
 6024SOL     OW18970   0.648   4.824   2.577
 6024SOL    HW118971   0.675   4.913   2.614
 6024SOL    HW218972   0.603   4.836   2.489
 6025SOL     OW18973   4.411   2.004   1.503
 6025SOL    HW118974   4.470   1.992   1.423
 6025SOL    HW218975   4.423   2.096   1.540
 6026SOL     OW18976   0.364   4.624   5.219
 6026SOL    HW118977   0.383   4.673   5.304
 6026SOL    HW218978   0.293   4.671   5.168
 6027SOL     OW18979   3.102   3.279   0.379
 6027SOL    HW118980   3.173   3.343   0.350
 6027SOL    HW218981   3.018   3.329   0.400
 6028SOL     OW18982   1.570   3.673   0.367
 6028SOL    HW118983   1.610   3.592   0.410
 6028SOL    HW218984   1.574   3.663   0.268
 6029SOL     OW18985   1.672   5.087   1.155
 6029SOL    HW118986   1.631   5.007   1.111
 6029SOL    HW218987   1.759   5.109   1.110
 6030SOL     OW18988   2.184   0.493   0.764
 6030SOL    HW118989   2.189   0.510   0.863
 6030SOL    HW218990   2.275   0.496   0.725
 6031SOL     OW18991   5.190   0.033   5.105
 6031SOL    HW118992   5.266   7.001   5.064
 6031SOL    HW218993   5.113   6.987   5.121
 6032SOL     OW18994   0.679   3.264   2.490
 6032SOL    HW118995   0.720   3.215   2.413
 6032SOL    HW218996   0.730   3.245   2.573
 6033SOL     OW18997   1.442   0.300   4.423
 6033SOL    HW118998   1.447   0.299   4.323
 6033SOL    HW218999   1.462   0.209   4.459
 6034SOL     OW19000   2.224   4.021   5.573
 6034SOL    HW119001   2.281   4.067   5.504
 6034SOL    HW219002   2.140   3.987   5.530
 6035SOL     OW19003   6.200   1.029   4.205
 6035SOL    HW119004   6.103   1.035   4.182
 6035SOL    HW219005   6.225   1.106   4.264
 6036SOL     OW19006   6.822   0.823   4.518
 6036SOL    HW119007   6.802   0.736   4.563
 6036SOL    HW219008   6.906   0.862   4.556
 6037SOL     OW19009   6.695   4.707   4.704
 6037SOL    HW119010   6.632   4.727   4.629
 6037SOL    HW219011   6.644   4.703   4.790
 6038SOL     OW19012   4.770   3.715   6.639
 6038SOL    HW119013   4.719   3.665   6.569
 6038SOL    HW219014   4.787   3.809   6.607
 6039SOL     OW19015   3.503   4.118   3.129
 6039SOL    HW119016   3.410   4.116   3.166
 6039SOL    HW219017   3.566   4.150   3.200
 6040SOL     OW19018   0.363   1.825   6.811
 6040SOL    HW119019   0.273   1.790   6.787
 6040SOL    HW219020   0.376   1.916   6.770
 6041SOL     OW19021   0.554   2.596   0.385
 6041SOL    HW119022   0.589   2.689   0.368
 6041SOL    HW219023   0.555   2.578   0.483
 6042SOL     OW19024   5.345   5.085   3.728
 6042SOL    HW119025   5.312   5.114   3.638
 6042SOL    HW219026   5.430   5.133   3.749
 6043SOL     OW19027   0.792   4.851   4.046
 6043SOL    HW119028   0.884   4.854   4.006
 6043SOL    HW219029   0.792   4.787   4.123
 6044SOL     OW19030   0.828   0.137   1.696
 6044SOL    HW119031   0.808   0.234   1.703
 6044SOL    HW219032   0.864   0.103   1.783
 6045SOL     OW19033   0.355   3.860   1.501
 6045SOL    HW119034   0.262   3.822   1.500
 6045SOL    HW219035   0.350   3.959   1.492
 6046SOL     OW19036   2.882   2.803   0.462
 6046SOL    HW119037   2.904   2.742   0.538
 6046SOL    HW219038   2.960   2.861   0.442
 6047SOL     OW19039   0.242   6.420   5.074
 6047SOL    HW119040   0.186   6.353   5.123
 6047SOL    HW219041   0.237   6.509   5.121
 6048SOL     OW19042   4.713   6.637   4.972
 6048SOL    HW119043   4.672   6.631   4.882
 6048SOL    HW219044   4.656   6.693   5.032
 6049SOL     OW19045   6.561   5.107   1.285
 6049SOL    HW119046   6.568   5.203   1.309
 6049SOL    HW219047   6.512   5.097   1.198
 6050SOL     OW19048   4.902   4.149   5.399
 6050SOL    HW119049   4.935   4.243   5.408
 6050SOL    HW219050   4.862   4.118   5.485
 6051SOL     OW19051   1.769   1.695   2.993
 6051SOL    HW119052   1.790   1.629   3.065
 6051SOL    HW219053   1.796   1.787   3.023
 6052SOL     OW19054   6.690   1.176   0.218
 6052SOL    HW119055   6.624   1.109   0.184
 6052SOL    HW219056   6.689   1.256   0.158
 6053SOL     OW19057   2.094   0.098   6.541
 6053SOL    HW119058   2.056   0.035   6.609
 6053SOL    HW219059   2.098   0.190   6.580
 6054SOL     OW19060   2.491   5.195   0.229
 6054SOL    HW119061   2.569   5.257   0.216
 6054SOL    HW219062   2.466   5.193   0.326
 6055SOL     OW19063   5.003   0.174   4.582
 6055SOL    HW119064   5.057   0.148   4.502
 6055SOL    HW219065   5.059   0.227   4.645
 6056SOL     OW19066   4.928   2.511   5.985
 6056SOL    HW119067   4.870   2.532   6.064
 6056SOL    HW219068   5.007   2.458   6.015
 6057SOL     OW19069   3.698   0.723   5.996
 6057SOL    HW119070   3.723   0.640   5.946
 6057SOL    HW219071   3.779   0.760   6.042
 6058SOL     OW19072   5.650   1.822   4.373
 6058SOL    HW119073   5.687   1.733   4.349
 6058SOL    HW219074   5.602   1.861   4.294
 6059SOL     OW19075   0.018   5.258   6.035
 6059SOL    HW119076   7.017   5.354   6.055
 6059SOL    HW219077   6.986   5.229   5.953
 6060SOL     OW19078   4.118   6.491   5.950
 6060SOL    HW119079   4.116   6.419   6.019
 6060SOL    HW219080   4.207   6.536   5.950
 6061SOL     OW19081   2.242   1.847   6.411
 6061SOL    HW119082   2.170   1.902   6.454
 6061SOL    HW219083   2.213   1.822   6.319
 6062SOL     OW19084   2.357   0.682   4.146
 6062SOL    HW119085   2.294   0.649   4.217
 6062SOL    HW219086   2.323   0.654   4.056
 6063SOL     OW19087   4.422   0.065   0.053
 6063SOL    HW119088   4.515   0.071   0.090
 6063SOL    HW219089   4.404   6.989   0.022
 6064SOL     OW19090   1.103   6.227   3.551
 6064SOL    HW119091   1.199   6.252   3.539
 6064SOL    HW219092   1.074   6.246   3.644
 6065SOL     OW19093   0.066   0.449   0.781
 6065SOL    HW119094   7.007   0.462   0.718
 6065SOL    HW219095   0.112   0.363   0.759
 6066SOL     OW19096   4.459   2.613   6.802
 6066SOL    HW119097   4.375   2.601   6.749
 6066SOL    HW219098   4.537   2.585   6.747
 6067SOL     OW19099   5.874   2.527   6.811
 6067SOL    HW119100   5.815   2.591   6.861
 6067SOL    HW219101   5.934   2.480   6.875
 6068SOL     OW19102   4.740   2.670   5.070
 6068SOL    HW119103   4.782   2.676   4.980
 6068SOL    HW219104   4.649   2.629   5.063
 6069SOL     OW19105   6.044   3.836   4.024
 6069SOL    HW119106   6.101   3.833   4.106
 6069SOL    HW219107   6.065   3.919   3.972
 6070SOL     OW19108   3.578   2.393   6.314
 6070SOL    HW119109   3.573   2.294   6.299
 6070SOL    HW219110   3.525   2.416   6.396
 6071SOL     OW19111   4.556   6.217   5.002
 6071SOL    HW119112   4.500   6.283   5.052
 6071SOL    HW219113   4.633   6.264   4.960
 6072SOL     OW19114   0.594   1.763   0.630
 6072SOL    HW119115   0.686   1.723   0.628
 6072SOL    HW219116   0.542   1.722   0.706
 6073SOL     OW19117   6.680   2.557   1.314
 6073SOL    HW119118   6.739   2.490   1.270
 6073SOL    HW219119   6.680   2.542   1.412
 6074SOL     OW19120   0.535   0.098   4.235
 6074SOL    HW119121   0.461   0.072   4.173
 6074SOL    HW219122   0.499   0.153   4.310
 6075SOL     OW19123   5.316   4.218   6.635
 6075SOL    HW119124   5.405   4.207   6.679
 6075SOL    HW219125   5.320   4.181   6.542
 6076SOL     OW19126   2.135   6.101   3.528
 6076SOL    HW119127   2.088   6.139   3.607
 6076SOL    HW219128   2.230   6.080   3.552
 6077SOL     OW19129   5.877   5.816   2.106
 6077SOL    HW119130   5.854   5.892   2.046
 6077SOL    HW219131   5.953   5.842   2.165
 6078SOL     OW19132   2.440   4.516   3.390
 6078SOL    HW119133   2.369   4.490   3.324
 6078SOL    HW219134   2.528   4.521   3.343
 6079SOL     OW19135   2.198   1.403   0.698
 6079SOL    HW119136   2.151   1.446   0.775
 6079SOL    HW219137   2.131   1.368   0.633
 6080SOL     OW19138   5.890   2.181   2.324
 6080SOL    HW119139   5.809   2.122   2.317
 6080SOL    HW219140   5.898   2.215   2.417
 6081SOL     OW19141   0.418   4.041   3.239
 6081SOL    HW119142   0.330   4.048   3.193
 6081SOL    HW219143   0.492   4.062   3.174
 6082SOL     OW19144   3.865   1.557   4.232
 6082SOL    HW119145   3.784   1.583   4.180
 6082SOL    HW219146   3.844   1.561   4.330
 6083SOL     OW19147   2.129   6.884   0.118
 6083SOL    HW119148   2.184   6.811   0.158
 6083SOL    HW219149   2.065   6.919   0.187
 6084SOL     OW19150   0.915   5.117   5.739
 6084SOL    HW119151   0.945   5.147   5.830
 6084SOL    HW219152   0.995   5.108   5.679
 6085SOL     OW19153   4.570   3.786   1.412
 6085SOL    HW119154   4.626   3.861   1.376
 6085SOL    HW219155   4.570   3.790   1.512
 6086SOL     OW19156   2.626   1.831   3.210
 6086SOL    HW119157   2.587   1.883   3.285
 6086SOL    HW219158   2.726   1.827   3.220
 6087SOL     OW19159   4.763   6.684   6.960
 6087SOL    HW119160   4.714   6.699   6.874
 6087SOL    HW219161   4.850   6.733   6.959
 6088SOL     OW19162   0.139   0.342   4.671
 6088SOL    HW119163   0.190   0.325   4.587
 6088SOL    HW219164   0.093   0.431   4.664
 6089SOL     OW19165   0.401   3.101   0.251
 6089SOL    HW119166   0.418   3.101   0.350
 6089SOL    HW219167   0.427   3.189   0.212
 6090SOL     OW19168   0.123   6.049   4.135
 6090SOL    HW119169   0.143   6.079   4.042
 6090SOL    HW219170   0.185   6.095   4.198
 6091SOL     OW19171   5.918   2.090   1.640
 6091SOL    HW119172   5.934   2.141   1.555
 6091SOL    HW219173   5.871   2.149   1.705
 6092SOL     OW19174   1.719   2.480   1.498
 6092SOL    HW119175   1.773   2.442   1.423
 6092SOL    HW219176   1.708   2.579   1.485
 6093SOL     OW19177   1.025   3.248   1.406
 6093SOL    HW119178   1.024   3.334   1.456
 6093SOL    HW219179   1.080   3.181   1.455
 6094SOL     OW19180   1.217   0.845   0.836
 6094SOL    HW119181   1.210   0.751   0.869
 6094SOL    HW219182   1.224   0.907   0.915
 6095SOL     OW19183   6.636   3.990   5.860
 6095SOL    HW119184   6.733   3.977   5.881
 6095SOL    HW219185   6.608   3.925   5.789
 6096SOL     OW19186   4.053   1.785   2.962
 6096SOL    HW119187   3.965   1.750   2.929
 6096SOL    HW219188   4.084   1.860   2.904
 6097SOL     OW19189   2.958   1.992   2.051
 6097SOL    HW119190   2.886   1.942   2.100
 6097SOL    HW219191   2.948   2.090   2.069
 6098SOL     OW19192   1.760   1.749   5.453
 6098SOL    HW119193   1.753   1.824   5.387
 6098SOL    HW219194   1.670   1.726   5.487
 6099SOL     OW19195   6.087   5.280   4.921
 6099SOL    HW119196   6.034   5.355   4.880
 6099SOL    HW219197   6.145   5.316   4.993
 6100SOL     OW19198   6.264   2.944   0.348
 6100SOL    HW119199   6.247   2.847   0.332
 6100SOL    HW219200   6.303   2.986   0.266
 6101SOL     OW19201   5.970   1.771   4.703
 6101SOL    HW119202   6.002   1.702   4.637
 6101SOL    HW219203   5.871   1.782   4.695
 6102SOL     OW19204   3.089   0.577   5.470
 6102SOL    HW119205   3.148   0.656   5.454
 6102SOL    HW219206   2.995   0.599   5.446
 6103SOL     OW19207   6.543   0.157   6.109
 6103SOL    HW119208   6.626   0.199   6.072
 6103SOL    HW219209   6.554   0.058   6.111
 6104SOL     OW19210   1.170   2.655   0.419
 6104SOL    HW119211   1.115   2.737   0.406
 6104SOL    HW219212   1.267   2.676   0.404
 6105SOL     OW19213   3.347   5.832   4.315
 6105SOL    HW119214   3.278   5.901   4.335
 6105SOL    HW219215   3.303   5.749   4.280
 6106SOL     OW19216   3.121   5.704   5.231
 6106SOL    HW119217   3.140   5.728   5.136
 6106SOL    HW219218   3.164   5.770   5.292
 6107SOL     OW19219   2.043   4.340   5.481
 6107SOL    HW119220   2.124   4.372   5.529
 6107SOL    HW219221   1.962   4.357   5.537
 6108SOL     OW19222   0.183   1.948   4.440
 6108SOL    HW119223   0.107   1.917   4.497
 6108SOL    HW219224   0.210   1.874   4.378
 6109SOL     OW19225   6.471   4.627   1.615
 6109SOL    HW119226   6.423   4.694   1.672
 6109SOL    HW219227   6.554   4.597   1.662
 6110SOL     OW19228   3.519   1.795   4.377
 6110SOL    HW119229   3.463   1.865   4.420
 6110SOL    HW219230   3.479   1.705   4.392
 6111SOL     OW19231   1.013   5.012   2.888
 6111SOL    HW119232   1.069   4.933   2.914
 6111SOL    HW219233   0.957   5.040   2.966
 6112SOL     OW19234   0.116   2.186   2.397
 6112SOL    HW119235   0.206   2.229   2.387
 6112SOL    HW219236   0.121   2.111   2.463
 6113SOL     OW19237   1.656   5.915   5.185
 6113SOL    HW119238   1.563   5.945   5.163
 6113SOL    HW219239   1.708   5.992   5.223
 6114SOL     OW19240   5.167   5.493   0.683
 6114SOL    HW119241   5.237   5.426   0.660
 6114SOL    HW219242   5.155   5.496   0.783
 6115SOL     OW19243   5.975   4.658   2.524
 6115SOL    HW119244   5.913   4.595   2.570
 6115SOL    HW219245   6.067   4.649   2.563
 6116SOL     OW19246   4.446   0.978   1.556
 6116SOL    HW119247   4.381   1.042   1.515
 6116SOL    HW219248   4.466   1.006   1.650
 6117SOL     OW19249   5.252   0.145   4.385
 6117SOL    HW119250   5.297   0.058   4.408
 6117SOL    HW219251   5.185   0.130   4.313
 6118SOL     OW19252   5.939   0.146   3.283
 6118SOL    HW119253   6.033   0.114   3.275
 6118SOL    HW219254   5.895   0.141   3.193
 6119SOL     OW19255   6.604   4.768   3.989
 6119SOL    HW119256   6.620   4.738   3.895
 6119SOL    HW219257   6.525   4.721   4.027
 6120SOL     OW19258   2.706   1.180   2.840
 6120SOL    HW119259   2.686   1.227   2.754
 6120SOL    HW219260   2.622   1.140   2.877
 6121SOL     OW19261   6.565   2.101   4.473
 6121SOL    HW119262   6.522   2.053   4.549
 6121SOL    HW219263   6.645   2.050   4.441
 6122SOL     OW19264   4.726   5.621   3.086
 6122SOL    HW119265   4.654   5.690   3.078
 6122SOL    HW219266   4.793   5.634   3.013
 6123SOL     OW19267   6.135   1.141   2.230
 6123SOL    HW119268   6.040   1.125   2.203
 6123SOL    HW219269   6.191   1.061   2.206
 6124SOL     OW19270   3.159   0.387   5.837
 6124SOL    HW119271   3.196   0.463   5.890
 6124SOL    HW219272   3.226   0.312   5.836
 6125SOL     OW19273   1.939   5.181   1.754
 6125SOL    HW119274   1.912   5.111   1.689
 6125SOL    HW219275   2.033   5.163   1.785
 6126SOL     OW19276   5.431   5.555   2.124
 6126SOL    HW119277   5.446   5.475   2.181
 6126SOL    HW219278   5.518   5.604   2.112
 6127SOL     OW19279   1.916   4.507   1.300
 6127SOL    HW119280   1.884   4.588   1.252
 6127SOL    HW219281   2.011   4.489   1.275
 6128SOL     OW19282   4.991   2.370   0.992
 6128SOL    HW119283   5.058   2.405   1.058
 6128SOL    HW219284   4.922   2.441   0.976
 6129SOL     OW19285   6.003   4.538   3.937
 6129SOL    HW119286   5.905   4.519   3.924
 6129SOL    HW219287   6.016   4.589   4.022
 6130SOL     OW19288   5.325   3.712   2.300
 6130SOL    HW119289   5.369   3.800   2.282
 6130SOL    HW219290   5.226   3.720   2.284
 6131SOL     OW19291   6.572   0.772   5.304
 6131SOL    HW119292   6.525   0.686   5.321
 6131SOL    HW219293   6.659   0.773   5.353
 6132SOL     OW19294   6.228   2.636   0.299
 6132SOL    HW119295   6.281   2.612   0.217
 6132SOL    HW219296   6.131   2.640   0.276
 6133SOL     OW19297   1.141   4.127   0.465
 6133SOL    HW119298   1.177   4.073   0.388
 6133SOL    HW219299   1.042   4.133   0.457
 6134SOL     OW19300   4.839   2.934   6.385
 6134SOL    HW119301   4.773   2.963   6.454
 6134SOL    HW219302   4.843   3.002   6.312
 6135SOL     OW19303   5.343   0.200   1.514
 6135SOL    HW119304   5.369   0.131   1.448
 6135SOL    HW219305   5.275   0.262   1.473
 6136SOL     OW19306   6.826   1.752   1.344
 6136SOL    HW119307   6.851   1.758   1.247
 6136SOL    HW219308   6.905   1.775   1.400
 6137SOL     OW19309   2.751   6.818   5.895
 6137SOL    HW119310   2.710   6.879   5.827
 6137SOL    HW219311   2.678   6.764   5.938
 6138SOL     OW19312   4.708   0.238   2.897
 6138SOL    HW119313   4.648   0.317   2.889
 6138SOL    HW219314   4.670   0.163   2.842
 6139SOL     OW19315   1.765   4.413   4.149
 6139SOL    HW119316   1.756   4.420   4.248
 6139SOL    HW219317   1.862   4.407   4.125
 6140SOL     OW19318   2.175   6.501   1.283
 6140SOL    HW119319   2.162   6.447   1.366
 6140SOL    HW219320   2.272   6.506   1.262
 6141SOL     OW19321   6.233   6.305   5.830
 6141SOL    HW119322   6.210   6.366   5.755
 6141SOL    HW219323   6.200   6.213   5.810
 6142SOL     OW19324   0.849   4.676   2.699
 6142SOL    HW119325   0.785   4.737   2.652
 6142SOL    HW219326   0.905   4.629   2.631
 6143SOL     OW19327   6.517   4.766   6.481
 6143SOL    HW119328   6.573   4.728   6.554
 6143SOL    HW219329   6.491   4.692   6.418
 6144SOL     OW19330   6.998   5.349   3.587
 6144SOL    HW119331   6.919   5.367   3.645
 6144SOL    HW219332   0.051   5.304   3.641
 6145SOL     OW19333   5.342   5.961   3.301
 6145SOL    HW119334   5.269   5.901   3.331
 6145SOL    HW219335   5.418   5.906   3.266
 6146SOL     OW19336   5.592   1.144   3.084
 6146SOL    HW119337   5.609   1.047   3.100
 6146SOL    HW219338   5.620   1.168   2.991
 6147SOL     OW19339   1.696   3.574   3.215
 6147SOL    HW119340   1.634   3.630   3.160
 6147SOL    HW219341   1.704   3.483   3.174
 6148SOL     OW19342   6.334   6.207   4.158
 6148SOL    HW119343   6.418   6.158   4.135
 6148SOL    HW219344   6.357   6.300   4.188
 6149SOL     OW19345   2.085   6.443   3.455
 6149SOL    HW119346   2.161   6.489   3.408
 6149SOL    HW219347   2.063   6.358   3.407
 6150SOL     OW19348   4.382   4.977   6.296
 6150SOL    HW119349   4.315   4.932   6.355
 6150SOL    HW219350   4.338   5.052   6.247
 6151SOL     OW19351   4.611   1.988   5.847
 6151SOL    HW119352   4.563   1.978   5.760
 6151SOL    HW219353   4.586   1.912   5.908
 6152SOL     OW19354   6.686   4.570   6.568
 6152SOL    HW119355   6.720   4.581   6.662
 6152SOL    HW219356   6.764   4.562   6.506
 6153SOL     OW19357   4.999   3.349   0.633
 6153SOL    HW119358   4.920   3.328   0.690
 6153SOL    HW219359   4.978   3.426   0.573
 6154SOL     OW19360   5.185   2.960   2.552
 6154SOL    HW119361   5.162   3.054   2.527
 6154SOL    HW219362   5.280   2.941   2.529
 6155SOL     OW19363   1.314   3.649   4.147
 6155SOL    HW119364   1.246   3.607   4.207
 6155SOL    HW219365   1.276   3.733   4.107
 6156SOL     OW19366   6.525   0.232   3.412
 6156SOL    HW119367   6.618   0.241   3.447
 6156SOL    HW219368   6.528   0.225   3.312
 6157SOL     OW19369   1.699   1.735   3.341
 6157SOL    HW119370   1.715   1.813   3.403
 6157SOL    HW219371   1.786   1.706   3.301
 6158SOL     OW19372   4.316   0.768   0.358
 6158SOL    HW119373   4.279   0.783   0.449
 6158SOL    HW219374   4.402   0.717   0.366
 6159SOL     OW19375   5.334   3.452   0.053
 6159SOL    HW119376   5.290   3.506   6.999
 6159SOL    HW219377   5.349   3.359   0.020
 6160SOL     OW19378   6.555   5.315   2.019
 6160SOL    HW119379   6.466   5.333   1.976
 6160SOL    HW219380   6.542   5.290   2.114
 6161SOL     OW19381   5.820   0.458   6.133
 6161SOL    HW119382   5.767   0.522   6.189
 6161SOL    HW219383   5.814   0.484   6.037
 6162SOL     OW19384   6.343   5.233   3.628
 6162SOL    HW119385   6.248   5.207   3.613
 6162SOL    HW219386   6.348   5.299   3.703
 6163SOL     OW19387   6.801   4.262   2.037
 6163SOL    HW119388   6.894   4.247   2.003
 6163SOL    HW219389   6.796   4.241   2.134
 6164SOL     OW19390   3.787   2.529   0.409
 6164SOL    HW119391   3.850   2.550   0.334
 6164SOL    HW219392   3.790   2.603   0.476
 6165SOL     OW19393   4.425   6.606   0.510
 6165SOL    HW119394   4.415   6.697   0.550
 6165SOL    HW219395   4.448   6.614   0.413
 6166SOL     OW19396   3.393   1.739   6.648
 6166SOL    HW119397   3.351   1.823   6.614
 6166SOL    HW219398   3.492   1.750   6.652
 6167SOL     OW19399   6.894   4.719   3.625
 6167SOL    HW119400   6.953   4.793   3.594
 6167SOL    HW219401   6.873   4.659   3.547
 6168SOL     OW19402   0.972   2.608   1.728
 6168SOL    HW119403   0.919   2.526   1.749
 6168SOL    HW219404   1.034   2.628   1.804
 6169SOL     OW19405   1.927   4.100   2.406
 6169SOL    HW119406   1.906   4.028   2.472
 6169SOL    HW219407   1.911   4.067   2.313
 6170SOL     OW19408   0.060   2.599   4.367
 6170SOL    HW119409   0.001   2.541   4.423
 6170SOL    HW219410   0.036   2.695   4.382
 6171SOL     OW19411   7.004   0.641   6.213
 6171SOL    HW119412   7.014   0.596   6.302
 6171SOL    HW219413   6.923   0.700   6.216
 6172SOL     OW19414   1.126   4.257   4.121
 6172SOL    HW119415   1.067   4.338   4.119
 6172SOL    HW219416   1.205   4.275   4.178
 6173SOL     OW19417   5.958   6.105   3.253
 6173SOL    HW119418   6.022   6.051   3.199
 6173SOL    HW219419   5.969   6.084   3.350
 6174SOL     OW19420   6.243   3.198   1.865
 6174SOL    HW119421   6.340   3.218   1.856
 6174SOL    HW219422   6.214   3.211   1.960
 6175SOL     OW19423   2.514   2.224   5.865
 6175SOL    HW119424   2.552   2.291   5.929
 6175SOL    HW219425   2.556   2.236   5.775
 6176SOL     OW19426   3.979   4.397   6.593
 6176SOL    HW119427   4.017   4.307   6.618
 6176SOL    HW219428   3.965   4.451   6.676
 6177SOL     OW19429   5.980   0.584   1.161
 6177SOL    HW119430   5.928   0.560   1.079
 6177SOL    HW219431   6.043   0.658   1.140
 6178SOL     OW19432   3.985   4.744   1.675
 6178SOL    HW119433   4.024   4.774   1.762
 6178SOL    HW219434   3.893   4.784   1.665
 6179SOL     OW19435   5.981   4.838   4.414
 6179SOL    HW119436   6.027   4.754   4.386
 6179SOL    HW219437   5.968   4.897   4.334
 6180SOL     OW19438   2.879   4.352   0.087
 6180SOL    HW119439   2.913   4.445   0.102
 6180SOL    HW219440   2.942   4.302   0.028
 6181SOL     OW19441   6.469   6.292   0.048
 6181SOL    HW119442   6.452   6.213   7.006
 6181SOL    HW219443   6.413   6.369   0.016
 6182SOL     OW19444   3.282   2.449   0.922
 6182SOL    HW119445   3.373   2.465   0.962
 6182SOL    HW219446   3.283   2.478   0.826
 6183SOL     OW19447   0.351   6.839   0.500
 6183SOL    HW119448   0.404   6.792   0.429
 6183SOL    HW219449   0.271   6.882   0.458
 6184SOL     OW19450   2.632   6.922   5.652
 6184SOL    HW119451   2.536   6.897   5.635
 6184SOL    HW219452   2.688   6.891   5.575
 6185SOL     OW19453   3.598   3.155   5.079
 6185SOL    HW119454   3.590   3.201   5.168
 6185SOL    HW219455   3.695   3.138   5.059
 6186SOL     OW19456   0.288   1.367   1.694
 6186SOL    HW119457   0.342   1.343   1.775
 6186SOL    HW219458   0.312   1.307   1.618
 6187SOL     OW19459   3.940   1.037   5.959
 6187SOL    HW119460   3.952   1.132   5.931
 6187SOL    HW219461   3.843   1.014   5.961
 6188SOL     OW19462   1.066   1.461   4.799
 6188SOL    HW119463   1.045   1.547   4.753
 6188SOL    HW219464   1.164   1.457   4.819
 6189SOL     OW19465   6.681   6.255   1.224
 6189SOL    HW119466   6.604   6.317   1.211
 6189SOL    HW219467   6.698   6.242   1.322
 6190SOL     OW19468   0.751   3.308   4.676
 6190SOL    HW119469   0.743   3.322   4.775
 6190SOL    HW219470   0.843   3.335   4.647
 6191SOL     OW19471   3.708   3.605   0.182
 6191SOL    HW119472   3.693   3.567   0.273
 6191SOL    HW219473   3.786   3.669   0.185
 6192SOL     OW19474   3.020   1.306   0.784
 6192SOL    HW119475   3.081   1.226   0.785
 6192SOL    HW219476   2.980   1.316   0.693
 6193SOL     OW19477   4.599   5.619   6.834
 6193SOL    HW119478   4.654   5.535   6.838
 6193SOL    HW219479   4.649   5.693   6.879
 6194SOL     OW19480   5.748   0.063   6.922
 6194SOL    HW119481   5.836   0.081   6.877
 6194SOL    HW219482   5.757   0.081   0.002
 6195SOL     OW19483   5.817   6.421   6.142
 6195SOL    HW119484   5.853   6.452   6.054
 6195SOL    HW219485   5.718   6.412   6.136
 6196SOL     OW19486   5.320   3.618   2.908
 6196SOL    HW119487   5.381   3.553   2.863
 6196SOL    HW219488   5.250   3.648   2.842
 6197SOL     OW19489   1.714   5.151   1.442
 6197SOL    HW119490   1.746   5.246   1.435
 6197SOL    HW219491   1.706   5.112   1.350
 6198SOL     OW19492   6.121   1.243   6.825
 6198SOL    HW119493   6.056   1.167   6.828
 6198SOL    HW219494   6.105   1.304   6.903
 6199SOL     OW19495   1.882   0.111   5.976
 6199SOL    HW119496   1.856   0.015   5.965
 6199SOL    HW219497   1.874   0.138   6.072
 6200SOL     OW19498   1.428   0.756   2.149
 6200SOL    HW119499   1.455   0.795   2.061
 6200SOL    HW219500   1.329   0.749   2.154
 6201SOL     OW19501   0.670   4.792   3.172
 6201SOL    HW119502   0.699   4.719   3.110
 6201SOL    HW219503   0.745   4.813   3.235
 6202SOL     OW19504   5.786   1.497   2.867
 6202SOL    HW119505   5.741   1.411   2.886
 6202SOL    HW219506   5.779   1.557   2.947
 6203SOL     OW19507   6.568   0.312   2.158
 6203SOL    HW119508   6.519   0.254   2.094
 6203SOL    HW219509   6.664   0.320   2.131
 6204SOL     OW19510   1.610   6.734   5.112
 6204SOL    HW119511   1.542   6.753   5.182
 6204SOL    HW219512   1.701   6.758   5.147
 6205SOL     OW19513   5.399   4.298   3.476
 6205SOL    HW119514   5.456   4.216   3.480
 6205SOL    HW219515   5.371   4.325   3.568
 6206SOL     OW19516   5.724   1.864   3.985
 6206SOL    HW119517   5.686   1.786   3.934
 6206SOL    HW219518   5.655   1.898   4.048
 6207SOL     OW19519   1.337   5.111   4.438
 6207SOL    HW119520   1.423   5.064   4.461
 6207SOL    HW219521   1.263   5.044   4.436
 6208SOL     OW19522   4.177   4.170   6.043
 6208SOL    HW119523   4.213   4.185   6.135
 6208SOL    HW219524   4.249   4.136   5.983
 6209SOL     OW19525   3.251   2.477   1.700
 6209SOL    HW119526   3.330   2.417   1.690
 6209SOL    HW219527   3.241   2.534   1.618
 6210SOL     OW19528   5.202   2.195   4.817
 6210SOL    HW119529   5.281   2.191   4.878
 6210SOL    HW219530   5.136   2.124   4.843
 6211SOL     OW19531   5.776   4.315   4.839
 6211SOL    HW119532   5.692   4.263   4.849
 6211SOL    HW219533   5.811   4.305   4.746
 6212SOL     OW19534   4.271   5.164   5.217
 6212SOL    HW119535   4.339   5.219   5.169
 6212SOL    HW219536   4.179   5.194   5.190
 6213SOL     OW19537   4.530   5.921   0.310
 6213SOL    HW119538   4.462   5.868   0.361
 6213SOL    HW219539   4.551   5.873   0.224
 6214SOL     OW19540   6.272   6.747   6.361
 6214SOL    HW119541   6.189   6.736   6.416
 6214SOL    HW219542   6.258   6.820   6.294
 6215SOL     OW19543   5.274   2.407   5.491
 6215SOL    HW119544   5.279   2.469   5.413
 6215SOL    HW219545   5.293   2.314   5.461
 6216SOL     OW19546   4.324   2.037   4.205
 6216SOL    HW119547   4.337   2.130   4.239
 6216SOL    HW219548   4.241   2.033   4.149
 6217SOL     OW19549   0.407   4.721   3.224
 6217SOL    HW119550   0.503   4.748   3.217
 6217SOL    HW219551   0.350   4.802   3.240
 6218SOL     OW19552   4.686   6.502   0.311
 6218SOL    HW119553   4.702   6.452   0.226
 6218SOL    HW219554   4.702   6.441   0.389
 6219SOL     OW19555   2.031   1.238   6.385
 6219SOL    HW119556   2.094   1.210   6.313
 6219SOL    HW219557   2.030   1.168   6.457
 6220SOL     OW19558   3.609   6.527   0.627
 6220SOL    HW119559   3.704   6.546   0.601
 6220SOL    HW219560   3.608   6.480   0.715
 6221SOL     OW19561   5.634   6.205   6.832
 6221SOL    HW119562   5.632   6.109   6.805
 6221SOL    HW219563   5.541   6.235   6.855
 6222SOL     OW19564   6.572   1.206   1.840
 6222SOL    HW119565   6.635   1.258   1.782
 6222SOL    HW219566   6.592   1.226   1.936
 6223SOL     OW19567   6.951   5.195   4.107
 6223SOL    HW119568   6.921   5.253   4.183
 6223SOL    HW219569   6.888   5.205   4.030
 6224SOL     OW19570   3.689   0.121   6.878
 6224SOL    HW119571   3.670   0.219   6.873
 6224SOL    HW219572   3.764   0.098   6.815
 6225SOL     OW19573   4.539   5.554   6.570
 6225SOL    HW119574   4.446   5.539   6.536
 6225SOL    HW219575   4.536   5.569   6.669
 6226SOL     OW19576   1.201   1.001   4.723
 6226SOL    HW119577   1.194   0.921   4.783
 6226SOL    HW219578   1.119   1.005   4.665
 6227SOL     OW19579   2.763   4.569   5.392
 6227SOL    HW119580   2.821   4.561   5.310
 6227SOL    HW219581   2.793   4.503   5.460
 6228SOL     OW19582   1.043   3.237   3.312
 6228SOL    HW119583   1.041   3.144   3.349
 6228SOL    HW219584   1.138   3.263   3.293
 6229SOL     OW19585   0.545   2.754   3.951
 6229SOL    HW119586   0.612   2.796   4.012
 6229SOL    HW219587   0.587   2.742   3.860
 6230SOL     OW19588   6.746   0.834   1.653
 6230SOL    HW119589   6.789   0.801   1.568
 6230SOL    HW219590   6.667   0.777   1.675
 6231SOL     OW19591   2.190   4.976   6.671
 6231SOL    HW119592   2.172   5.042   6.598
 6231SOL    HW219593   2.209   5.025   6.756
 6232SOL     OW19594   4.413   0.287   6.087
 6232SOL    HW119595   4.492   0.330   6.132
 6232SOL    HW219596   4.330   0.340   6.109
 6233SOL     OW19597   6.981   3.680   1.379
 6233SOL    HW119598   6.896   3.691   1.429
 6233SOL    HW219599   0.038   3.663   1.443
 6234SOL     OW19600   4.733   5.158   4.579
 6234SOL    HW119601   4.645   5.144   4.624
 6234SOL    HW219602   4.806   5.121   4.637
 6235SOL     OW19603   0.585   0.608   2.505
 6235SOL    HW119604   0.592   0.589   2.407
 6235SOL    HW219605   0.583   0.523   2.556
 6236SOL     OW19606   0.169   5.353   1.384
 6236SOL    HW119607   0.160   5.409   1.302
 6236SOL    HW219608   0.085   5.358   1.438
 6237SOL     OW19609   3.420   1.259   1.831
 6237SOL    HW119610   3.378   1.314   1.903
 6237SOL    HW219611   3.451   1.172   1.869
 6238SOL     OW19612   2.302   0.339   4.057
 6238SOL    HW119613   2.370   0.297   3.997
 6238SOL    HW219614   2.315   0.305   4.150
 6239SOL     OW19615   4.564   1.387   4.480
 6239SOL    HW119616   4.648   1.343   4.447
 6239SOL    HW219617   4.578   1.485   4.488
 6240SOL     OW19618   3.654   2.899   4.012
 6240SOL    HW119619   3.576   2.950   4.048
 6240SOL    HW219620   3.656   2.907   3.912
 6241SOL     OW19621   3.537   0.107   3.891
 6241SOL    HW119622   3.461   0.082   3.951
 6241SOL    HW219623   3.569   0.026   3.842
 6242SOL     OW19624   2.517   2.188   3.159
 6242SOL    HW119625   2.421   2.178   3.133
 6242SOL    HW219626   2.575   2.172   3.079
 6243SOL     OW19627   4.332   1.589   6.316
 6243SOL    HW119628   4.415   1.645   6.325
 6243SOL    HW219629   4.344   1.503   6.367
 6244SOL     OW19630   5.016   2.990   2.196
 6244SOL    HW119631   5.022   3.087   2.174
 6244SOL    HW219632   4.951   2.945   2.134
 6245SOL     OW19633   0.261   4.803   2.091
 6245SOL    HW119634   0.339   4.779   2.032
 6245SOL    HW219635   0.255   4.736   2.165
 6246SOL     OW19636   6.679   6.773   4.017
 6246SOL    HW119637   6.670   6.811   3.924
 6246SOL    HW219638   6.613   6.699   4.029
 6247SOL     OW19639   5.909   6.420   4.114
 6247SOL    HW119640   5.838   6.446   4.048
 6247SOL    HW219641   5.944   6.502   4.159
 6248SOL     OW19642   3.827   2.723   5.676
 6248SOL    HW119643   3.854   2.782   5.600
 6248SOL    HW219644   3.747   2.762   5.721
 6249SOL     OW19645   6.035   3.067   2.213
 6249SOL    HW119646   6.044   3.071   2.312
 6249SOL    HW219647   5.939   3.055   2.188
 6250SOL     OW19648   6.267   0.186   6.518
 6250SOL    HW119649   6.208   0.214   6.594
 6250SOL    HW219650   6.214   0.129   6.454
 6251SOL     OW19651   2.426   0.299   4.317
 6251SOL    HW119652   2.477   0.213   4.318
 6251SOL    HW219653   2.483   0.372   4.280
 6252SOL     OW19654   3.183   5.560   6.599
 6252SOL    HW119655   3.224   5.651   6.601
 6252SOL    HW219656   3.161   5.536   6.504
 6253SOL     OW19657   3.760   5.691   4.032
 6253SOL    HW119658   3.848   5.724   3.999
 6253SOL    HW219659   3.700   5.671   3.954
 6254SOL     OW19660   0.177   0.056   1.267
 6254SOL    HW119661   0.165   0.137   1.208
 6254SOL    HW219662   0.236   0.080   1.344
 6255SOL     OW19663   1.054   1.552   0.749
 6255SOL    HW119664   1.116   1.618   0.705
 6255SOL    HW219665   1.088   1.530   0.840
 6256SOL     OW19666   5.572   6.097   2.261
 6256SOL    HW119667   5.668   6.114   2.239
 6256SOL    HW219668   5.557   6.107   2.359
 6257SOL     OW19669   3.264   4.231   0.955
 6257SOL    HW119670   3.243   4.237   0.857
 6257SOL    HW219671   3.215   4.304   1.003
 6258SOL     OW19672   4.390   5.369   5.117
 6258SOL    HW119673   4.423   5.414   5.034
 6258SOL    HW219674   4.451   5.389   5.193
 6259SOL     OW19675   3.925   1.062   4.337
 6259SOL    HW119676   3.923   0.965   4.363
 6259SOL    HW219677   3.977   1.114   4.406
 6260SOL     OW19678   1.886   1.241   6.810
 6260SOL    HW119679   1.972   1.243   6.759
 6260SOL    HW219680   1.877   1.324   6.865
 6261SOL     OW19681   3.708   0.274   0.722
 6261SOL    HW119682   3.756   0.242   0.641
 6261SOL    HW219683   3.623   0.223   0.733
 6262SOL     OW19684   5.970   0.957   2.593
 6262SOL    HW119685   6.034   0.887   2.563
 6262SOL    HW219686   5.901   0.972   2.522
 6263SOL     OW19687   5.655   5.921   5.305
 6263SOL    HW119688   5.697   5.999   5.259
 6263SOL    HW219689   5.702   5.904   5.392
 6264SOL     OW19690   2.633   6.593   6.948
 6264SOL    HW119691   2.542   6.634   6.955
 6264SOL    HW219692   2.645   6.555   6.857
 6265SOL     OW19693   4.716   6.567   6.638
 6265SOL    HW119694   4.774   6.647   6.650
 6265SOL    HW219695   4.672   6.571   6.548
 6266SOL     OW19696   2.971   5.185   2.806
 6266SOL    HW119697   2.936   5.257   2.866
 6266SOL    HW219698   2.912   5.178   2.725
 6267SOL     OW19699   1.631   6.536   4.940
 6267SOL    HW119700   1.641   6.592   5.022
 6267SOL    HW219701   1.538   6.543   4.906
 6268SOL     OW19702   2.968   1.571   0.398
 6268SOL    HW119703   2.988   1.595   0.492
 6268SOL    HW219704   2.925   1.649   0.352
 6269SOL     OW19705   6.471   5.160   6.975
 6269SOL    HW119706   6.479   5.175   6.877
 6269SOL    HW219707   6.492   5.064   6.995
 6270SOL     OW19708   2.028   6.208   0.800
 6270SOL    HW119709   2.014   6.169   0.891
 6270SOL    HW219710   2.044   6.306   0.808
 6271SOL     OW19711   0.002   3.352   5.839
 6271SOL    HW119712   6.925   3.383   5.829
 6271SOL    HW219713   0.059   3.395   5.769
 6272SOL     OW19714   0.051   0.112   0.204
 6272SOL    HW119715   7.014   0.064   0.136
 6272SOL    HW219716   0.008   0.200   0.226
 6273SOL     OW19717   1.027   6.369   2.031
 6273SOL    HW119718   1.088   6.401   1.958
 6273SOL    HW219719   1.035   6.430   2.110
 6274SOL     OW19720   2.973   5.450   3.784
 6274SOL    HW119721   2.881   5.422   3.756
 6274SOL    HW219722   2.972   5.475   3.881
 6275SOL     OW19723   2.861   5.779   6.938
 6275SOL    HW119724   2.816   5.849   6.882
 6275SOL    HW219725   2.814   5.692   6.925
 6276SOL     OW19726   1.505   5.502   2.279
 6276SOL    HW119727   1.430   5.471   2.339
 6276SOL    HW219728   1.493   5.462   2.188
 6277SOL     OW19729   5.549   2.776   1.133
 6277SOL    HW119730   5.529   2.757   1.229
 6277SOL    HW219731   5.628   2.722   1.105
 6278SOL     OW19732   3.760   1.932   0.203
 6278SOL    HW119733   3.769   1.986   0.119
 6278SOL    HW219734   3.665   1.904   0.215
 6279SOL     OW19735   3.530   6.748   1.955
 6279SOL    HW119736   3.609   6.794   1.913
 6279SOL    HW219737   3.460   6.732   1.886
 6280SOL     OW19738   5.381   2.633   6.635
 6280SOL    HW119739   5.297   2.682   6.658
 6280SOL    HW219740   5.444   2.695   6.587
 6281SOL     OW19741   5.101   4.085   5.957
 6281SOL    HW119742   5.070   3.992   5.972
 6281SOL    HW219743   5.179   4.085   5.894
 6282SOL     OW19744   0.350   3.457   6.096
 6282SOL    HW119745   0.315   3.550   6.091
 6282SOL    HW219746   0.443   3.458   6.133
 6283SOL     OW19747   1.939   6.347   4.635
 6283SOL    HW119748   1.980   6.305   4.553
 6283SOL    HW219749   1.907   6.275   4.696
 6284SOL     OW19750   1.207   3.834   5.098
 6284SOL    HW119751   1.226   3.831   5.197
 6284SOL    HW219752   1.185   3.928   5.072
 6285SOL     OW19753   1.465   3.683   3.110
 6285SOL    HW119754   1.486   3.766   3.058
 6285SOL    HW219755   1.427   3.614   3.048
 6286SOL     OW19756   0.649   2.692   6.834
 6286SOL    HW119757   0.607   2.642   6.758
 6286SOL    HW219758   0.637   2.641   6.918
 6287SOL     OW19759   4.777   4.840   5.258
 6287SOL    HW119760   4.874   4.825   5.239
 6287SOL    HW219761   4.763   4.842   5.357
 6288SOL     OW19762   2.522   3.951   6.249
 6288SOL    HW119763   2.610   3.910   6.225
 6288SOL    HW219764   2.500   4.024   6.185
 6289SOL     OW19765   2.048   4.240   5.865
 6289SOL    HW119766   2.138   4.196   5.855
 6289SOL    HW219767   2.020   4.278   5.777
 6290SOL     OW19768   5.824   6.597   4.355
 6290SOL    HW119769   5.866   6.555   4.436
 6290SOL    HW219770   5.868   6.685   4.337
 6291SOL     OW19771   3.898   3.555   2.719
 6291SOL    HW119772   3.801   3.532   2.712
 6291SOL    HW219773   3.911   3.652   2.702
 6292SOL     OW19774   1.540   4.261   4.017
 6292SOL    HW119775   1.628   4.286   4.057
 6292SOL    HW219776   1.482   4.343   4.011
 6293SOL     OW19777   2.830   1.317   6.474
 6293SOL    HW119778   2.925   1.339   6.451
 6293SOL    HW219779   2.774   1.399   6.465
 6294SOL     OW19780   1.765   1.160   2.525
 6294SOL    HW119781   1.823   1.241   2.535
 6294SOL    HW219782   1.788   1.094   2.597
 6295SOL     OW19783   4.408   3.031   6.227
 6295SOL    HW119784   4.463   3.114   6.218
 6295SOL    HW219785   4.316   3.048   6.190
 6296SOL     OW19786   0.994   3.221   0.524
 6296SOL    HW119787   0.961   3.292   0.586
 6296SOL    HW219788   1.064   3.167   0.571
 6297SOL     OW19789   6.312   1.492   4.185
 6297SOL    HW119790   6.364   1.571   4.217
 6297SOL    HW219791   6.324   1.481   4.087
 6298SOL     OW19792   0.248   6.186   0.720
 6298SOL    HW119793   0.247   6.285   0.738
 6298SOL    HW219794   0.186   6.140   0.783
 6299SOL     OW19795   3.537   1.509   3.440
 6299SOL    HW119796   3.499   1.511   3.533
 6299SOL    HW219797   3.481   1.565   3.380
 6300SOL     OW19798   2.847   1.449   6.973
 6300SOL    HW119799   2.839   1.369   6.913
 6300SOL    HW219800   2.860   1.418   0.050
 6301SOL     OW19801   4.437   6.149   0.211
 6301SOL    HW119802   4.474   6.086   0.280
 6301SOL    HW219803   4.487   6.137   0.126
 6302SOL     OW19804   2.597   2.427   6.098
 6302SOL    HW119805   2.505   2.462   6.080
 6302SOL    HW219806   2.643   2.486   6.164
 6303SOL     OW19807   0.437   6.006   4.805
 6303SOL    HW119808   0.461   6.093   4.762
 6303SOL    HW219809   0.425   6.019   4.903
 6304SOL     OW19810   3.816   0.697   4.291
 6304SOL    HW119811   3.732   0.695   4.239
 6304SOL    HW219812   3.801   0.745   4.378
 6305SOL     OW19813   1.110   5.827   5.695
 6305SOL    HW119814   1.154   5.879   5.621
 6305SOL    HW219815   1.180   5.776   5.746
 6306SOL     OW19816   0.335   5.082   4.783
 6306SOL    HW119817   0.308   5.135   4.703
 6306SOL    HW219818   0.293   4.991   4.778
 6307SOL     OW19819   3.466   2.868   2.276
 6307SOL    HW119820   3.367   2.875   2.269
 6307SOL    HW219821   3.498   2.792   2.218
 6308SOL     OW19822   0.310   2.209   0.283
 6308SOL    HW119823   0.300   2.276   0.357
 6308SOL    HW219824   0.304   2.255   0.195
 6309SOL     OW19825   2.329   6.506   5.085
 6309SOL    HW119826   2.334   6.406   5.081
 6309SOL    HW219827   2.233   6.535   5.085
 6310SOL     OW19828   1.331   6.959   2.643
 6310SOL    HW119829   1.266   6.902   2.693
 6310SOL    HW219830   1.310   0.038   2.658
 6311SOL     OW19831   6.215   0.977   6.662
 6311SOL    HW119832   6.182   0.990   6.568
 6311SOL    HW219833   6.314   0.966   6.661
 6312SOL     OW19834   3.377   6.008   0.169
 6312SOL    HW119835   3.292   6.053   0.194
 6312SOL    HW219836   3.401   6.032   0.075
 6313SOL     OW19837   6.363   4.720   4.113
 6313SOL    HW119838   6.322   4.746   4.026
 6313SOL    HW219839   6.291   4.690   4.176
 6314SOL     OW19840   1.966   6.506   2.314
 6314SOL    HW119841   2.023   6.425   2.326
 6314SOL    HW219842   1.880   6.494   2.362
 6315SOL     OW19843   1.871   1.724   3.805
 6315SOL    HW119844   1.843   1.649   3.744
 6315SOL    HW219845   1.966   1.748   3.786
 6316SOL     OW19846   4.535   1.249   4.727
 6316SOL    HW119847   4.545   1.295   4.638
 6316SOL    HW219848   4.607   1.180   4.737
 6317SOL     OW19849   5.466   4.844   2.350
 6317SOL    HW119850   5.430   4.867   2.440
 6317SOL    HW219851   5.496   4.927   2.304
 6318SOL     OW19852   6.618   6.653   0.177
 6318SOL    HW119853   6.627   6.556   0.159
 6318SOL    HW219854   6.707   6.698   0.161
 6319SOL     OW19855   5.229   2.156   3.923
 6319SOL    HW119856   5.142   2.200   3.903
 6319SOL    HW219857   5.213   2.060   3.948
 6320SOL     OW19858   6.304   1.449   5.566
 6320SOL    HW119859   6.347   1.499   5.641
 6320SOL    HW219860   6.205   1.462   5.570
 6321SOL     OW19861   0.303   2.566   0.056
 6321SOL    HW119862   0.252   2.571   0.142
 6321SOL    HW219863   0.297   2.473   0.018
 6322SOL     OW19864   1.085   1.063   2.754
 6322SOL    HW119865   1.154   1.048   2.683
 6322SOL    HW219866   1.124   1.119   2.827
 6323SOL     OW19867   2.178   4.877   0.797
 6323SOL    HW119868   2.246   4.823   0.747
 6323SOL    HW219869   2.221   4.920   0.876
 6324SOL     OW19870   4.465   3.534   1.069
 6324SOL    HW119871   4.455   3.507   0.974
 6324SOL    HW219872   4.461   3.454   1.128
 6325SOL     OW19873   1.348   2.866   3.784
 6325SOL    HW119874   1.366   2.937   3.716
 6325SOL    HW219875   1.287   2.903   3.854
 6326SOL     OW19876   5.174   5.525   5.582
 6326SOL    HW119877   5.202   5.537   5.487
 6326SOL    HW219878   5.239   5.466   5.629
 6327SOL     OW19879   0.351   1.351   3.431
 6327SOL    HW119880   0.299   1.300   3.363
 6327SOL    HW219881   0.294   1.422   3.471
 6328SOL     OW19882   4.471   3.557   5.340
 6328SOL    HW119883   4.546   3.551   5.275
 6328SOL    HW219884   4.422   3.470   5.342
 6329SOL     OW19885   0.363   2.170   5.837
 6329SOL    HW119886   0.426   2.207   5.905
 6329SOL    HW219887   0.412   2.107   5.777
 6330SOL     OW19888   4.967   1.569   3.700
 6330SOL    HW119889   5.022   1.634   3.753
 6330SOL    HW219890   4.891   1.618   3.657
 6331SOL     OW19891   1.024   3.194   3.832
 6331SOL    HW119892   1.043   3.230   3.924
 6331SOL    HW219893   0.950   3.247   3.790
 6332SOL     OW19894   3.306   1.521   6.794
 6332SOL    HW119895   3.214   1.492   6.767
 6332SOL    HW219896   3.330   1.605   6.745
 6333SOL     OW19897   6.107   1.048   1.152
 6333SOL    HW119898   6.057   1.094   1.079
 6333SOL    HW219899   6.124   1.113   1.227
 6334SOL     OW19900   1.510   1.016   1.437
 6334SOL    HW119901   1.523   0.972   1.348
 6334SOL    HW219902   1.414   1.010   1.463
 6335SOL     OW19903   6.491   3.229   6.453
 6335SOL    HW119904   6.587   3.231   6.478
 6335SOL    HW219905   6.473   3.296   6.381
 6336SOL     OW19906   0.718   4.109   5.097
 6336SOL    HW119907   0.668   4.183   5.051
 6336SOL    HW219908   0.774   4.061   5.030
 6337SOL     OW19909   5.126   6.528   5.395
 6337SOL    HW119910   5.168   6.472   5.467
 6337SOL    HW219911   5.160   6.621   5.402
 6338SOL     OW19912   0.945   1.185   3.613
 6338SOL    HW119913   0.975   1.136   3.695
 6338SOL    HW219914   0.868   1.136   3.571
 6339SOL     OW19915   0.660   4.508   3.816
 6339SOL    HW119916   0.628   4.422   3.776
 6339SOL    HW219917   0.674   4.494   3.915
 6340SOL     OW19918   2.736   3.982   0.397
 6340SOL    HW119919   2.756   3.969   0.300
 6340SOL    HW219920   2.785   3.914   0.451
 6341SOL     OW19921   0.557   5.719   1.991
 6341SOL    HW119922   0.568   5.641   1.929
 6341SOL    HW219923   0.631   5.784   1.976
 6342SOL     OW19924   1.807   1.325   1.156
 6342SOL    HW119925   1.720   1.358   1.192
 6342SOL    HW219926   1.836   1.383   1.079
 6343SOL     OW19927   1.172   5.622   0.541
 6343SOL    HW119928   1.085   5.663   0.566
 6343SOL    HW219929   1.215   5.581   0.621
 6344SOL     OW19930   0.342   1.157   3.733
 6344SOL    HW119931   0.403   1.086   3.698
 6344SOL    HW219932   0.255   1.115   3.762
 6345SOL     OW19933   5.981   2.594   2.551
 6345SOL    HW119934   5.960   2.497   2.552
 6345SOL    HW219935   5.903   2.646   2.588
 6346SOL     OW19936   0.177   4.181   5.684
 6346SOL    HW119937   0.077   4.178   5.687
 6346SOL    HW219938   0.213   4.167   5.776
 6347SOL     OW19939   2.258   2.474   3.742
 6347SOL    HW119940   2.281   2.549   3.805
 6347SOL    HW219941   2.164   2.488   3.708
 6348SOL     OW19942   1.262   2.290   6.239
 6348SOL    HW119943   1.187   2.226   6.220
 6348SOL    HW219944   1.311   2.261   6.321
 6349SOL     OW19945   6.643   1.025   0.929
 6349SOL    HW119946   6.716   1.082   0.967
 6349SOL    HW219947   6.568   1.019   0.994
 6350SOL     OW19948   1.051   6.400   1.211
 6350SOL    HW119949   1.091   6.327   1.157
 6350SOL    HW219950   1.092   6.400   1.302
 6351SOL     OW19951   5.866   4.216   1.940
 6351SOL    HW119952   5.809   4.269   1.878
 6351SOL    HW219953   5.962   4.227   1.916
 6352SOL     OW19954   3.522   1.132   4.782
 6352SOL    HW119955   3.505   1.178   4.695
 6352SOL    HW219956   3.620   1.121   4.796
 6353SOL     OW19957   3.505   6.259   5.815
 6353SOL    HW119958   3.428   6.315   5.846
 6353SOL    HW219959   3.504   6.255   5.715
 6354SOL     OW19960   4.835   5.132   2.077
 6354SOL    HW119961   4.846   5.093   2.169
 6354SOL    HW219962   4.898   5.209   2.066
 6355SOL     OW19963   3.490   5.495   0.438
 6355SOL    HW119964   3.394   5.518   0.423
 6355SOL    HW219965   3.548   5.560   0.387
 6356SOL     OW19966   0.209   5.951   6.204
 6356SOL    HW119967   0.220   6.029   6.142
 6356SOL    HW219968   0.293   5.940   6.258
 6357SOL     OW19969   5.391   0.616   2.133
 6357SOL    HW119970   5.360   0.676   2.059
 6357SOL    HW219971   5.312   0.574   2.178
 6358SOL     OW19972   1.266   2.049   5.000
 6358SOL    HW119973   1.236   2.049   4.904
 6358SOL    HW219974   1.209   2.112   5.053
 6359SOL     OW19975   5.360   5.899   1.232
 6359SOL    HW119976   5.402   5.854   1.154
 6359SOL    HW219977   5.281   5.952   1.202
 6360SOL     OW19978   0.872   1.214   1.054
 6360SOL    HW119979   0.966   1.225   1.023
 6360SOL    HW219980   0.870   1.148   1.129
 6361SOL     OW19981   0.790   1.559   0.472
 6361SOL    HW119982   0.805   1.470   0.428
 6361SOL    HW219983   0.758   1.544   0.566
 6362SOL     OW19984   1.349   5.854   0.548
 6362SOL    HW119985   1.297   5.774   0.518
 6362SOL    HW219986   1.390   5.899   0.468
 6363SOL     OW19987   2.088   3.778   2.602
 6363SOL    HW119988   2.099   3.686   2.565
 6363SOL    HW219989   2.172   3.805   2.649
 6364SOL     OW19990   2.529   2.490   4.544
 6364SOL    HW119991   2.459   2.419   4.540
 6364SOL    HW219992   2.486   2.580   4.540
 6365SOL     OW19993   5.591   6.911   2.841
 6365SOL    HW119994   5.608   6.954   2.929
 6365SOL    HW219995   5.495   6.885   2.834
 6366SOL     OW19996   5.837   0.952   4.976
 6366SOL    HW119997   5.928   0.926   5.010
 6366SOL    HW219998   5.839   1.048   4.947
 6367SOL     OW19999   1.047   2.285   3.028
 6367SOL    HW120000   0.948   2.286   3.012
 6367SOL    HW220001   1.088   2.370   2.994
 6368SOL     OW20002   4.808   4.055   4.542
 6368SOL    HW120003   4.897   4.089   4.573
 6368SOL    HW220004   4.817   3.959   4.514
 6369SOL     OW20005   4.338   5.117   0.472
 6369SOL    HW120006   4.401   5.082   0.540
 6369SOL    HW220007   4.334   5.054   0.394
 6370SOL     OW20008   5.556   3.991   4.268
 6370SOL    HW120009   5.633   3.959   4.323
 6370SOL    HW220010   5.504   3.913   4.234
 6371SOL     OW20011   5.489   4.419   1.540
 6371SOL    HW120012   5.525   4.451   1.452
 6371SOL    HW220013   5.495   4.320   1.545
 6372SOL     OW20014   6.271   1.726   1.833
 6372SOL    HW120015   6.357   1.683   1.808
 6372SOL    HW220016   6.196   1.661   1.820
 6373SOL     OW20017   4.901   3.708   1.315
 6373SOL    HW120018   4.817   3.662   1.345
 6373SOL    HW220019   4.879   3.802   1.287
 6374SOL     OW20020   4.794   3.637   6.893
 6374SOL    HW120021   4.797   3.658   6.795
 6374SOL    HW220022   4.861   3.694   6.941
 6375SOL     OW20023   4.882   1.214   2.171
 6375SOL    HW120024   4.857   1.270   2.091
 6375SOL    HW220025   4.980   1.226   2.189
 6376SOL     OW20026   3.234   0.445   0.364
 6376SOL    HW120027   3.307   0.437   0.296
 6376SOL    HW220028   3.274   0.453   0.455
 6377SOL     OW20029   0.523   0.683   0.279
 6377SOL    HW120030   0.518   0.587   0.304
 6377SOL    HW220031   0.541   0.738   0.361
 6378SOL     OW20032   5.405   4.596   2.239
 6378SOL    HW120033   5.308   4.571   2.234
 6378SOL    HW220034   5.414   4.685   2.282
 6379SOL     OW20035   2.207   5.060   6.366
 6379SOL    HW120036   2.299   5.035   6.334
 6379SOL    HW220037   2.141   5.043   6.293
 6380SOL     OW20038   0.581   4.047   5.663
 6380SOL    HW120039   0.620   3.957   5.684
 6380SOL    HW220040   0.650   4.118   5.681
 6381SOL     OW20041   4.296   3.265   0.481
 6381SOL    HW120042   4.389   3.237   0.505
 6381SOL    HW220043   4.260   3.203   0.411
 6382SOL     OW20044   1.509   1.460   0.349
 6382SOL    HW120045   1.568   1.514   0.289
 6382SOL    HW220046   1.559   1.379   0.380
 6383SOL     OW20047   2.299   2.331   2.368
 6383SOL    HW120048   2.310   2.386   2.451
 6383SOL    HW220049   2.368   2.358   2.301
 6384SOL     OW20050   6.409   2.497   1.757
 6384SOL    HW120051   6.369   2.418   1.805
 6384SOL    HW220052   6.336   2.556   1.724
 6385SOL     OW20053   6.998   3.696   6.933
 6385SOL    HW120054   6.937   3.726   7.006
 6385SOL    HW220055   0.029   3.775   6.896
 6386SOL     OW20056   2.789   2.667   0.787
 6386SOL    HW120057   2.886   2.642   0.785
 6386SOL    HW220058   2.733   2.586   0.771
 6387SOL     OW20059   0.522   6.668   6.924
 6387SOL    HW120060   0.573   6.605   6.984
 6387SOL    HW220061   0.496   6.621   6.840
 6388SOL     OW20062   5.658   5.380   2.004
 6388SOL    HW120063   5.590   5.378   2.077
 6388SOL    HW220064   5.746   5.348   2.039
 6389SOL     OW20065   6.545   6.594   0.629
 6389SOL    HW120066   6.559   6.630   0.721
 6389SOL    HW220067   6.588   6.655   0.562
 6390SOL     OW20068   5.346   0.840   0.161
 6390SOL    HW120069   5.289   0.779   0.217
 6390SOL    HW220070   5.412   0.886   0.220
 6391SOL     OW20071   1.437   1.947   5.183
 6391SOL    HW120072   1.381   1.995   5.115
 6391SOL    HW220073   1.436   1.849   5.163
 6392SOL     OW20074   3.964   6.887   3.841
 6392SOL    HW120075   3.915   6.969   3.870
 6392SOL    HW220076   4.055   6.885   3.883
 6393SOL     OW20077   1.506   5.557   6.973
 6393SOL    HW120078   1.410   5.577   6.955
 6393SOL    HW220079   1.552   5.639   7.006
 6394SOL     OW20080   1.869   4.760   1.764
 6394SOL    HW120081   1.792   4.823   1.752
 6394SOL    HW220082   1.898   4.760   1.859
 6395SOL     OW20083   2.028   3.737   3.892
 6395SOL    HW120084   2.075   3.652   3.913
 6395SOL    HW220085   1.929   3.724   3.901
 6396SOL     OW20086   1.354   2.870   5.540
 6396SOL    HW120087   1.334   2.900   5.633
 6396SOL    HW220088   1.453   2.861   5.529
 6397SOL     OW20089   5.645   3.826   4.784
 6397SOL    HW120090   5.712   3.885   4.739
 6397SOL    HW220091   5.665   3.730   4.763
 6398SOL     OW20092   2.457   0.028   2.496
 6398SOL    HW120093   2.438   6.951   2.470
 6398SOL    HW220094   2.459   0.035   2.595
 6399SOL     OW20095   3.187   6.998   6.925
 6399SOL    HW120096   3.145   6.923   6.875
 6399SOL    HW220097   3.287   6.990   6.920
 6400SOL     OW20098   0.416   6.429   2.987
 6400SOL    HW120099   0.421   6.427   3.087
 6400SOL    HW220100   0.350   6.360   2.956
 6401SOL     OW20101   4.387   5.145   2.763
 6401SOL    HW120102   4.319   5.190   2.705
 6401SOL    HW220103   4.476   5.186   2.747
 6402SOL     OW20104   2.704   4.621   5.906
 6402SOL    HW120105   2.686   4.574   5.992
 6402SOL    HW220106   2.692   4.557   5.830
 6403SOL     OW20107   5.212   5.015   5.134
 6403SOL    HW120108   5.218   4.943   5.065
 6403SOL    HW220109   5.270   5.092   5.108
 6404SOL     OW20110   4.676   6.847   1.737
 6404SOL    HW120111   4.750   6.902   1.777
 6404SOL    HW220112   4.663   6.873   1.642
 6405SOL     OW20113   5.113   1.216   2.964
 6405SOL    HW120114   5.167   1.133   2.976
 6405SOL    HW220115   5.149   1.269   2.887
 6406SOL     OW20116   0.545   3.299   2.954
 6406SOL    HW120117   0.613   3.362   2.916
 6406SOL    HW220118   0.522   3.328   3.047
 6407SOL     OW20119   0.331   6.661   2.526
 6407SOL    HW120120   0.238   6.697   2.525
 6407SOL    HW220121   0.397   6.736   2.531
 6408SOL     OW20122   6.880   0.961   1.858
 6408SOL    HW120123   6.952   0.894   1.877
 6408SOL    HW220124   6.822   0.928   1.784
 6409SOL     OW20125   4.987   4.654   3.459
 6409SOL    HW120126   5.035   4.738   3.485
 6409SOL    HW220127   4.992   4.643   3.359
 6410SOL     OW20128   1.948   1.513   0.199
 6410SOL    HW120129   1.998   1.555   0.275
 6410SOL    HW220130   1.851   1.506   0.222
 6411SOL     OW20131   0.528   3.003   2.174
 6411SOL    HW120132   0.520   3.005   2.075
 6411SOL    HW220133   0.533   2.908   2.205
 6412SOL     OW20134   3.437   1.322   0.199
 6412SOL    HW120135   3.423   1.223   0.193
 6412SOL    HW220136   3.382   1.367   0.129
 6413SOL     OW20137   4.892   5.996   3.461
 6413SOL    HW120138   4.916   6.028   3.553
 6413SOL    HW220139   4.796   5.968   3.461
 6414SOL     OW20140   2.548   0.228   0.747
 6414SOL    HW120141   2.470   0.167   0.759
 6414SOL    HW220142   2.619   0.204   0.813
 6415SOL     OW20143   0.771   2.558   4.007
 6415SOL    HW120144   0.673   2.557   3.986
 6415SOL    HW220145   0.784   2.584   4.103
 6416SOL     OW20146   2.900   5.176   6.944
 6416SOL    HW120147   2.945   5.264   6.965
 6416SOL    HW220148   2.934   5.106   7.007
 6417SOL     OW20149   4.229   2.848   6.921
 6417SOL    HW120150   4.320   2.869   6.885
 6417SOL    HW220151   4.238   2.808   7.012
 6418SOL     OW20152   4.994   4.615   0.329
 6418SOL    HW120153   4.927   4.632   0.256
 6418SOL    HW220154   4.946   4.583   0.411
 6419SOL     OW20155   1.026   6.483   6.390
 6419SOL    HW120156   0.969   6.512   6.466
 6419SOL    HW220157   1.089   6.557   6.366
 6420SOL     OW20158   2.373   4.706   4.297
 6420SOL    HW120159   2.336   4.703   4.389
 6420SOL    HW220160   2.431   4.626   4.282
 6421SOL     OW20161   4.012   0.771   2.177
 6421SOL    HW120162   4.046   0.852   2.130
 6421SOL    HW220163   4.037   0.689   2.125
 6422SOL     OW20164   6.534   2.543   4.713
 6422SOL    HW120165   6.449   2.588   4.688
 6422SOL    HW220166   6.563   2.482   4.639
 6423SOL     OW20167   1.261   4.752   4.582
 6423SOL    HW120168   1.289   4.656   4.591
 6423SOL    HW220169   1.251   4.792   4.673
 6424SOL     OW20170   6.451   4.826   5.497
 6424SOL    HW120171   6.507   4.891   5.548
 6424SOL    HW220172   6.430   4.748   5.555
 6425SOL     OW20173   6.797   6.136   4.399
 6425SOL    HW120174   6.855   6.213   4.374
 6425SOL    HW220175   6.854   6.055   4.413
 6426SOL     OW20176   4.257   4.841   4.510
 6426SOL    HW120177   4.312   4.780   4.453
 6426SOL    HW220178   4.254   4.805   4.603
 6427SOL     OW20179   4.023   3.180   3.774
 6427SOL    HW120180   4.051   3.268   3.814
 6427SOL    HW220181   4.029   3.185   3.674
 6428SOL     OW20182   5.658   2.724   0.826
 6428SOL    HW120183   5.696   2.813   0.851
 6428SOL    HW220184   5.696   2.653   0.885
 6429SOL     OW20185   2.505   1.352   5.022
 6429SOL    HW120186   2.422   1.403   5.045
 6429SOL    HW220187   2.486   1.288   4.948
 6430SOL     OW20188   6.151   0.774   5.285
 6430SOL    HW120189   6.224   0.720   5.325
 6430SOL    HW220190   6.106   0.828   5.356
 6431SOL     OW20191   3.626   4.910   2.266
 6431SOL    HW120192   3.711   4.929   2.314
 6431SOL    HW220193   3.646   4.867   2.178
 6432SOL     OW20194   5.189   3.743   6.185
 6432SOL    HW120195   5.133   3.701   6.114
 6432SOL    HW220196   5.158   3.711   6.275
 6433SOL     OW20197   3.130   4.434   5.583
 6433SOL    HW120198   3.122   4.335   5.585
 6433SOL    HW220199   3.149   4.468   5.676
 6434SOL     OW20200   5.019   5.433   5.854
 6434SOL    HW120201   4.925   5.408   5.827
 6434SOL    HW220202   5.059   5.491   5.783
 6435SOL     OW20203   4.423   1.750   1.270
 6435SOL    HW120204   4.360   1.758   1.192
 6435SOL    HW220205   4.476   1.835   1.278
 6436SOL     OW20206   6.655   3.341   3.312
 6436SOL    HW120207   6.752   3.335   3.332
 6436SOL    HW220208   6.619   3.250   3.290
 6437SOL     OW20209   1.157   2.295   5.762
 6437SOL    HW120210   1.117   2.210   5.728
 6437SOL    HW220211   1.087   2.367   5.765
 6438SOL     OW20212   0.538   4.927   0.001
 6438SOL    HW120213   0.470   4.962   0.065
 6438SOL    HW220214   0.569   4.837   0.031
 6439SOL     OW20215   5.081   6.571   3.109
 6439SOL    HW120216   5.038   6.642   3.164
 6439SOL    HW220217   5.158   6.531   3.160
 6440SOL     OW20218   3.242   1.335   6.137
 6440SOL    HW120219   3.142   1.333   6.141
 6440SOL    HW220220   3.280   1.278   6.210
 6441SOL     OW20221   6.782   1.880   2.076
 6441SOL    HW120222   6.836   1.958   2.108
 6441SOL    HW220223   6.710   1.914   2.015
 6442SOL     OW20224   2.777   1.886   4.847
 6442SOL    HW120225   2.734   1.952   4.910
 6442SOL    HW220226   2.707   1.846   4.788
 6443SOL     OW20227   3.814   3.004   6.445
 6443SOL    HW120228   3.899   2.994   6.497
 6443SOL    HW220229   3.821   3.083   6.385
 6444SOL     OW20230   6.552   4.485   4.862
 6444SOL    HW120231   6.627   4.434   4.822
 6444SOL    HW220232   6.485   4.422   4.901
 6445SOL     OW20233   2.952   3.336   3.584
 6445SOL    HW120234   2.915   3.409   3.526
 6445SOL    HW220235   2.971   3.256   3.527
 6446SOL     OW20236   1.387   1.672   6.621
 6446SOL    HW120237   1.365   1.579   6.590
 6446SOL    HW220238   1.450   1.667   6.698
 6447SOL     OW20239   5.855   3.579   2.052
 6447SOL    HW120240   5.880   3.647   1.984
 6447SOL    HW220241   5.849   3.489   2.009
 6448SOL     OW20242   3.958   4.508   1.059
 6448SOL    HW120243   3.935   4.458   1.142
 6448SOL    HW220244   3.876   4.518   1.002
 6449SOL     OW20245   3.286   4.993   0.766
 6449SOL    HW120246   3.222   4.916   0.758
 6449SOL    HW220247   3.287   5.045   0.681
 6450SOL     OW20248   6.711   4.311   6.947
 6450SOL    HW120249   6.632   4.317   6.887
 6450SOL    HW220250   6.795   4.322   6.893
 6451SOL     OW20251   3.821   3.013   1.728
 6451SOL    HW120252   3.836   2.962   1.644
 6451SOL    HW220253   3.892   2.990   1.795
 6452SOL     OW20254   3.964   2.165   4.710
 6452SOL    HW120255   3.919   2.202   4.629
 6452SOL    HW220256   4.014   2.239   4.757
 6453SOL     OW20257   2.191   0.717   2.992
 6453SOL    HW120258   2.153   0.776   2.921
 6453SOL    HW220259   2.170   0.622   2.972
 6454SOL     OW20260   5.154   2.525   3.451
 6454SOL    HW120261   5.244   2.548   3.488
 6454SOL    HW220262   5.149   2.553   3.355
 6455SOL     OW20263   6.698   2.698   4.131
 6455SOL    HW120264   6.754   2.778   4.111
 6455SOL    HW220265   6.661   2.706   4.224
 6456SOL     OW20266   5.779   1.321   2.162
 6456SOL    HW120267   5.705   1.354   2.104
 6456SOL    HW220268   5.866   1.360   2.131
 6457SOL     OW20269   3.657   0.034   2.685
 6457SOL    HW120270   3.605   0.063   2.765
 6457SOL    HW220271   3.595   0.001   2.614
 6458SOL     OW20272   6.917   6.713   4.125
 6458SOL    HW120273   6.953   6.643   4.064
 6458SOL    HW220274   6.825   6.740   4.095
 6459SOL     OW20275   0.843   3.398   3.155
 6459SOL    HW120276   0.923   3.348   3.190
 6459SOL    HW220277   0.813   3.465   3.223
 6460SOL     OW20278   0.483   5.372   6.682
 6460SOL    HW120279   0.567   5.318   6.694
 6460SOL    HW220280   0.405   5.310   6.672
 6461SOL     OW20281   1.526   6.455   0.941
 6461SOL    HW120282   1.504   6.509   1.023
 6461SOL    HW220283   1.461   6.477   0.868
 6462SOL     OW20284   1.630   3.555   5.099
 6462SOL    HW120285   1.711   3.537   5.043
 6462SOL    HW220286   1.548   3.540   5.044
 6463SOL     OW20287   3.918   2.885   1.126
 6463SOL    HW120288   3.903   2.791   1.095
 6463SOL    HW220289   3.969   2.884   1.212
 6464SOL     OW20290   0.660   4.037   3.919
 6464SOL    HW120291   0.636   4.132   3.937
 6464SOL    HW220292   0.577   3.982   3.914
 6465SOL     OW20293   3.641   0.809   3.828
 6465SOL    HW120294   3.588   0.735   3.786
 6465SOL    HW220295   3.585   0.853   3.899
 6466SOL     OW20296   6.396   4.847   0.187
 6466SOL    HW120297   6.444   4.890   0.264
 6466SOL    HW220298   6.423   4.751   0.181
 6467SOL     OW20299   2.038   2.657   6.639
 6467SOL    HW120300   1.938   2.658   6.628
 6467SOL    HW220301   2.081   2.646   6.550
 6468SOL     OW20302   2.465   0.458   1.393
 6468SOL    HW120303   2.388   0.461   1.458
 6468SOL    HW220304   2.447   0.389   1.323
 6469SOL     OW20305   2.191   1.193   1.721
 6469SOL    HW120306   2.143   1.264   1.670
 6469SOL    HW220307   2.274   1.166   1.671
 6470SOL     OW20308   0.091   1.899   6.982
 6470SOL    HW120309   0.178   1.864   7.017
 6470SOL    HW220310   0.045   1.827   6.929
 6471SOL     OW20311   0.396   6.350   5.870
 6471SOL    HW120312   0.424   6.402   5.951
 6471SOL    HW220313   0.474   6.339   5.809
 6472SOL     OW20314   6.792   6.865   2.623
 6472SOL    HW120315   6.824   6.838   2.532
 6472SOL    HW220316   6.827   6.956   2.645
 6473SOL     OW20317   2.286   1.526   3.305
 6473SOL    HW120318   2.341   1.444   3.291
 6473SOL    HW220319   2.312   1.595   3.238
 6474SOL     OW20320   3.880   6.069   4.823
 6474SOL    HW120321   3.882   5.972   4.799
 6474SOL    HW220322   3.932   6.121   4.755
 6475SOL     OW20323   6.030   5.549   2.162
 6475SOL    HW120324   5.968   5.627   2.169
 6475SOL    HW220325   6.027   5.496   2.247
 6476SOL     OW20326   3.692   2.623   6.588
 6476SOL    HW120327   3.721   2.530   6.611
 6476SOL    HW220328   3.598   2.620   6.553
 6477SOL     OW20329   0.278   6.227   1.831
 6477SOL    HW120330   0.275   6.163   1.907
 6477SOL    HW220331   0.370   6.228   1.792
 6478SOL     OW20332   2.601   6.185   0.920
 6478SOL    HW120333   2.546   6.250   0.867
 6478SOL    HW220334   2.604   6.213   1.015
 6479SOL     OW20335   4.286   6.229   3.470
 6479SOL    HW120336   4.253   6.162   3.537
 6479SOL    HW220337   4.330   6.180   3.394
 6480SOL     OW20338   4.124   1.326   6.370
 6480SOL    HW120339   4.060   1.287   6.436
 6480SOL    HW220340   4.201   1.368   6.418
 6481SOL     OW20341   3.741   2.933   2.195
 6481SOL    HW120342   3.817   2.890   2.243
 6481SOL    HW220343   3.691   2.992   2.258
 6482SOL     OW20344   4.968   4.103   5.677
 6482SOL    HW120345   4.996   4.113   5.773
 6482SOL    HW220346   4.913   4.019   5.668
 6483SOL     OW20347   2.180   6.096   5.014
 6483SOL    HW120348   2.196   6.116   4.917
 6483SOL    HW220349   2.262   6.118   5.066
 6484SOL     OW20350   2.853   1.400   3.032
 6484SOL    HW120351   2.819   1.349   2.953
 6484SOL    HW220352   2.818   1.358   3.116
 6485SOL     OW20353   2.653   6.189   5.053
 6485SOL    HW120354   2.634   6.177   4.956
 6485SOL    HW220355   2.731   6.251   5.065
 6486SOL     OW20356   0.496   5.108   2.766
 6486SOL    HW120357   0.477   5.133   2.861
 6486SOL    HW220358   0.589   5.073   2.758
 6487SOL     OW20359   6.892   4.795   3.920
 6487SOL    HW120360   6.804   4.779   3.963
 6487SOL    HW220361   6.888   4.766   3.824
 6488SOL     OW20362   3.845   5.773   4.291
 6488SOL    HW120363   3.797   5.745   4.208
 6488SOL    HW220364   3.820   5.866   4.314
 6489SOL     OW20365   5.261   2.643   5.128
 6489SOL    HW120366   5.323   2.643   5.207
 6489SOL    HW220367   5.272   2.728   5.077
 6490SOL     OW20368   2.250   2.102   0.487
 6490SOL    HW120369   2.217   2.009   0.471
 6490SOL    HW220370   2.257   2.151   0.400
 6491SOL     OW20371   1.859   6.999   1.724
 6491SOL    HW120372   1.793   7.017   1.652
 6491SOL    HW220373   1.810   6.974   1.808
 6492SOL     OW20374   3.861   3.529   4.548
 6492SOL    HW120375   3.863   3.569   4.456
 6492SOL    HW220376   3.806   3.446   4.546
 6493SOL     OW20377   1.294   4.585   4.293
 6493SOL    HW120378   1.374   4.643   4.280
 6493SOL    HW220379   1.224   4.636   4.342
 6494SOL     OW20380   6.448   0.995   1.712
 6494SOL    HW120381   6.513   1.051   1.764
 6494SOL    HW220382   6.470   0.899   1.724
 6495SOL     OW20383   6.492   0.211   3.124
 6495SOL    HW120384   6.431   0.289   3.114
 6495SOL    HW220385   6.454   0.132   3.075
 6496SOL     OW20386   3.484   2.348   1.688
 6496SOL    HW120387   3.465   2.256   1.653
 6496SOL    HW220388   3.566   2.345   1.746
 6497SOL     OW20389   0.042   0.940   0.609
 6497SOL    HW120390   6.972   0.927   0.656
 6497SOL    HW220391   0.117   0.916   0.672
 6498SOL     OW20392   2.271   4.088   4.148
 6498SOL    HW120393   2.212   4.008   4.156
 6498SOL    HW220394   2.250   4.152   4.222
 6499SOL     OW20395   4.745   2.825   3.125
 6499SOL    HW120396   4.734   2.761   3.200
 6499SOL    HW220397   4.768   2.916   3.162
 6500SOL     OW20398   1.621   3.821   3.349
 6500SOL    HW120399   1.585   3.892   3.288
 6500SOL    HW220400   1.576   3.734   3.328
 6501SOL     OW20401   5.658   2.351   2.813
 6501SOL    HW120402   5.641   2.302   2.727
 6501SOL    HW220403   5.633   2.293   2.890
 6502SOL     OW20404   0.010   4.039   2.198
 6502SOL    HW120405   0.001   4.029   2.099
 6502SOL    HW220406   6.999   3.954   2.243
 6503SOL     OW20407   6.969   3.599   6.005
 6503SOL    HW120408   7.002   3.506   5.991
 6503SOL    HW220409   6.883   3.612   5.955
 6504SOL     OW20410   3.846   6.563   6.323
 6504SOL    HW120411   3.853   6.570   6.423
 6504SOL    HW220412   3.887   6.476   6.294
 6505SOL     OW20413   6.994   5.704   0.929
 6505SOL    HW120414   6.961   5.621   0.975
 6505SOL    HW220415   0.032   5.757   0.993
 6506SOL     OW20416   0.894   3.963   2.298
 6506SOL    HW120417   0.833   4.032   2.261
 6506SOL    HW220418   0.840   3.890   2.340
 6507SOL     OW20419   4.381   5.752   0.464
 6507SOL    HW120420   4.406   5.692   0.539
 6507SOL    HW220421   4.299   5.805   0.488
 6508SOL     OW20422   0.277   0.328   3.538
 6508SOL    HW120423   0.247   0.375   3.456
 6508SOL    HW220424   0.226   0.243   3.548
 6509SOL     OW20425   2.682   1.618   6.813
 6509SOL    HW120426   2.594   1.623   6.860
 6509SOL    HW220427   2.740   1.550   6.856
 6510SOL     OW20428   3.225   6.330   5.076
 6510SOL    HW120429   3.183   6.265   5.140
 6510SOL    HW220430   3.278   6.397   5.128
 6511SOL     OW20431   3.079   2.562   0.404
 6511SOL    HW120432   3.114   2.486   0.350
 6511SOL    HW220433   2.991   2.538   0.444
 6512SOL     OW20434   4.621   1.468   0.618
 6512SOL    HW120435   4.628   1.509   0.709
 6512SOL    HW220436   4.590   1.537   0.552
 6513SOL     OW20437   2.515   4.578   3.052
 6513SOL    HW120438   2.453   4.506   3.023
 6513SOL    HW220439   2.546   4.630   2.972
 6514SOL     OW20440   5.510   6.767   5.469
 6514SOL    HW120441   5.511   6.675   5.508
 6514SOL    HW220442   5.550   6.831   5.534
 6515SOL     OW20443   1.202   5.186   2.731
 6515SOL    HW120444   1.148   5.117   2.780
 6515SOL    HW220445   1.203   5.271   2.783
 6516SOL     OW20446   6.490   3.130   2.007
 6516SOL    HW120447   6.412   3.072   2.030
 6516SOL    HW220448   6.498   3.202   2.076
 6517SOL     OW20449   6.722   3.501   0.399
 6517SOL    HW120450   6.741   3.594   0.369
 6517SOL    HW220451   6.808   3.451   0.411
 6518SOL     OW20452   0.778   1.121   1.942
 6518SOL    HW120453   0.722   1.112   1.859
 6518SOL    HW220454   0.746   1.200   1.994
 6519SOL     OW20455   1.256   1.050   3.439
 6519SOL    HW120456   1.221   1.115   3.508
 6519SOL    HW220457   1.180   1.013   3.386
 6520SOL     OW20458   0.383   5.226   0.644
 6520SOL    HW120459   0.405   5.159   0.714
 6520SOL    HW220460   0.299   5.199   0.596
 6521SOL     OW20461   2.045   4.306   4.045
 6521SOL    HW120462   1.999   4.226   4.006
 6521SOL    HW220463   2.138   4.312   4.009
 6522SOL     OW20464   2.541   2.791   5.282
 6522SOL    HW120465   2.531   2.880   5.239
 6522SOL    HW220466   2.599   2.799   5.363
 6523SOL     OW20467   6.148   6.614   0.746
 6523SOL    HW120468   6.169   6.701   0.700
 6523SOL    HW220469   6.207   6.603   0.825
 6524SOL     OW20470   3.122   3.291   1.036
 6524SOL    HW120471   3.081   3.366   1.087
 6524SOL    HW220472   3.071   3.206   1.055
 6525SOL     OW20473   0.895   5.069   3.474
 6525SOL    HW120474   0.882   5.029   3.565
 6525SOL    HW220475   0.943   5.156   3.482
 6526SOL     OW20476   0.650   5.922   0.779
 6526SOL    HW120477   0.688   5.949   0.691
 6526SOL    HW220478   0.658   5.998   0.843
 6527SOL     OW20479   6.501   1.427   0.717
 6527SOL    HW120480   6.444   1.507   0.730
 6527SOL    HW220481   6.508   1.406   0.620
 6528SOL     OW20482   4.158   6.660   7.014
 6528SOL    HW120483   4.247   6.650   0.041
 6528SOL    HW220484   4.134   6.575   6.967
 6529SOL     OW20485   5.222   0.037   2.058
 6529SOL    HW120486   5.206   7.006   2.144
 6529SOL    HW220487   5.309   0.086   2.064
 6530SOL     OW20488   0.589   2.719   3.343
 6530SOL    HW120489   0.654   2.686   3.412
 6530SOL    HW220490   0.608   2.816   3.324
 6531SOL     OW20491   4.057   3.758   4.795
 6531SOL    HW120492   3.983   3.694   4.815
 6531SOL    HW220493   4.123   3.758   4.870
 6532SOL     OW20494   1.801   6.815   0.430
 6532SOL    HW120495   1.894   6.844   0.406
 6532SOL    HW220496   1.787   6.824   0.528
 6533SOL     OW20497   5.035   4.410   2.004
 6533SOL    HW120498   5.020   4.488   1.943
 6533SOL    HW220499   5.118   4.361   1.975
 6534SOL     OW20500   0.258   4.362   2.996
 6534SOL    HW120501   0.180   4.424   2.990
 6534SOL    HW220502   0.228   4.273   3.032
 6535SOL     OW20503   5.121   3.975   5.137
 6535SOL    HW120504   5.109   4.072   5.117
 6535SOL    HW220505   5.043   3.924   5.100
 6536SOL     OW20506   0.627   4.591   5.185
 6536SOL    HW120507   0.531   4.616   5.198
 6536SOL    HW220508   0.684   4.671   5.204
 6537SOL     OW20509   6.349   5.367   3.337
 6537SOL    HW120510   6.339   5.295   3.267
 6537SOL    HW220511   6.264   5.375   3.389
 6538SOL     OW20512   1.287   2.317   4.713
 6538SOL    HW120513   1.246   2.406   4.732
 6538SOL    HW220514   1.385   2.329   4.697
 6539SOL     OW20515   4.672   6.565   6.293
 6539SOL    HW120516   4.671   6.663   6.316
 6539SOL    HW220517   4.699   6.553   6.198
 6540SOL     OW20518   6.719   2.791   5.437
 6540SOL    HW120519   6.658   2.751   5.505
 6540SOL    HW220520   6.814   2.781   5.467
 6541SOL     OW20521   5.375   1.712   5.960
 6541SOL    HW120522   5.407   1.726   6.054
 6541SOL    HW220523   5.389   1.797   5.908
 6542SOL     OW20524   1.181   3.747   2.783
 6542SOL    HW120525   1.264   3.796   2.758
 6542SOL    HW220526   1.153   3.772   2.875
 6543SOL     OW20527   3.729   1.421   4.719
 6543SOL    HW120528   3.634   1.449   4.702
 6543SOL    HW220529   3.767   1.477   4.792
 6544SOL     OW20530   0.711   6.673   0.593
 6544SOL    HW120531   0.780   6.602   0.575
 6544SOL    HW220532   0.726   6.713   0.683
 6545SOL     OW20533   4.799   6.956   1.246
 6545SOL    HW120534   4.804   6.929   1.150
 6545SOL    HW220535   4.859   6.898   1.301
 6546SOL     OW20536   4.948   4.221   6.583
 6546SOL    HW120537   4.974   4.268   6.667
 6546SOL    HW220538   4.930   4.288   6.511
 6547SOL     OW20539   0.611   6.325   5.706
 6547SOL    HW120540   0.568   6.307   5.618
 6547SOL    HW220541   0.687   6.388   5.694
 6548SOL     OW20542   0.100   1.211   5.967
 6548SOL    HW120543   0.008   1.194   5.930
 6548SOL    HW220544   0.111   1.161   6.053
 6549SOL     OW20545   4.072   1.566   2.560
 6549SOL    HW120546   4.136   1.643   2.564
 6549SOL    HW220547   4.047   1.538   2.653
 6550SOL     OW20548   5.757   6.219   2.873
 6550SOL    HW120549   5.709   6.304   2.895
 6550SOL    HW220550   5.692   6.142   2.875
 6551SOL     OW20551   2.888   3.848   0.565
 6551SOL    HW120552   2.851   3.927   0.613
 6551SOL    HW220553   2.937   3.789   0.630
 6552SOL     OW20554   1.971   5.021   0.196
 6552SOL    HW120555   1.886   5.058   0.234
 6552SOL    HW220556   2.001   5.078   0.119
 6553SOL     OW20557   0.561   1.663   3.169
 6553SOL    HW120558   0.516   1.705   3.247
 6553SOL    HW220559   0.515   1.692   3.085
 6554SOL     OW20560   1.443   2.089   4.368
 6554SOL    HW120561   1.527   2.085   4.423
 6554SOL    HW220562   1.443   2.172   4.312
 6555SOL     OW20563   6.890   4.180   4.095
 6555SOL    HW120564   6.981   4.140   4.082
 6555SOL    HW220565   6.877   4.203   4.191
 6556SOL     OW20566   4.934   3.080   2.543
 6556SOL    HW120567   4.877   3.025   2.482
 6556SOL    HW220568   4.922   3.049   2.637
 6557SOL     OW20569   1.665   0.394   2.552
 6557SOL    HW120570   1.753   0.383   2.598
 6557SOL    HW220571   1.647   0.491   2.538
 6558SOL     OW20572   5.472   6.584   6.741
 6558SOL    HW120573   5.569   6.597   6.758
 6558SOL    HW220574   5.448   6.488   6.757
 6559SOL     OW20575   6.556   3.055   6.215
 6559SOL    HW120576   6.652   3.074   6.193
 6559SOL    HW220577   6.543   3.059   6.314
 6560SOL     OW20578   6.241   4.906   6.978
 6560SOL    HW120579   6.194   4.820   6.955
 6560SOL    HW220580   6.309   4.888   0.032
 6561SOL     OW20581   3.224   4.441   0.105
 6561SOL    HW120582   3.182   4.355   0.077
 6561SOL    HW220583   3.157   4.515   0.099
 6562SOL     OW20584   5.414   2.626   1.504
 6562SOL    HW120585   5.396   2.552   1.438
 6562SOL    HW220586   5.488   2.684   1.469
 6563SOL     OW20587   6.232   5.052   5.219
 6563SOL    HW120588   6.302   4.985   5.243
 6563SOL    HW220589   6.183   5.022   5.138
 6564SOL     OW20590   5.549   3.444   2.759
 6564SOL    HW120591   5.542   3.497   2.674
 6564SOL    HW220592   5.503   3.356   2.748
 6565SOL     OW20593   5.191   6.876   3.088
 6565SOL    HW120594   5.200   6.885   2.989
 6565SOL    HW220595   5.100   6.840   3.110
 6566SOL     OW20596   5.165   5.817   3.750
 6566SOL    HW120597   5.150   5.914   3.773
 6566SOL    HW220598   5.232   5.779   3.814
 6567SOL     OW20599   3.959   0.401   2.254
 6567SOL    HW120600   3.894   0.328   2.233
 6567SOL    HW220601   3.944   0.432   2.348
 6568SOL     OW20602   4.595   1.348   1.057
 6568SOL    HW120603   4.508   1.342   1.008
 6568SOL    HW220604   4.589   1.297   1.143
 6569SOL     OW20605   0.908   4.729   4.526
 6569SOL    HW120606   0.998   4.757   4.492
 6569SOL    HW220607   0.882   4.786   4.604
 6570SOL     OW20608   4.467   6.845   2.643
 6570SOL    HW120609   4.514   6.891   2.567
 6570SOL    HW220610   4.512   6.758   2.662
 6571SOL     OW20611   3.234   6.111   3.272
 6571SOL    HW120612   3.202   6.189   3.327
 6571SOL    HW220613   3.274   6.145   3.187
 6572SOL     OW20614   1.745   5.702   3.958
 6572SOL    HW120615   1.703   5.775   4.013
 6572SOL    HW220616   1.712   5.613   3.991
 6573SOL     OW20617   0.769   2.265   3.006
 6573SOL    HW120618   0.734   2.352   3.041
 6573SOL    HW220619   0.740   2.190   3.065
 6574SOL     OW20620   1.838   4.833   2.153
 6574SOL    HW120621   1.929   4.807   2.121
 6574SOL    HW220622   1.808   4.915   2.105
 6575SOL     OW20623   0.208   1.242   3.224
 6575SOL    HW120624   0.182   1.146   3.236
 6575SOL    HW220625   0.235   1.257   3.128
 6576SOL     OW20626   4.338   6.321   1.361
 6576SOL    HW120627   4.343   6.271   1.448
 6576SOL    HW220628   4.298   6.412   1.378
 6577SOL     OW20629   3.223   1.367   3.553
 6577SOL    HW120630   3.195   1.303   3.625
 6577SOL    HW220631   3.233   1.317   3.467
 6578SOL     OW20632   1.081   5.015   0.451
 6578SOL    HW120633   1.105   4.964   0.534
 6578SOL    HW220634   1.095   5.112   0.467
 6579SOL     OW20635   6.911   1.000   4.160
 6579SOL    HW120636   6.895   1.090   4.202
 6579SOL    HW220637   6.879   0.928   4.222
 6580SOL     OW20638   2.304   2.051   0.784
 6580SOL    HW120639   2.304   2.137   0.733
 6580SOL    HW220640   2.395   2.034   0.821
 6581SOL     OW20641   0.309   2.237   0.830
 6581SOL    HW120642   0.307   2.337   0.835
 6581SOL    HW220643   0.301   2.209   0.735
 6582SOL     OW20644   6.059   1.364   2.902
 6582SOL    HW120645   5.996   1.435   2.871
 6582SOL    HW220646   6.067   1.293   2.832
 6583SOL     OW20647   3.539   4.738   0.373
 6583SOL    HW120648   3.460   4.693   0.332
 6583SOL    HW220649   3.511   4.825   0.414
 6584SOL     OW20650   4.209   2.518   6.589
 6584SOL    HW120651   4.129   2.481   6.637
 6584SOL    HW220652   4.180   2.586   6.522
 6585SOL     OW20653   5.701   6.999   2.170
 6585SOL    HW120654   5.697   0.081   2.166
 6585SOL    HW220655   5.739   6.963   2.085
 6586SOL     OW20656   0.038   1.173   6.797
 6586SOL    HW120657   0.050   1.231   6.716
 6586SOL    HW220658   0.128   1.142   6.829
 6587SOL     OW20659   2.159   4.534   5.205
 6587SOL    HW120660   2.259   4.528   5.210
 6587SOL    HW220661   2.119   4.489   5.284
 6588SOL     OW20662   0.371   2.130   0.580
 6588SOL    HW120663   0.409   2.060   0.641
 6588SOL    HW220664   0.444   2.192   0.551
 6589SOL     OW20665   6.904   6.872   2.361
 6589SOL    HW120666   6.937   6.823   2.280
 6589SOL    HW220667   6.856   6.955   2.332
 6590SOL     OW20668   0.951   6.236   4.083
 6590SOL    HW120669   1.035   6.214   4.134
 6590SOL    HW220670   0.879   6.259   4.148
 6591SOL     OW20671   6.258   4.085   3.682
 6591SOL    HW120672   6.282   3.993   3.651
 6591SOL    HW220673   6.276   4.150   3.609
 6592SOL     OW20674   6.098   6.627   4.011
 6592SOL    HW120675   6.156   6.673   4.078
 6592SOL    HW220676   6.147   6.549   3.973
 6593SOL     OW20677   1.443   0.995   1.939
 6593SOL    HW120678   1.540   1.013   1.924
 6593SOL    HW220679   1.417   1.025   2.030
 6594SOL     OW20680   5.175   6.900   6.556
 6594SOL    HW120681   5.225   6.831   6.608
 6594SOL    HW220682   5.142   6.971   6.617
 6595SOL     OW20683   0.798   2.025   5.325
 6595SOL    HW120684   0.839   2.078   5.251
 6595SOL    HW220685   0.705   2.056   5.342
 6596SOL     OW20686   5.203   0.678   2.549
 6596SOL    HW120687   5.281   0.740   2.556
 6596SOL    HW220688   5.228   0.589   2.585
 6597SOL     OW20689   0.729   4.283   1.332
 6597SOL    HW120690   0.797   4.223   1.375
 6597SOL    HW220691   0.728   4.267   1.233
 6598SOL     OW20692   1.906   4.757   3.997
 6598SOL    HW120693   1.950   4.671   3.972
 6598SOL    HW220694   1.960   4.803   4.069
 6599SOL     OW20695   6.825   5.343   6.263
 6599SOL    HW120696   6.868   5.431   6.242
 6599SOL    HW220697   6.752   5.325   6.197
 6600SOL     OW20698   4.509   0.335   5.477
 6600SOL    HW120699   4.528   0.321   5.380
 6600SOL    HW220700   4.591   0.370   5.522
 6601SOL     OW20701   1.260   2.365   1.963
 6601SOL    HW120702   1.201   2.328   2.034
 6601SOL    HW220703   1.354   2.333   1.977
 6602SOL     OW20704   0.654   5.508   1.743
 6602SOL    HW120705   0.578   5.444   1.752
 6602SOL    HW220706   0.628   5.582   1.682
 6603SOL     OW20707   0.128   3.800   2.658
 6603SOL    HW120708   0.085   3.725   2.709
 6603SOL    HW220709   0.223   3.777   2.639
 6604SOL     OW20710   1.576   5.791   3.197
 6604SOL    HW120711   1.582   5.753   3.290
 6604SOL    HW220712   1.661   5.775   3.149
 6605SOL     OW20713   0.225   5.845   1.318
 6605SOL    HW120714   0.317   5.855   1.355
 6605SOL    HW220715   0.163   5.907   1.367
 6606SOL     OW20716   1.691   3.398   3.025
 6606SOL    HW120717   1.593   3.384   3.043
 6606SOL    HW220718   1.702   3.442   2.936
 6607SOL     OW20719   5.773   3.201   3.657
 6607SOL    HW120720   5.689   3.254   3.647
 6607SOL    HW220721   5.809   3.177   3.567
 6608SOL     OW20722   1.600   6.494   5.903
 6608SOL    HW120723   1.625   6.401   5.875
 6608SOL    HW220724   1.682   6.541   5.937
 6609SOL     OW20725   4.537   1.759   0.122
 6609SOL    HW120726   4.481   1.677   0.117
 6609SOL    HW220727   4.619   1.741   0.176
 6610SOL     OW20728   2.820   5.697   0.973
 6610SOL    HW120729   2.860   5.616   1.017
 6610SOL    HW220730   2.783   5.758   1.043
 6611SOL     OW20731   3.340   1.816   4.914
 6611SOL    HW120732   3.268   1.874   4.950
 6611SOL    HW220733   3.389   1.772   4.990
 6612SOL     OW20734   0.415   0.320   6.609
 6612SOL    HW120735   0.346   0.255   6.642
 6612SOL    HW220736   0.506   0.282   6.624
 6613SOL     OW20737   4.166   0.433   0.724
 6613SOL    HW120738   4.097   0.505   0.723
 6613SOL    HW220739   4.191   0.410   0.631
 6614SOL     OW20740   4.178   5.246   0.675
 6614SOL    HW120741   4.105   5.180   0.690
 6614SOL    HW220742   4.225   5.225   0.589
 6615SOL     OW20743   4.052   5.361   5.635
 6615SOL    HW120744   4.106   5.346   5.552
 6615SOL    HW220745   3.963   5.317   5.625
 6616SOL     OW20746   3.667   1.693   6.679
 6616SOL    HW120747   3.751   1.731   6.715
 6616SOL    HW220748   3.675   1.681   6.580
 6617SOL     OW20749   3.808   0.626   3.976
 6617SOL    HW120750   3.766   0.667   3.895
 6617SOL    HW220751   3.737   0.606   4.044
 6618SOL     OW20752   6.019   2.595   4.091
 6618SOL    HW120753   6.055   2.547   4.011
 6618SOL    HW220754   5.919   2.602   4.084
 6619SOL     OW20755   4.810   5.545   3.799
 6619SOL    HW120756   4.810   5.574   3.704
 6619SOL    HW220757   4.733   5.484   3.816
 6620SOL     OW20758   1.394   2.701   3.293
 6620SOL    HW120759   1.438   2.716   3.381
 6620SOL    HW220760   1.462   2.669   3.227
 6621SOL     OW20761   3.639   3.478   4.081
 6621SOL    HW120762   3.679   3.396   4.121
 6621SOL    HW220763   3.547   3.458   4.048
 6622SOL     OW20764   0.595   5.277   0.994
 6622SOL    HW120765   0.518   5.305   1.052
 6622SOL    HW220766   0.584   5.316   0.903
 6623SOL     OW20767   2.866   3.775   4.877
 6623SOL    HW120768   2.776   3.731   4.878
 6623SOL    HW220769   2.936   3.706   4.861
 6624SOL     OW20770   2.664   2.096   2.940
 6624SOL    HW120771   2.734   2.067   3.005
 6624SOL    HW220772   2.676   2.046   2.854
 6625SOL     OW20773   6.343   3.948   5.588
 6625SOL    HW120774   6.304   4.017   5.649
 6625SOL    HW220775   6.423   3.907   5.632
 6626SOL     OW20776   2.987   6.092   5.346
 6626SOL    HW120777   2.997   6.082   5.247
 6626SOL    HW220778   2.956   6.006   5.386
 6627SOL     OW20779   1.982   6.199   4.337
 6627SOL    HW120780   2.009   6.103   4.336
 6627SOL    HW220781   1.883   6.206   4.322
 6628SOL     OW20782   3.553   5.953   4.133
 6628SOL    HW120783   3.475   5.905   4.174
 6628SOL    HW220784   3.626   5.961   4.201
 6629SOL     OW20785   5.161   5.900   6.073
 6629SOL    HW120786   5.143   5.956   5.992
 6629SOL    HW220787   5.098   5.928   6.146
 6630SOL     OW20788   1.608   0.721   6.978
 6630SOL    HW120789   1.529   0.674   0.000
 6630SOL    HW220790   1.576   0.798   6.923
 6631SOL     OW20791   1.874   3.507   6.073
 6631SOL    HW120792   1.817   3.582   6.106
 6631SOL    HW220793   1.819   3.423   6.069
 6632SOL     OW20794   1.530   7.016   0.431
 6632SOL    HW120795   1.461   0.040   0.371
 6632SOL    HW220796   1.486   6.955   0.496
 6633SOL     OW20797   3.795   5.614   6.131
 6633SOL    HW120798   3.704   5.650   6.114
 6633SOL    HW220799   3.862   5.663   6.076
 6634SOL     OW20800   3.828   1.984   3.953
 6634SOL    HW120801   3.881   1.904   3.925
 6634SOL    HW220802   3.786   2.025   3.873
 6635SOL     OW20803   4.867   4.776   4.639
 6635SOL    HW120804   4.774   4.764   4.673
 6635SOL    HW220805   4.865   4.786   4.539
 6636SOL     OW20806   4.243   0.926   0.128
 6636SOL    HW120807   4.290   0.891   0.209
 6636SOL    HW220808   4.144   0.922   0.143
 6637SOL     OW20809   0.621   1.955   0.453
 6637SOL    HW120810   0.608   1.885   0.524
 6637SOL    HW220811   0.717   1.980   0.449
 6638SOL     OW20812   2.997   3.917   3.876
 6638SOL    HW120813   2.981   3.845   3.808
 6638SOL    HW220814   2.989   3.878   3.968
 6639SOL     OW20815   4.996   2.789   0.862
 6639SOL    HW120816   5.064   2.719   0.840
 6639SOL    HW220817   5.019   2.875   0.817
 6640SOL     OW20818   1.414   4.003   4.914
 6640SOL    HW120819   1.381   4.032   5.004
 6640SOL    HW220820   1.502   3.958   4.924
 6641SOL     OW20821   5.614   1.919   1.359
 6641SOL    HW120822   5.703   1.885   1.392
 6641SOL    HW220823   5.600   1.889   1.265
 6642SOL     OW20824   1.955   5.912   0.249
 6642SOL    HW120825   1.952   5.878   0.343
 6642SOL    HW220826   1.877   5.973   0.233
 6643SOL     OW20827   3.663   6.096   6.409
 6643SOL    HW120828   3.758   6.105   6.379
 6643SOL    HW220829   3.625   6.010   6.374
 6644SOL     OW20830   1.924   6.547   3.893
 6644SOL    HW120831   1.915   6.467   3.953
 6644SOL    HW220832   2.011   6.543   3.845
 6645SOL     OW20833   5.959   2.951   6.959
 6645SOL    HW120834   6.025   2.878   6.977
 6645SOL    HW220835   5.988   3.005   6.880
 6646SOL     OW20836   4.173   6.873   5.639
 6646SOL    HW120837   4.212   6.795   5.687
 6646SOL    HW220838   4.176   6.954   5.699
 6647SOL     OW20839   4.158   5.064   1.088
 6647SOL    HW120840   4.167   5.014   1.002
 6647SOL    HW220841   4.105   5.148   1.072
 6648SOL     OW20842   3.254   6.682   5.067
 6648SOL    HW120843   3.311   6.700   4.987
 6648SOL    HW220844   3.304   6.622   5.130
 6649SOL     OW20845   5.052   2.444   6.676
 6649SOL    HW120846   5.050   2.511   6.602
 6649SOL    HW220847   4.988   2.370   6.655
 6650SOL     OW20848   1.710   1.371   4.756
 6650SOL    HW120849   1.634   1.309   4.773
 6650SOL    HW220850   1.715   1.392   4.659
 6651SOL     OW20851   6.741   2.047   5.955
 6651SOL    HW120852   6.699   2.137   5.940
 6651SOL    HW220853   6.697   2.002   6.033
 6652SOL     OW20854   6.653   4.372   0.224
 6652SOL    HW120855   6.741   4.374   0.176
 6652SOL    HW220856   6.591   4.309   0.177
 6653SOL     OW20857   5.850   4.579   0.204
 6653SOL    HW120858   5.853   4.591   0.304
 6653SOL    HW220859   5.791   4.502   0.182
 6654SOL     OW20860   6.361   3.863   3.550
 6654SOL    HW120861   6.420   3.899   3.478
 6654SOL    HW220862   6.298   3.796   3.511
 6655SOL     OW20863   0.446   5.268   1.949
 6655SOL    HW120864   0.402   5.178   1.942
 6655SOL    HW220865   0.505   5.270   2.029
 6656SOL     OW20866   4.407   1.704   3.911
 6656SOL    HW120867   4.353   1.788   3.906
 6656SOL    HW220868   4.379   1.650   3.991
 6657SOL     OW20869   5.497   2.163   3.811
 6657SOL    HW120870   5.404   2.165   3.849
 6657SOL    HW220871   5.544   2.081   3.843
 6658SOL     OW20872   6.946   5.823   5.682
 6658SOL    HW120873   7.004   5.895   5.646
 6658SOL    HW220874   6.912   5.850   5.772
 6659SOL     OW20875   1.172   5.047   1.885
 6659SOL    HW120876   1.086   5.037   1.933
 6659SOL    HW220877   1.203   4.958   1.851
 6660SOL     OW20878   6.819   6.551   4.600
 6660SOL    HW120879   6.821   6.451   4.610
 6660SOL    HW220880   6.877   6.592   4.671
 6661SOL     OW20881   4.010   5.799   3.980
 6661SOL    HW120882   4.014   5.888   4.026
 6661SOL    HW220883   4.081   5.739   4.016
 6662SOL     OW20884   4.027   6.664   2.543
 6662SOL    HW120885   3.967   6.641   2.467
 6662SOL    HW220886   3.979   6.649   2.629
 6663SOL     OW20887   0.650   4.164   6.130
 6663SOL    HW120888   0.613   4.257   6.132
 6663SOL    HW220889   0.728   4.158   6.192
 6664SOL     OW20890   2.766   0.161   0.913
 6664SOL    HW120891   2.847   0.115   0.876
 6664SOL    HW220892   2.703   0.094   0.952
 6665SOL     OW20893   2.583   0.845   6.457
 6665SOL    HW120894   2.637   0.772   6.499
 6665SOL    HW220895   2.514   0.878   6.522
 6666SOL     OW20896   3.885   6.210   5.271
 6666SOL    HW120897   3.833   6.202   5.355
 6666SOL    HW220898   3.950   6.135   5.264
 6667SOL     OW20899   1.137   6.005   6.434
 6667SOL    HW120900   1.134   5.926   6.374
 6667SOL    HW220901   1.232   6.022   6.462
 6668SOL     OW20902   6.941   4.609   0.363
 6668SOL    HW120903   7.006   4.639   0.433
 6668SOL    HW220904   6.896   4.525   0.394
 6669SOL     OW20905   1.075   2.047   2.900
 6669SOL    HW120906   1.095   2.128   2.956
 6669SOL    HW220907   1.159   1.994   2.888
 6670SOL     OW20908   3.625   2.675   0.130
 6670SOL    HW120909   3.715   2.635   0.144
 6670SOL    HW220910   3.634   2.772   0.107
 6671SOL     OW20911   4.267   5.100   0.072
 6671SOL    HW120912   4.261   5.029   0.143
 6671SOL    HW220913   4.207   5.075   7.013
 6672SOL     OW20914   1.178   2.314   1.708
 6672SOL    HW120915   1.223   2.355   1.787
 6672SOL    HW220916   1.189   2.374   1.628
 6673SOL     OW20917   6.284   2.829   3.831
 6673SOL    HW120918   6.361   2.801   3.889
 6673SOL    HW220919   6.221   2.886   3.885
 6674SOL     OW20920   0.740   1.375   0.192
 6674SOL    HW120921   0.701   1.461   0.161
 6674SOL    HW220922   0.775   1.324   0.113
 6675SOL     OW20923   4.848   0.579   6.634
 6675SOL    HW120924   4.780   0.632   6.684
 6675SOL    HW220925   4.807   0.543   6.550
 6676SOL     OW20926   0.850   4.062   4.129
 6676SOL    HW120927   0.779   4.063   4.058
 6676SOL    HW220928   0.917   4.134   4.109
 6677SOL     OW20929   0.628   1.727   6.243
 6677SOL    HW120930   0.567   1.649   6.229
 6677SOL    HW220931   0.593   1.783   6.318
 6678SOL     OW20932   2.441   4.161   6.042
 6678SOL    HW120933   2.470   4.203   5.955
 6678SOL    HW220934   2.369   4.094   6.024
 6679SOL     OW20935   1.387   0.949   3.696
 6679SOL    HW120936   1.287   0.960   3.703
 6679SOL    HW220937   1.410   0.912   3.607
 6680SOL     OW20938   6.454   6.447   1.181
 6680SOL    HW120939   6.423   6.460   1.276
 6680SOL    HW220940   6.509   6.525   1.153
 6681SOL     OW20941   3.254   6.132   1.735
 6681SOL    HW120942   3.216   6.180   1.815
 6681SOL    HW220943   3.219   6.039   1.732
 6682SOL     OW20944   3.347   5.731   5.800
 6682SOL    HW120945   3.406   5.784   5.739
 6682SOL    HW220946   3.252   5.757   5.786
 6683SOL     OW20947   6.752   4.656   5.985
 6683SOL    HW120948   6.800   4.726   5.932
 6683SOL    HW220949   6.722   4.695   6.072
 6684SOL     OW20950   3.352   6.312   0.406
 6684SOL    HW120951   3.411   6.391   0.391
 6684SOL    HW220952   3.397   6.247   0.466
 6685SOL     OW20953   5.222   2.886   0.193
 6685SOL    HW120954   5.152   2.827   0.151
 6685SOL    HW220955   5.191   2.915   0.283
 6686SOL     OW20956   5.097   4.981   4.711
 6686SOL    HW120957   5.018   4.924   4.689
 6686SOL    HW220958   5.176   4.923   4.729
 6687SOL     OW20959   6.599   1.859   1.496
 6687SOL    HW120960   6.577   1.955   1.481
 6687SOL    HW220961   6.662   1.828   1.425
 6688SOL     OW20962   4.618   4.965   1.352
 6688SOL    HW120963   4.602   5.050   1.301
 6688SOL    HW220964   4.674   4.984   1.432
 6689SOL     OW20965   2.348   4.639   5.809
 6689SOL    HW120966   2.373   4.580   5.886
 6689SOL    HW220967   2.371   4.734   5.830
 6690SOL     OW20968   0.459   0.120   6.183
 6690SOL    HW120969   0.366   0.155   6.170
 6690SOL    HW220970   0.465   0.071   6.269
 6691SOL     OW20971   3.229   2.103   2.448
 6691SOL    HW120972   3.177   2.056   2.519
 6691SOL    HW220973   3.166   2.142   2.380
 6692SOL     OW20974   4.047   5.334   2.174
 6692SOL    HW120975   4.028   5.240   2.144
 6692SOL    HW220976   4.114   5.332   2.248
 6693SOL     OW20977   3.493   1.632   5.106
 6693SOL    HW120978   3.511   1.545   5.151
 6693SOL    HW220979   3.578   1.685   5.102
 6694SOL     OW20980   3.390   4.043   1.679
 6694SOL    HW120981   3.337   4.128   1.678
 6694SOL    HW220982   3.357   3.985   1.754
 6695SOL     OW20983   2.625   2.033   0.590
 6695SOL    HW120984   2.620   2.060   0.686
 6695SOL    HW220985   2.622   2.114   0.532
 6696SOL     OW20986   4.093   3.355   4.479
 6696SOL    HW120987   4.015   3.416   4.493
 6696SOL    HW220988   4.105   3.339   4.381
 6697SOL     OW20989   4.257   2.265   2.159
 6697SOL    HW120990   4.307   2.179   2.163
 6697SOL    HW220991   4.249   2.295   2.064
 6698SOL     OW20992   3.296   4.303   1.634
 6698SOL    HW120993   3.237   4.384   1.642
 6698SOL    HW220994   3.391   4.332   1.635
 6699SOL     OW20995   1.156   4.142   5.364
 6699SOL    HW120996   1.173   4.095   5.450
 6699SOL    HW220997   1.070   4.193   5.370
 6700SOL     OW20998   5.643   0.482   0.241
 6700SOL    HW120999   5.743   0.486   0.231
 6700SOL    HW221000   5.619   0.408   0.304
 6701SOL     OW21001   6.165   6.947   1.493
 6701SOL    HW121002   6.178   6.882   1.418
 6701SOL    HW221003   6.128   0.015   1.457
 6702SOL     OW21004   3.427   2.693   1.159
 6702SOL    HW121005   3.484   2.680   1.078
 6702SOL    HW221006   3.330   2.689   1.132
 6703SOL     OW21007   0.173   1.392   0.278
 6703SOL    HW121008   0.128   1.360   0.195
 6703SOL    HW221009   0.123   1.360   0.358
 6704SOL     OW21010   3.217   6.688   6.097
 6704SOL    HW121011   3.309   6.693   6.060
 6704SOL    HW221012   3.151   6.717   6.027
 6705SOL     OW21013   0.120   4.357   2.527
 6705SOL    HW121014   0.059   4.426   2.567
 6705SOL    HW221015   0.183   4.324   2.598
 6706SOL     OW21016   0.281   6.677   1.574
 6706SOL    HW121017   0.202   6.623   1.544
 6706SOL    HW221018   0.312   6.734   1.499
 6707SOL     OW21019   5.121   1.322   2.273
 6707SOL    HW121020   5.136   1.264   2.353
 6707SOL    HW221021   5.206   1.368   2.248
 6708SOL     OW21022   0.838   3.883   0.661
 6708SOL    HW121023   0.795   3.819   0.725
 6708SOL    HW221024   0.914   3.929   0.706
 6709SOL     OW21025   2.245   4.069   2.491
 6709SOL    HW121026   2.188   4.020   2.426
 6709SOL    HW221027   2.286   4.149   2.446
 6710SOL     OW21028   4.885   1.697   0.839
 6710SOL    HW121029   4.948   1.624   0.811
 6710SOL    HW221030   4.911   1.783   0.796
 6711SOL     OW21031   3.307   5.811   6.582
 6711SOL    HW121032   3.402   5.843   6.592
 6711SOL    HW221033   3.254   5.839   6.661
 6712SOL     OW21034   5.794   3.962   1.555
 6712SOL    HW121035   5.815   3.892   1.623
 6712SOL    HW221036   5.696   3.978   1.553
 6713SOL     OW21037   1.563   5.014   4.569
 6713SOL    HW121038   1.563   5.077   4.646
 6713SOL    HW221039   1.638   4.949   4.579
 6714SOL     OW21040   4.994   1.167   1.425
 6714SOL    HW121041   4.922   1.104   1.393
 6714SOL    HW221042   4.953   1.256   1.446
 6715SOL     OW21043   1.853   0.557   6.623
 6715SOL    HW121044   1.778   0.496   6.601
 6715SOL    HW221045   1.934   0.503   6.646
 6716SOL     OW21046   6.688   6.232   2.444
 6716SOL    HW121047   6.731   6.290   2.513
 6716SOL    HW221048   6.724   6.256   2.354
 6717SOL     OW21049   6.005   1.933   5.839
 6717SOL    HW121050   6.004   1.838   5.808
 6717SOL    HW221051   6.017   1.935   5.938
 6718SOL     OW21052   4.286   1.337   1.007
 6718SOL    HW121053   4.278   1.302   0.913
 6718SOL    HW221054   4.247   1.429   1.012
 6719SOL     OW21055   2.222   1.228   0.368
 6719SOL    HW121056   2.272   1.158   0.420
 6719SOL    HW221057   2.272   1.315   0.373
 6720SOL     OW21058   1.616   1.004   6.172
 6720SOL    HW121059   1.708   0.981   6.140
 6720SOL    HW221060   1.608   1.104   6.180
 6721SOL     OW21061   5.960   0.688   0.745
 6721SOL    HW121062   5.926   0.680   0.651
 6721SOL    HW221063   6.059   0.676   0.745
 6722SOL     OW21064   5.527   3.764   6.949
 6722SOL    HW121065   5.580   3.681   6.933
 6722SOL    HW221066   5.447   3.743   7.005
 6723SOL     OW21067   0.957   2.502   5.823
 6723SOL    HW121068   0.988   2.553   5.743
 6723SOL    HW221069   0.953   2.563   5.902
 6724SOL     OW21070   2.135   3.624   4.188
 6724SOL    HW121071   2.224   3.581   4.203
 6724SOL    HW221072   2.066   3.553   4.172
 6725SOL     OW21073   5.183   2.598   3.172
 6725SOL    HW121074   5.118   2.645   3.112
 6725SOL    HW221075   5.242   2.539   3.117
 6726SOL     OW21076   0.339   0.439   5.375
 6726SOL    HW121077   0.360   0.497   5.296
 6726SOL    HW221078   0.422   0.390   5.403
 6727SOL     OW21079   1.499   5.226   5.436
 6727SOL    HW121080   1.422   5.241   5.498
 6727SOL    HW221081   1.569   5.172   5.484
 6728SOL     OW21082   3.580   1.583   2.791
 6728SOL    HW121083   3.550   1.502   2.740
 6728SOL    HW221084   3.584   1.661   2.729
 6729SOL     OW21085   4.390   1.151   2.164
 6729SOL    HW121086   4.348   1.232   2.124
 6729SOL    HW221087   4.480   1.136   2.123
 6730SOL     OW21088   0.268   1.346   0.982
 6730SOL    HW121089   0.229   1.324   0.893
 6730SOL    HW221090   0.319   1.267   1.017
 6731SOL     OW21091   3.603   0.106   6.295
 6731SOL    HW121092   3.697   0.102   6.262
 6731SOL    HW221093   3.601   0.084   6.393
 6732SOL     OW21094   6.576   5.308   5.299
 6732SOL    HW121095   6.508   5.309   5.372
 6732SOL    HW221096   6.531   5.296   5.210
 6733SOL     OW21097   4.665   4.354   5.947
 6733SOL    HW121098   4.571   4.388   5.938
 6733SOL    HW221099   4.710   4.355   5.858
 6734SOL     OW21100   6.178   1.900   4.179
 6734SOL    HW121101   6.213   1.860   4.264
 6734SOL    HW221102   6.168   1.999   4.191
 6735SOL     OW21103   6.635   2.554   3.200
 6735SOL    HW121104   6.614   2.511   3.112
 6735SOL    HW221105   6.733   2.568   3.208
 6736SOL     OW21106   3.729   3.520   0.436
 6736SOL    HW121107   3.686   3.576   0.507
 6736SOL    HW221108   3.719   3.423   0.459
 6737SOL     OW21109   7.013   3.601   0.221
 6737SOL    HW121110   6.973   3.622   0.310
 6737SOL    HW221111   0.084   3.646   0.212
 6738SOL     OW21112   1.096   6.276   3.864
 6738SOL    HW121113   1.191   6.248   3.880
 6738SOL    HW221114   1.038   6.238   3.935
 6739SOL     OW21115   6.724   0.095   4.866
 6739SOL    HW121116   6.697   0.008   4.824
 6739SOL    HW221117   6.817   0.119   4.836
 6740SOL     OW21118   0.449   6.808   3.302
 6740SOL    HW121119   0.468   6.771   3.393
 6740SOL    HW221120   0.506   6.762   3.234
 6741SOL     OW21121   4.164   1.787   6.682
 6741SOL    HW121122   4.237   1.846   6.646
 6741SOL    HW221123   4.201   1.696   6.699
 6742SOL     OW21124   5.686   4.573   3.571
 6742SOL    HW121125   5.703   4.507   3.499
 6742SOL    HW221126   5.622   4.643   3.539
 6743SOL     OW21127   4.142   3.675   0.718
 6743SOL    HW121128   4.170   3.682   0.814
 6743SOL    HW221129   4.216   3.633   0.665
 6744SOL     OW21130   6.604   6.918   6.083
 6744SOL    HW121131   6.665   6.922   6.162
 6744SOL    HW221132   6.562   6.828   6.077
 6745SOL     OW21133   0.239   4.500   5.482
 6745SOL    HW121134   0.206   4.521   5.390
 6745SOL    HW221135   0.307   4.428   5.477
 6746SOL     OW21136   0.514   2.120   2.571
 6746SOL    HW121137   0.600   2.086   2.533
 6746SOL    HW221138   0.533   2.200   2.628
 6747SOL     OW21139   1.925   6.291   5.639
 6747SOL    HW121140   1.842   6.314   5.691
 6747SOL    HW221141   1.931   6.192   5.629
 6748SOL     OW21142   2.067   1.219   4.602
 6748SOL    HW121143   2.057   1.122   4.623
 6748SOL    HW221144   2.072   1.232   4.503
 6749SOL     OW21145   3.964   5.212   1.828
 6749SOL    HW121146   3.870   5.227   1.795
 6749SOL    HW221147   3.964   5.202   1.927
 6750SOL     OW21148   3.726   1.438   5.354
 6750SOL    HW121149   3.738   1.400   5.446
 6750SOL    HW221150   3.640   1.404   5.315
 6751SOL     OW21151   5.024   0.088   4.226
 6751SOL    HW121152   4.938   0.139   4.222
 6751SOL    HW221153   5.049   0.057   4.134
 6752SOL     OW21154   2.295   4.890   2.081
 6752SOL    HW121155   2.325   4.874   2.175
 6752SOL    HW221156   2.335   4.821   2.021
 6753SOL     OW21157   3.764   3.365   5.604
 6753SOL    HW121158   3.751   3.346   5.701
 6753SOL    HW221159   3.679   3.400   5.565
 6754SOL     OW21160   6.648   1.399   0.953
 6754SOL    HW121161   6.657   1.474   1.018
 6754SOL    HW221162   6.591   1.428   0.876
 6755SOL     OW21163   2.714   5.875   6.217
 6755SOL    HW121164   2.759   5.893   6.129
 6755SOL    HW221165   2.765   5.806   6.267
 6756SOL     OW21166   2.312   2.050   5.642
 6756SOL    HW121167   2.217   2.019   5.635
 6756SOL    HW221168   2.341   2.092   5.555
 6757SOL     OW21169   4.045   6.780   0.637
 6757SOL    HW121170   3.960   6.771   0.584
 6757SOL    HW221171   4.091   6.865   0.610
 6758SOL     OW21172   5.245   1.668   3.245
 6758SOL    HW121173   5.257   1.734   3.320
 6758SOL    HW221174   5.223   1.578   3.283
 6759SOL     OW21175   6.978   2.439   2.535
 6759SOL    HW121176   6.893   2.421   2.487
 6759SOL    HW221177   0.026   2.366   2.517
 6760SOL     OW21178   4.978   2.808   4.233
 6760SOL    HW121179   5.012   2.716   4.211
 6760SOL    HW221180   4.888   2.820   4.191
 6761SOL     OW21181   4.201   1.808   4.699
 6761SOL    HW121182   4.219   1.888   4.640
 6761SOL    HW221183   4.215   1.725   4.646
 6762SOL     OW21184   6.565   5.632   3.860
 6762SOL    HW121185   6.650   5.684   3.852
 6762SOL    HW221186   6.548   5.611   3.956
 6763SOL     OW21187   5.433   5.199   5.046
 6763SOL    HW121188   5.456   5.146   4.964
 6763SOL    HW221189   5.464   5.294   5.033
 6764SOL     OW21190   1.572   5.472   0.801
 6764SOL    HW121191   1.619   5.512   0.880
 6764SOL    HW221192   1.621   5.497   0.717
 6765SOL     OW21193   0.141   5.000   3.024
 6765SOL    HW121194   0.129   4.951   3.110
 6765SOL    HW221195   0.219   4.963   2.975
 6766SOL     OW21196   6.144   0.782   1.090
 6766SOL    HW121197   6.126   0.874   1.125
 6766SOL    HW221198   6.199   0.788   1.007
 6767SOL     OW21199   3.056   0.743   0.410
 6767SOL    HW121200   3.096   0.712   0.324
 6767SOL    HW221201   2.970   0.694   0.426
 6768SOL     OW21202   2.171   0.786   0.682
 6768SOL    HW121203   2.133   0.813   0.594
 6768SOL    HW221204   2.096   0.763   0.745
 6769SOL     OW21205   4.200   2.925   1.664
 6769SOL    HW121206   4.281   2.983   1.661
 6769SOL    HW221207   4.215   2.844   1.607
 6770SOL     OW21208   0.491   0.105   1.736
 6770SOL    HW121209   0.522   0.159   1.814
 6770SOL    HW221210   0.558   0.035   1.715
 6771SOL     OW21211   4.031   2.176   3.139
 6771SOL    HW121212   4.017   2.189   3.237
 6771SOL    HW221213   3.952   2.128   3.101
 6772SOL     OW21214   3.250   1.554   2.928
 6772SOL    HW121215   3.328   1.491   2.935
 6772SOL    HW221216   3.182   1.530   2.997
 6773SOL     OW21217   0.565   4.204   1.973
 6773SOL    HW121218   0.541   4.107   1.968
 6773SOL    HW221219   0.579   4.240   1.881
 6774SOL     OW21220   0.639   1.700   6.584
 6774SOL    HW121221   0.606   1.693   6.678
 6774SOL    HW221222   0.593   1.631   6.527
 6775SOL     OW21223   2.446   4.745   0.366
 6775SOL    HW121224   2.438   4.648   0.388
 6775SOL    HW221225   2.392   4.764   0.283
 6776SOL     OW21226   6.035   5.683   0.038
 6776SOL    HW121227   6.114   5.629   0.067
 6776SOL    HW221228   5.962   5.622   0.010
 6777SOL     OW21229   4.973   4.718   6.694
 6777SOL    HW121230   4.963   4.768   6.608
 6777SOL    HW221231   5.044   4.762   6.750
 6778SOL     OW21232   0.755   6.003   2.899
 6778SOL    HW121233   0.742   5.924   2.960
 6778SOL    HW221234   0.805   6.075   2.949
 6779SOL     OW21235   0.402   4.014   0.342
 6779SOL    HW121236   0.350   3.929   0.343
 6779SOL    HW221237   0.463   4.016   0.422
 6780SOL     OW21238   0.236   2.640   1.975
 6780SOL    HW121239   0.184   2.694   1.908
 6780SOL    HW221240   0.188   2.554   1.993
 6781SOL     OW21241   5.800   4.973   5.821
 6781SOL    HW121242   5.737   4.971   5.898
 6781SOL    HW221243   5.855   4.889   5.820
 6782SOL     OW21244   6.270   1.508   3.041
 6782SOL    HW121245   6.335   1.432   3.044
 6782SOL    HW221246   6.193   1.483   2.982
 6783SOL     OW21247   0.516   5.838   6.606
 6783SOL    HW121248   0.549   5.930   6.626
 6783SOL    HW221249   0.509   5.825   6.507
 6784SOL     OW21250   3.319   3.143   0.147
 6784SOL    HW121251   3.395   3.084   0.119
 6784SOL    HW221252   3.355   3.222   0.196
 6785SOL     OW21253   5.722   6.320   2.523
 6785SOL    HW121254   5.678   6.367   2.446
 6785SOL    HW221255   5.720   6.380   2.603
 6786SOL     OW21256   2.380   3.022   5.947
 6786SOL    HW121257   2.302   3.053   5.893
 6786SOL    HW221258   2.452   2.990   5.885
 6787SOL     OW21259   1.454   4.045   2.367
 6787SOL    HW121260   1.513   3.988   2.311
 6787SOL    HW221261   1.499   4.064   2.454
 6788SOL     OW21262   2.909   3.628   0.734
 6788SOL    HW121263   2.952   3.634   0.824
 6788SOL    HW221264   2.888   3.532   0.713
 6789SOL     OW21265   0.437   6.410   2.536
 6789SOL    HW121266   0.495   6.426   2.616
 6789SOL    HW221267   0.395   6.496   2.507
 6790SOL     OW21268   1.900   2.817   0.192
 6790SOL    HW121269   1.978   2.755   0.190
 6790SOL    HW221270   1.899   2.872   0.108
 6791SOL     OW21271   4.601   3.522   6.130
 6791SOL    HW121272   4.552   3.455   6.187
 6791SOL    HW221273   4.546   3.544   6.050
 6792SOL     OW21274   6.925   5.479   1.065
 6792SOL    HW121275   6.874   5.412   1.011
 6792SOL    HW221276   6.871   5.505   1.145
 6793SOL     OW21277   6.817   2.404   1.743
 6793SOL    HW121278   6.801   2.375   1.649
 6793SOL    HW221279   6.913   2.427   1.755
 6794SOL     OW21280   4.727   1.388   5.498
 6794SOL    HW121281   4.637   1.356   5.471
 6794SOL    HW221282   4.760   1.455   5.431
 6795SOL     OW21283   3.154   5.915   6.862
 6795SOL    HW121284   3.139   5.973   6.942
 6795SOL    HW221285   3.084   5.844   6.859
 6796SOL     OW21286   4.573   1.978   3.216
 6796SOL    HW121287   4.618   1.891   3.193
 6796SOL    HW221288   4.495   1.959   3.275
 6797SOL     OW21289   6.172   3.324   2.605
 6797SOL    HW121290   6.181   3.397   2.538
 6797SOL    HW221291   6.093   3.267   2.582
 6798SOL     OW21292   6.001   6.423   2.440
 6798SOL    HW121293   6.002   6.408   2.538
 6798SOL    HW221294   5.937   6.359   2.397
 6799SOL     OW21295   5.394   6.226   0.718
 6799SOL    HW121296   5.318   6.269   0.669
 6799SOL    HW221297   5.470   6.210   0.655
 6800SOL     OW21298   2.546   4.830   0.038
 6800SOL    HW121299   2.500   4.783   6.980
 6800SOL    HW221300   2.574   4.764   0.107
 6801SOL     OW21301   1.765   2.000   2.315
 6801SOL    HW121302   1.828   2.075   2.292
 6801SOL    HW221303   1.797   1.915   2.273
 6802SOL     OW21304   2.264   6.155   2.162
 6802SOL    HW121305   2.226   6.189   2.076
 6802SOL    HW221306   2.266   6.055   2.161
 6803SOL     OW21307   5.482   1.831   0.024
 6803SOL    HW121308   5.520   1.835   0.116
 6803SOL    HW221309   5.386   1.858   0.027
 6804SOL     OW21310   1.880   6.282   3.599
 6804SOL    HW121311   1.789   6.295   3.560
 6804SOL    HW221312   1.943   6.350   3.561
 6805SOL     OW21313   5.757   0.450   4.715
 6805SOL    HW121314   5.747   0.485   4.622
 6805SOL    HW221315   5.827   0.378   4.716
 6806SOL     OW21316   4.613   1.195   5.683
 6806SOL    HW121317   4.648   1.133   5.614
 6806SOL    HW221318   4.554   1.263   5.640
 6807SOL     OW21319   3.080   2.980   0.402
 6807SOL    HW121320   3.140   2.915   0.356
 6807SOL    HW221321   3.092   3.071   0.363
 6808SOL     OW21322   1.082   3.163   5.682
 6808SOL    HW121323   1.114   3.078   5.723
 6808SOL    HW221324   1.156   3.206   5.630
 6809SOL     OW21325   2.134   3.568   6.663
 6809SOL    HW121326   2.187   3.519   6.594
 6809SOL    HW221327   2.160   3.536   6.754
 6810SOL     OW21328   6.301   1.333   2.057
 6810SOL    HW121329   6.400   1.343   2.059
 6810SOL    HW221330   6.273   1.273   2.133
 6811SOL     OW21331   5.700   5.310   1.557
 6811SOL    HW121332   5.702   5.355   1.646
 6811SOL    HW221333   5.739   5.219   1.565
 6812SOL     OW21334   3.399   3.735   3.326
 6812SOL    HW121335   3.458   3.710   3.249
 6812SOL    HW221336   3.398   3.661   3.393
 6813SOL     OW21337   4.192   3.323   0.749
 6813SOL    HW121338   4.162   3.234   0.784
 6813SOL    HW221339   4.227   3.312   0.656
 6814SOL     OW21340   2.259   3.410   0.837
 6814SOL    HW121341   2.239   3.507   0.820
 6814SOL    HW221342   2.346   3.387   0.794
 6815SOL     OW21343   1.901   0.405   2.039
 6815SOL    HW121344   1.834   0.471   2.004
 6815SOL    HW221345   1.960   0.449   2.106
 6816SOL     OW21346   6.496   4.590   1.276
 6816SOL    HW121347   6.466   4.503   1.237
 6816SOL    HW221348   6.510   4.579   1.374
 6817SOL     OW21349   0.095   1.712   6.037
 6817SOL    HW121350   0.133   1.620   6.048
 6817SOL    HW221351   0.169   1.776   6.015
 6818SOL     OW21352   3.733   6.326   2.901
 6818SOL    HW121353   3.764   6.383   2.977
 6818SOL    HW221354   3.796   6.336   2.824
 6819SOL     OW21355   3.106   1.441   3.838
 6819SOL    HW121356   3.098   1.519   3.776
 6819SOL    HW221357   3.201   1.434   3.870
 6820SOL     OW21358   0.798   4.657   3.497
 6820SOL    HW121359   0.833   4.717   3.425
 6820SOL    HW221360   0.731   4.594   3.458
 6821SOL     OW21361   2.929   1.942   4.564
 6821SOL    HW121362   2.908   1.974   4.656
 6821SOL    HW221363   2.977   2.015   4.514
 6822SOL     OW21364   5.420   1.936   5.827
 6822SOL    HW121365   5.473   1.926   5.743
 6822SOL    HW221366   5.334   1.983   5.807
 6823SOL     OW21367   2.899   3.467   3.134
 6823SOL    HW121368   2.993   3.496   3.150
 6823SOL    HW221369   2.859   3.522   3.060
 6824SOL     OW21370   0.974   3.925   6.851
 6824SOL    HW121371   1.062   3.898   6.811
 6824SOL    HW221372   0.921   3.976   6.782
 6825SOL     OW21373   5.238   0.413   2.649
 6825SOL    HW121374   5.282   0.348   2.586
 6825SOL    HW221375   5.148   0.379   2.676
 6826SOL     OW21376   1.451   3.110   2.864
 6826SOL    HW121377   1.443   3.121   2.765
 6826SOL    HW221378   1.515   3.036   2.885
 6827SOL     OW21379   5.794   5.407   5.274
 6827SOL    HW121380   5.857   5.416   5.350
 6827SOL    HW221381   5.799   5.489   5.216
 6828SOL     OW21382   1.780   2.625   0.975
 6828SOL    HW121383   1.700   2.681   0.993
 6828SOL    HW221384   1.862   2.683   0.971
 6829SOL     OW21385   4.765   5.849   3.800
 6829SOL    HW121386   4.782   5.750   3.800
 6829SOL    HW221387   4.833   5.895   3.856
 6830SOL     OW21388   5.471   2.514   4.076
 6830SOL    HW121389   5.406   2.589   4.074
 6830SOL    HW221390   5.430   2.435   4.122
 6831SOL     OW21391   0.454   0.931   5.971
 6831SOL    HW121392   0.480   1.028   5.968
 6831SOL    HW221393   0.518   0.881   6.030
 6832SOL     OW21394   2.775   5.303   2.295
 6832SOL    HW121395   2.796   5.216   2.250
 6832SOL    HW221396   2.857   5.361   2.296
 6833SOL     OW21397   3.982   4.948   0.401
 6833SOL    HW121398   3.904   4.909   0.352
 6833SOL    HW221399   3.961   5.043   0.425
 6834SOL     OW21400   3.757   5.689   2.216
 6834SOL    HW121401   3.799   5.719   2.302
 6834SOL    HW221402   3.808   5.728   2.139
 6835SOL     OW21403   3.820   0.127   4.899
 6835SOL    HW121404   3.853   0.182   4.822
 6835SOL    HW221405   3.786   0.039   4.866
 6836SOL     OW21406   3.632   6.265   0.148
 6836SOL    HW121407   3.712   6.296   0.201
 6836SOL    HW221408   3.636   6.166   0.137
 6837SOL     OW21409   1.714   3.204   1.959
 6837SOL    HW121410   1.740   3.249   2.044
 6837SOL    HW221411   1.785   3.218   1.891
 6838SOL     OW21412   2.286   1.374   6.907
 6838SOL    HW121413   2.337   1.378   6.822
 6838SOL    HW221414   2.343   1.407   6.982
 6839SOL     OW21415   4.439   1.004   0.999
 6839SOL    HW121416   4.474   1.063   0.927
 6839SOL    HW221417   4.345   0.977   0.978
 6840SOL     OW21418   1.021   1.806   6.316
 6840SOL    HW121419   1.111   1.805   6.360
 6840SOL    HW221420   0.950   1.813   6.385
 6841SOL     OW21421   6.148   3.501   6.451
 6841SOL    HW121422   6.129   3.404   6.469
 6841SOL    HW221423   6.210   3.509   6.373
 6842SOL     OW21424   2.110   4.721   2.856
 6842SOL    HW121425   2.144   4.715   2.949
 6842SOL    HW221426   2.057   4.638   2.835
 6843SOL     OW21427   4.725   6.440   0.016
 6843SOL    HW121428   4.736   6.530   6.992
 6843SOL    HW221429   4.795   6.377   6.997
 6844SOL     OW21430   5.170   0.691   5.811
 6844SOL    HW121431   5.204   0.730   5.896
 6844SOL    HW221432   5.201   0.746   5.734
 6845SOL     OW21433   5.137   1.736   2.269
 6845SOL    HW121434   5.164   1.790   2.348
 6845SOL    HW221435   5.051   1.688   2.289
 6846SOL     OW21436   2.269   3.867   6.819
 6846SOL    HW121437   2.343   3.926   6.786
 6846SOL    HW221438   2.182   3.917   6.814
 6847SOL     OW21439   6.577   3.711   4.166
 6847SOL    HW121440   6.566   3.647   4.090
 6847SOL    HW221441   6.517   3.682   4.242
 6848SOL     OW21442   5.875   4.657   3.228
 6848SOL    HW121443   5.938   4.587   3.261
 6848SOL    HW221444   5.925   4.727   3.178
 6849SOL     OW21445   3.624   4.191   6.790
 6849SOL    HW121446   3.598   4.115   6.731
 6849SOL    HW221447   3.597   4.169   6.884
 6850SOL     OW21448   4.001   1.799   3.867
 6850SOL    HW121449   4.032   1.730   3.933
 6850SOL    HW221450   3.936   1.757   3.803
 6851SOL     OW21451   2.099   3.270   3.776
 6851SOL    HW121452   2.102   3.311   3.685
 6851SOL    HW221453   2.014   3.297   3.822
 6852SOL     OW21454   2.743   4.891   0.386
 6852SOL    HW121455   2.737   4.936   0.296
 6852SOL    HW221456   2.710   4.954   0.456
 6853SOL     OW21457   4.986   3.164   0.015
 6853SOL    HW121458   4.940   3.249   7.005
 6853SOL    HW221459   5.021   3.173   0.108
 6854SOL     OW21460   5.311   6.092   6.398
 6854SOL    HW121461   5.363   6.091   6.313
 6854SOL    HW221462   5.305   6.000   6.435
 6855SOL     OW21463   3.933   5.290   3.434
 6855SOL    HW121464   3.854   5.294   3.496
 6855SOL    HW221465   3.965   5.382   3.414
 6856SOL     OW21466   0.896   1.569   6.818
 6856SOL    HW121467   0.903   1.529   6.726
 6856SOL    HW221468   0.823   1.637   6.819
 6857SOL     OW21469   0.846   3.812   5.268
 6857SOL    HW121470   0.808   3.850   5.183
 6857SOL    HW221471   0.892   3.726   5.248
 6858SOL     OW21472   2.486   3.862   1.718
 6858SOL    HW121473   2.456   3.957   1.724
 6858SOL    HW221474   2.562   3.854   1.654
 6859SOL     OW21475   1.042   1.506   2.266
 6859SOL    HW121476   1.004   1.563   2.339
 6859SOL    HW221477   1.018   1.545   2.178
 6860SOL     OW21478   0.654   6.449   1.915
 6860SOL    HW121479   0.750   6.477   1.918
 6860SOL    HW221480   0.623   6.428   2.008
 6861SOL     OW21481   5.615   2.674   5.049
 6861SOL    HW121482   5.570   2.646   4.964
 6861SOL    HW221483   5.573   2.759   5.082
 6862SOL     OW21484   0.813   4.411   5.081
 6862SOL    HW121485   0.791   4.367   4.994
 6862SOL    HW221486   0.738   4.469   5.109
 6863SOL     OW21487   6.045   0.510   5.543
 6863SOL    HW121488   6.038   0.417   5.580
 6863SOL    HW221489   5.957   0.538   5.506
 6864SOL     OW21490   1.474   3.441   6.187
 6864SOL    HW121491   1.572   3.421   6.191
 6864SOL    HW221492   1.437   3.447   6.279
 6865SOL     OW21493   2.223   6.835   3.661
 6865SOL    HW121494   2.305   6.832   3.717
 6865SOL    HW221495   2.180   6.925   3.668
 6866SOL     OW21496   1.094   4.444   0.906
 6866SOL    HW121497   1.055   4.501   0.978
 6866SOL    HW221498   1.193   4.457   0.902
 6867SOL     OW21499   2.035   3.997   6.796
 6867SOL    HW121500   2.023   3.972   6.700
 6867SOL    HW221501   1.946   4.017   6.837
 6868SOL     OW21502   2.409   5.013   4.246
 6868SOL    HW121503   2.339   5.036   4.179
 6868SOL    HW221504   2.399   4.918   4.275
 6869SOL     OW21505   3.315   0.740   6.226
 6869SOL    HW121506   3.216   0.752   6.217
 6869SOL    HW221507   3.362   0.801   6.162
 6870SOL     OW21508   6.112   2.490   0.778
 6870SOL    HW121509   6.197   2.534   0.751
 6870SOL    HW221510   6.132   2.401   0.820
 6871SOL     OW21511   0.611   3.981   2.302
 6871SOL    HW121512   0.533   4.043   2.295
 6871SOL    HW221513   0.578   3.889   2.324
 6872SOL     OW21514   1.561   3.859   0.579
 6872SOL    HW121515   1.557   3.813   0.491
 6872SOL    HW221516   1.617   3.807   0.643
 6873SOL     OW21517   0.920   4.618   3.743
 6873SOL    HW121518   0.833   4.598   3.789
 6873SOL    HW221519   0.901   4.647   3.649
 6874SOL     OW21520   5.279   6.469   3.255
 6874SOL    HW121521   5.348   6.540   3.270
 6874SOL    HW221522   5.323   6.384   3.228
 6875SOL     OW21523   2.407   1.843   0.024
 6875SOL    HW121524   2.357   1.926   0.002
 6875SOL    HW221525   2.416   1.786   6.960
 6876SOL     OW21526   4.939   5.118   3.625
 6876SOL    HW121527   4.899   5.195   3.576
 6876SOL    HW221528   4.941   5.138   3.723
 6877SOL     OW21529   1.410   3.889   2.657
 6877SOL    HW121530   1.356   3.859   2.578
 6877SOL    HW221531   1.489   3.941   2.625
 6878SOL     OW21532   2.145   0.577   4.351
 6878SOL    HW121533   2.053   0.614   4.345
 6878SOL    HW221534   2.141   0.486   4.392
 6879SOL     OW21535   2.176   1.698   0.722
 6879SOL    HW121536   2.163   1.631   0.649
 6879SOL    HW221537   2.273   1.722   0.728
 6880SOL     OW21538   1.655   5.303   6.515
 6880SOL    HW121539   1.612   5.213   6.504
 6880SOL    HW221540   1.588   5.374   6.497
 6881SOL     OW21541   1.030   2.854   0.626
 6881SOL    HW121542   1.031   2.757   0.652
 6881SOL    HW221543   1.022   2.862   0.527
 6882SOL     OW21544   2.851   6.786   6.457
 6882SOL    HW121545   2.780   6.731   6.501
 6882SOL    HW221546   2.934   6.731   6.445
 6883SOL     OW21547   5.004   0.524   0.003
 6883SOL    HW121548   4.920   0.473   0.020
 6883SOL    HW221549   4.982   0.614   6.984
 6884SOL     OW21550   2.142   4.162   2.996
 6884SOL    HW121551   2.050   4.155   2.959
 6884SOL    HW221552   2.208   4.172   2.921
 6885SOL     OW21553   5.561   5.437   5.001
 6885SOL    HW121554   5.570   5.534   4.979
 6885SOL    HW221555   5.652   5.399   5.018
 6886SOL     OW21556   4.903   1.586   6.968
 6886SOL    HW121557   4.865   1.678   6.963
 6886SOL    HW221558   5.003   1.592   6.975
 6887SOL     OW21559   5.591   6.040   6.022
 6887SOL    HW121560   5.548   5.966   6.074
 6887SOL    HW221561   5.579   6.022   5.924
 6888SOL     OW21562   6.168   5.058   6.424
 6888SOL    HW121563   6.083   5.072   6.374
 6888SOL    HW221564   6.148   5.049   6.522
 6889SOL     OW21565   0.066   2.261   6.626
 6889SOL    HW121566   0.141   2.322   6.601
 6889SOL    HW221567   6.997   2.301   6.596
 6890SOL     OW21568   4.612   4.599   3.079
 6890SOL    HW121569   4.545   4.555   3.139
 6890SOL    HW221570   4.673   4.656   3.133
 6891SOL     OW21571   1.615   1.326   0.589
 6891SOL    HW121572   1.667   1.411   0.589
 6891SOL    HW221573   1.644   1.270   0.667
 6892SOL     OW21574   2.897   0.850   4.769
 6892SOL    HW121575   2.906   0.876   4.673
 6892SOL    HW221576   2.988   0.835   4.808
 6893SOL     OW21577   5.716   3.080   0.875
 6893SOL    HW121578   5.695   3.127   0.789
 6893SOL    HW221579   5.661   3.118   0.949
 6894SOL     OW21580   5.721   5.711   0.243
 6894SOL    HW121581   5.745   5.757   0.329
 6894SOL    HW221582   5.727   5.776   0.168
 6895SOL     OW21583   0.551   6.546   1.603
 6895SOL    HW121584   0.477   6.607   1.576
 6895SOL    HW221585   0.514   6.474   1.662
 6896SOL     OW21586   4.606   1.548   4.766
 6896SOL    HW121587   4.560   1.461   4.754
 6896SOL    HW221588   4.556   1.620   4.717
 6897SOL     OW21589   4.920   3.411   5.185
 6897SOL    HW121590   4.931   3.448   5.277
 6897SOL    HW221591   4.895   3.485   5.122
 6898SOL     OW21592   1.960   0.054   1.269
 6898SOL    HW121593   1.920   0.144   1.287
 6898SOL    HW221594   1.891   7.012   1.227
 6899SOL     OW21595   6.341   5.974   2.177
 6899SOL    HW121596   6.387   5.888   2.198
 6899SOL    HW221597   6.397   6.050   2.210
 6900SOL     OW21598   6.019   3.568   5.477
 6900SOL    HW121599   5.994   3.485   5.427
 6900SOL    HW221600   5.980   3.564   5.569
 6901SOL     OW21601   4.979   4.452   6.801
 6901SOL    HW121602   4.906   4.517   6.780
 6901SOL    HW221603   5.065   4.484   6.759
 6902SOL     OW21604   0.959   6.130   5.769
 6902SOL    HW121605   1.018   6.189   5.824
 6902SOL    HW221606   0.869   6.123   5.813
 6903SOL     OW21607   1.533   5.993   4.643
 6903SOL    HW121608   1.619   6.019   4.687
 6903SOL    HW221609   1.534   5.895   4.622
 6904SOL     OW21610   6.386   6.965   4.887
 6904SOL    HW121611   6.483   6.958   4.914
 6904SOL    HW221612   6.356   6.878   4.849
 6905SOL     OW21613   4.976   6.144   5.886
 6905SOL    HW121614   5.057   6.190   5.849
 6905SOL    HW221615   4.894   6.194   5.858
 6906SOL     OW21616   3.474   2.039   3.530
 6906SOL    HW121617   3.400   2.096   3.495
 6906SOL    HW221618   3.439   1.979   3.602
 6907SOL     OW21619   5.945   2.446   0.540
 6907SOL    HW121620   6.007   2.458   0.617
 6907SOL    HW221621   5.867   2.508   0.550
 6908SOL     OW21622   2.768   4.464   0.460
 6908SOL    HW121623   2.849   4.407   0.475
 6908SOL    HW221624   2.786   4.527   0.384
 6909SOL     OW21625   6.263   5.577   2.031
 6909SOL    HW121626   6.338   5.632   2.068
 6909SOL    HW221627   6.190   5.570   2.098
 6910SOL     OW21628   1.793   2.939   2.769
 6910SOL    HW121629   1.881   2.895   2.786
 6910SOL    HW221630   1.722   2.890   2.820
 6911SOL     OW21631   2.224   6.864   5.418
 6911SOL    HW121632   2.169   6.879   5.336
 6911SOL    HW221633   2.238   6.766   5.432
 6912SOL     OW21634   2.394   3.671   6.966
 6912SOL    HW121635   2.449   3.707   0.024
 6912SOL    HW221636   2.336   3.743   6.929
 6913SOL     OW21637   5.289   6.298   6.101
 6913SOL    HW121638   5.257   6.244   6.023
 6913SOL    HW221639   5.213   6.350   6.139
 6914SOL     OW21640   6.390   2.796   2.760
 6914SOL    HW121641   6.346   2.724   2.814
 6914SOL    HW221642   6.332   2.877   2.761
 6915SOL     OW21643   6.779   3.496   3.784
 6915SOL    HW121644   6.822   3.406   3.774
 6915SOL    HW221645   6.758   3.533   3.694
 6916SOL     OW21646   5.120   5.959   6.665
 6916SOL    HW121647   5.145   5.939   6.760
 6916SOL    HW221648   5.192   5.926   6.604
 6917SOL     OW21649   5.000   6.007   1.580
 6917SOL    HW121650   4.973   6.074   1.512
 6917SOL    HW221651   5.041   5.928   1.535
 6918SOL     OW21652   2.508   3.113   1.028
 6918SOL    HW121653   2.512   3.193   1.087
 6918SOL    HW221654   2.580   3.119   0.958
 6919SOL     OW21655   5.831   6.025   3.495
 6919SOL    HW121656   5.893   6.039   3.572
 6919SOL    HW221657   5.832   5.928   3.469
 6920SOL     OW21658   6.049   1.331   6.140
 6920SOL    HW121659   6.010   1.415   6.177
 6920SOL    HW221660   5.977   1.276   6.098
 6921SOL     OW21661   4.278   0.312   4.299
 6921SOL    HW121662   4.212   0.364   4.244
 6921SOL    HW221663   4.233   0.277   4.381
 6922SOL     OW21664   1.623   4.427   6.071
 6922SOL    HW121665   1.657   4.504   6.016
 6922SOL    HW221666   1.681   4.347   6.055
 6923SOL     OW21667   6.158   0.374   2.558
 6923SOL    HW121668   6.250   0.366   2.597
 6923SOL    HW221669   6.096   0.312   2.604
 6924SOL     OW21670   3.074   6.275   1.587
 6924SOL    HW121671   3.151   6.234   1.636
 6924SOL    HW221672   3.070   6.238   1.494
 6925SOL     OW21673   5.831   6.274   5.506
 6925SOL    HW121674   5.796   6.334   5.578
 6925SOL    HW221675   5.802   6.180   5.525
 6926SOL     OW21676   3.190   2.322   0.284
 6926SOL    HW121677   3.107   2.341   0.232
 6926SOL    HW221678   3.180   2.235   0.332
 6927SOL     OW21679   4.933   0.814   0.657
 6927SOL    HW121680   4.923   0.896   0.600
 6927SOL    HW221681   5.030   0.792   0.669
 6928SOL     OW21682   5.073   5.071   1.205
 6928SOL    HW121683   5.105   5.008   1.135
 6928SOL    HW221684   4.993   5.122   1.172
 6929SOL     OW21685   6.430   5.031   1.593
 6929SOL    HW121686   6.424   4.979   1.508
 6929SOL    HW221687   6.516   5.082   1.595
 6930SOL     OW21688   0.923   0.138   0.779
 6930SOL    HW121689   0.933   0.235   0.801
 6930SOL    HW221690   0.955   0.083   0.856
 6931SOL     OW21691   3.016   3.701   0.994
 6931SOL    HW121692   3.059   3.655   1.072
 6931SOL    HW221693   2.980   3.790   1.023
 6932SOL     OW21694   4.271   5.862   0.070
 6932SOL    HW121695   4.358   5.878   0.117
 6932SOL    HW221696   4.200   5.920   0.110
 6933SOL     OW21697   3.529   6.256   6.705
 6933SOL    HW121698   3.611   6.261   6.648
 6933SOL    HW221699   3.461   6.320   6.670
 6934SOL     OW21700   5.150   4.087   6.821
 6934SOL    HW121701   5.186   4.128   6.737
 6934SOL    HW221702   5.220   4.089   6.892
 6935SOL     OW21703   4.403   5.759   2.077
 6935SOL    HW121704   4.305   5.774   2.081
 6935SOL    HW221705   4.435   5.716   2.162
 6936SOL     OW21706   0.334   1.728   5.319
 6936SOL    HW121707   0.429   1.721   5.289
 6936SOL    HW221708   0.289   1.639   5.309
 6937SOL     OW21709   5.298   5.575   0.012
 6937SOL    HW121710   5.394   5.598   0.031
 6937SOL    HW221711   5.242   5.599   0.091
 6938SOL     OW21712   1.504   0.620   4.968
 6938SOL    HW121713   1.473   0.566   4.890
 6938SOL    HW221714   1.579   0.573   5.014
 6939SOL     OW21715   5.798   3.579   3.503
 6939SOL    HW121716   5.716   3.538   3.462
 6939SOL    HW221717   5.871   3.512   3.506
 6940SOL     OW21718   3.067   5.911   0.468
 6940SOL    HW121719   3.146   5.894   0.526
 6940SOL    HW221720   3.061   6.008   0.447
 6941SOL     OW21721   3.483   3.968   3.425
 6941SOL    HW121722   3.458   3.884   3.377
 6941SOL    HW221723   3.514   3.945   3.517
 6942SOL     OW21724   6.381   6.326   1.654
 6942SOL    HW121725   6.305   6.351   1.715
 6942SOL    HW221726   6.468   6.335   1.703
 6943SOL     OW21727   3.976   4.782   6.636
 6943SOL    HW121728   3.976   4.790   6.736
 6943SOL    HW221729   3.908   4.845   6.598
 6944SOL     OW21730   1.171   4.498   5.202
 6944SOL    HW121731   1.199   4.406   5.174
 6944SOL    HW221732   1.108   4.536   5.135
 6945SOL     OW21733   5.471   1.971   0.755
 6945SOL    HW121734   5.552   1.913   0.763
 6945SOL    HW221735   5.415   1.963   0.837
 6946SOL     OW21736   4.709   5.385   3.232
 6946SOL    HW121737   4.723   5.464   3.173
 6946SOL    HW221738   4.747   5.304   3.188
 6947SOL     OW21739   5.709   4.411   5.283
 6947SOL    HW121740   5.673   4.317   5.282
 6947SOL    HW221741   5.736   4.438   5.191
 6948SOL     OW21742   0.048   4.577   6.716
 6948SOL    HW121743   0.124   4.519   6.684
 6948SOL    HW221744   0.032   4.559   6.813
 6949SOL     OW21745   2.388   2.013   4.379
 6949SOL    HW121746   2.398   1.991   4.476
 6949SOL    HW221747   2.478   2.032   4.339
 6950SOL     OW21748   0.212   0.654   4.439
 6950SOL    HW121749   0.198   0.623   4.345
 6950SOL    HW221750   0.197   0.753   4.444
 6951SOL     OW21751   0.874   4.366   6.168
 6951SOL    HW121752   0.973   4.372   6.181
 6951SOL    HW221753   0.840   4.450   6.126
 6952SOL     OW21754   4.636   5.914   3.564
 6952SOL    HW121755   4.543   5.915   3.601
 6952SOL    HW221756   4.701   5.893   3.637
 6953SOL     OW21757   5.792   1.510   1.187
 6953SOL    HW121758   5.878   1.485   1.143
 6953SOL    HW221759   5.718   1.455   1.147
 6954SOL     OW21760   6.014   4.313   0.218
 6954SOL    HW121761   5.996   4.332   0.121
 6954SOL    HW221762   6.070   4.387   0.256
 6955SOL     OW21763   4.632   6.559   2.946
 6955SOL    HW121764   4.628   6.467   2.985
 6955SOL    HW221765   4.703   6.563   2.876
 6956SOL     OW21766   5.952   5.335   2.380
 6956SOL    HW121767   6.022   5.284   2.331
 6956SOL    HW221768   5.890   5.271   2.426
 6957SOL     OW21769   5.567   5.540   5.654
 6957SOL    HW121770   5.544   5.611   5.721
 6957SOL    HW221771   5.642   5.573   5.596
 6958SOL     OW21772   3.130   3.899   3.574
 6958SOL    HW121773   3.181   3.985   3.581
 6958SOL    HW221774   3.180   3.827   3.622
 6959SOL     OW21775   1.163   4.519   2.645
 6959SOL    HW121776   1.144   4.512   2.743
 6959SOL    HW221777   1.205   4.433   2.613
 6960SOL     OW21778   3.302   4.064   0.673
 6960SOL    HW121779   3.221   4.010   0.696
 6960SOL    HW221780   3.383   4.017   0.709
 6961SOL     OW21781   4.499   2.516   5.036
 6961SOL    HW121782   4.511   2.499   5.134
 6961SOL    HW221783   4.403   2.504   5.012
 6962SOL     OW21784   2.412   6.719   6.406
 6962SOL    HW121785   2.423   6.634   6.355
 6962SOL    HW221786   2.498   6.742   6.453
 6963SOL     OW21787   5.998   5.993   0.718
 6963SOL    HW121788   6.023   5.897   0.734
 6963SOL    HW221789   5.971   6.005   0.623
 6964SOL     OW21790   1.651   1.297   5.399
 6964SOL    HW121791   1.711   1.346   5.336
 6964SOL    HW221792   1.673   1.199   5.396
 6965SOL     OW21793   0.640   1.694   6.889
 6965SOL    HW121794   0.578   1.767   6.919
 6965SOL    HW221795   0.616   1.609   6.936
 6966SOL     OW21796   1.617   6.271   1.092
 6966SOL    HW121797   1.582   6.323   1.015
 6966SOL    HW221798   1.552   6.275   1.168
 6967SOL     OW21799   4.344   1.399   6.529
 6967SOL    HW121800   4.374   1.306   6.553
 6967SOL    HW221801   4.374   1.463   6.599
 6968SOL     OW21802   3.868   6.706   3.088
 6968SOL    HW121803   3.822   6.770   3.026
 6968SOL    HW221804   3.966   6.729   3.092
 6969SOL     OW21805   2.167   1.974   2.170
 6969SOL    HW121806   2.160   2.057   2.115
 6969SOL    HW221807   2.241   1.984   2.237
 6970SOL     OW21808   3.790   5.929   5.574
 6970SOL    HW121809   3.697   5.894   5.590
 6970SOL    HW221810   3.827   5.890   5.490
 6971SOL     OW21811   6.402   4.153   0.320
 6971SOL    HW121812   6.409   4.211   0.402
 6971SOL    HW221813   6.309   4.117   0.314
 6972SOL     OW21814   5.177   3.719   1.278
 6972SOL    HW121815   5.221   3.754   1.361
 6972SOL    HW221816   5.078   3.732   1.285
 6973SOL     OW21817   2.093   2.650   3.364
 6973SOL    HW121818   2.009   2.637   3.310
 6973SOL    HW221819   2.069   2.690   3.453
 6974SOL     OW21820   3.820   3.454   3.213
 6974SOL    HW121821   3.840   3.459   3.115
 6974SOL    HW221822   3.906   3.463   3.265
 6975SOL     OW21823   2.843   5.383   4.866
 6975SOL    HW121824   2.838   5.284   4.857
 6975SOL    HW221825   2.851   5.407   4.963
 6976SOL     OW21826   4.553   4.206   6.341
 6976SOL    HW121827   4.618   4.131   6.351
 6976SOL    HW221828   4.560   4.267   6.420
 6977SOL     OW21829   4.399   5.072   1.760
 6977SOL    HW121830   4.442   5.135   1.824
 6977SOL    HW221831   4.364   5.122   1.681
 6978SOL     OW21832   6.927   3.737   1.759
 6978SOL    HW121833   6.837   3.702   1.781
 6978SOL    HW221834   6.959   3.798   1.832
 6979SOL     OW21835   1.840   2.970   1.890
 6979SOL    HW121836   1.775   3.033   1.932
 6979SOL    HW221837   1.891   2.922   1.961
 6980SOL     OW21838   1.781   5.597   1.834
 6980SOL    HW121839   1.825   5.662   1.771
 6980SOL    HW221840   1.713   5.644   1.889
 6981SOL     OW21841   3.970   2.694   6.779
 6981SOL    HW121842   4.045   2.711   6.844
 6981SOL    HW221843   3.976   2.760   6.704
 6982SOL     OW21844   1.431   0.644   2.723
 6982SOL    HW121845   1.517   0.680   2.687
 6982SOL    HW221846   1.414   0.555   2.683
 6983SOL     OW21847   5.490   0.683   4.436
 6983SOL    HW121848   5.512   0.587   4.419
 6983SOL    HW221849   5.536   0.714   4.519
 6984SOL     OW21850   0.742   2.501   3.537
 6984SOL    HW121851   0.807   2.511   3.462
 6984SOL    HW221852   0.788   2.460   3.615
 6985SOL     OW21853   5.610   3.527   0.052
 6985SOL    HW121854   5.649   3.458   7.009
 6985SOL    HW221855   5.512   3.510   0.063
 6986SOL     OW21856   5.009   4.598   5.472
 6986SOL    HW121857   4.911   4.580   5.469
 6986SOL    HW221858   5.057   4.518   5.509
 6987SOL     OW21859   0.248   0.803   6.500
 6987SOL    HW121860   0.194   0.732   6.453
 6987SOL    HW221861   0.297   0.762   6.577
 6988SOL     OW21862   2.971   1.574   6.445
 6988SOL    HW121863   3.070   1.580   6.433
 6988SOL    HW221864   2.951   1.548   6.540
 6989SOL     OW21865   0.565   5.283   2.195
 6989SOL    HW121866   0.602   5.349   2.261
 6989SOL    HW221867   0.489   5.233   2.237
 6990SOL     OW21868   3.903   3.085   0.663
 6990SOL    HW121869   4.000   3.106   0.649
 6990SOL    HW221870   3.879   3.102   0.759
 6991SOL     OW21871   6.303   3.028   2.586
 6991SOL    HW121872   6.367   3.009   2.512
 6991SOL    HW221873   6.270   3.122   2.580
 6992SOL     OW21874   1.455   6.023   0.329
 6992SOL    HW121875   1.496   6.099   0.379
 6992SOL    HW221876   1.411   6.057   0.246
 6993SOL     OW21877   4.933   1.615   1.289
 6993SOL    HW121878   4.921   1.710   1.318
 6993SOL    HW221879   4.876   1.596   1.209
 6994SOL     OW21880   2.606   0.819   3.854
 6994SOL    HW121881   2.628   0.797   3.759
 6994SOL    HW221882   2.507   0.819   3.867
 6995SOL     OW21883   0.428   4.125   1.179
 6995SOL    HW121884   0.448   4.211   1.226
 6995SOL    HW221885   0.449   4.048   1.240
 6996SOL     OW21886   1.317   1.422   6.543
 6996SOL    HW121887   1.305   1.378   6.632
 6996SOL    HW221888   1.390   1.377   6.492
 6997SOL     OW21889   5.647   5.385   6.001
 6997SOL    HW121890   5.709   5.336   6.062
 6997SOL    HW221891   5.584   5.320   5.959
 6998SOL     OW21892   6.729   1.387   0.033
 6998SOL    HW121893   6.708   1.417   6.958
 6998SOL    HW221894   6.738   1.466   0.093
 6999SOL     OW21895   0.012   3.008   6.950
 6999SOL    HW121896   0.059   2.951   0.000
 6999SOL    HW221897   6.998   3.092   6.994
 7000SOL     OW21898   6.800   6.095   3.277
 7000SOL    HW121899   6.783   6.067   3.183
 7000SOL    HW221900   6.860   6.176   3.278
 7001SOL     OW21901   0.234   2.306   3.820
 7001SOL    HW121902   0.293   2.386   3.832
 7001SOL    HW221903   0.158   2.310   3.885
 7002SOL     OW21904   0.845   5.480   2.975
 7002SOL    HW121905   0.840   5.557   3.037
 7002SOL    HW221906   0.883   5.510   2.887
 7003SOL     OW21907   6.793   4.130   0.545
 7003SOL    HW121908   6.852   4.109   0.623
 7003SOL    HW221909   6.698   4.107   0.567
 7004SOL     OW21910   1.756   6.301   0.704
 7004SOL    HW121911   1.738   6.397   0.724
 7004SOL    HW221912   1.847   6.277   0.735
 7005SOL     OW21913   1.251   6.229   1.125
 7005SOL    HW121914   1.298   6.152   1.081
 7005SOL    HW221915   1.299   6.253   1.209
 7006SOL     OW21916   1.056   6.914   3.884
 7006SOL    HW121917   1.034   6.948   3.792
 7006SOL    HW221918   1.004   6.830   3.901
 7007SOL     OW21919   2.425   0.724   5.791
 7007SOL    HW121920   2.428   0.675   5.879
 7007SOL    HW221921   2.331   0.746   5.769
 7008SOL     OW21922   5.305   3.940   2.860
 7008SOL    HW121923   5.307   4.040   2.858
 7008SOL    HW221924   5.253   3.907   2.781
 7009SOL     OW21925   4.761   5.635   2.365
 7009SOL    HW121926   4.856   5.657   2.382
 7009SOL    HW221927   4.724   5.695   2.293
 7010SOL     OW21928   5.370   3.643   1.745
 7010SOL    HW121929   5.412   3.614   1.831
 7010SOL    HW221930   5.337   3.562   1.696
 7011SOL     OW21931   3.315   6.496   6.889
 7011SOL    HW121932   3.405   6.511   6.849
 7011SOL    HW221933   3.325   6.446   6.975
 7012SOL     OW21934   6.448   2.864   0.641
 7012SOL    HW121935   6.452   2.788   0.576
 7012SOL    HW221936   6.353   2.881   0.668
 7013SOL     OW21937   2.983   1.861   0.288
 7013SOL    HW121938   2.988   1.849   0.387
 7013SOL    HW221939   2.888   1.870   0.260
 7014SOL     OW21940   5.927   3.451   1.005
 7014SOL    HW121941   5.969   3.414   0.922
 7014SOL    HW221942   5.845   3.398   1.027
 7015SOL     OW21943   5.245   6.176   1.170
 7015SOL    HW121944   5.177   6.104   1.150
 7015SOL    HW221945   5.199   6.255   1.209
 7016SOL     OW21946   3.280   5.209   0.937
 7016SOL    HW121947   3.281   5.125   0.883
 7016SOL    HW221948   3.223   5.195   1.019
 7017SOL     OW21949   5.928   4.852   4.801
 7017SOL    HW121950   5.884   4.808   4.723
 7017SOL    HW221951   5.925   4.791   4.880
 7018SOL     OW21952   5.248   3.607   4.365
 7018SOL    HW121953   5.181   3.570   4.430
 7018SOL    HW221954   5.337   3.566   4.382
 7019SOL     OW21955   3.930   5.695   2.450
 7019SOL    HW121956   3.918   5.610   2.502
 7019SOL    HW221957   4.000   5.751   2.493
 7020SOL     OW21958   0.442   2.914   6.491
 7020SOL    HW121959   0.355   2.934   6.446
 7020SOL    HW221960   0.432   2.924   6.590
 7021SOL     OW21961   0.694   2.229   4.819
 7021SOL    HW121962   0.777   2.285   4.818
 7021SOL    HW221963   0.616   2.286   4.842
 7022SOL     OW21964   3.312   1.776   0.757
 7022SOL    HW121965   3.223   1.735   0.736
 7022SOL    HW221966   3.377   1.704   0.781
 7023SOL     OW21967   0.427   1.964   0.268
 7023SOL    HW121968   0.487   1.945   0.346
 7023SOL    HW221969   0.378   2.050   0.284
 7024SOL     OW21970   4.042   3.178   4.690
 7024SOL    HW121971   4.060   3.086   4.655
 7024SOL    HW221972   4.042   3.243   4.614
 7025SOL     OW21973   3.339   0.323   0.901
 7025SOL    HW121974   3.314   0.408   0.947
 7025SOL    HW221975   3.417   0.282   0.949
 7026SOL     OW21976   3.613   2.703   1.357
 7026SOL    HW121977   3.551   2.715   1.435
 7026SOL    HW221978   3.559   2.689   1.274
 7027SOL     OW21979   2.456   5.398   2.963
 7027SOL    HW121980   2.467   5.355   2.874
 7027SOL    HW221981   2.363   5.384   2.997
 7028SOL     OW21982   2.877   0.475   3.675
 7028SOL    HW121983   2.873   0.402   3.607
 7028SOL    HW221984   2.970   0.484   3.711
 7029SOL     OW21985   3.178   3.668   3.755
 7029SOL    HW121986   3.198   3.679   3.852
 7029SOL    HW221987   3.079   3.667   3.741
 7030SOL     OW21988   6.732   1.258   5.060
 7030SOL    HW121989   6.811   1.244   5.120
 7030SOL    HW221990   6.720   1.355   5.041
 7031SOL     OW21991   4.430   6.909   0.588
 7031SOL    HW121992   4.497   6.979   0.612
 7031SOL    HW221993   4.410   6.915   0.490
 7032SOL     OW21994   4.594   5.838   4.392
 7032SOL    HW121995   4.619   5.933   4.376
 7032SOL    HW221996   4.673   5.779   4.376
 7033SOL     OW21997   1.953   1.923   4.900
 7033SOL    HW121998   1.926   1.954   4.991
 7033SOL    HW221999   1.989   2.001   4.848
 7034SOL     OW22000   6.596   0.670   3.612
 7034SOL    HW122001   6.599   0.766   3.640
 7034SOL    HW222002   6.616   0.612   3.691
 7035SOL     OW22003   1.878   0.340   0.405
 7035SOL    HW122004   1.827   0.261   0.441
 7035SOL    HW222005   1.939   0.309   0.332
 7036SOL     OW22006   6.448   1.846   2.723
 7036SOL    HW122007   6.543   1.866   2.698
 7036SOL    HW222008   6.445   1.759   2.772
 7037SOL     OW22009   1.163   0.364   5.933
 7037SOL    HW122010   1.212   0.281   5.959
 7037SOL    HW222011   1.093   0.384   6.002
 7038SOL     OW22012   1.291   4.398   6.840
 7038SOL    HW122013   1.380   4.403   6.886
 7038SOL    HW222014   1.219   4.392   6.909
 7039SOL     OW22015   0.252   6.513   2.116
 7039SOL    HW122016   0.211   6.548   2.032
 7039SOL    HW222017   0.224   6.418   2.129
 7040SOL     OW22018   5.039   3.496   4.488
 7040SOL    HW122019   4.999   3.406   4.470
 7040SOL    HW222020   5.022   3.521   4.583
 7041SOL     OW22021   1.685   6.669   4.216
 7041SOL    HW122022   1.749   6.700   4.146
 7041SOL    HW222023   1.700   6.721   4.301
 7042SOL     OW22024   5.220   6.137   5.521
 7042SOL    HW122025   5.265   6.221   5.550
 7042SOL    HW222026   5.226   6.069   5.595
 7043SOL     OW22027   2.279   4.994   1.047
 7043SOL    HW122028   2.332   5.068   1.008
 7043SOL    HW222029   2.294   4.991   1.146
 7044SOL     OW22030   5.011   6.635   5.012
 7044SOL    HW122031   5.070   6.715   5.013
 7044SOL    HW222032   4.918   6.662   4.986
 7045SOL     OW22033   6.588   6.371   1.812
 7045SOL    HW122034   6.682   6.364   1.847
 7045SOL    HW222035   6.533   6.427   1.874
 7046SOL     OW22036   2.735   1.765   4.391
 7046SOL    HW122037   2.758   1.801   4.301
 7046SOL    HW222038   2.764   1.830   4.462
 7047SOL     OW22039   1.376   6.525   0.738
 7047SOL    HW122040   1.397   6.510   0.642
 7047SOL    HW222041   1.332   6.614   0.749
 7048SOL     OW22042   0.068   6.124   4.657
 7048SOL    HW122043   0.072   6.148   4.560
 7048SOL    HW222044   0.117   6.192   4.710
 7049SOL     OW22045   3.873   1.384   3.276
 7049SOL    HW122046   3.971   1.372   3.261
 7049SOL    HW222047   3.835   1.303   3.320
 7050SOL     OW22048   3.921   4.022   1.193
 7050SOL    HW122049   3.959   4.062   1.110
 7050SOL    HW222050   3.993   3.972   1.242
 7051SOL     OW22051   0.515   0.824   1.866
 7051SOL    HW122052   0.526   0.917   1.830
 7051SOL    HW222053   0.418   0.806   1.882
 7052SOL     OW22054   4.893   0.495   2.889
 7052SOL    HW122055   4.809   0.448   2.917
 7052SOL    HW222056   4.961   0.489   2.962
 7053SOL     OW22057   2.118   3.374   3.444
 7053SOL    HW122058   2.119   3.474   3.456
 7053SOL    HW222059   2.023   3.343   3.438
 7054SOL     OW22060   6.264   1.097   0.241
 7054SOL    HW122061   6.342   1.055   0.194
 7054SOL    HW222062   6.204   1.025   0.276
 7055SOL     OW22063   2.564   1.399   0.269
 7055SOL    HW122064   2.584   1.431   0.362
 7055SOL    HW222065   2.650   1.374   0.224
 7056SOL     OW22066   0.392   5.375   1.158
 7056SOL    HW122067   0.316   5.440   1.159
 7056SOL    HW222068   0.371   5.298   1.220
 7057SOL     OW22069   2.296   5.439   4.324
 7057SOL    HW122070   2.249   5.451   4.412
 7057SOL    HW222071   2.340   5.350   4.322
 7058SOL     OW22072   5.406   2.876   6.378
 7058SOL    HW122073   5.458   2.908   6.299
 7058SOL    HW222074   5.308   2.882   6.359
 7059SOL     OW22075   1.995   0.502   5.335
 7059SOL    HW122076   1.921   0.484   5.400
 7059SOL    HW222077   1.958   0.542   5.252
 7060SOL     OW22078   3.496   1.116   1.132
 7060SOL    HW122079   3.435   1.053   1.180
 7060SOL    HW222080   3.579   1.067   1.104
 7061SOL     OW22081   0.568   1.450   1.559
 7061SOL    HW122082   0.495   1.447   1.627
 7061SOL    HW222083   0.652   1.483   1.602
 7062SOL     OW22084   3.410   0.711   3.648
 7062SOL    HW122085   3.436   0.801   3.612
 7062SOL    HW222086   3.482   0.645   3.627
 7063SOL     OW22087   0.467   0.604   1.472
 7063SOL    HW122088   0.564   0.627   1.458
 7063SOL    HW222089   0.411   0.685   1.457
 7064SOL     OW22090   3.941   1.659   5.325
 7064SOL    HW122091   3.873   1.586   5.329
 7064SOL    HW222092   3.902   1.743   5.362
 7065SOL     OW22093   4.178   5.567   5.140
 7065SOL    HW122094   4.228   5.498   5.088
 7065SOL    HW222095   4.216   5.574   5.232
 7066SOL     OW22096   3.590   0.279   0.407
 7066SOL    HW122097   3.517   0.211   0.411
 7066SOL    HW222098   3.678   0.233   0.413
 7067SOL     OW22099   1.782   3.574   6.751
 7067SOL    HW122100   1.691   3.575   6.792
 7067SOL    HW222101   1.850   3.593   6.821
 7068SOL     OW22102   5.145   3.860   3.954
 7068SOL    HW122103   5.189   3.946   3.978
 7068SOL    HW222104   5.059   3.878   3.907
 7069SOL     OW22105   5.687   0.517   6.663
 7069SOL    HW122106   5.758   0.461   6.619
 7069SOL    HW222107   5.597   0.488   6.631
 7070SOL     OW22108   6.948   0.339   4.978
 7070SOL    HW122109   6.947   0.275   4.901
 7070SOL    HW222110   0.024   0.345   5.014
 7071SOL     OW22111   4.820   5.534   6.557
 7071SOL    HW122112   4.839   5.456   6.497
 7071SOL    HW222113   4.721   5.547   6.563
 7072SOL     OW22114   0.869   3.481   6.272
 7072SOL    HW122115   0.895   3.386   6.287
 7072SOL    HW222116   0.883   3.506   6.177
 7073SOL     OW22117   4.422   1.577   4.177
 7073SOL    HW122118   4.433   1.656   4.237
 7073SOL    HW222119   4.508   1.528   4.170
 7074SOL     OW22120   5.463   4.447   3.270
 7074SOL    HW122121   5.417   4.407   3.349
 7074SOL    HW222122   5.401   4.445   3.191
 7075SOL     OW22123   2.861   4.818   3.213
 7075SOL    HW122124   2.812   4.887   3.161
 7075SOL    HW222125   2.952   4.854   3.238
 7076SOL     OW22126   5.677   2.195   1.809
 7076SOL    HW122127   5.617   2.258   1.758
 7076SOL    HW222128   5.652   2.101   1.787
 7077SOL     OW22129   3.756   5.454   1.901
 7077SOL    HW122130   3.823   5.528   1.897
 7077SOL    HW222131   3.671   5.483   1.859
 7078SOL     OW22132   5.772   0.793   6.985
 7078SOL    HW122133   5.852   0.824   6.935
 7078SOL    HW222134   5.758   0.695   6.968
 7079SOL     OW22135   1.394   6.530   4.822
 7079SOL    HW122136   1.426   6.436   4.837
 7079SOL    HW222137   1.364   6.540   4.727
 7080SOL     OW22138   3.960   2.084   5.727
 7080SOL    HW122139   3.932   2.136   5.808
 7080SOL    HW222140   3.917   1.994   5.729
 7081SOL     OW22141   1.784   0.131   0.106
 7081SOL    HW122142   1.831   0.195   0.046
 7081SOL    HW222143   1.704   0.175   0.146
 7082SOL     OW22144   0.150   4.129   3.148
 7082SOL    HW122145   0.135   4.073   3.067
 7082SOL    HW222146   0.142   4.072   3.230
 7083SOL     OW22147   5.583   2.649   2.900
 7083SOL    HW122148   5.498   2.614   2.941
 7083SOL    HW222149   5.616   2.583   2.832
 7084SOL     OW22150   1.246   5.762   6.743
 7084SOL    HW122151   1.169   5.800   6.692
 7084SOL    HW222152   1.216   5.680   6.792
 7085SOL     OW22153   0.523   3.453   2.123
 7085SOL    HW122154   0.462   3.526   2.155
 7085SOL    HW222155   0.617   3.485   2.124
 7086SOL     OW22156   5.111   1.113   3.903
 7086SOL    HW122157   5.063   1.187   3.856
 7086SOL    HW222158   5.143   1.146   3.992
 7087SOL     OW22159   4.955   3.793   2.791
 7087SOL    HW122160   5.044   3.819   2.754
 7087SOL    HW222161   4.883   3.848   2.747
 7088SOL     OW22162   5.871   2.033   5.159
 7088SOL    HW122163   5.893   1.969   5.233
 7088SOL    HW222164   5.916   2.004   5.075
 7089SOL     OW22165   2.891   5.849   1.725
 7089SOL    HW122166   2.851   5.892   1.806
 7089SOL    HW222167   2.854   5.891   1.642
 7090SOL     OW22168   4.541   3.043   1.317
 7090SOL    HW122169   4.499   3.010   1.402
 7090SOL    HW222170   4.599   2.970   1.279
 7091SOL     OW22171   0.583   6.186   0.169
 7091SOL    HW122172   0.507   6.176   0.233
 7091SOL    HW222173   0.565   6.131   0.087
 7092SOL     OW22174   4.446   0.543   6.396
 7092SOL    HW122175   4.376   0.483   6.358
 7092SOL    HW222176   4.403   0.618   6.446
 7093SOL     OW22177   3.289   3.049   1.182
 7093SOL    HW122178   3.231   3.103   1.121
 7093SOL    HW222179   3.233   2.984   1.234
 7094SOL     OW22180   3.275   0.398   6.241
 7094SOL    HW122181   3.176   0.413   6.243
 7094SOL    HW222182   3.316   0.460   6.174
 7095SOL     OW22183   2.266   4.732   4.642
 7095SOL    HW122184   2.276   4.829   4.621
 7095SOL    HW222185   2.276   4.719   4.741
 7096SOL     OW22186   6.821   0.331   0.977
 7096SOL    HW122187   6.778   0.417   0.950
 7096SOL    HW222188   6.858   0.286   0.896
 7097SOL     OW22189   4.657   1.437   2.126
 7097SOL    HW122190   4.746   1.481   2.138
 7097SOL    HW222191   4.646   1.366   2.196
 7098SOL     OW22192   1.018   0.036   3.633
 7098SOL    HW122193   1.076   0.118   3.632
 7098SOL    HW222194   0.933   0.056   3.681
 7099SOL     OW22195   2.998   1.949   4.014
 7099SOL    HW122196   3.069   2.016   3.992
 7099SOL    HW222197   3.038   1.873   4.065
 7100SOL     OW22198   6.654   3.878   1.827
 7100SOL    HW122199   6.698   3.967   1.834
 7100SOL    HW222200   6.572   3.885   1.770
 7101SOL     OW22201   2.384   6.231   5.134
 7101SOL    HW122202   2.390   6.237   5.234
 7101SOL    HW222203   2.476   6.225   5.095
 7102SOL     OW22204   5.807   0.994   2.377
 7102SOL    HW122205   5.728   0.932   2.375
 7102SOL    HW222206   5.859   0.984   2.292
 7103SOL     OW22207   5.065   3.505   3.214
 7103SOL    HW122208   5.030   3.568   3.146
 7103SOL    HW222209   5.157   3.475   3.189
 7104SOL     OW22210   5.138   2.833   3.863
 7104SOL    HW122211   5.237   2.824   3.855
 7104SOL    HW222212   5.105   2.901   3.798
 7105SOL     OW22213   3.748   4.075   3.690
 7105SOL    HW122214   3.662   4.110   3.727
 7105SOL    HW222215   3.732   3.985   3.649
 7106SOL     OW22216   3.127   2.194   1.564
 7106SOL    HW122217   3.083   2.280   1.537
 7106SOL    HW222218   3.105   2.175   1.660
 7107SOL     OW22219   4.191   0.414   6.513
 7107SOL    HW122220   4.226   0.467   6.591
 7107SOL    HW222221   4.106   0.368   6.540
 7108SOL     OW22222   4.812   0.824   2.413
 7108SOL    HW122223   4.783   0.766   2.488
 7108SOL    HW222224   4.783   0.783   2.326
 7109SOL     OW22225   2.473   5.634   6.722
 7109SOL    HW122226   2.474   5.716   6.780
 7109SOL    HW222227   2.566   5.612   6.693
 7110SOL     OW22228   3.693   6.881   4.198
 7110SOL    HW122229   3.734   6.792   4.184
 7110SOL    HW222230   3.759   6.953   4.177
 7111SOL     OW22231   0.181   0.709   5.141
 7111SOL    HW122232   0.104   0.773   5.147
 7111SOL    HW222233   0.246   0.744   5.073
 7112SOL     OW22234   1.153   5.209   4.957
 7112SOL    HW122235   1.076   5.162   4.915
 7112SOL    HW222236   1.139   5.212   5.057
 7113SOL     OW22237   3.945   6.547   5.285
 7113SOL    HW122238   3.865   6.556   5.345
 7113SOL    HW222239   3.958   6.450   5.262
 7114SOL     OW22240   5.618   4.408   0.842
 7114SOL    HW122241   5.586   4.372   0.754
 7114SOL    HW222242   5.628   4.333   0.907
 7115SOL     OW22243   6.103   4.042   6.183
 7115SOL    HW122244   6.121   4.059   6.087
 7115SOL    HW222245   6.017   4.084   6.210
 7116SOL     OW22246   6.294   3.803   4.206
 7116SOL    HW122247   6.381   3.797   4.255
 7116SOL    HW222248   6.302   3.759   4.117
 7117SOL     OW22249   5.305   0.378   3.206
 7117SOL    HW122250   5.363   0.443   3.255
 7117SOL    HW222251   5.309   0.397   3.108
 7118SOL     OW22252   3.653   4.483   5.604
 7118SOL    HW122253   3.604   4.396   5.590
 7118SOL    HW222254   3.718   4.472   5.679
 7119SOL     OW22255   3.333   0.112   4.858
 7119SOL    HW122256   3.247   0.074   4.894
 7119SOL    HW222257   3.396   0.128   4.934
 7120SOL     OW22258   4.473   0.539   0.427
 7120SOL    HW122259   4.512   0.525   0.518
 7120SOL    HW222260   4.545   0.527   0.358
 7121SOL     OW22261   1.442   6.217   1.743
 7121SOL    HW122262   1.429   6.165   1.828
 7121SOL    HW222263   1.405   6.166   1.666
 7122SOL     OW22264   3.456   1.803   0.007
 7122SOL    HW122265   3.460   1.805   0.107
 7122SOL    HW222266   3.458   1.708   6.993
 7123SOL     OW22267   5.418   5.177   6.010
 7123SOL    HW122268   5.384   5.083   6.009
 7123SOL    HW222269   5.341   5.241   6.007
 7124SOL     OW22270   1.021   1.869   1.169
 7124SOL    HW122271   0.981   1.866   1.261
 7124SOL    HW222272   1.002   1.784   1.121
 7125SOL     OW22273   0.549   6.260   2.329
 7125SOL    HW122274   0.492   6.215   2.260
 7125SOL    HW222275   0.491   6.303   2.398
 7126SOL     OW22276   3.226   5.499   1.000
 7126SOL    HW122277   3.236   5.534   0.907
 7126SOL    HW222278   3.231   5.399   1.000
 7127SOL     OW22279   2.624   6.402   6.078
 7127SOL    HW122280   2.616   6.303   6.092
 7127SOL    HW222281   2.672   6.420   5.992
 7128SOL     OW22282   3.980   4.504   6.869
 7128SOL    HW122283   3.935   4.529   6.954
 7128SOL    HW222284   4.074   4.540   6.868
 7129SOL     OW22285   0.667   6.875   0.361
 7129SOL    HW122286   0.612   6.942   0.411
 7129SOL    HW222287   0.683   6.795   0.420
 7130SOL     OW22288   3.383   6.476   3.860
 7130SOL    HW122289   3.330   6.474   3.944
 7130SOL    HW222290   3.328   6.516   3.787
 7131SOL     OW22291   2.324   1.599   1.706
 7131SOL    HW122292   2.319   1.697   1.728
 7131SOL    HW222293   2.232   1.563   1.691
 7132SOL     OW22294   5.342   4.384   0.426
 7132SOL    HW122295   5.276   4.358   0.496
 7132SOL    HW222296   5.433   4.394   0.467
 7133SOL     OW22297   5.234   5.896   2.532
 7133SOL    HW122298   5.204   5.927   2.622
 7133SOL    HW222299   5.319   5.845   2.542
 7134SOL     OW22300   4.690   5.334   0.089
 7134SOL    HW122301   4.732   5.343   7.016
 7134SOL    HW222302   4.760   5.341   0.159
 7135SOL     OW22303   1.825   3.448   1.411
 7135SOL    HW122304   1.797   3.353   1.397
 7135SOL    HW222305   1.768   3.509   1.356
 7136SOL     OW22306   1.462   1.830   2.026
 7136SOL    HW122307   1.473   1.738   1.988
 7136SOL    HW222308   1.548   1.879   2.019
 7137SOL     OW22309   2.867   1.687   1.772
 7137SOL    HW122310   2.871   1.786   1.782
 7137SOL    HW222311   2.873   1.662   1.675
 7138SOL     OW22312   0.830   2.362   0.415
 7138SOL    HW122313   0.803   2.453   0.384
 7138SOL    HW222314   0.928   2.360   0.433
 7139SOL     OW22315   5.805   6.342   0.661
 7139SOL    HW122316   5.818   6.263   0.722
 7139SOL    HW222317   5.839   6.319   0.570
 7140SOL     OW22318   6.028   3.852   0.194
 7140SOL    HW122319   6.042   3.930   0.133
 7140SOL    HW222320   5.931   3.830   0.200
 7141SOL     OW22321   3.227   0.539   1.045
 7141SOL    HW122322   3.242   0.506   1.139
 7141SOL    HW222323   3.130   0.557   1.031
 7142SOL     OW22324   3.606   0.613   4.528
 7142SOL    HW122325   3.533   0.622   4.596
 7142SOL    HW222326   3.634   0.703   4.497
 7143SOL     OW22327   2.643   3.716   6.757
 7143SOL    HW122328   2.672   3.728   6.662
 7143SOL    HW222329   2.558   3.767   6.772
 7144SOL     OW22330   6.558   1.041   6.004
 7144SOL    HW122331   6.556   1.068   5.908
 7144SOL    HW222332   6.476   0.988   6.026
 7145SOL     OW22333   5.238   1.861   6.250
 7145SOL    HW122334   5.321   1.810   6.226
 7145SOL    HW222335   5.179   1.803   6.307
 7146SOL     OW22336   1.317   1.975   6.058
 7146SOL    HW122337   1.350   2.008   5.969
 7146SOL    HW222338   1.240   2.031   6.088
 7147SOL     OW22339   6.296   6.830   1.889
 7147SOL    HW122340   6.254   6.773   1.819
 7147SOL    HW222341   6.337   6.911   1.846
 7148SOL     OW22342   5.719   6.921   1.197
 7148SOL    HW122343   5.787   6.923   1.123
 7148SOL    HW222344   5.699   6.826   1.221
 7149SOL     OW22345   5.610   4.218   5.887
 7149SOL    HW122346   5.589   4.162   5.967
 7149SOL    HW222347   5.626   4.159   5.808
 7150SOL     OW22348   3.112   3.392   6.633
 7150SOL    HW122349   3.191   3.398   6.573
 7150SOL    HW222350   3.085   3.296   6.643
 7151SOL     OW22351   4.169   1.237   0.225
 7151SOL    HW122352   4.136   1.288   0.146
 7151SOL    HW222353   4.264   1.209   0.209
 7152SOL     OW22354   6.492   0.865   6.590
 7152SOL    HW122355   6.507   0.902   6.498
 7152SOL    HW222356   6.580   0.848   6.634
 7153SOL     OW22357   3.633   5.686   0.303
 7153SOL    HW122358   3.680   5.700   0.390
 7153SOL    HW222359   3.698   5.652   0.234
 7154SOL     OW22360   3.711   1.768   1.555
 7154SOL    HW122361   3.686   1.753   1.650
 7154SOL    HW222362   3.682   1.690   1.500
 7155SOL     OW22363   1.250   1.345   1.627
 7155SOL    HW122364   1.192   1.382   1.555
 7155SOL    HW222365   1.195   1.327   1.708
 7156SOL     OW22366   6.158   3.049   5.466
 7156SOL    HW122367   6.176   3.147   5.475
 7156SOL    HW222368   6.145   3.009   5.557
 7157SOL     OW22369   6.982   4.073   6.108
 7157SOL    HW122370   0.050   4.090   6.156
 7157SOL    HW222371   6.918   4.148   6.126
 7158SOL     OW22372   4.748   6.884   4.111
 7158SOL    HW122373   4.709   6.974   4.134
 7158SOL    HW222374   4.675   6.824   4.079
 7159SOL     OW22375   7.007   6.260   3.584
 7159SOL    HW122376   0.033   6.249   3.494
 7159SOL    HW222377   6.914   6.224   3.579
 7160SOL     OW22378   6.429   0.006   3.667
 7160SOL    HW122379   6.500   6.978   3.613
 7160SOL    HW222380   6.354   0.034   3.608
 7161SOL     OW22381   3.933   3.567   2.970
 7161SOL    HW122382   3.949   3.663   2.995
 7161SOL    HW222383   3.928   3.559   2.871
 7162SOL     OW22384   0.536   5.949   1.651
 7162SOL    HW122385   0.621   5.979   1.693
 7162SOL    HW222386   0.548   5.856   1.615
 7163SOL     OW22387   6.822   0.896   0.767
 7163SOL    HW122388   6.745   0.947   0.805
 7163SOL    HW222389   6.907   0.926   0.811
 7164SOL     OW22390   2.110   1.010   6.871
 7164SOL    HW122391   2.094   1.066   6.952
 7164SOL    HW222392   2.209   0.999   6.857
 7165SOL     OW22393   6.372   2.033   0.768
 7165SOL    HW122394   6.331   2.000   0.853
 7165SOL    HW222395   6.309   2.017   0.692
 7166SOL     OW22396   6.906   5.837   5.978
 7166SOL    HW122397   6.927   5.934   5.988
 7166SOL    HW222398   6.985   5.782   6.004
 7167SOL     OW22399   6.405   2.548   4.961
 7167SOL    HW122400   6.426   2.503   5.047
 7167SOL    HW222401   6.480   2.534   4.897
 7168SOL     OW22402   1.952   1.028   1.720
 7168SOL    HW122403   2.003   0.968   1.658
 7168SOL    HW222404   2.013   1.101   1.752
 7169SOL     OW22405   2.126   4.063   6.297
 7169SOL    HW122406   2.175   4.006   6.231
 7169SOL    HW222407   2.029   4.066   6.271
 7170SOL     OW22408   3.890   1.680   1.086
 7170SOL    HW122409   3.974   1.631   1.110
 7170SOL    HW222410   3.811   1.623   1.108
 7171SOL     OW22411   6.938   4.086   0.777
 7171SOL    HW122412   6.860   4.048   0.827
 7171SOL    HW222413   7.015   4.021   0.781
 7172SOL     OW22414   1.004   2.662   3.898
 7172SOL    HW122415   0.980   2.752   3.862
 7172SOL    HW222416   0.930   2.629   3.957
 7173SOL     OW22417   4.609   5.179   5.987
 7173SOL    HW122418   4.670   5.100   5.993
 7173SOL    HW222419   4.651   5.249   5.928
 7174SOL     OW22420   6.706   4.630   1.976
 7174SOL    HW122421   6.691   4.682   2.060
 7174SOL    HW222422   6.652   4.546   1.978
 7175SOL     OW22423   6.695   3.594   5.938
 7175SOL    HW122424   6.665   3.564   6.029
 7175SOL    HW222425   6.678   3.692   5.929
 7176SOL     OW22426   0.475   0.261   5.693
 7176SOL    HW122427   0.560   0.209   5.692
 7176SOL    HW222428   0.494   0.356   5.717
 7177SOL     OW22429   1.358   5.688   3.947
 7177SOL    HW122430   1.384   5.593   3.929
 7177SOL    HW222431   1.260   5.693   3.969
 7178SOL     OW22432   2.052   6.441   4.992
 7178SOL    HW122433   2.077   6.502   4.917
 7178SOL    HW222434   1.985   6.374   4.960
 7179SOL     OW22435   3.742   5.314   6.239
 7179SOL    HW122436   3.643   5.301   6.238
 7179SOL    HW222437   3.766   5.390   6.180
 7180SOL     OW22438   1.874   3.050   1.630
 7180SOL    HW122439   1.964   3.018   1.599
 7180SOL    HW222440   1.854   3.010   1.719
 7181SOL     OW22441   2.630   1.475   6.400
 7181SOL    HW122442   2.602   1.555   6.454
 7181SOL    HW222443   2.562   1.403   6.410
 7182SOL     OW22444   1.802   1.264   4.227
 7182SOL    HW122445   1.777   1.259   4.130
 7182SOL    HW222446   1.872   1.196   4.246
 7183SOL     OW22447   1.178   6.667   1.897
 7183SOL    HW122448   1.261   6.723   1.899
 7183SOL    HW222449   1.114   6.704   1.830
 7184SOL     OW22450   6.678   0.532   3.860
 7184SOL    HW122451   6.631   0.591   3.926
 7184SOL    HW222452   6.655   0.436   3.877
 7185SOL     OW22453   3.961   0.842   4.868
 7185SOL    HW122454   3.959   0.886   4.957
 7185SOL    HW222455   4.007   0.753   4.875
 7186SOL     OW22456   6.721   0.537   6.557
 7186SOL    HW122457   6.649   0.526   6.488
 7186SOL    HW222458   6.756   0.447   6.582
 7187SOL     OW22459   3.206   3.408   4.067
 7187SOL    HW122460   3.149   3.367   3.995
 7187SOL    HW222461   3.184   3.365   4.155
 7188SOL     OW22462   4.345   4.416   0.058
 7188SOL    HW122463   4.367   4.464   6.992
 7188SOL    HW222464   4.246   4.423   0.075
 7189SOL     OW22465   6.206   2.714   5.736
 7189SOL    HW122466   6.188   2.666   5.651
 7189SOL    HW222467   6.186   2.654   5.813
 7190SOL     OW22468   6.134   4.912   0.301
 7190SOL    HW122469   6.080   4.859   0.235
 7190SOL    HW222470   6.222   4.937   0.260
 7191SOL     OW22471   6.540   4.816   3.549
 7191SOL    HW122472   6.455   4.853   3.586
 7191SOL    HW222473   6.567   4.867   3.467
 7192SOL     OW22474   2.908   4.239   6.672
 7192SOL    HW122475   2.851   4.321   6.667
 7192SOL    HW222476   2.856   4.165   6.714
 7193SOL     OW22477   3.314   1.800   2.802
 7193SOL    HW122478   3.276   1.736   2.868
 7193SOL    HW222479   3.369   1.750   2.735
 7194SOL     OW22480   2.969   3.054   5.987
 7194SOL    HW122481   2.904   3.114   6.034
 7194SOL    HW222482   2.934   2.960   5.988
 7195SOL     OW22483   0.732   5.066   5.074
 7195SOL    HW122484   0.756   4.990   5.134
 7195SOL    HW222485   0.735   5.151   5.127
 7196SOL     OW22486   3.275   4.066   2.146
 7196SOL    HW122487   3.229   4.059   2.234
 7196SOL    HW222488   3.324   4.153   2.141
 7197SOL     OW22489   2.933   4.727   6.614
 7197SOL    HW122490   2.849   4.762   6.573
 7197SOL    HW222491   2.968   4.793   6.680
 7198SOL     OW22492   0.987   0.578   2.023
 7198SOL    HW122493   0.964   0.512   2.095
 7198SOL    HW222494   0.910   0.640   2.009
 7199SOL     OW22495   6.163   1.637   2.559
 7199SOL    HW122496   6.148   1.736   2.557
 7199SOL    HW222497   6.107   1.594   2.488
 7200SOL     OW22498   1.238   2.472   0.813
 7200SOL    HW122499   1.194   2.404   0.871
 7200SOL    HW222500   1.174   2.501   0.742
 7201SOL     OW22501   5.792   5.194   3.954
 7201SOL    HW122502   5.885   5.160   3.954
 7201SOL    HW222503   5.743   5.157   4.033
 7202SOL     OW22504   4.947   0.357   6.090
 7202SOL    HW122505   5.031   0.314   6.122
 7202SOL    HW222506   4.943   0.451   6.123
 7203SOL     OW22507   0.347   1.203   1.191
 7203SOL    HW122508   0.437   1.172   1.158
 7203SOL    HW222509   0.346   1.303   1.193
 7204SOL     OW22510   6.568   0.633   2.233
 7204SOL    HW122511   6.657   0.671   2.258
 7204SOL    HW222512   6.541   0.564   2.301
 7205SOL     OW22513   2.862   1.877   3.771
 7205SOL    HW122514   2.870   1.903   3.867
 7205SOL    HW222515   2.766   1.882   3.742
 7206SOL     OW22516   2.142   3.419   0.212
 7206SOL    HW122517   2.064   3.465   0.254
 7206SOL    HW222518   2.118   3.324   0.194
 7207SOL     OW22519   1.709   0.919   3.518
 7207SOL    HW122520   1.643   0.990   3.492
 7207SOL    HW222521   1.802   0.956   3.514
 7208SOL     OW22522   2.857   0.656   4.374
 7208SOL    HW122523   2.899   0.627   4.288
 7208SOL    HW222524   2.891   0.599   4.449
 7209SOL     OW22525   4.063   1.490   1.995
 7209SOL    HW122526   3.989   1.505   1.930
 7209SOL    HW222527   4.097   1.396   1.987
 7210SOL     OW22528   2.661   1.637   2.989
 7210SOL    HW122529   2.660   1.722   3.041
 7210SOL    HW222530   2.574   1.589   3.001
 7211SOL     OW22531   4.876   6.294   5.192
 7211SOL    HW122532   4.810   6.330   5.125
 7211SOL    HW222533   4.969   6.314   5.160
 7212SOL     OW22534   0.171   4.765   6.145
 7212SOL    HW122535   0.258   4.783   6.191
 7212SOL    HW222536   0.177   4.795   6.050
 7213SOL     OW22537   3.554   2.330   6.890
 7213SOL    HW122538   3.534   2.234   6.908
 7213SOL    HW222539   3.643   2.354   6.930
 7214SOL     OW22540   6.578   0.540   6.098
 7214SOL    HW122541   6.582   0.609   6.026
 7214SOL    HW222542   6.641   0.465   6.076
 7215SOL     OW22543   5.969   2.254   2.581
 7215SOL    HW122544   6.033   2.245   2.657
 7215SOL    HW222545   5.881   2.287   2.615
 7216SOL     OW22546   3.773   6.544   3.403
 7216SOL    HW122547   3.752   6.489   3.322
 7216SOL    HW222548   3.811   6.485   3.474
 7217SOL     OW22549   1.226   3.004   2.999
 7217SOL    HW122550   1.302   3.048   2.952
 7217SOL    HW222551   1.161   3.073   3.030
 7218SOL     OW22552   6.607   3.121   4.575
 7218SOL    HW122553   6.607   3.219   4.593
 7218SOL    HW222554   6.517   3.083   4.595
 7219SOL     OW22555   3.432   6.431   2.803
 7219SOL    HW122556   3.360   6.428   2.872
 7219SOL    HW222557   3.507   6.370   2.830
 7220SOL     OW22558   6.270   4.780   3.845
 7220SOL    HW122559   6.282   4.688   3.807
 7220SOL    HW222560   6.283   4.847   3.772
 7221SOL     OW22561   3.859   5.946   3.720
 7221SOL    HW122562   3.810   5.955   3.807
 7221SOL    HW222563   3.903   5.857   3.716
 7222SOL     OW22564   6.689   5.810   4.740
 7222SOL    HW122565   6.786   5.836   4.738
 7222SOL    HW222566   6.664   5.767   4.654
 7223SOL     OW22567   0.025   4.184   1.919
 7223SOL    HW122568   0.058   4.210   1.828
 7223SOL    HW222569   0.020   4.085   1.925
 7224SOL     OW22570   3.991   1.858   2.620
 7224SOL    HW122571   3.969   1.879   2.525
 7224SOL    HW222572   3.968   1.936   2.678
 7225SOL     OW22573   1.576   5.796   0.961
 7225SOL    HW122574   1.511   5.761   1.028
 7225SOL    HW222575   1.660   5.742   0.964
 7226SOL     OW22576   6.565   6.319   0.612
 7226SOL    HW122577   6.538   6.410   0.641
 7226SOL    HW222578   6.650   6.293   0.658
 7227SOL     OW22579   2.320   0.786   2.675
 7227SOL    HW122580   2.258   0.710   2.692
 7227SOL    HW222581   2.270   0.872   2.681
 7228SOL     OW22582   0.007   2.909   2.075
 7228SOL    HW122583   0.086   2.869   2.121
 7228SOL    HW222584   6.998   2.994   2.122
 7229SOL     OW22585   6.388   1.000   5.335
 7229SOL    HW122586   6.411   0.902   5.341
 7229SOL    HW222587   6.333   1.026   5.415
 7230SOL     OW22588   1.968   5.179   4.413
 7230SOL    HW122589   1.869   5.189   4.424
 7230SOL    HW222590   1.998   5.096   4.459
 7231SOL     OW22591   4.384   1.988   6.366
 7231SOL    HW122592   4.463   1.989   6.304
 7231SOL    HW222593   4.321   2.061   6.339
 7232SOL     OW22594   5.045   6.784   3.577
 7232SOL    HW122595   4.945   6.784   3.590
 7232SOL    HW222596   5.083   6.870   3.610
 7233SOL     OW22597   0.102   1.180   5.072
 7233SOL    HW122598   0.060   1.169   5.162
 7233SOL    HW222599   0.162   1.103   5.053
 7234SOL     OW22600   5.124   3.933   3.483
 7234SOL    HW122601   5.102   3.843   3.445
 7234SOL    HW222602   5.131   3.999   3.408
 7235SOL     OW22603   0.417   5.262   1.467
 7235SOL    HW122604   0.438   5.304   1.555
 7235SOL    HW222605   0.327   5.292   1.436
 7236SOL     OW22606   1.001   3.313   2.779
 7236SOL    HW122607   1.076   3.376   2.794
 7236SOL    HW222608   1.013   3.266   2.691
 7237SOL     OW22609   5.731   1.076   0.336
 7237SOL    HW122610   5.800   1.107   0.270
 7237SOL    HW222611   5.682   1.155   0.373
 7238SOL     OW22612   4.076   3.067   6.859
 7238SOL    HW122613   4.144   3.003   6.897
 7238SOL    HW222614   3.997   3.071   6.920
 7239SOL     OW22615   6.922   2.457   2.221
 7239SOL    HW122616   6.875   2.423   2.139
 7239SOL    HW222617   0.001   2.467   2.201
 7240SOL     OW22618   6.466   1.835   6.646
 7240SOL    HW122619   6.390   1.899   6.646
 7240SOL    HW222620   6.489   1.810   6.740
 7241SOL     OW22621   2.440   1.199   1.564
 7241SOL    HW122622   2.390   1.261   1.503
 7241SOL    HW222623   2.534   1.191   1.534
 7242SOL     OW22624   6.627   5.124   4.332
 7242SOL    HW122625   6.536   5.165   4.323
 7242SOL    HW222626   6.622   5.027   4.310
 7243SOL     OW22627   5.863   4.332   5.886
 7243SOL    HW122628   5.771   4.293   5.882
 7243SOL    HW222629   5.879   4.370   5.977
 7244SOL     OW22630   0.530   5.729   6.942
 7244SOL    HW122631   0.461   5.700   6.877
 7244SOL    HW222632   0.602   5.659   6.947
 7245SOL     OW22633   0.831   3.083   0.351
 7245SOL    HW122634   0.760   3.145   0.317
 7245SOL    HW222635   0.900   3.136   0.401
 7246SOL     OW22636   3.577   6.680   3.899
 7246SOL    HW122637   3.505   6.620   3.864
 7246SOL    HW222638   3.658   6.626   3.920
 7247SOL     OW22639   3.096   3.838   5.370
 7247SOL    HW122640   3.012   3.827   5.316
 7247SOL    HW222641   3.166   3.776   5.336
 7248SOL     OW22642   3.371   1.325   5.045
 7248SOL    HW122643   3.309   1.247   5.055
 7248SOL    HW222644   3.409   1.326   4.953
 7249SOL     OW22645   3.587   5.480   2.251
 7249SOL    HW122646   3.560   5.464   2.346
 7249SOL    HW222647   3.654   5.555   2.247
 7250SOL     OW22648   5.394   5.339   5.647
 7250SOL    HW122649   5.432   5.247   5.641
 7250SOL    HW222650   5.463   5.406   5.621
 7251SOL     OW22651   0.008   5.568   5.625
 7251SOL    HW122652   6.991   5.659   5.649
 7251SOL    HW222653   6.988   5.500   5.687
 7252SOL     OW22654   3.767   4.036   2.454
 7252SOL    HW122655   3.694   3.968   2.457
 7252SOL    HW222656   3.766   4.082   2.365
 7253SOL     OW22657   1.793   5.838   4.948
 7253SOL    HW122658   1.738   5.860   5.028
 7253SOL    HW222659   1.881   5.801   4.976
 7254SOL     OW22660   5.077   3.278   3.863
 7254SOL    HW122661   5.000   3.216   3.846
 7254SOL    HW222662   5.045   3.359   3.912
 7255SOL     OW22663   5.131   3.110   6.788
 7255SOL    HW122664   5.076   3.112   6.871
 7255SOL    HW222665   5.072   3.094   6.709
 7256SOL     OW22666   3.195   0.167   5.623
 7256SOL    HW122667   3.221   0.217   5.540
 7256SOL    HW222668   3.099   0.185   5.644
 7257SOL     OW22669   0.509   1.602   4.328
 7257SOL    HW122670   0.599   1.585   4.288
 7257SOL    HW222671   0.519   1.626   4.424
 7258SOL     OW22672   6.268   2.341   3.135
 7258SOL    HW122673   6.295   2.322   3.229
 7258SOL    HW222674   6.182   2.392   3.134
 7259SOL     OW22675   1.520   4.407   2.880
 7259SOL    HW122676   1.496   4.402   2.783
 7259SOL    HW222677   1.443   4.372   2.935
 7260SOL     OW22678   5.852   3.167   1.583
 7260SOL    HW122679   5.884   3.133   1.495
 7260SOL    HW222680   5.926   3.218   1.628
 7261SOL     OW22681   6.916   4.305   6.747
 7261SOL    HW122682   7.002   4.262   6.774
 7261SOL    HW222683   6.934   4.382   6.686
 7262SOL     OW22684   6.710   1.449   5.446
 7262SOL    HW122685   6.640   1.510   5.409
 7262SOL    HW222686   6.739   1.482   5.535
 7263SOL     OW22687   0.268   5.246   6.927
 7263SOL    HW122688   0.260   5.183   7.004
 7263SOL    HW222689   0.197   5.317   6.935
 7264SOL     OW22690   6.270   1.558   0.791
 7264SOL    HW122691   6.288   1.575   0.888
 7264SOL    HW222692   6.172   1.544   0.777
 7265SOL     OW22693   4.358   5.725   5.812
 7265SOL    HW122694   4.327   5.780   5.735
 7265SOL    HW222695   4.283   5.667   5.844
 7266SOL     OW22696   0.259   0.646   3.536
 7266SOL    HW122697   0.160   0.661   3.531
 7266SOL    HW222698   0.281   0.605   3.625
 7267SOL     OW22699   6.111   5.166   4.169
 7267SOL    HW122700   6.040   5.103   4.201
 7267SOL    HW222701   6.121   5.157   4.070
 7268SOL     OW22702   6.051   6.165   4.265
 7268SOL    HW122703   5.972   6.219   4.233
 7268SOL    HW222704   6.131   6.186   4.208
 7269SOL     OW22705   2.481   4.493   4.961
 7269SOL    HW122706   2.493   4.494   5.060
 7269SOL    HW222707   2.560   4.535   4.917
 7270SOL     OW22708   0.811   1.289   4.318
 7270SOL    HW122709   0.806   1.211   4.255
 7270SOL    HW222710   0.890   1.346   4.294
 7271SOL     OW22711   0.801   4.127   3.680
 7271SOL    HW122712   0.737   4.202   3.665
 7271SOL    HW222713   0.764   4.064   3.748
 7272SOL     OW22714   6.130   4.991   2.787
 7272SOL    HW122715   6.186   5.044   2.850
 7272SOL    HW222716   6.093   4.910   2.833
 7273SOL     OW22717   0.305   2.355   5.617
 7273SOL    HW122718   0.337   2.420   5.686
 7273SOL    HW222719   0.329   2.262   5.644
 7274SOL     OW22720   0.571   4.482   0.310
 7274SOL    HW122721   0.487   4.533   0.291
 7274SOL    HW222722   0.625   4.531   0.378
 7275SOL     OW22723   6.723   0.306   2.798
 7275SOL    HW122724   6.628   0.291   2.826
 7275SOL    HW222725   6.752   0.397   2.827
 7276SOL     OW22726   5.012   6.480   3.936
 7276SOL    HW122727   4.998   6.542   4.013
 7276SOL    HW222728   4.983   6.388   3.962
 7277SOL     OW22729   4.802   0.123   6.067
 7277SOL    HW122730   4.714   0.134   6.020
 7277SOL    HW222731   4.859   0.203   6.050
 7278SOL     OW22732   3.174   3.994   2.947
 7278SOL    HW122733   3.161   4.084   2.987
 7278SOL    HW222734   3.120   3.927   2.997
 7279SOL     OW22735   3.658   6.328   6.050
 7279SOL    HW122736   3.601   6.303   5.972
 7279SOL    HW222737   3.615   6.297   6.134
 7280SOL     OW22738   5.125   1.440   6.184
 7280SOL    HW122739   5.081   1.366   6.234
 7280SOL    HW222740   5.100   1.435   6.088
 7281SOL     OW22741   4.579   1.224   6.921
 7281SOL    HW122742   4.594   1.219   0.002
 7281SOL    HW222743   4.667   1.225   6.874
 7282SOL     OW22744   6.526   5.639   2.141
 7282SOL    HW122745   6.589   5.688   2.201
 7282SOL    HW222746   6.575   5.606   2.060
 7283SOL     OW22747   1.870   0.710   3.860
 7283SOL    HW122748   1.839   0.635   3.801
 7283SOL    HW222749   1.805   0.721   3.935
 7284SOL     OW22750   6.960   4.075   5.185
 7284SOL    HW122751   6.941   4.150   5.249
 7284SOL    HW222752   0.002   4.008   5.229
 7285SOL     OW22753   5.419   5.307   1.789
 7285SOL    HW122754   5.486   5.271   1.724
 7285SOL    HW222755   5.457   5.389   1.833
 7286SOL     OW22756   2.093   3.043   1.144
 7286SOL    HW122757   2.156   3.117   1.124
 7286SOL    HW222758   1.999   3.078   1.144
 7287SOL     OW22759   6.088   0.991   6.426
 7287SOL    HW122760   5.998   0.975   6.385
 7287SOL    HW222761   6.138   1.059   6.373
 7288SOL     OW22762   4.020   0.016   6.895
 7288SOL    HW122763   3.972   0.006   6.807
 7288SOL    HW222764   4.022   0.113   6.921
 7289SOL     OW22765   4.593   2.219   3.074
 7289SOL    HW122766   4.552   2.300   3.115
 7289SOL    HW222767   4.585   2.141   3.136
 7290SOL     OW22768   2.589   5.137   4.826
 7290SOL    HW122769   2.683   5.127   4.859
 7290SOL    HW222770   2.590   5.184   4.737
 7291SOL     OW22771   2.536   6.051   1.488
 7291SOL    HW122772   2.625   6.027   1.448
 7291SOL    HW222773   2.504   5.976   1.546
 7292SOL     OW22774   2.463   6.846   3.814
 7292SOL    HW122775   2.549   6.884   3.779
 7292SOL    HW222776   2.482   6.787   3.892
 7293SOL     OW22777   1.679   1.953   5.306
 7293SOL    HW122778   1.587   1.957   5.268
 7293SOL    HW222779   1.688   2.022   5.378
 7294SOL     OW22780   3.095   4.794   0.772
 7294SOL    HW122781   3.032   4.811   0.848
 7294SOL    HW222782   3.050   4.736   0.704
 7295SOL     OW22783   6.363   0.487   1.074
 7295SOL    HW122784   6.401   0.462   1.163
 7295SOL    HW222785   6.396   0.578   1.049
 7296SOL     OW22786   3.642   4.797   1.279
 7296SOL    HW122787   3.660   4.700   1.264
 7296SOL    HW222788   3.595   4.810   1.367
 7297SOL     OW22789   4.896   6.626   1.714
 7297SOL    HW122790   4.831   6.694   1.749
 7297SOL    HW222791   4.917   6.560   1.785
 7298SOL     OW22792   5.735   3.635   4.217
 7298SOL    HW122793   5.768   3.628   4.123
 7298SOL    HW222794   5.642   3.672   4.217
 7299SOL     OW22795   6.377   4.083   6.932
 7299SOL    HW122796   6.292   4.035   6.956
 7299SOL    HW222797   6.359   4.181   6.926
 7300SOL     OW22798   5.204   5.364   1.298
 7300SOL    HW122799   5.291   5.397   1.261
 7300SOL    HW222800   5.161   5.302   1.232
 7301SOL     OW22801   6.967   7.011   6.080
 7301SOL    HW122802   6.891   6.948   6.090
 7301SOL    HW222803   6.995   7.016   5.984
 7302SOL     OW22804   5.680   0.790   6.589
 7302SOL    HW122805   5.611   0.834   6.647
 7302SOL    HW222806   5.683   0.693   6.610
 7303SOL     OW22807   3.282   0.509   6.916
 7303SOL    HW122808   3.191   0.540   6.943
 7303SOL    HW222809   3.288   0.410   6.924
 7304SOL     OW22810   4.049   4.026   6.404
 7304SOL    HW122811   3.976   4.080   6.361
 7304SOL    HW222812   4.138   4.061   6.376
 7305SOL     OW22813   4.890   1.019   0.490
 7305SOL    HW122814   4.965   1.011   0.424
 7305SOL    HW222815   4.851   1.111   0.484
 7306SOL     OW22816   4.262   5.174   1.568
 7306SOL    HW122817   4.242   5.254   1.624
 7306SOL    HW222818   4.294   5.202   1.478
 7307SOL     OW22819   4.261   6.756   2.268
 7307SOL    HW122820   4.207   6.820   2.322
 7307SOL    HW222821   4.320   6.807   2.204
 7308SOL     OW22822   6.829   3.052   4.772
 7308SOL    HW122823   6.748   3.071   4.717
 7308SOL    HW222824   6.816   3.089   4.864
 7309SOL     OW22825   4.715   6.434   1.550
 7309SOL    HW122826   4.724   6.350   1.604
 7309SOL    HW222827   4.745   6.512   1.605
 7310SOL     OW22828   3.015   4.949   1.315
 7310SOL    HW122829   3.072   4.984   1.390
 7310SOL    HW222830   3.005   4.850   1.325
 7311SOL     OW22831   2.693   2.179   2.003
 7311SOL    HW122832   2.788   2.202   2.026
 7311SOL    HW222833   2.652   2.255   1.952
 7312SOL     OW22834   6.755   1.573   5.682
 7312SOL    HW122835   6.821   1.518   5.733
 7312SOL    HW222836   6.758   1.667   5.714
 7313SOL     OW22837   3.816   2.748   6.375
 7313SOL    HW122838   3.779   2.678   6.436
 7313SOL    HW222839   3.809   2.837   6.418
 7314SOL     OW22840   0.104   3.718   4.743
 7314SOL    HW122841   0.200   3.726   4.715
 7314SOL    HW222842   0.090   3.629   4.788
 7315SOL     OW22843   6.332   0.080   3.909
 7315SOL    HW122844   6.371   0.052   3.821
 7315SOL    HW222845   6.249   0.028   3.927
 7316SOL     OW22846   3.494   3.485   5.579
 7316SOL    HW122847   3.490   3.558   5.511
 7316SOL    HW222848   3.480   3.524   5.670
 7317SOL     OW22849   3.514   1.255   3.395
 7317SOL    HW122850   3.595   1.212   3.434
 7317SOL    HW222851   3.521   1.354   3.405
 7318SOL     OW22852   1.581   2.316   1.326
 7318SOL    HW122853   1.613   2.401   1.283
 7318SOL    HW222854   1.593   2.323   1.425
 7319SOL     OW22855   6.132   4.293   6.741
 7319SOL    HW122856   6.196   4.220   6.718
 7319SOL    HW222857   6.089   4.328   6.658
 7320SOL     OW22858   0.162   3.112   2.400
 7320SOL    HW122859   0.250   3.159   2.400
 7320SOL    HW222860   0.158   3.050   2.478
 7321SOL     OW22861   2.684   1.211   4.457
 7321SOL    HW122862   2.713   1.302   4.429
 7321SOL    HW222863   2.743   1.142   4.414
 7322SOL     OW22864   0.498   4.111   2.720
 7322SOL    HW122865   0.531   4.199   2.755
 7322SOL    HW222866   0.573   4.064   2.672
 7323SOL     OW22867   2.092   2.811   3.915
 7323SOL    HW122868   2.051   2.721   3.925
 7323SOL    HW222869   2.067   2.868   3.994
 7324SOL     OW22870   5.950   0.716   3.102
 7324SOL    HW122871   5.921   0.773   3.179
 7324SOL    HW222872   5.941   0.767   3.017
 7325SOL     OW22873   3.267   6.215   6.403
 7325SOL    HW122874   3.316   6.241   6.487
 7325SOL    HW222875   3.186   6.273   6.393
 7326SOL     OW22876   2.991   6.805   6.014
 7326SOL    HW122877   3.066   6.858   5.974
 7326SOL    HW222878   2.909   6.815   5.958
 7327SOL     OW22879   1.576   3.069   6.247
 7327SOL    HW122880   1.495   3.108   6.203
 7327SOL    HW222881   1.549   3.021   6.330
 7328SOL     OW22882   2.386   0.172   6.567
 7328SOL    HW122883   2.293   0.148   6.539
 7328SOL    HW222884   2.387   0.265   6.604
 7329SOL     OW22885   3.917   3.439   0.821
 7329SOL    HW122886   4.006   3.415   0.782
 7329SOL    HW222887   3.855   3.466   0.747
 7330SOL     OW22888   3.661   1.432   0.017
 7330SOL    HW122889   3.624   1.430   6.942
 7330SOL    HW222890   3.618   1.360   0.072
 7331SOL     OW22891   5.085   0.920   2.451
 7331SOL    HW122892   5.135   0.855   2.508
 7331SOL    HW222893   4.987   0.897   2.454
 7332SOL     OW22894   3.527   5.358   0.879
 7332SOL    HW122895   3.477   5.331   0.798
 7332SOL    HW222896   3.495   5.305   0.958
 7333SOL     OW22897   0.988   4.558   2.407
 7333SOL    HW122898   1.075   4.565   2.457
 7333SOL    HW222899   1.007   4.541   2.310
 7334SOL     OW22900   4.030   6.233   4.676
 7334SOL    HW122901   4.091   6.312   4.688
 7334SOL    HW222902   4.083   6.155   4.643
 7335SOL     OW22903   1.843   1.984   2.664
 7335SOL    HW122904   1.937   1.971   2.694
 7335SOL    HW222905   1.842   2.026   2.573
 7336SOL     OW22906   2.266   5.916   3.869
 7336SOL    HW122907   2.217   6.001   3.848
 7336SOL    HW222908   2.222   5.870   3.946
 7337SOL     OW22909   7.014   3.145   2.207
 7337SOL    HW122910   0.062   3.144   2.282
 7337SOL    HW222911   6.986   3.239   2.188
 7338SOL     OW22912   6.692   2.321   0.665
 7338SOL    HW122913   6.641   2.240   0.693
 7338SOL    HW222914   6.762   2.342   0.734
 7339SOL     OW22915   6.955   5.532   4.800
 7339SOL    HW122916   6.913   5.454   4.848
 7339SOL    HW222917   6.907   5.547   4.713
 7340SOL     OW22918   2.390   6.709   6.951
 7340SOL    HW122919   2.323   6.668   7.013
 7340SOL    HW222920   2.350   6.721   6.860
 7341SOL     OW22921   6.210   2.467   6.332
 7341SOL    HW122922   6.228   2.371   6.309
 7341SOL    HW222923   6.183   2.474   6.428
 7342SOL     OW22924   0.108   0.218   2.517
 7342SOL    HW122925   0.134   0.308   2.482
 7342SOL    HW222926   0.124   0.148   2.447
 7343SOL     OW22927   4.904   3.855   0.542
 7343SOL    HW122928   4.928   3.763   0.570
 7343SOL    HW222929   4.808   3.856   0.512
 7344SOL     OW22930   1.537   6.355   6.266
 7344SOL    HW122931   1.587   6.298   6.201
 7344SOL    HW222932   1.439   6.338   6.257
 7345SOL     OW22933   3.518   4.948   5.794
 7345SOL    HW122934   3.502   4.850   5.779
 7345SOL    HW222935   3.445   5.001   5.752
 7346SOL     OW22936   4.811   5.137   3.167
 7346SOL    HW122937   4.820   5.096   3.076
 7346SOL    HW222938   4.741   5.088   3.219
 7347SOL     OW22939   5.561   2.244   6.405
 7347SOL    HW122940   5.636   2.284   6.457
 7347SOL    HW222941   5.497   2.316   6.378
 7348SOL     OW22942   0.581   4.480   2.139
 7348SOL    HW122943   0.532   4.396   2.117
 7348SOL    HW222944   0.545   4.518   2.225
 7349SOL     OW22945   3.965   2.019   1.482
 7349SOL    HW122946   4.046   2.077   1.478
 7349SOL    HW222947   3.911   2.044   1.563
 7350SOL     OW22948   3.279   0.439   5.135
 7350SOL    HW122949   3.325   0.523   5.162
 7350SOL    HW222950   3.260   0.441   5.037
 7351SOL     OW22951   3.279   5.213   4.167
 7351SOL    HW122952   3.260   5.283   4.237
 7351SOL    HW222953   3.236   5.127   4.194
 7352SOL     OW22954   6.947   2.645   3.571
 7352SOL    HW122955   6.986   2.642   3.663
 7352SOL    HW222956   6.851   2.616   3.574
 7353SOL     OW22957   6.490   0.498   6.383
 7353SOL    HW122958   6.525   0.518   6.291
 7353SOL    HW222959   6.421   0.566   6.407
 7354SOL     OW22960   1.173   1.576   2.957
 7354SOL    HW122961   1.206   1.559   2.864
 7354SOL    HW222962   1.234   1.641   3.002
 7355SOL     OW22963   0.882   2.283   6.896
 7355SOL    HW122964   0.856   2.256   6.989
 7355SOL    HW222965   0.829   2.229   6.830
 7356SOL     OW22966   4.486   3.856   6.052
 7356SOL    HW122967   4.493   3.762   6.018
 7356SOL    HW222968   4.493   3.920   5.975
 7357SOL     OW22969   5.345   6.377   2.221
 7357SOL    HW122970   5.340   6.344   2.315
 7357SOL    HW222971   5.325   6.302   2.158
 7358SOL     OW22972   5.006   1.307   3.728
 7358SOL    HW122973   4.977   1.281   3.635
 7358SOL    HW222974   4.992   1.405   3.741
 7359SOL     OW22975   4.859   0.210   0.353
 7359SOL    HW122976   4.941   0.248   0.310
 7359SOL    HW222977   4.841   0.257   0.440
 7360SOL     OW22978   2.834   3.496   5.543
 7360SOL    HW122979   2.764   3.508   5.473
 7360SOL    HW222980   2.922   3.480   5.500
 7361SOL     OW22981   5.309   0.718   3.113
 7361SOL    HW122982   5.351   0.642   3.062
 7361SOL    HW222983   5.359   0.732   3.198
 7362SOL     OW22984   3.515   4.862   6.132
 7362SOL    HW122985   3.544   4.954   6.106
 7362SOL    HW222986   3.558   4.837   6.218
 7363SOL     OW22987   3.904   0.046   1.297
 7363SOL    HW122988   3.939   0.038   1.390
 7363SOL    HW222989   3.952   7.000   1.237
 7364SOL     OW22990   5.184   0.017   1.681
 7364SOL    HW122991   5.241   0.073   1.621
 7364SOL    HW222992   5.169   0.065   1.767
 7365SOL     OW22993   5.970   4.679   2.071
 7365SOL    HW122994   5.987   4.718   2.161
 7365SOL    HW222995   5.941   4.750   2.007
 7366SOL     OW22996   2.040   1.101   4.300
 7366SOL    HW122997   2.023   1.003   4.311
 7366SOL    HW222998   2.136   1.115   4.273
 7367SOL     OW22999   4.589   0.358   6.534
 7367SOL    HW123000   4.523   0.292   6.499
 7367SOL    HW223001   4.569   0.449   6.497
 7368SOL     OW23002   4.079   3.519   3.309
 7368SOL    HW123003   4.095   3.616   3.326
 7368SOL    HW223004   4.139   3.488   3.236
 7369SOL     OW23005   5.775   2.516   1.310
 7369SOL    HW123006   5.840   2.533   1.384
 7369SOL    HW223007   5.734   2.425   1.321
 7370SOL     OW23008   2.163   1.870   4.335
 7370SOL    HW123009   2.154   1.919   4.248
 7370SOL    HW223010   2.249   1.897   4.378
 7371SOL     OW23011   3.683   0.608   3.586
 7371SOL    HW123012   3.753   0.539   3.607
 7371SOL    HW223013   3.727   0.688   3.544
 7372SOL     OW23014   5.115   0.717   5.207
 7372SOL    HW123015   5.030   0.770   5.207
 7372SOL    HW223016   5.191   0.775   5.236
 7373SOL     OW23017   5.471   3.185   4.602
 7373SOL    HW123018   5.372   3.192   4.597
 7373SOL    HW223019   5.499   3.092   4.577
 7374SOL     OW23020   6.709   1.841   5.758
 7374SOL    HW123021   6.764   1.895   5.820
 7374SOL    HW223022   6.661   1.901   5.694
 7375SOL     OW23023   1.979   3.348   2.283
 7375SOL    HW123024   1.982   3.322   2.187
 7375SOL    HW223025   1.966   3.266   2.339
 7376SOL     OW23026   0.340   3.753   0.073
 7376SOL    HW123027   0.297   3.843   0.067
 7376SOL    HW223028   0.439   3.763   0.074
 7377SOL     OW23029   3.052   6.358   0.605
 7377SOL    HW123030   3.013   6.450   0.616
 7377SOL    HW223031   2.988   6.290   0.640
 7378SOL     OW23032   1.384   6.196   3.900
 7378SOL    HW123033   1.425   6.116   3.944
 7378SOL    HW223034   1.449   6.234   3.834
 7379SOL     OW23035   3.928   0.901   0.875
 7379SOL    HW123036   3.842   0.852   0.886
 7379SOL    HW223037   4.004   0.838   0.889
 7380SOL     OW23038   5.252   3.196   2.394
 7380SOL    HW123039   5.344   3.183   2.432
 7380SOL    HW223040   5.213   3.282   2.428
 7381SOL     OW23041   4.025   1.118   0.712
 7381SOL    HW123042   3.944   1.127   0.654
 7381SOL    HW223043   4.013   1.039   0.773
 7382SOL     OW23044   6.822   1.148   6.485
 7382SOL    HW123045   6.893   1.094   6.529
 7382SOL    HW223046   6.840   1.245   6.499
 7383SOL     OW23047   2.330   6.848   0.396
 7383SOL    HW123048   2.380   6.916   0.450
 7383SOL    HW223049   2.388   6.816   0.321
 7384SOL     OW23050   0.465   0.280   0.650
 7384SOL    HW123051   0.521   0.274   0.567
 7384SOL    HW223052   0.487   0.364   0.699
 7385SOL     OW23053   5.771   4.090   2.901
 7385SOL    HW123054   5.798   4.059   2.992
 7385SOL    HW223055   5.715   4.020   2.858
 7386SOL     OW23056   6.007   3.684   0.602
 7386SOL    HW123057   5.919   3.640   0.586
 7386SOL    HW223058   6.009   3.723   0.694
 7387SOL     OW23059   6.007   5.559   5.618
 7387SOL    HW123060   6.067   5.558   5.698
 7387SOL    HW223061   6.044   5.499   5.548
 7388SOL     OW23062   1.906   5.478   2.326
 7388SOL    HW123063   1.851   5.561   2.327
 7388SOL    HW223064   1.999   5.499   2.358
 7389SOL     OW23065   5.732   3.224   0.649
 7389SOL    HW123066   5.665   3.194   0.581
 7389SOL    HW223067   5.822   3.187   0.626
 7390SOL     OW23068   2.174   1.949   3.231
 7390SOL    HW123069   2.220   1.868   3.193
 7390SOL    HW223070   2.206   2.031   3.183
 7391SOL     OW23071   3.872   3.417   3.636
 7391SOL    HW123072   3.966   3.450   3.627
 7391SOL    HW223073   3.811   3.476   3.584
 7392SOL     OW23074   3.083   6.093   0.082
 7392SOL    HW123075   3.053   6.157   0.012
 7392SOL    HW223076   3.040   6.117   0.170
 7393SOL     OW23077   5.234   5.352   4.232
 7393SOL    HW123078   5.255   5.450   4.223
 7393SOL    HW223079   5.221   5.313   4.141
 7394SOL     OW23080   2.254   1.798   6.097
 7394SOL    HW123081   2.314   1.866   6.055
 7394SOL    HW223082   2.164   1.838   6.114
 7395SOL     OW23083   2.954   5.474   0.621
 7395SOL    HW123084   2.960   5.525   0.535
 7395SOL    HW223085   2.879   5.510   0.675
 7396SOL     OW23086   2.599   5.203   1.870
 7396SOL    HW123087   2.512   5.161   1.846
 7396SOL    HW223088   2.584   5.296   1.904
 7397SOL     OW23089   5.345   4.451   3.724
 7397SOL    HW123090   5.298   4.482   3.807
 7397SOL    HW223091   5.428   4.401   3.750
 7398SOL     OW23092   2.395   4.424   2.671
 7398SOL    HW123093   2.299   4.418   2.643
 7398SOL    HW223094   2.444   4.344   2.638
 7399SOL     OW23095   5.137   2.175   5.137
 7399SOL    HW123096   5.134   2.275   5.135
 7399SOL    HW223097   5.161   2.144   5.229
 7400SOL     OW23098   5.373   3.024   5.840
 7400SOL    HW123099   5.314   3.011   5.761
 7400SOL    HW223100   5.429   3.106   5.827
 7401SOL     OW23101   1.485   2.734   3.977
 7401SOL    HW123102   1.425   2.772   3.908
 7401SOL    HW223103   1.538   2.807   4.019
 7402SOL     OW23104   3.375   6.160   4.926
 7402SOL    HW123105   3.462   6.209   4.935
 7402SOL    HW223106   3.302   6.215   4.966
 7403SOL     OW23107   1.485   3.809   4.412
 7403SOL    HW123108   1.556   3.807   4.341
 7403SOL    HW223109   1.445   3.901   4.415
 7404SOL     OW23110   3.186   3.781   0.786
 7404SOL    HW123111   3.243   3.703   0.813
 7404SOL    HW223112   3.101   3.779   0.839
 7405SOL     OW23113   3.806   6.585   4.680
 7405SOL    HW123114   3.713   6.566   4.710
 7405SOL    HW223115   3.866   6.590   4.760
 7406SOL     OW23116   0.893   1.262   4.584
 7406SOL    HW123117   0.961   1.313   4.636
 7406SOL    HW223118   0.899   1.286   4.487
 7407SOL     OW23119   0.730   5.687   5.527
 7407SOL    HW123120   0.710   5.754   5.599
 7407SOL    HW223121   0.668   5.701   5.450
 7408SOL     OW23122   3.507   4.633   5.317
 7408SOL    HW123123   3.597   4.669   5.343
 7408SOL    HW223124   3.441   4.708   5.316
 7409SOL     OW23125   6.148   3.652   0.374
 7409SOL    HW123126   6.144   3.742   0.330
 7409SOL    HW223127   6.106   3.658   0.464
 7410SOL     OW23128   0.057   0.381   1.115
 7410SOL    HW123129   6.991   0.352   1.068
 7410SOL    HW223130   0.136   0.341   1.070
 7411SOL     OW23131   1.815   2.075   5.079
 7411SOL    HW123132   1.882   2.137   5.120
 7411SOL    HW223133   1.780   2.013   5.149
 7412SOL     OW23134   4.501   6.596   6.815
 7412SOL    HW123135   4.429   6.529   6.829
 7412SOL    HW223136   4.579   6.552   6.771
 7413SOL     OW23137   4.030   6.986   3.084
 7413SOL    HW123138   3.992   0.054   3.121
 7413SOL    HW223139   4.048   6.923   3.159
 7414SOL     OW23140   3.115   1.751   4.197
 7414SOL    HW123141   3.088   1.672   4.142
 7414SOL    HW223142   3.149   1.721   4.286
 7415SOL     OW23143   3.810   6.559   6.618
 7415SOL    HW123144   3.726   6.565   6.672
 7415SOL    HW223145   3.863   6.480   6.648
 7416SOL     OW23146   0.703   0.752   2.075
 7416SOL    HW123147   0.660   0.790   1.993
 7416SOL    HW223148   0.707   0.822   2.146
 7417SOL     OW23149   0.495   1.122   3.460
 7417SOL    HW123150   0.429   1.068   3.512
 7417SOL    HW223151   0.462   1.216   3.451
 7418SOL     OW23152   1.859   3.983   6.173
 7418SOL    HW123153   1.762   3.994   6.154
 7418SOL    HW223154   1.906   3.952   6.090
 7419SOL     OW23155   6.899   3.653   3.985
 7419SOL    HW123156   6.869   3.603   3.904
 7419SOL    HW223157   6.838   3.731   4.001
 7420SOL     OW23158   6.558   6.965   1.489
 7420SOL    HW123159   6.530   6.870   1.475
 7420SOL    HW223160   6.551   7.015   1.403
 7421SOL     OW23161   4.824   4.072   1.518
 7421SOL    HW123162   4.850   4.164   1.489
 7421SOL    HW223163   4.890   4.038   1.586
 7422SOL     OW23164   5.454   1.817   2.770
 7422SOL    HW123165   5.409   1.747   2.715
 7422SOL    HW223166   5.546   1.834   2.735
 7423SOL     OW23167   5.427   1.669   6.231
 7423SOL    HW123168   5.492   1.668   6.307
 7423SOL    HW223169   5.406   1.575   6.203
 7424SOL     OW23170   0.836   2.114   3.818
 7424SOL    HW123171   0.924   2.089   3.859
 7424SOL    HW223172   0.818   2.056   3.739
 7425SOL     OW23173   5.895   0.647   0.494
 7425SOL    HW123174   5.841   0.564   0.482
 7425SOL    HW223175   5.848   0.724   0.450
 7426SOL     OW23176   3.949   3.715   6.161
 7426SOL    HW123177   3.891   3.643   6.124
 7426SOL    HW223178   3.969   3.782   6.089
 7427SOL     OW23179   3.157   1.138   3.676
 7427SOL    HW123180   3.074   1.166   3.724
 7427SOL    HW223181   3.133   1.075   3.602
 7428SOL     OW23182   4.077   6.033   5.249
 7428SOL    HW123183   4.134   6.040   5.330
 7428SOL    HW223184   4.097   5.947   5.201
 7429SOL     OW23185   1.665   6.708   2.536
 7429SOL    HW123186   1.591   6.691   2.600
 7429SOL    HW223187   1.634   6.771   2.465
 7430SOL     OW23188   6.664   5.528   2.395
 7430SOL    HW123189   6.573   5.502   2.362
 7430SOL    HW223190   6.709   5.447   2.434
 7431SOL     OW23191   1.444   1.275   3.798
 7431SOL    HW123192   1.399   1.304   3.713
 7431SOL    HW223193   1.488   1.186   3.783
 7432SOL     OW23194   2.373   0.442   3.198
 7432SOL    HW123195   2.316   0.362   3.214
 7432SOL    HW223196   2.441   0.451   3.271
 7433SOL     OW23197   2.821   0.072   6.313
 7433SOL    HW123198   2.840   0.067   6.215
 7433SOL    HW223199   2.738   0.019   6.333
 7434SOL     OW23200   4.196   6.633   5.257
 7434SOL    HW123201   4.185   6.560   5.190
 7434SOL    HW223202   4.107   6.660   5.292
 7435SOL     OW23203   4.806   4.757   3.191
 7435SOL    HW123204   4.814   4.851   3.223
 7435SOL    HW223205   4.898   4.718   3.179
 7436SOL     OW23206   5.359   2.598   6.124
 7436SOL    HW123207   5.285   2.614   6.059
 7436SOL    HW223208   5.436   2.659   6.103
 7437SOL     OW23209   3.704   7.002   0.966
 7437SOL    HW123210   3.674   6.911   0.992
 7437SOL    HW223211   3.801   7.000   0.942
 7438SOL     OW23212   2.301   0.758   0.157
 7438SOL    HW123213   2.251   0.784   0.239
 7438SOL    HW223214   2.240   0.707   0.095
 7439SOL     OW23215   1.176   4.396   6.264
 7439SOL    HW123216   1.245   4.465   6.241
 7439SOL    HW223217   1.180   4.376   6.362
 7440SOL     OW23218   5.519   3.472   4.346
 7440SOL    HW123219   5.498   3.472   4.249
 7440SOL    HW223220   5.533   3.378   4.377
 7441SOL     OW23221   6.117   5.809   1.426
 7441SOL    HW123222   6.170   5.778   1.347
 7441SOL    HW223223   6.031   5.850   1.394
 7442SOL     OW23224   5.283   0.796   5.578
 7442SOL    HW123225   5.380   0.778   5.590
 7442SOL    HW223226   5.260   0.793   5.481
 7443SOL     OW23227   0.267   1.044   1.925
 7443SOL    HW123228   0.218   1.099   1.992
 7443SOL    HW223229   0.258   0.947   1.949
 7444SOL     OW23230   1.488   6.294   6.835
 7444SOL    HW123231   1.417   6.349   6.789
 7444SOL    HW223232   1.535   6.238   6.768
 7445SOL     OW23233   4.659   6.243   1.740
 7445SOL    HW123234   4.680   6.146   1.746
 7445SOL    HW223235   4.674   6.286   1.829
 7446SOL     OW23236   5.432   3.889   0.186
 7446SOL    HW123237   5.419   3.846   0.275
 7446SOL    HW223238   5.383   3.837   0.116
 7447SOL     OW23239   0.660   4.383   0.917
 7447SOL    HW123240   0.636   4.415   0.825
 7447SOL    HW223241   0.616   4.441   0.985
 7448SOL     OW23242   4.583   5.062   6.672
 7448SOL    HW123243   4.510   5.126   6.647
 7448SOL    HW223244   4.636   5.039   6.590
 7449SOL     OW23245   0.335   4.557   6.453
 7449SOL    HW123246   0.271   4.482   6.465
 7449SOL    HW223247   0.398   4.560   6.531
 7450SOL     OW23248   5.588   2.024   5.066
 7450SOL    HW123249   5.684   2.001   5.078
 7450SOL    HW223250   5.531   1.945   5.087
 7451SOL     OW23251   5.292   4.689   3.275
 7451SOL    HW123252   5.333   4.773   3.310
 7451SOL    HW223253   5.289   4.692   3.175
 7452SOL     OW23254   6.047   5.407   5.412
 7452SOL    HW123255   6.013   5.314   5.419
 7452SOL    HW223256   6.118   5.411   5.341
 7453SOL     OW23257   3.907   6.182   6.140
 7453SOL    HW123258   3.846   6.255   6.110
 7453SOL    HW223259   3.868   6.093   6.117
 7454SOL     OW23260   4.323   2.060   0.718
 7454SOL    HW123261   4.249   2.122   0.692
 7454SOL    HW223262   4.347   2.076   0.814
 7455SOL     OW23263   7.002   2.429   3.005
 7455SOL    HW123264   0.069   2.416   3.056
 7455SOL    HW223265   0.004   2.479   2.921
 7456SOL     OW23266   2.732   2.413   5.692
 7456SOL    HW123267   2.730   2.490   5.755
 7456SOL    HW223268   2.822   2.407   5.649
 7457SOL     OW23269   2.425   0.479   2.926
 7457SOL    HW123270   2.418   0.479   3.026
 7457SOL    HW223271   2.438   0.573   2.894
 7458SOL     OW23272   1.812   5.253   5.381
 7458SOL    HW123273   1.740   5.268   5.313
 7458SOL    HW223274   1.860   5.168   5.360
 7459SOL     OW23275   6.045   0.647   2.784
 7459SOL    HW123276   6.002   0.562   2.816
 7459SOL    HW223277   5.981   0.723   2.797
 7460SOL     OW23278   2.014   6.441   1.062
 7460SOL    HW123279   1.945   6.393   1.115
 7460SOL    HW223280   2.083   6.480   1.123
 7461SOL     OW23281   1.918   4.764   6.120
 7461SOL    HW123282   1.963   4.852   6.118
 7461SOL    HW223283   1.957   4.707   6.193
 7462SOL     OW23284   1.294   5.185   0.104
 7462SOL    HW123285   1.219   5.135   0.147
 7462SOL    HW223286   1.319   5.263   0.161
 7463SOL     OW23287   3.526   5.220   1.166
 7463SOL    HW123288   3.613   5.244   1.209
 7463SOL    HW223289   3.455   5.210   1.235
 7464SOL     OW23290   6.308   5.949   5.482
 7464SOL    HW123291   6.369   6.013   5.529
 7464SOL    HW223292   6.355   5.861   5.471
 7465SOL     OW23293   1.686   4.928   6.984
 7465SOL    HW123294   1.620   4.900   6.915
 7465SOL    HW223295   1.638   4.968   0.045
 7466SOL     OW23296   0.528   0.211   5.174
 7466SOL    HW123297   0.560   0.250   5.260
 7466SOL    HW223298   0.567   0.120   5.162
 7467SOL     OW23299   0.252   2.972   5.702
 7467SOL    HW123300   0.214   2.980   5.795
 7467SOL    HW223301   0.331   2.911   5.704
 7468SOL     OW23302   6.343   4.165   5.761
 7468SOL    HW123303   6.269   4.231   5.773
 7468SOL    HW223304   6.430   4.213   5.758
 7469SOL     OW23305   6.626   2.250   0.959
 7469SOL    HW123306   6.601   2.260   1.056
 7469SOL    HW223307   6.706   2.306   0.939
 7470SOL     OW23308   5.861   2.796   3.879
 7470SOL    HW123309   5.811   2.738   3.944
 7470SOL    HW223310   5.845   2.763   3.786
 7471SOL     OW23311   4.550   6.131   6.113
 7471SOL    HW123312   4.649   6.130   6.122
 7471SOL    HW223313   4.522   6.065   6.043
 7472SOL     OW23314   5.981   6.394   5.263
 7472SOL    HW123315   5.934   6.481   5.247
 7472SOL    HW223316   5.986   6.376   5.361
 7473SOL     OW23317   4.239   5.692   4.073
 7473SOL    HW123318   4.296   5.752   4.128
 7473SOL    HW223319   4.267   5.697   3.978
 7474SOL     OW23320   6.025   1.974   6.111
 7474SOL    HW123321   5.968   1.944   6.187
 7474SOL    HW223322   6.021   2.073   6.101
 7475SOL     OW23323   4.826   2.552   0.807
 7475SOL    HW123324   4.865   2.608   0.733
 7475SOL    HW223325   4.817   2.608   0.890
 7476SOL     OW23326   1.917   0.344   2.644
 7476SOL    HW123327   1.924   0.259   2.592
 7476SOL    HW223328   1.943   0.421   2.586
 7477SOL     OW23329   0.776   3.965   4.662
 7477SOL    HW123330   0.744   4.052   4.625
 7477SOL    HW223331   0.823   3.980   4.749
 7478SOL     OW23332   0.808   0.657   5.484
 7478SOL    HW123333   0.827   0.622   5.393
 7478SOL    HW223334   0.892   0.696   5.523
 7479SOL     OW23335   5.766   2.903   0.130
 7479SOL    HW123336   5.759   2.983   0.190
 7479SOL    HW223337   5.836   2.919   0.061
 7480SOL     OW23338   3.472   4.906   2.510
 7480SOL    HW123339   3.487   5.004   2.522
 7480SOL    HW223340   3.506   4.878   2.420
 7481SOL     OW23341   0.348   3.662   6.526
 7481SOL    HW123342   0.406   3.739   6.500
 7481SOL    HW223343   0.396   3.604   6.591
 7482SOL     OW23344   4.662   2.422   2.709
 7482SOL    HW123345   4.753   2.381   2.704
 7482SOL    HW223346   4.656   2.480   2.790
 7483SOL     OW23347   5.150   2.045   5.721
 7483SOL    HW123348   5.191   2.010   5.637
 7483SOL    HW223349   5.132   2.143   5.712
 7484SOL     OW23350   3.095   6.719   4.071
 7484SOL    HW123351   3.135   6.787   4.010
 7484SOL    HW223352   3.008   6.687   4.032
 7485SOL     OW23353   3.493   0.239   5.067
 7485SOL    HW123354   3.532   0.209   5.154
 7485SOL    HW223355   3.461   0.333   5.076
 7486SOL     OW23356   2.598   6.338   1.629
 7486SOL    HW123357   2.611   6.393   1.711
 7486SOL    HW223358   2.516   6.281   1.640
 7487SOL     OW23359   4.174   6.475   4.694
 7487SOL    HW123360   4.144   6.569   4.709
 7487SOL    HW223361   4.252   6.474   4.632
 7488SOL     OW23362   0.712   5.727   4.088
 7488SOL    HW123363   0.683   5.633   4.071
 7488SOL    HW223364   0.772   5.729   4.168
 7489SOL     OW23365   5.648   3.345   6.858
 7489SOL    HW123366   5.589   3.300   6.792
 7489SOL    HW223367   5.679   3.279   6.927
 7490SOL     OW23368   1.105   2.671   2.338
 7490SOL    HW123369   1.078   2.623   2.421
 7490SOL    HW223370   1.065   2.626   2.258
 7491SOL     OW23371   4.289   2.831   0.205
 7491SOL    HW123372   4.345   2.784   0.273
 7491SOL    HW223373   4.291   2.929   0.222
 7492SOL     OW23374   1.565   6.980   4.193
 7492SOL    HW123375   1.634   7.000   4.124
 7492SOL    HW223376   1.603   6.918   4.262
 7493SOL     OW23377   6.906   4.641   5.125
 7493SOL    HW123378   6.876   4.733   5.151
 7493SOL    HW223379   6.837   4.574   5.153
 7494SOL     OW23380   6.663   1.137   2.291
 7494SOL    HW123381   6.631   1.154   2.384
 7494SOL    HW223382   6.613   1.060   2.252
 7495SOL     OW23383   1.234   3.808   5.379
 7495SOL    HW123384   1.228   3.872   5.456
 7495SOL    HW223385   1.201   3.718   5.409
 7496SOL     OW23386   5.856   4.426   2.668
 7496SOL    HW123387   5.852   4.333   2.630
 7496SOL    HW223388   5.844   4.422   2.767
 7497SOL     OW23389   0.511   6.256   0.666
 7497SOL    HW123390   0.436   6.206   0.710
 7497SOL    HW223391   0.485   6.278   0.572
 7498SOL     OW23392   2.665   6.879   2.805
 7498SOL    HW123393   2.598   6.808   2.782
 7498SOL    HW223394   2.729   6.890   2.730
 7499SOL     OW23395   3.442   2.115   3.997
 7499SOL    HW123396   3.392   2.031   4.018
 7499SOL    HW223397   3.477   2.155   4.081
 7500SOL     OW23398   3.751   0.182   3.162
 7500SOL    HW123399   3.689   0.129   3.220
 7500SOL    HW223400   3.732   0.163   3.066
 7501SOL     OW23401   6.140   2.388   5.208
 7501SOL    HW123402   6.060   2.336   5.238
 7501SOL    HW223403   6.204   2.327   5.161
 7502SOL     OW23404   4.185   0.748   4.501
 7502SOL    HW123405   4.273   0.723   4.540
 7502SOL    HW223406   4.149   0.670   4.448
 7503SOL     OW23407   2.010   5.911   1.411
 7503SOL    HW123408   2.097   5.862   1.406
 7503SOL    HW223409   2.024   6.006   1.383
 7504SOL     OW23410   6.422   6.468   4.267
 7504SOL    HW123411   6.337   6.491   4.313
 7504SOL    HW223412   6.499   6.486   4.328
 7505SOL     OW23413   0.146   6.188   5.173
 7505SOL    HW123414   0.074   6.120   5.161
 7505SOL    HW223415   0.225   6.164   5.117
 7506SOL     OW23416   3.398   1.729   3.234
 7506SOL    HW123417   3.429   1.667   3.162
 7506SOL    HW223418   3.469   1.798   3.250
 7507SOL     OW23419   6.280   4.101   5.331
 7507SOL    HW123420   6.212   4.172   5.351
 7507SOL    HW223421   6.293   4.043   5.411
 7508SOL     OW23422   2.560   5.422   6.987
 7508SOL    HW123423   2.588   5.510   6.949
 7508SOL    HW223424   2.614   5.402   0.052
 7509SOL     OW23425   6.318   4.884   1.366
 7509SOL    HW123426   6.333   4.788   1.390
 7509SOL    HW223427   6.325   4.895   1.267
 7510SOL     OW23428   3.812   3.840   3.565
 7510SOL    HW123429   3.770   3.756   3.531
 7510SOL    HW223430   3.885   3.817   3.629
 7511SOL     OW23431   4.167   6.574   4.118
 7511SOL    HW123432   4.234   6.581   4.043
 7511SOL    HW223433   4.107   6.496   4.102
 7512SOL     OW23434   3.970   0.310   6.618
 7512SOL    HW123435   3.959   0.219   6.579
 7512SOL    HW223436   4.008   0.303   6.710
 7513SOL     OW23437   1.284   2.068   2.529
 7513SOL    HW123438   1.311   2.133   2.600
 7513SOL    HW223439   1.341   2.082   2.448
 7514SOL     OW23440   1.312   4.642   1.573
 7514SOL    HW123441   1.279   4.676   1.662
 7514SOL    HW223442   1.411   4.630   1.577
 7515SOL     OW23443   0.208   5.501   4.901
 7515SOL    HW123444   0.132   5.482   4.839
 7515SOL    HW223445   0.187   5.464   4.992
 7516SOL     OW23446   1.440   6.261   5.015
 7516SOL    HW123447   1.430   6.169   5.053
 7516SOL    HW223448   1.501   6.314   5.073
 7517SOL     OW23449   0.386   1.381   6.263
 7517SOL    HW123450   0.418   1.335   6.180
 7517SOL    HW223451   0.402   1.322   6.342
 7518SOL     OW23452   4.719   2.580   3.252
 7518SOL    HW123453   4.649   2.511   3.233
 7518SOL    HW223454   4.805   2.535   3.277
 7519SOL     OW23455   3.455   6.214   4.094
 7519SOL    HW123456   3.498   6.124   4.103
 7519SOL    HW223457   3.495   6.262   4.016
 7520SOL     OW23458   1.614   1.871   0.693
 7520SOL    HW123459   1.647   1.854   0.600
 7520SOL    HW223460   1.687   1.914   0.746
 7521SOL     OW23461   3.325   1.557   5.693
 7521SOL    HW123462   3.297   1.553   5.789
 7521SOL    HW223463   3.264   1.619   5.643
 7522SOL     OW23464   2.173   6.767   3.400
 7522SOL    HW123465   2.197   6.771   3.497
 7522SOL    HW223466   2.075   6.788   3.390
 7523SOL     OW23467   5.699   1.612   0.727
 7523SOL    HW123468   5.609   1.587   0.689
 7523SOL    HW223469   5.762   1.631   0.652
 7524SOL     OW23470   0.218   3.225   4.375
 7524SOL    HW123471   0.203   3.134   4.336
 7524SOL    HW223472   0.264   3.217   4.463
 7525SOL     OW23473   4.397   5.299   6.336
 7525SOL    HW123474   4.357   5.273   6.249
 7525SOL    HW223475   4.353   5.382   6.370
 7526SOL     OW23476   2.462   3.305   1.650
 7526SOL    HW123477   2.402   3.331   1.574
 7526SOL    HW223478   2.422   3.335   1.736
 7527SOL     OW23479   3.967   4.830   3.449
 7527SOL    HW123480   3.997   4.754   3.507
 7527SOL    HW223481   4.043   4.860   3.392
 7528SOL     OW23482   6.023   2.993   6.681
 7528SOL    HW123483   5.967   2.920   6.642
 7528SOL    HW223484   6.075   3.037   6.608
 7529SOL     OW23485   6.122   2.810   4.226
 7529SOL    HW123486   6.063   2.798   4.306
 7529SOL    HW223487   6.095   2.746   4.155
 7530SOL     OW23488   0.330   1.702   1.677
 7530SOL    HW123489   0.338   1.688   1.578
 7530SOL    HW223490   0.420   1.691   1.720
 7531SOL     OW23491   4.242   2.317   3.394
 7531SOL    HW123492   4.261   2.304   3.296
 7531SOL    HW223493   4.157   2.269   3.417
 7532SOL     OW23494   4.360   5.185   6.568
 7532SOL    HW123495   4.262   5.183   6.587
 7532SOL    HW223496   4.375   5.195   6.470
 7533SOL     OW23497   4.347   4.373   1.395
 7533SOL    HW123498   4.418   4.443   1.391
 7533SOL    HW223499   4.273   4.403   1.455
 7534SOL     OW23500   4.215   0.213   4.538
 7534SOL    HW123501   4.253   0.285   4.596
 7534SOL    HW223502   4.265   0.128   4.554
 7535SOL     OW23503   0.716   6.100   3.769
 7535SOL    HW123504   0.728   6.196   3.796
 7535SOL    HW223505   0.769   6.041   3.831
 7536SOL     OW23506   4.948   6.147   4.797
 7536SOL    HW123507   4.933   6.244   4.779
 7536SOL    HW223508   4.988   6.136   4.888
 7537SOL     OW23509   2.582   6.269   3.250
 7537SOL    HW123510   2.644   6.301   3.179
 7537SOL    HW223511   2.487   6.285   3.221
 7538SOL     OW23512   0.577   3.972   0.596
 7538SOL    HW123513   0.510   4.008   0.660
 7538SOL    HW223514   0.645   3.918   0.645
 7539SOL     OW23515   0.127   6.914   3.949
 7539SOL    HW123516   0.094   6.847   4.015
 7539SOL    HW223517   0.050   6.952   3.898
 7540SOL     OW23518   6.412   5.602   2.634
 7540SOL    HW123519   6.491   5.663   2.626
 7540SOL    HW223520   6.445   5.507   2.637
 7541SOL     OW23521   1.766   4.653   6.841
 7541SOL    HW123522   1.740   4.640   6.937
 7541SOL    HW223523   1.699   4.713   6.797
 7542SOL     OW23524   6.010   5.904   5.129
 7542SOL    HW123525   6.064   5.985   5.156
 7542SOL    HW223526   6.069   5.840   5.081
 7543SOL     OW23527   2.461   0.764   6.699
 7543SOL    HW123528   2.382   0.817   6.730
 7543SOL    HW223529   2.506   0.722   6.778
 7544SOL     OW23530   6.886   2.306   4.228
 7544SOL    HW123531   6.877   2.367   4.307
 7544SOL    HW223532   6.801   2.309   4.174
 7545SOL     OW23533   0.915   5.316   6.310
 7545SOL    HW123534   0.823   5.314   6.271
 7545SOL    HW223535   0.945   5.222   6.328
 7546SOL     OW23536   2.576   2.887   1.738
 7546SOL    HW123537   2.654   2.829   1.716
 7546SOL    HW223538   2.579   2.969   1.682
 7547SOL     OW23539   4.527   0.458   1.194
 7547SOL    HW123540   4.546   0.360   1.208
 7547SOL    HW223541   4.446   0.469   1.138
 7548SOL     OW23542   3.351   2.551   6.198
 7548SOL    HW123543   3.416   2.479   6.225
 7548SOL    HW223544   3.391   2.641   6.219
 7549SOL     OW23545   5.500   2.350   4.451
 7549SOL    HW123546   5.472   2.435   4.406
 7549SOL    HW223547   5.423   2.313   4.503
 7550SOL     OW23548   2.267   4.444   4.625
 7550SOL    HW123549   2.273   4.539   4.656
 7550SOL    HW223550   2.292   4.383   4.700
 7551SOL     OW23551   6.040   3.016   5.991
 7551SOL    HW123552   5.948   3.046   6.016
 7551SOL    HW223553   6.093   2.999   6.074
 7552SOL     OW23554   2.638   6.483   5.180
 7552SOL    HW123555   2.730   6.455   5.152
 7552SOL    HW223556   2.628   6.471   5.279
 7553SOL     OW23557   5.784   6.388   5.760
 7553SOL    HW123558   5.819   6.301   5.794
 7553SOL    HW223559   5.692   6.403   5.796
 7554SOL     OW23560   4.782   0.584   1.081
 7554SOL    HW123561   4.709   0.532   1.124
 7554SOL    HW223562   4.747   0.675   1.055
 7555SOL     OW23563   3.640   4.940   5.071
 7555SOL    HW123564   3.644   4.939   4.971
 7555SOL    HW223565   3.547   4.958   5.101
 7556SOL     OW23566   0.688   6.566   0.974
 7556SOL    HW123567   0.694   6.500   1.049
 7556SOL    HW223568   0.613   6.539   0.913
 7557SOL     OW23569   4.771   0.318   0.587
 7557SOL    HW123570   4.813   0.272   0.665
 7557SOL    HW223571   4.685   0.271   0.564
 7558SOL     OW23572   1.052   1.748   4.286
 7558SOL    HW123573   1.098   1.822   4.336
 7558SOL    HW223574   1.081   1.750   4.191
 7559SOL     OW23575   3.502   1.586   4.664
 7559SOL    HW123576   3.521   1.680   4.694
 7559SOL    HW223577   3.436   1.544   4.727
 7560SOL     OW23578   0.710   1.247   5.764
 7560SOL    HW123579   0.797   1.291   5.787
 7560SOL    HW223580   0.636   1.313   5.777
 7561SOL     OW23581   5.929   2.253   5.300
 7561SOL    HW123582   5.848   2.275   5.355
 7561SOL    HW223583   5.912   2.169   5.247
 7562SOL     OW23584   1.717   5.380   4.061
 7562SOL    HW123585   1.815   5.390   4.077
 7562SOL    HW223586   1.701   5.360   3.964
 7563SOL     OW23587   3.372   5.567   2.515
 7563SOL    HW123588   3.319   5.487   2.545
 7563SOL    HW223589   3.349   5.645   2.574
 7564SOL     OW23590   3.802   1.859   5.409
 7564SOL    HW123591   3.803   1.947   5.362
 7564SOL    HW223592   3.749   1.867   5.494
 7565SOL     OW23593   6.181   4.310   6.291
 7565SOL    HW123594   6.151   4.216   6.304
 7565SOL    HW223595   6.271   4.311   6.248
 7566SOL     OW23596   4.481   4.761   1.765
 7566SOL    HW123597   4.435   4.850   1.766
 7566SOL    HW223598   4.547   4.758   1.691
 7567SOL     OW23599   1.617   0.491   4.523
 7567SOL    HW123600   1.627   0.575   4.469
 7567SOL    HW223601   1.535   0.442   4.493
 7568SOL     OW23602   5.982   5.490   1.872
 7568SOL    HW123603   5.893   5.474   1.829
 7568SOL    HW223604   5.972   5.482   1.971
 7569SOL     OW23605   4.530   4.370   0.452
 7569SOL    HW123606   4.592   4.292   0.465
 7569SOL    HW223607   4.439   4.337   0.428
 7570SOL     OW23608   0.065   2.566   2.759
 7570SOL    HW123609   0.146   2.510   2.775
 7570SOL    HW223610   0.015   2.530   2.680
 7571SOL     OW23611   4.879   2.366   2.970
 7571SOL    HW123612   4.781   2.378   2.983
 7571SOL    HW223613   4.920   2.332   3.054
 7572SOL     OW23614   4.342   0.100   3.069
 7572SOL    HW123615   4.358   0.133   2.976
 7572SOL    HW223616   4.254   0.052   3.072
 7573SOL     OW23617   4.984   6.688   6.119
 7573SOL    HW123618   4.953   6.723   6.031
 7573SOL    HW223619   4.983   6.761   6.187
 7574SOL     OW23620   0.905   1.971   3.556
 7574SOL    HW123621   0.829   1.966   3.492
 7574SOL    HW223622   0.976   2.031   3.520
 7575SOL     OW23623   0.209   6.873   1.731
 7575SOL    HW123624   0.113   6.884   1.708
 7575SOL    HW223625   0.243   6.787   1.691
 7576SOL     OW23626   5.319   3.099   0.809
 7576SOL    HW123627   5.328   3.189   0.765
 7576SOL    HW223628   5.384   3.093   0.885
 7577SOL     OW23629   1.263   6.751   0.865
 7577SOL    HW123630   1.251   6.759   0.964
 7577SOL    HW223631   1.174   6.734   0.822
 7578SOL     OW23632   6.329   6.128   3.469
 7578SOL    HW123633   6.263   6.170   3.530
 7578SOL    HW223634   6.392   6.198   3.434
 7579SOL     OW23635   0.581   1.164   0.256
 7579SOL    HW123636   0.507   1.182   0.321
 7579SOL    HW223637   0.629   1.249   0.235
 7580SOL     OW23638   2.282   4.716   3.523
 7580SOL    HW123639   2.255   4.797   3.470
 7580SOL    HW223640   2.345   4.660   3.469
 7581SOL     OW23641   6.996   0.751   2.713
 7581SOL    HW123642   0.065   0.782   2.753
 7581SOL    HW223643   6.921   0.803   2.753
 7582SOL     OW23644   2.700   1.332   5.900
 7582SOL    HW123645   2.663   1.347   5.808
 7582SOL    HW223646   2.666   1.245   5.936
 7583SOL     OW23647   5.284   3.015   2.134
 7583SOL    HW123648   5.287   3.090   2.200
 7583SOL    HW223649   5.193   2.974   2.134
 7584SOL     OW23650   0.409   0.854   3.632
 7584SOL    HW123651   0.318   0.816   3.615
 7584SOL    HW223652   0.474   0.814   3.568
 7585SOL     OW23653   1.614   1.187   6.829
 7585SOL    HW123654   1.692   1.235   6.788
 7585SOL    HW223655   1.642   1.094   6.853
 7586SOL     OW23656   1.172   1.234   2.348
 7586SOL    HW123657   1.128   1.155   2.306
 7586SOL    HW223658   1.117   1.316   2.332
 7587SOL     OW23659   4.185   0.455   0.987
 7587SOL    HW123660   4.264   0.505   1.023
 7587SOL    HW223661   4.199   0.436   0.890
 7588SOL     OW23662   1.972   2.378   4.575
 7588SOL    HW123663   2.059   2.426   4.583
 7588SOL    HW223664   1.900   2.431   4.620
 7589SOL     OW23665   0.362   0.676   2.929
 7589SOL    HW123666   0.310   0.611   2.873
 7589SOL    HW223667   0.424   0.626   2.989
 7590SOL     OW23668   0.037   0.927   6.674
 7590SOL    HW123669   0.121   0.876   6.697
 7590SOL    HW223670   0.041   1.018   6.716
 7591SOL     OW23671   3.926   3.115   5.031
 7591SOL    HW123672   3.963   3.182   5.094
 7591SOL    HW223673   3.988   3.104   4.953
 7592SOL     OW23674   7.008   6.871   5.050
 7592SOL    HW123675   6.918   6.894   5.087
 7592SOL    HW223676   0.023   6.787   5.092
 7593SOL     OW23677   0.869   1.427   6.072
 7593SOL    HW123678   0.950   1.368   6.065
 7593SOL    HW223679   0.865   1.489   5.994
 7594SOL     OW23680   0.111   4.837   6.846
 7594SOL    HW123681   0.061   4.868   6.765
 7594SOL    HW223682   0.127   4.739   6.840
 7595SOL     OW23683   0.538   2.696   6.351
 7595SOL    HW123684   0.449   2.652   6.333
 7595SOL    HW223685   0.528   2.760   6.427
 7596SOL     OW23686   3.335   0.714   5.410
 7596SOL    HW123687   3.424   0.669   5.401
 7596SOL    HW223688   3.298   0.733   5.318
 7597SOL     OW23689   2.095   4.215   2.163
 7597SOL    HW123690   2.158   4.279   2.120
 7597SOL    HW223691   2.139   4.125   2.171
 7598SOL     OW23692   6.548   1.152   3.271
 7598SOL    HW123693   6.515   1.067   3.313
 7598SOL    HW223694   6.647   1.146   3.260
 7599SOL     OW23695   3.752   3.176   0.232
 7599SOL    HW123696   3.678   3.239   0.208
 7599SOL    HW223697   3.751   3.159   0.330
 7600SOL     OW23698   1.176   6.574   4.359
 7600SOL    HW123699   1.192   6.562   4.261
 7600SOL    HW223700   1.260   6.555   4.409
 7601SOL     OW23701   3.434   6.768   2.213
 7601SOL    HW123702   3.502   6.746   2.283
 7601SOL    HW223703   3.471   6.747   2.123
 7602SOL     OW23704   0.001   1.483   1.071
 7602SOL    HW123705   6.986   1.519   0.983
 7602SOL    HW223706   0.098   1.504   1.081
 7603SOL     OW23707   3.973   0.077   5.798
 7603SOL    HW123708   3.891   0.077   5.741
 7603SOL    HW223709   3.957   0.023   5.880
 7604SOL     OW23710   0.403   2.244   4.865
 7604SOL    HW123711   0.373   2.191   4.786
 7604SOL    HW223712   0.457   2.185   4.926
 7605SOL     OW23713   2.219   6.687   0.771
 7605SOL    HW123714   2.208   6.699   0.869
 7605SOL    HW223715   2.242   6.774   0.728
 7606SOL     OW23716   6.766   1.529   3.112
 7606SOL    HW123717   6.801   1.623   3.119
 7606SOL    HW223718   6.691   1.517   3.177
 7607SOL     OW23719   2.820   6.072   6.002
 7607SOL    HW123720   2.883   6.050   6.076
 7607SOL    HW223721   2.733   6.102   6.040
 7608SOL     OW23722   5.746   2.733   6.054
 7608SOL    HW123723   5.728   2.689   6.142
 7608SOL    HW223724   5.661   2.773   6.020
 7609SOL     OW23725   0.998   1.688   4.682
 7609SOL    HW123726   0.926   1.731   4.627
 7609SOL    HW223727   1.074   1.752   4.692
 7610SOL     OW23728   4.110   5.026   4.913
 7610SOL    HW123729   4.015   5.001   4.933
 7610SOL    HW223730   4.112   5.087   4.833
 7611SOL     OW23731   4.857   3.455   0.288
 7611SOL    HW123732   4.933   3.513   0.319
 7611SOL    HW223733   4.869   3.436   0.190
 7612SOL     OW23734   3.769   1.671   3.159
 7612SOL    HW123735   3.802   1.601   3.222
 7612SOL    HW223736   3.746   1.628   3.071
 7613SOL     OW23737   0.620   1.161   1.508
 7613SOL    HW123738   0.609   1.260   1.498
 7613SOL    HW223739   0.710   1.141   1.549
 7614SOL     OW23740   4.689   4.162   0.547
 7614SOL    HW123741   4.784   4.192   0.539
 7614SOL    HW223742   4.676   4.078   0.495
 7615SOL     OW23743   5.891   3.477   4.929
 7615SOL    HW123744   5.962   3.417   4.966
 7615SOL    HW223745   5.903   3.484   4.830
 7616SOL     OW23746   6.124   6.995   3.112
 7616SOL    HW123747   6.207   6.984   3.168
 7616SOL    HW223748   6.143   0.042   3.038
 7617SOL     OW23749   5.729   4.548   3.865
 7617SOL    HW123750   5.720   4.570   3.768
 7617SOL    HW223751   5.646   4.503   3.897
 7618SOL     OW23752   2.673   2.323   0.520
 7618SOL    HW123753   2.594   2.337   0.459
 7618SOL    HW223754   2.642   2.324   0.615
 7619SOL     OW23755   0.854   1.806   4.481
 7619SOL    HW123756   0.922   1.786   4.411
 7619SOL    HW223757   0.832   1.904   4.478
 7620SOL     OW23758   3.836   4.572   1.365
 7620SOL    HW123759   3.835   4.489   1.309
 7620SOL    HW223760   3.801   4.550   1.457
 7621SOL     OW23761   6.280   4.362   7.006
 7621SOL    HW123762   6.290   4.425   0.065
 7621SOL    HW223763   6.185   4.332   7.000
 7622SOL     OW23764   3.109   3.676   1.324
 7622SOL    HW123765   3.204   3.646   1.335
 7622SOL    HW223766   3.094   3.759   1.378
 7623SOL     OW23767   4.771   4.591   0.967
 7623SOL    HW123768   4.801   4.618   1.058
 7623SOL    HW223769   4.677   4.559   0.971
 7624SOL     OW23770   0.958   2.918   2.673
 7624SOL    HW123771   0.923   2.824   2.676
 7624SOL    HW223772   0.935   2.965   2.758
 7625SOL     OW23773   5.483   0.753   1.132
 7625SOL    HW123774   5.556   0.779   1.069
 7625SOL    HW223775   5.396   0.788   1.098
 7626SOL     OW23776   4.305   1.174   5.756
 7626SOL    HW123777   4.377   1.217   5.701
 7626SOL    HW223778   4.235   1.241   5.777
 7627SOL     OW23779   4.304   2.099   6.905
 7627SOL    HW123780   4.254   2.154   6.838
 7627SOL    HW223781   4.336   2.015   6.862
 7628SOL     OW23782   3.476   2.541   0.452
 7628SOL    HW123783   3.545   2.590   0.399
 7628SOL    HW223784   3.434   2.470   0.395
 7629SOL     OW23785   6.338   2.923   3.569
 7629SOL    HW123786   6.322   2.900   3.665
 7629SOL    HW223787   6.426   2.885   3.541
 7630SOL     OW23788   0.833   6.393   5.195
 7630SOL    HW123789   0.921   6.348   5.189
 7630SOL    HW223790   0.825   6.461   5.121
 7631SOL     OW23791   1.259   0.704   6.252
 7631SOL    HW123792   1.291   0.659   6.168
 7631SOL    HW223793   1.330   0.767   6.284
 7632SOL     OW23794   4.873   5.764   0.359
 7632SOL    HW123795   4.782   5.752   0.320
 7632SOL    HW223796   4.900   5.680   0.408
 7633SOL     OW23797   6.465   0.742   1.068
 7633SOL    HW123798   6.555   0.724   1.107
 7633SOL    HW223799   6.399   0.757   1.142
 7634SOL     OW23800   7.017   2.398   0.359
 7634SOL    HW123801   0.048   2.344   0.428
 7634SOL    HW223802   6.943   2.343   0.320
 7635SOL     OW23803   2.592   3.813   5.601
 7635SOL    HW123804   2.649   3.740   5.640
 7635SOL    HW223805   2.505   3.817   5.649
 7636SOL     OW23806   0.093   4.162   4.555
 7636SOL    HW123807   0.073   4.146   4.652
 7636SOL    HW223808   0.117   4.075   4.511
 7637SOL     OW23809   0.964   6.236   4.554
 7637SOL    HW123810   0.980   6.298   4.630
 7637SOL    HW223811   0.872   6.198   4.561
 7638SOL     OW23812   0.340   6.333   1.408
 7638SOL    HW123813   0.268   6.346   1.339
 7638SOL    HW223814   0.413   6.400   1.393
 7639SOL     OW23815   1.371   0.588   0.041
 7639SOL    HW123816   1.340   0.599   0.136
 7639SOL    HW223817   1.386   0.491   0.023
 7640SOL     OW23818   3.107   1.012   0.515
 7640SOL    HW123819   3.136   0.989   0.608
 7640SOL    HW223820   3.097   0.928   0.461
 7641SOL     OW23821   0.592   4.306   3.619
 7641SOL    HW123822   0.517   4.242   3.603
 7641SOL    HW223823   0.576   4.389   3.566
 7642SOL     OW23824   6.079   1.104   3.388
 7642SOL    HW123825   6.091   1.201   3.369
 7642SOL    HW223826   6.126   1.080   3.472
 7643SOL     OW23827   5.417   3.646   3.188
 7643SOL    HW123828   5.414   3.644   3.288
 7643SOL    HW223829   5.370   3.565   3.152
 7644SOL     OW23830   5.659   4.182   1.020
 7644SOL    HW123831   5.711   4.142   0.945
 7644SOL    HW223832   5.639   4.112   1.088
 7645SOL     OW23833   3.623   4.663   5.980
 7645SOL    HW123834   3.571   4.590   6.026
 7645SOL    HW223835   3.587   4.752   6.008
 7646SOL     OW23836   6.556   2.070   1.285
 7646SOL    HW123837   6.488   2.021   1.231
 7646SOL    HW223838   6.513   2.104   1.369
 7647SOL     OW23839   6.560   2.407   5.143
 7647SOL    HW123840   6.575   2.498   5.182
 7647SOL    HW223841   6.625   2.392   5.069
 7648SOL     OW23842   3.166   1.667   1.688
 7648SOL    HW123843   3.105   1.589   1.701
 7648SOL    HW223844   3.125   1.749   1.729
 7649SOL     OW23845   4.128   1.390   5.718
 7649SOL    HW123846   4.092   1.390   5.812
 7649SOL    HW223847   4.104   1.477   5.674
 7650SOL     OW23848   3.808   2.244   0.698
 7650SOL    HW123849   3.903   2.267   0.678
 7650SOL    HW223850   3.747   2.311   0.654
 7651SOL     OW23851   3.159   4.761   5.924
 7651SOL    HW123852   3.254   4.758   5.893
 7651SOL    HW223853   3.098   4.750   5.846
 7652SOL     OW23854   0.660   0.981   3.909
 7652SOL    HW123855   0.563   0.969   3.926
 7652SOL    HW223856   0.687   0.931   3.827
 7653SOL     OW23857   1.295   1.518   6.234
 7653SOL    HW123858   1.224   1.544   6.169
 7653SOL    HW223859   1.252   1.499   6.323
 7654SOL     OW23860   5.528   1.961   6.352
 7654SOL    HW123861   5.458   1.918   6.409
 7654SOL    HW223862   5.527   2.060   6.366
 7655SOL     OW23863   3.007   1.625   3.062
 7655SOL    HW123864   2.961   1.541   3.033
 7655SOL    HW223865   2.981   1.700   3.002
 7656SOL     OW23866   6.610   2.936   6.501
 7656SOL    HW123867   6.663   3.011   6.540
 7656SOL    HW223868   6.672   2.862   6.472
 7657SOL     OW23869   0.948   4.167   4.403
 7657SOL    HW123870   1.035   4.177   4.355
 7657SOL    HW223871   0.883   4.120   4.344
 7658SOL     OW23872   2.499   1.271   1.123
 7658SOL    HW123873   2.576   1.226   1.168
 7658SOL    HW223874   2.508   1.262   1.024
 7659SOL     OW23875   4.769   3.915   5.581
 7659SOL    HW123876   4.796   3.853   5.655
 7659SOL    HW223877   4.791   3.873   5.493
 7660SOL     OW23878   6.684   5.393   4.628
 7660SOL    HW123879   6.676   5.295   4.610
 7660SOL    HW223880   6.771   5.426   4.591
 7661SOL     OW23881   4.531   2.030   5.581
 7661SOL    HW123882   4.436   2.018   5.552
 7661SOL    HW223883   4.592   2.000   5.507
 7662SOL     OW23884   6.209   0.274   1.158
 7662SOL    HW123885   6.114   0.287   1.128
 7662SOL    HW223886   6.267   0.343   1.115
 7663SOL     OW23887   0.421   5.807   5.651
 7663SOL    HW123888   0.362   5.736   5.611
 7663SOL    HW223889   0.469   5.855   5.578
 7664SOL     OW23890   3.900   2.169   2.131
 7664SOL    HW123891   3.809   2.165   2.090
 7664SOL    HW223892   3.900   2.235   2.206
 7665SOL     OW23893   4.426   0.454   5.825
 7665SOL    HW123894   4.369   0.426   5.748
 7665SOL    HW223895   4.393   0.413   5.909
 7666SOL     OW23896   5.385   4.649   3.543
 7666SOL    HW123897   5.372   4.616   3.450
 7666SOL    HW223898   5.360   4.577   3.608
 7667SOL     OW23899   3.942   5.939   1.686
 7667SOL    HW123900   3.918   5.953   1.590
 7667SOL    HW223901   3.870   5.976   1.745
 7668SOL     OW23902   2.226   5.826   0.500
 7668SOL    HW123903   2.194   5.917   0.527
 7668SOL    HW223904   2.312   5.806   0.547
 7669SOL     OW23905   2.125   1.257   5.775
 7669SOL    HW123906   2.054   1.206   5.823
 7669SOL    HW223907   2.175   1.315   5.840
 7670SOL     OW23908   0.940   6.495   0.584
 7670SOL    HW123909   0.936   6.401   0.617
 7670SOL    HW223910   0.977   6.496   0.491
 7671SOL     OW23911   3.537   0.205   1.053
 7671SOL    HW123912   3.584   0.117   1.046
 7671SOL    HW223913   3.545   0.240   1.147
 7672SOL     OW23914   4.836   5.010   2.888
 7672SOL    HW123915   4.895   4.952   2.832
 7672SOL    HW223916   4.748   4.964   2.903
 7673SOL     OW23917   1.708   6.141   4.265
 7673SOL    HW123918   1.684   6.215   4.202
 7673SOL    HW223919   1.643   6.139   4.341
 7674SOL     OW23920   4.629   6.112   4.348
 7674SOL    HW123921   4.686   6.127   4.429
 7674SOL    HW223922   4.548   6.169   4.353
 7675SOL     OW23923   5.090   6.342   3.431
 7675SOL    HW123924   5.061   6.397   3.510
 7675SOL    HW223925   5.170   6.385   3.389
 7676SOL     OW23926   3.454   3.039   5.397
 7676SOL    HW123927   3.364   3.071   5.366
 7676SOL    HW223928   3.516   3.116   5.405
 7677SOL     OW23929   6.213   4.719   0.476
 7677SOL    HW123930   6.196   4.792   0.411
 7677SOL    HW223931   6.296   4.740   0.529
 7678SOL     OW23932   1.476   0.764   4.688
 7678SOL    HW123933   1.399   0.729   4.635
 7678SOL    HW223934   1.458   0.751   4.786
 7679SOL     OW23935   3.381   5.647   5.478
 7679SOL    HW123936   3.321   5.618   5.552
 7679SOL    HW223937   3.331   5.706   5.415
 7680SOL     OW23938   2.053   0.239   4.971
 7680SOL    HW123939   2.010   0.327   4.953
 7680SOL    HW223940   2.138   0.253   5.021
 7681SOL     OW23941   2.658   3.729   6.477
 7681SOL    HW123942   2.690   3.666   6.407
 7681SOL    HW223943   2.564   3.707   6.502
 7682SOL     OW23944   2.809   1.555   2.609
 7682SOL    HW123945   2.776   1.531   2.518
 7682SOL    HW223946   2.903   1.523   2.620
 7683SOL     OW23947   0.517   5.762   4.347
 7683SOL    HW123948   0.617   5.769   4.348
 7683SOL    HW223949   0.481   5.819   4.273
 7684SOL     OW23950   4.381   3.016   1.038
 7684SOL    HW123951   4.464   3.010   1.093
 7684SOL    HW223952   4.306   2.970   1.085
 7685SOL     OW23953   2.617   0.587   0.281
 7685SOL    HW123954   2.554   0.664   0.285
 7685SOL    HW223955   2.564   0.502   0.275
 7686SOL     OW23956   5.961   0.015   4.822
 7686SOL    HW123957   5.978   6.958   4.757
 7686SOL    HW223958   5.886   7.008   4.883
 7687SOL     OW23959   5.919   4.513   5.701
 7687SOL    HW123960   5.894   4.451   5.775
 7687SOL    HW223961   5.939   4.459   5.619
 7688SOL     OW23962   0.301   4.320   6.240
 7688SOL    HW123963   0.246   4.241   6.265
 7688SOL    HW223964   0.244   4.402   6.241
 7689SOL     OW23965   4.745   0.324   1.548
 7689SOL    HW123966   4.736   0.400   1.483
 7689SOL    HW223967   4.668   0.325   1.611
 7690SOL     OW23968   5.908   5.476   1.386
 7690SOL    HW123969   5.878   5.381   1.398
 7690SOL    HW223970   5.921   5.518   1.475
 7691SOL     OW23971   4.668   4.296   3.160
 7691SOL    HW123972   4.701   4.244   3.239
 7691SOL    HW223973   4.611   4.372   3.191
 7692SOL     OW23974   2.490   0.080   2.763
 7692SOL    HW123975   2.533   7.011   2.786
 7692SOL    HW223976   2.544   0.155   2.801
 7693SOL     OW23977   2.043   1.247   1.234
 7693SOL    HW123978   1.950   1.251   1.200
 7693SOL    HW223979   2.057   1.319   1.303
 7694SOL     OW23980   5.303   1.520   5.534
 7694SOL    HW123981   5.314   1.521   5.633
 7694SOL    HW223982   5.266   1.432   5.504
 7695SOL     OW23983   4.758   0.012   3.792
 7695SOL    HW123984   4.693   6.986   3.730
 7695SOL    HW223985   4.767   6.976   3.875
 7696SOL     OW23986   1.651   2.991   5.903
 7696SOL    HW123987   1.737   3.041   5.903
 7696SOL    HW223988   1.574   3.055   5.900
 7697SOL     OW23989   4.902   0.162   3.078
 7697SOL    HW123990   4.983   0.218   3.062
 7697SOL    HW223991   4.828   0.192   3.019
 7698SOL     OW23992   6.203   2.897   0.753
 7698SOL    HW123993   6.108   2.894   0.722
 7698SOL    HW223994   6.208   2.949   0.839
 7699SOL     OW23995   4.774   5.751   6.105
 7699SOL    HW123996   4.681   5.713   6.108
 7699SOL    HW223997   4.835   5.694   6.162
 7700SOL     OW23998   5.342   6.375   2.598
 7700SOL    HW123999   5.313   6.282   2.617
 7700SOL    HW224000   5.387   6.414   2.678
 7701SOL     OW24001   1.386   2.591   6.523
 7701SOL    HW124002   1.346   2.668   6.473
 7701SOL    HW224003   1.451   2.543   6.464
 7702SOL     OW24004   4.488   0.008   4.400
 7702SOL    HW124005   4.499   0.060   4.315
 7702SOL    HW224006   4.563   6.960   4.409
 7703SOL     OW24007   6.295   0.027   5.157
 7703SOL    HW124008   6.203   0.063   5.147
 7703SOL    HW224009   6.339   0.021   5.067
 7704SOL     OW24010   0.426   1.341   4.926
 7704SOL    HW124011   0.523   1.349   4.903
 7704SOL    HW224012   0.416   1.293   5.013
 7705SOL     OW24013   1.033   5.536   6.538
 7705SOL    HW124014   1.034   5.622   6.590
 7705SOL    HW224015   0.950   5.532   6.482
 7706SOL     OW24016   3.175   2.919   2.161
 7706SOL    HW124017   3.197   2.991   2.095
 7706SOL    HW224018   3.131   2.843   2.113
 7707SOL     OW24019   6.916   4.255   6.396
 7707SOL    HW124020   6.876   4.287   6.311
 7707SOL    HW224021   6.843   4.224   6.457
 7708SOL     OW24022   2.315   0.353   4.543
 7708SOL    HW124023   2.361   0.415   4.608
 7708SOL    HW224024   2.363   0.356   4.456
 7709SOL     OW24025   6.810   4.761   1.575
 7709SOL    HW124026   6.807   4.844   1.521
 7709SOL    HW224027   6.902   4.721   1.571
 7710SOL     OW24028   6.831   3.029   1.174
 7710SOL    HW124029   6.785   2.959   1.229
 7710SOL    HW224030   6.790   3.118   1.194
 7711SOL     OW24031   0.066   4.821   4.838
 7711SOL    HW124032   0.029   4.750   4.897
 7711SOL    HW224033   0.131   4.781   4.774
 7712SOL     OW24034   0.234   5.048   5.382
 7712SOL    HW124035   0.139   5.060   5.413
 7712SOL    HW224036   0.284   5.133   5.393
 7713SOL     OW24037   1.541   4.401   6.916
 7713SOL    HW124038   1.586   4.320   6.954
 7713SOL    HW224039   1.549   4.477   6.979
 7714SOL     OW24040   6.327   1.375   4.815
 7714SOL    HW124041   6.270   1.370   4.733
 7714SOL    HW224042   6.317   1.290   4.868
 7715SOL     OW24043   3.334   3.101   5.160
 7715SOL    HW124044   3.352   3.011   5.200
 7715SOL    HW224045   3.415   3.132   5.111
 7716SOL     OW24046   1.367   6.659   6.084
 7716SOL    HW124047   1.274   6.626   6.102
 7716SOL    HW224048   1.424   6.584   6.051
 7717SOL     OW24049   0.143   1.981   6.523
 7717SOL    HW124050   0.089   2.031   6.456
 7717SOL    HW224051   0.201   2.045   6.574
 7718SOL     OW24052   1.055   3.584   3.030
 7718SOL    HW124053   1.061   3.591   3.129
 7718SOL    HW224054   1.147   3.568   2.992
 7719SOL     OW24055   1.994   4.849   4.867
 7719SOL    HW124056   2.082   4.897   4.871
 7719SOL    HW224057   1.949   4.855   4.956
 7720SOL     OW24058   4.357   1.082   6.887
 7720SOL    HW124059   4.340   1.010   6.954
 7720SOL    HW224060   4.427   1.144   6.922
 7721SOL     OW24061   0.247   0.741   2.553
 7721SOL    HW124062   0.345   0.753   2.573
 7721SOL    HW224063   0.194   0.796   2.618
 7722SOL     OW24064   0.829   5.870   3.872
 7722SOL    HW124065   0.783   5.810   3.938
 7722SOL    HW224066   0.849   5.818   3.789
 7723SOL     OW24067   4.888   4.278   0.345
 7723SOL    HW124068   4.970   4.326   0.312
 7723SOL    HW224069   4.830   4.255   0.267
 7724SOL     OW24070   2.080   3.550   1.453
 7724SOL    HW124071   1.988   3.513   1.439
 7724SOL    HW224072   2.111   3.526   1.545
 7725SOL     OW24073   5.400   2.792   3.195
 7725SOL    HW124074   5.323   2.734   3.168
 7725SOL    HW224075   5.420   2.857   3.121
 7726SOL     OW24076   0.824   3.418   5.963
 7726SOL    HW124077   0.833   3.514   5.937
 7726SOL    HW224078   0.727   3.393   5.965
 7727SOL     OW24079   4.170   0.978   2.085
 7727SOL    HW124080   4.249   1.033   2.112
 7727SOL    HW224081   4.182   0.945   1.991
 7728SOL     OW24082   1.785   3.386   4.868
 7728SOL    HW124083   1.881   3.356   4.872
 7728SOL    HW224084   1.729   3.326   4.925
 7729SOL     OW24085   0.071   1.814   3.661
 7729SOL    HW124086   0.016   1.732   3.648
 7729SOL    HW224087   0.011   1.891   3.685
 7730SOL     OW24088   6.344   4.345   4.943
 7730SOL    HW124089   6.294   4.272   4.990
 7730SOL    HW224090   6.290   4.429   4.943
 7731SOL     OW24091   6.982   6.438   6.632
 7731SOL    HW124092   0.052   6.399   6.661
 7731SOL    HW224093   6.912   6.367   6.633
 7732SOL     OW24094   3.584   6.579   6.766
 7732SOL    HW124095   3.603   6.509   6.836
 7732SOL    HW224096   3.586   6.670   6.808
 7733SOL     OW24097   6.335   5.575   1.464
 7733SOL    HW124098   6.380   5.613   1.545
 7733SOL    HW224099   6.319   5.648   1.397
 7734SOL     OW24100   3.538   3.448   5.015
 7734SOL    HW124101   3.498   3.408   5.097
 7734SOL    HW224102   3.636   3.465   5.031
 7735SOL     OW24103   6.937   6.042   0.594
 7735SOL    HW124104   6.879   5.970   0.634
 7735SOL    HW224105   0.015   6.025   0.619
 7736SOL     OW24106   1.905   3.007   7.007
 7736SOL    HW124107   1.819   3.031   6.961
 7736SOL    HW224108   1.979   3.004   6.940
 7737SOL     OW24109   4.403   5.217   0.881
 7737SOL    HW124110   4.427   5.122   0.900
 7737SOL    HW224111   4.319   5.220   0.827
 7738SOL     OW24112   2.355   0.663   5.376
 7738SOL    HW124113   2.358   0.698   5.282
 7738SOL    HW224114   2.329   0.566   5.375
 7739SOL     OW24115   1.821   2.056   0.840
 7739SOL    HW124116   1.896   1.990   0.842
 7739SOL    HW224117   1.830   2.119   0.918
 7740SOL     OW24118   1.947   0.512   4.886
 7740SOL    HW124119   1.900   0.580   4.830
 7740SOL    HW224120   2.046   0.526   4.880
 7741SOL     OW24121   1.776   4.488   6.281
 7741SOL    HW124122   1.717   4.465   6.204
 7741SOL    HW224123   1.828   4.406   6.309
 7742SOL     OW24124   4.465   1.803   4.308
 7742SOL    HW124125   4.426   1.872   4.247
 7742SOL    HW224126   4.563   1.819   4.317
 7743SOL     OW24127   5.086   1.724   5.961
 7743SOL    HW124128   5.045   1.795   5.904
 7743SOL    HW224129   5.183   1.744   5.974
 7744SOL     OW24130   0.740   6.357   4.669
 7744SOL    HW124131   0.687   6.441   4.676
 7744SOL    HW224132   0.836   6.375   4.692
 7745SOL     OW24133   2.776   6.841   0.343
 7745SOL    HW124134   2.832   6.920   0.367
 7745SOL    HW224135   2.775   6.829   0.244
 7746SOL     OW24136   1.158   5.920   0.791
 7746SOL    HW124137   1.095   5.859   0.837
 7746SOL    HW224138   1.175   5.887   0.698
 7747SOL     OW24139   1.104   6.039   0.253
 7747SOL    HW124140   1.155   6.123   0.273
 7747SOL    HW224141   1.011   6.046   0.288
 7748SOL     OW24142   4.694   2.013   6.288
 7748SOL    HW124143   4.783   1.975   6.314
 7748SOL    HW224144   4.705   2.072   6.208
 7749SOL     OW24145   3.549   3.901   4.389
 7749SOL    HW124146   3.469   3.952   4.420
 7749SOL    HW224147   3.584   3.845   4.464
 7750SOL     OW24148   5.663   4.119   5.125
 7750SOL    HW124149   5.720   4.047   5.164
 7750SOL    HW224150   5.641   4.097   5.030
 7751SOL     OW24151   7.004   0.883   5.155
 7751SOL    HW124152   6.957   0.899   5.069
 7751SOL    HW224153   0.009   0.971   5.198
 7752SOL     OW24154   6.196   5.645   5.329
 7752SOL    HW124155   6.275   5.643   5.390
 7752SOL    HW224156   6.112   5.639   5.383
 7753SOL     OW24157   2.774   1.239   4.712
 7753SOL    HW124158   2.782   1.332   4.747
 7753SOL    HW224159   2.727   1.240   4.624
 7754SOL     OW24160   6.245   0.651   1.734
 7754SOL    HW124161   6.277   0.633   1.641
 7754SOL    HW224162   6.232   0.564   1.782
 7755SOL     OW24163   1.337   5.876   5.369
 7755SOL    HW124164   1.377   5.854   5.458
 7755SOL    HW224165   1.246   5.835   5.362
 7756SOL     OW24166   3.341   5.711   2.302
 7756SOL    HW124167   3.395   5.694   2.220
 7756SOL    HW224168   3.354   5.635   2.366
 7757SOL     OW24169   4.768   6.444   6.043
 7757SOL    HW124170   4.788   6.408   5.952
 7757SOL    HW224171   4.754   6.368   6.107
 7758SOL     OW24172   2.459   2.078   5.396
 7758SOL    HW124173   2.542   2.028   5.372
 7758SOL    HW224174   2.451   2.160   5.340
 7759SOL     OW24175   2.026   0.968   5.388
 7759SOL    HW124176   2.035   0.954   5.290
 7759SOL    HW224177   1.958   1.040   5.406
 7760SOL     OW24178   4.631   2.636   2.375
 7760SOL    HW124179   4.629   2.694   2.294
 7760SOL    HW224180   4.567   2.560   2.364
 7761SOL     OW24181   3.840   7.002   6.682
 7761SOL    HW124182   3.744   0.000   6.659
 7761SOL    HW224183   3.865   6.909   6.657
 7762SOL     OW24184   3.102   1.625   0.621
 7762SOL    HW124185   3.028   1.608   0.687
 7762SOL    HW224186   3.158   1.543   0.612
 7763SOL     OW24187   1.852   1.802   1.087
 7763SOL    HW124188   1.903   1.827   1.169
 7763SOL    HW224189   1.888   1.854   1.009
 7764SOL     OW24190   3.151   2.958   3.051
 7764SOL    HW124191   3.096   3.040   3.032
 7764SOL    HW224192   3.133   2.889   2.981
 7765SOL     OW24193   6.807   2.265   2.362
 7765SOL    HW124194   6.721   2.311   2.382
 7765SOL    HW224195   6.869   2.329   2.315
 7766SOL     OW24196   6.648   2.918   0.034
 7766SOL    HW124197   6.703   2.836   0.018
 7766SOL    HW224198   6.556   2.904   7.013
 7767SOL     OW24199   5.130   4.384   5.249
 7767SOL    HW124200   5.125   4.321   5.172
 7767SOL    HW224201   5.221   4.426   5.252
 7768SOL     OW24202   3.465   5.171   2.498
 7768SOL    HW124203   3.381   5.208   2.459
 7768SOL    HW224204   3.540   5.236   2.485
 7769SOL     OW24205   5.934   1.803   1.670
 7769SOL    HW124206   5.949   1.757   1.757
 7769SOL    HW224207   5.933   1.902   1.684
 7770SOL     OW24208   3.770   5.403   1.273
 7770SOL    HW124209   3.770   5.402   1.173
 7770SOL    HW224210   3.721   5.484   1.306
 7771SOL     OW24211   2.568   1.378   5.387
 7771SOL    HW124212   2.557   1.353   5.291
 7771SOL    HW224213   2.503   1.450   5.412
 7772SOL     OW24214   5.357   1.367   4.590
 7772SOL    HW124215   5.446   1.410   4.577
 7772SOL    HW224216   5.290   1.436   4.615
 7773SOL     OW24217   3.844   4.602   5.430
 7773SOL    HW124218   3.904   4.542   5.378
 7773SOL    HW224219   3.775   4.547   5.478
 7774SOL     OW24220   4.635   1.517   6.337
 7774SOL    HW124221   4.612   1.603   6.382
 7774SOL    HW224222   4.680   1.536   6.250
 7775SOL     OW24223   2.918   6.981   2.670
 7775SOL    HW124224   2.896   6.949   2.578
 7775SOL    HW224225   2.914   0.063   2.673
 7776SOL     OW24226   3.990   3.503   6.895
 7776SOL    HW124227   3.919   3.566   6.863
 7776SOL    HW224228   3.952   3.412   6.907
 7777SOL     OW24229   1.862   1.145   0.063
 7777SOL    HW124230   1.958   1.172   0.072
 7777SOL    HW224231   1.830   1.166   6.988
 7778SOL     OW24232   5.774   0.807   0.288
 7778SOL    HW124233   5.825   0.811   0.202
 7778SOL    HW224234   5.748   0.900   0.316
 7779SOL     OW24235   3.873   3.209   6.266
 7779SOL    HW124236   3.851   3.140   6.197
 7779SOL    HW224237   3.858   3.300   6.227
 7780SOL     OW24238   1.440   7.000   4.511
 7780SOL    HW124239   1.516   6.950   4.469
 7780SOL    HW224240   1.369   6.936   4.538
 7781SOL     OW24241   1.207   4.881   4.834
 7781SOL    HW124242   1.252   4.827   4.905
 7781SOL    HW224243   1.193   4.974   4.866
 7782SOL     OW24244   3.281   4.236   6.596
 7782SOL    HW124245   3.198   4.261   6.546
 7782SOL    HW224246   3.273   4.142   6.630
 7783SOL     OW24247   2.985   5.222   6.516
 7783SOL    HW124248   3.012   5.306   6.468
 7783SOL    HW224249   3.057   5.197   6.581
 7784SOL     OW24250   0.584   2.527   0.018
 7784SOL    HW124251   0.614   2.482   0.101
 7784SOL    HW224252   0.490   2.560   0.030
 7785SOL     OW24253   2.686   5.830   4.409
 7785SOL    HW124254   2.621   5.906   4.408
 7785SOL    HW224255   2.640   5.746   4.378
 7786SOL     OW24256   2.985   3.992   4.958
 7786SOL    HW124257   2.939   3.909   4.926
 7786SOL    HW224258   2.951   4.071   4.908
 7787SOL     OW24259   2.663   2.536   5.254
 7787SOL    HW124260   2.628   2.627   5.272
 7787SOL    HW224261   2.761   2.534   5.273
 7788SOL     OW24262   0.793   1.248   6.985
 7788SOL    HW124263   0.832   1.161   7.015
 7788SOL    HW224264   0.749   1.236   6.896
 7789SOL     OW24265   2.493   0.227   1.147
 7789SOL    HW124266   2.494   0.314   1.098
 7789SOL    HW224267   2.399   0.204   1.173
 7790SOL     OW24268   5.719   3.474   2.434
 7790SOL    HW124269   5.780   3.497   2.510
 7790SOL    HW224270   5.681   3.558   2.395
 7791SOL     OW24271   1.521   5.128   4.998
 7791SOL    HW124272   1.542   5.135   4.900
 7791SOL    HW224273   1.560   5.206   5.047
 7792SOL     OW24274   2.537   5.388   6.308
 7792SOL    HW124275   2.448   5.417   6.272
 7792SOL    HW224276   2.540   5.405   6.407
 7793SOL     OW24277   1.076   0.957   6.408
 7793SOL    HW124278   1.075   0.980   6.505
 7793SOL    HW224279   1.128   1.027   6.358
 7794SOL     OW24280   5.348   5.686   3.912
 7794SOL    HW124281   5.297   5.677   3.997
 7794SOL    HW224282   5.390   5.598   3.888
 7795SOL     OW24283   2.600   4.484   5.663
 7795SOL    HW124284   2.683   4.448   5.622
 7795SOL    HW224285   2.566   4.561   5.609
 7796SOL     OW24286   4.158   3.424   3.847
 7796SOL    HW124287   4.151   3.440   3.749
 7796SOL    HW224288   4.135   3.507   3.896
 7797SOL     OW24289   0.689   0.337   2.529
 7797SOL    HW124290   0.694   0.375   2.621
 7797SOL    HW224291   0.774   0.288   2.508
 7798SOL     OW24292   4.146   5.382   0.066
 7798SOL    HW124293   4.187   5.291   0.072
 7798SOL    HW224294   4.217   5.449   0.042
 7799SOL     OW24295   0.459   5.027   1.317
 7799SOL    HW124296   0.546   5.003   1.361
 7799SOL    HW224297   0.424   5.112   1.357
 7800SOL     OW24298   0.685   5.828   2.300
 7800SOL    HW124299   0.587   5.816   2.315
 7800SOL    HW224300   0.703   5.843   2.202
 7801SOL     OW24301   3.675   1.937   6.360
 7801SOL    HW124302   3.774   1.936   6.355
 7801SOL    HW224303   3.646   1.991   6.439
 7802SOL     OW24304   5.368   2.059   1.437
 7802SOL    HW124305   5.452   2.021   1.399
 7802SOL    HW224306   5.303   2.076   1.363
 7803SOL     OW24307   4.238   4.182   5.567
 7803SOL    HW124308   4.146   4.181   5.526
 7803SOL    HW224309   4.300   4.231   5.507
 7804SOL     OW24310   4.547   1.737   6.469
 7804SOL    HW124311   4.489   1.810   6.434
 7804SOL    HW224312   4.548   1.740   6.569
 7805SOL     OW24313   4.886   3.722   1.685
 7805SOL    HW124314   4.869   3.648   1.750
 7805SOL    HW224315   4.954   3.692   1.617
 7806SOL     OW24316   5.129   2.608   6.880
 7806SOL    HW124317   5.090   2.532   6.828
 7806SOL    HW224318   5.152   2.683   6.818
 7807SOL     OW24319   0.324   4.122   6.657
 7807SOL    HW124320   0.393   4.136   6.586
 7807SOL    HW224321   0.292   4.027   6.654
 7808SOL     OW24322   0.721   1.406   5.138
 7808SOL    HW124323   0.820   1.404   5.154
 7808SOL    HW224324   0.698   1.490   5.088
 7809SOL     OW24325   2.404   5.331   4.920
 7809SOL    HW124326   2.456   5.247   4.935
 7809SOL    HW224327   2.442   5.404   4.978
 7810SOL     OW24328   2.845   0.978   6.732
 7810SOL    HW124329   2.808   0.945   6.819
 7810SOL    HW224330   2.945   0.975   6.735
 7811SOL     OW24331   6.676   4.300   3.957
 7811SOL    HW124332   6.619   4.227   3.920
 7811SOL    HW224333   6.751   4.260   4.010
 7812SOL     OW24334   1.323   1.902   3.513
 7812SOL    HW124335   1.411   1.942   3.489
 7812SOL    HW224336   1.249   1.966   3.491
 7813SOL     OW24337   6.469   3.118   0.865
 7813SOL    HW124338   6.546   3.086   0.919
 7813SOL    HW224339   6.384   3.102   0.915
 7814SOL     OW24340   0.588   3.706   3.220
 7814SOL    HW124341   0.608   3.609   3.237
 7814SOL    HW224342   0.507   3.732   3.271
 7815SOL     OW24343   6.591   1.513   6.153
 7815SOL    HW124344   6.645   1.500   6.237
 7815SOL    HW224345   6.650   1.501   6.073
 7816SOL     OW24346   0.914   4.049   4.897
 7816SOL    HW124347   0.997   4.066   4.950
 7816SOL    HW224348   0.867   4.135   4.880
 7817SOL     OW24349   5.652   3.636   4.552
 7817SOL    HW124350   5.608   3.605   4.467
 7817SOL    HW224351   5.612   3.586   4.630
 7818SOL     OW24352   5.121   5.319   2.341
 7818SOL    HW124353   5.157   5.411   2.358
 7818SOL    HW224354   5.047   5.300   2.406
 7819SOL     OW24355   6.817   1.448   1.465
 7819SOL    HW124356   6.789   1.446   1.561
 7819SOL    HW224357   6.743   1.487   1.410
 7820SOL     OW24358   1.956   0.547   6.323
 7820SOL    HW124359   2.000   0.458   6.331
 7820SOL    HW224360   1.930   0.581   6.414
 7821SOL     OW24361   3.171   5.297   1.633
 7821SOL    HW124362   3.217   5.305   1.721
 7821SOL    HW224363   3.074   5.319   1.643
 7822SOL     OW24364   1.696   5.748   4.705
 7822SOL    HW124365   1.695   5.771   4.802
 7822SOL    HW224366   1.667   5.653   4.693
 7823SOL     OW24367   1.533   4.708   4.826
 7823SOL    HW124368   1.496   4.760   4.903
 7823SOL    HW224369   1.609   4.759   4.785
 7824SOL     OW24370   0.462   2.804   5.713
 7824SOL    HW124371   0.474   2.704   5.709
 7824SOL    HW224372   0.551   2.848   5.699
 7825SOL     OW24373   2.869   1.250   6.737
 7825SOL    HW124374   2.829   1.282   6.651
 7825SOL    HW224375   2.844   1.155   6.752
 7826SOL     OW24376   0.725   3.062   6.495
 7826SOL    HW124377   0.695   3.021   6.409
 7826SOL    HW224378   0.647   3.102   6.543
 7827SOL     OW24379   6.448   5.542   4.594
 7827SOL    HW124380   6.520   5.474   4.611
 7827SOL    HW224381   6.491   5.628   4.566
 7828SOL     OW24382   0.721   5.131   6.982
 7828SOL    HW124383   0.674   5.047   7.007
 7828SOL    HW224384   0.795   5.148   0.029
 7829SOL     OW24385   3.921   2.954   0.404
 7829SOL    HW124386   3.844   2.940   0.341
 7829SOL    HW224387   3.886   2.975   0.495
 7830SOL     OW24388   2.596   5.129   4.080
 7830SOL    HW124389   2.580   5.063   4.006
 7830SOL    HW224390   2.527   5.117   4.151
 7831SOL     OW24391   1.911   0.999   0.358
 7831SOL    HW124392   1.883   1.095   0.362
 7831SOL    HW224393   1.900   0.965   0.265
 7832SOL     OW24394   6.351   0.833   4.890
 7832SOL    HW124395   6.437   0.854   4.935
 7832SOL    HW224396   6.367   0.812   4.794
 7833SOL     OW24397   1.570   0.550   3.711
 7833SOL    HW124398   1.587   0.604   3.794
 7833SOL    HW224399   1.569   0.453   3.735
 7834SOL     OW24400   6.724   3.218   4.979
 7834SOL    HW124401   6.627   3.197   4.975
 7834SOL    HW224402   6.737   3.317   4.984
 7835SOL     OW24403   3.915   2.697   5.327
 7835SOL    HW124404   3.971   2.627   5.283
 7835SOL    HW224405   3.974   2.767   5.368
 7836SOL     OW24406   3.284   3.816   4.215
 7836SOL    HW124407   3.384   3.820   4.217
 7836SOL    HW224408   3.247   3.905   4.241
 7837SOL     OW24409   0.180   6.070   7.011
 7837SOL    HW124410   0.213   6.000   0.057
 7837SOL    HW224411   0.149   6.027   6.927
 7838SOL     OW24412   4.839   5.448   2.015
 7838SOL    HW124413   4.925   5.397   2.008
 7838SOL    HW224414   4.763   5.386   1.995
 7839SOL     OW24415   5.726   3.295   4.483
 7839SOL    HW124416   5.783   3.217   4.508
 7839SOL    HW224417   5.638   3.290   4.531
 7840SOL     OW24418   1.915   2.935   4.164
 7840SOL    HW124419   1.951   2.930   4.257
 7840SOL    HW224420   1.899   3.031   4.140
 7841SOL     OW24421   4.031   2.006   6.128
 7841SOL    HW124422   4.038   2.074   6.054
 7841SOL    HW224423   4.102   1.937   6.117
 7842SOL     OW24424   1.449   0.478   2.186
 7842SOL    HW124425   1.361   0.431   2.187
 7842SOL    HW224426   1.433   0.577   2.196
 7843SOL     OW24427   6.784   6.345   3.149
 7843SOL    HW124428   6.842   6.424   3.170
 7843SOL    HW224429   6.720   6.369   3.076
 7844SOL     OW24430   3.691   1.319   2.592
 7844SOL    HW124431   3.743   1.401   2.567
 7844SOL    HW224432   3.748   1.260   2.650
 7845SOL     OW24433   6.807   3.482   0.986
 7845SOL    HW124434   6.769   3.418   1.054
 7845SOL    HW224435   6.790   3.447   0.894
 7846SOL     OW24436   1.534   1.528   0.816
 7846SOL    HW124437   1.518   1.444   0.867
 7846SOL    HW224438   1.450   1.555   0.769
 7847SOL     OW24439   5.305   3.724   5.394
 7847SOL    HW124440   5.279   3.628   5.388
 7847SOL    HW224441   5.384   3.733   5.454
 7848SOL     OW24442   3.473   4.088   1.075
 7848SOL    HW124443   3.443   3.992   1.078
 7848SOL    HW224444   3.407   4.141   1.022
 7849SOL     OW24445   4.774   4.610   0.173
 7849SOL    HW124446   4.686   4.590   0.215
 7849SOL    HW224447   4.766   4.691   0.115
 7850SOL     OW24448   6.922   1.329   3.380
 7850SOL    HW124449   6.973   1.393   3.323
 7850SOL    HW224450   6.890   1.252   3.324
 7851SOL     OW24451   0.264   4.535   1.480
 7851SOL    HW124452   0.342   4.505   1.424
 7851SOL    HW224453   0.289   4.533   1.576
 7852SOL     OW24454   1.220   2.978   6.791
 7852SOL    HW124455   1.319   2.985   6.783
 7852SOL    HW224456   1.196   2.955   6.885
 7853SOL     OW24457   4.027   2.953   1.884
 7853SOL    HW124458   4.083   2.966   1.802
 7853SOL    HW224459   4.026   3.038   1.937
 7854SOL     OW24460   4.632   2.037   6.869
 7854SOL    HW124461   4.645   1.944   6.836
 7854SOL    HW224462   4.575   2.036   6.951
 7855SOL     OW24463   5.058   0.340   4.795
 7855SOL    HW124464   5.095   0.336   4.888
 7855SOL    HW224465   5.066   0.433   4.760
 7856SOL     OW24466   2.216   6.464   4.497
 7856SOL    HW124467   2.232   6.431   4.404
 7856SOL    HW224468   2.119   6.486   4.508
 7857SOL     OW24469   6.046   4.729   1.446
 7857SOL    HW124470   6.079   4.642   1.409
 7857SOL    HW224471   5.948   4.737   1.432
 7858SOL     OW24472   0.474   4.205   6.459
 7858SOL    HW124473   0.422   4.234   6.378
 7858SOL    HW224474   0.560   4.255   6.462
 7859SOL     OW24475   5.417   2.451   0.428
 7859SOL    HW124476   5.414   2.545   0.460
 7859SOL    HW224477   5.392   2.448   0.331
 7860SOL     OW24478   2.925   1.109   4.351
 7860SOL    HW124479   2.971   1.175   4.410
 7860SOL    HW224480   2.951   1.126   4.256
 7861SOL     OW24481   2.468   6.544   0.667
 7861SOL    HW124482   2.376   6.581   0.681
 7861SOL    HW224483   2.531   6.590   0.730
 7862SOL     OW24484   2.101   6.114   0.177
 7862SOL    HW124485   2.162   6.117   0.256
 7862SOL    HW224486   2.027   6.049   0.193
 7863SOL     OW24487   6.985   4.114   3.583
 7863SOL    HW124488   6.886   4.105   3.584
 7863SOL    HW224489   7.013   4.189   3.642
 7864SOL     OW24490   1.713   6.146   5.319
 7864SOL    HW124491   1.809   6.155   5.346
 7864SOL    HW224492   1.682   6.232   5.277
 7865SOL     OW24493   5.562   4.954   3.241
 7865SOL    HW124494   5.557   4.972   3.339
 7865SOL    HW224495   5.581   4.857   3.226
 7866SOL     OW24496   0.023   0.002   5.818
 7866SOL    HW124497   6.993   6.957   5.756
 7866SOL    HW224498   0.076   0.067   5.764
 7867SOL     OW24499   5.244   5.562   3.564
 7867SOL    HW124500   5.246   5.649   3.515
 7867SOL    HW224501   5.224   5.579   3.661
 7868SOL     OW24502   3.119   6.215   1.963
 7868SOL    HW124503   3.021   6.203   1.974
 7868SOL    HW224504   3.152   6.283   2.030
 7869SOL     OW24505   5.806   4.590   6.128
 7869SOL    HW124506   5.744   4.661   6.160
 7869SOL    HW224507   5.759   4.503   6.126
 7870SOL     OW24508   5.449   5.779   4.246
 7870SOL    HW124509   5.444   5.719   4.326
 7870SOL    HW224510   5.411   5.868   4.269
 7871SOL     OW24511   5.453   1.482   1.715
 7871SOL    HW124512   5.437   1.575   1.749
 7871SOL    HW224513   5.403   1.417   1.771
 7872SOL     OW24514   1.720   5.837   2.785
 7872SOL    HW124515   1.683   5.878   2.869
 7872SOL    HW224516   1.808   5.794   2.805
 7873SOL     OW24517   6.099   1.862   0.307
 7873SOL    HW124518   6.083   1.765   0.289
 7873SOL    HW224519   6.028   1.916   0.262
 7874SOL     OW24520   5.668   2.541   0.608
 7874SOL    HW124521   5.678   2.632   0.647
 7874SOL    HW224522   5.611   2.485   0.669
 7875SOL     OW24523   6.096   4.691   6.632
 7875SOL    HW124524   6.004   4.656   6.613
 7875SOL    HW224525   6.126   4.749   6.556
 7876SOL     OW24526   0.961   6.911   3.236
 7876SOL    HW124527   0.955   6.871   3.328
 7876SOL    HW224528   0.947   7.010   3.242
 7877SOL     OW24529   6.645   2.472   2.745
 7877SOL    HW124530   6.693   2.557   2.766
 7877SOL    HW224531   6.600   2.481   2.656
 7878SOL     OW24532   4.344   4.651   2.758
 7878SOL    HW124533   4.340   4.629   2.661
 7878SOL    HW224534   4.256   4.689   2.787
 7879SOL     OW24535   3.103   4.949   2.784
 7879SOL    HW124536   3.057   5.037   2.797
 7879SOL    HW224537   3.070   4.884   2.852
 7880SOL     OW24538   1.301   4.325   2.018
 7880SOL    HW124539   1.338   4.418   2.009
 7880SOL    HW224540   1.297   4.300   2.115
 7881SOL     OW24541   4.693   4.372   4.071
 7881SOL    HW124542   4.776   4.357   4.019
 7881SOL    HW224543   4.698   4.322   4.158
 7882SOL     OW24544   1.396   3.246   0.552
 7882SOL    HW124545   1.337   3.317   0.514
 7882SOL    HW224546   1.340   3.172   0.588
 7883SOL     OW24547   0.890   0.448   5.303
 7883SOL    HW124548   0.967   0.386   5.286
 7883SOL    HW224549   0.897   0.527   5.243
 7884SOL     OW24550   0.841   2.673   4.602
 7884SOL    HW124551   0.898   2.630   4.671
 7884SOL    HW224552   0.745   2.650   4.619
 7885SOL     OW24553   6.596   5.924   6.255
 7885SOL    HW124554   6.685   5.949   6.293
 7885SOL    HW224555   6.549   6.006   6.222
 7886SOL     OW24556   4.958   4.920   0.434
 7886SOL    HW124557   4.894   4.940   0.360
 7886SOL    HW224558   4.907   4.898   0.517
 7887SOL     OW24559   4.574   2.199   6.463
 7887SOL    HW124560   4.487   2.224   6.422
 7887SOL    HW224561   4.628   2.145   6.399
 7888SOL     OW24562   5.039   0.651   4.950
 7888SOL    HW124563   5.060   0.674   5.045
 7888SOL    HW224564   4.940   0.635   4.941
 7889SOL     OW24565   1.099   5.494   2.445
 7889SOL    HW124566   1.185   5.452   2.474
 7889SOL    HW224567   1.104   5.515   2.347
 7890SOL     OW24568   1.714   3.261   2.724
 7890SOL    HW124569   1.616   3.242   2.713
 7890SOL    HW224570   1.765   3.175   2.715
 7891SOL     OW24571   1.313   4.987   3.112
 7891SOL    HW124572   1.257   5.039   3.177
 7891SOL    HW224573   1.350   4.907   3.157
 7892SOL     OW24574   2.043   2.983   5.621
 7892SOL    HW124575   2.129   2.953   5.662
 7892SOL    HW224576   2.049   2.977   5.521
 7893SOL     OW24577   6.064   6.462   1.528
 7893SOL    HW124578   6.044   6.484   1.432
 7893SOL    HW224579   6.025   6.372   1.550
 7894SOL     OW24580   2.848   0.039   1.974
 7894SOL    HW124581   2.898   0.125   1.989
 7894SOL    HW224582   2.751   0.053   1.996
 7895SOL     OW24583   6.717   1.669   3.423
 7895SOL    HW124584   6.664   1.587   3.402
 7895SOL    HW224585   6.664   1.751   3.400
 7896SOL     OW24586   4.265   2.012   5.499
 7896SOL    HW124587   4.254   1.960   5.414
 7896SOL    HW224588   4.242   2.108   5.484
 7897SOL     OW24589   2.847   3.326   6.344
 7897SOL    HW124590   2.881   3.420   6.346
 7897SOL    HW224591   2.839   3.296   6.249
 7898SOL     OW24592   4.316   2.383   3.690
 7898SOL    HW124593   4.261   2.371   3.607
 7898SOL    HW224594   4.399   2.434   3.669
 7899SOL     OW24595   5.363   1.063   2.986
 7899SOL    HW124596   5.430   1.126   3.025
 7899SOL    HW224597   5.353   0.984   3.047
 7900SOL     OW24598   1.577   5.637   0.555
 7900SOL    HW124599   1.527   5.720   0.579
 7900SOL    HW224600   1.623   5.650   0.467
 7901SOL     OW24601   6.303   5.879   0.249
 7901SOL    HW124602   6.220   5.908   0.201
 7901SOL    HW224603   6.330   5.788   0.216
 7902SOL     OW24604   5.215   4.578   6.493
 7902SOL    HW124605   5.231   4.674   6.471
 7902SOL    HW224606   5.197   4.568   6.591
 7903SOL     OW24607   0.352   2.264   0.011
 7903SOL    HW124608   0.416   2.188   0.016
 7903SOL    HW224609   0.304   2.261   6.941
 7904SOL     OW24610   6.407   0.875   2.895
 7904SOL    HW124611   6.362   0.962   2.913
 7904SOL    HW224612   6.503   0.881   2.922
 7905SOL     OW24613   3.549   1.588   0.671
 7905SOL    HW124614   3.539   1.687   0.668
 7905SOL    HW224615   3.638   1.562   0.633
 7906SOL     OW24616   6.496   5.432   0.008
 7906SOL    HW124617   6.506   5.462   6.931
 7906SOL    HW224618   6.472   5.335   0.010
 7907SOL     OW24619   6.485   3.000   2.354
 7907SOL    HW124620   6.566   3.054   2.331
 7907SOL    HW224621   6.421   3.001   2.277
 7908SOL     OW24622   5.997   2.066   3.252
 7908SOL    HW124623   6.081   2.020   3.226
 7908SOL    HW224624   6.005   2.102   3.345
 7909SOL     OW24625   4.648   5.162   5.420
 7909SOL    HW124626   4.614   5.255   5.432
 7909SOL    HW224627   4.696   5.155   5.332
 7910SOL     OW24628   5.837   3.927   5.946
 7910SOL    HW124629   5.821   3.974   5.860
 7910SOL    HW224630   5.931   3.943   5.976
 7911SOL     OW24631   6.339   4.927   6.678
 7911SOL    HW124632   6.405   4.922   6.753
 7911SOL    HW224633   6.371   4.871   6.601
 7912SOL     OW24634   6.640   5.330   5.734
 7912SOL    HW124635   6.657   5.260   5.665
 7912SOL    HW224636   6.554   5.377   5.713
 7913SOL     OW24637   0.720   5.655   6.604
 7913SOL    HW124638   0.643   5.719   6.611
 7913SOL    HW224639   0.690   5.573   6.555
 7914SOL     OW24640   0.204   3.441   2.511
 7914SOL    HW124641   0.293   3.395   2.505
 7914SOL    HW224642   0.146   3.393   2.577
 7915SOL     OW24643   4.478   1.662   2.183
 7915SOL    HW124644   4.389   1.618   2.195
 7915SOL    HW224645   4.532   1.611   2.116
 7916SOL     OW24646   4.844   3.554   5.453
 7916SOL    HW124647   4.904   3.634   5.455
 7916SOL    HW224648   4.783   3.561   5.373
 7917SOL     OW24649   3.535   4.108   4.112
 7917SOL    HW124650   3.465   4.136   4.178
 7917SOL    HW224651   3.518   4.013   4.083
 7918SOL     OW24652   5.995   2.249   2.087
 7918SOL    HW124653   6.089   2.283   2.093
 7918SOL    HW224654   5.964   2.218   2.177
 7919SOL     OW24655   5.869   4.799   1.857
 7919SOL    HW124656   5.821   4.868   1.802
 7919SOL    HW224657   5.961   4.786   1.821
 7920SOL     OW24658   1.077   5.510   1.521
 7920SOL    HW124659   1.007   5.573   1.556
 7920SOL    HW224660   1.088   5.434   1.585
 7921SOL     OW24661   3.411   6.383   2.112
 7921SOL    HW124662   3.410   6.316   2.038
 7921SOL    HW224663   3.321   6.384   2.156
 7922SOL     OW24664   0.429   5.046   6.780
 7922SOL    HW124665   0.471   4.995   6.855
 7922SOL    HW224666   0.346   5.092   6.813
 7923SOL     OW24667   0.998   1.606   3.160
 7923SOL    HW124668   1.010   1.524   3.216
 7923SOL    HW224669   1.044   1.593   3.072
 7924SOL     OW24670   2.410   0.565   3.848
 7924SOL    HW124671   2.444   0.491   3.906
 7924SOL    HW224672   2.408   0.534   3.753
 7925SOL     OW24673   0.216   0.140   6.711
 7925SOL    HW124674   0.216   0.045   6.680
 7925SOL    HW224675   0.203   0.142   6.810
 7926SOL     OW24676   2.927   0.309   1.943
 7926SOL    HW124677   2.878   0.396   1.940
 7926SOL    HW224678   3.023   0.324   1.968
 7927SOL     OW24679   4.327   4.961   4.180
 7927SOL    HW124680   4.409   5.015   4.201
 7927SOL    HW224681   4.246   5.019   4.190
 7928SOL     OW24682   1.449   5.061   0.577
 7928SOL    HW124683   1.536   5.028   0.613
 7928SOL    HW224684   1.456   5.159   0.557
 7929SOL     OW24685   3.776   4.039   4.473
 7929SOL    HW124686   3.681   4.013   4.455
 7929SOL    HW224687   3.814   4.083   4.392
 7930SOL     OW24688   5.280   5.995   4.769
 7930SOL    HW124689   5.182   5.974   4.763
 7930SOL    HW224690   5.306   6.004   4.865
 7931SOL     OW24691   1.621   3.392   0.503
 7931SOL    HW124692   1.696   3.364   0.564
 7931SOL    HW224693   1.538   3.343   0.527
 7932SOL     OW24694   3.133   6.949   0.941
 7932SOL    HW124695   3.119   0.011   0.882
 7932SOL    HW224696   3.157   6.870   0.885
 7933SOL     OW24697   1.504   0.534   6.713
 7933SOL    HW124698   1.545   0.566   6.628
 7933SOL    HW224699   1.549   0.579   6.791
 7934SOL     OW24700   3.864   3.272   5.857
 7934SOL    HW124701   3.806   3.194   5.833
 7934SOL    HW224702   3.960   3.248   5.840
 7935SOL     OW24703   4.093   6.393   1.609
 7935SOL    HW124704   4.095   6.430   1.702
 7935SOL    HW224705   4.169   6.329   1.598
 7936SOL     OW24706   4.361   5.476   2.985
 7936SOL    HW124707   4.374   5.572   3.012
 7936SOL    HW224708   4.385   5.416   3.061
 7937SOL     OW24709   6.174   6.596   5.343
 7937SOL    HW124710   6.153   6.510   5.297
 7937SOL    HW224711   6.212   6.661   5.277
 7938SOL     OW24712   5.863   4.297   4.576
 7938SOL    HW124713   5.963   4.286   4.571
 7938SOL    HW224714   5.833   4.355   4.500
 7939SOL     OW24715   0.961   0.002   4.403
 7939SOL    HW124716   1.048   0.015   4.355
 7939SOL    HW224717   0.886   0.001   4.336
 7940SOL     OW24718   1.795   5.637   0.866
 7940SOL    HW124719   1.839   5.615   0.779
 7940SOL    HW224720   1.837   5.583   0.939
 7941SOL     OW24721   0.488   0.089   0.314
 7941SOL    HW124722   0.499   0.134   0.225
 7941SOL    HW224723   0.391   0.086   0.337
 7942SOL     OW24724   1.412   1.269   1.252
 7942SOL    HW124725   1.436   1.189   1.307
 7942SOL    HW224726   1.314   1.268   1.234
 7943SOL     OW24727   5.812   2.290   0.980
 7943SOL    HW124728   5.901   2.277   1.024
 7943SOL    HW224729   5.780   2.383   0.997
 7944SOL     OW24730   0.440   4.182   2.240
 7944SOL    HW124731   0.452   4.167   2.142
 7944SOL    HW224732   0.349   4.220   2.257
 7945SOL     OW24733   5.298   6.350   1.764
 7945SOL    HW124734   5.288   6.436   1.714
 7945SOL    HW224735   5.383   6.351   1.816
 7946SOL     OW24736   1.550   1.917   5.647
 7946SOL    HW124737   1.526   1.855   5.572
 7946SOL    HW224738   1.566   1.863   5.730
 7947SOL     OW24739   4.000   4.394   6.045
 7947SOL    HW124740   4.083   4.338   6.041
 7947SOL    HW224741   3.936   4.355   6.112
 7948SOL     OW24742   0.756   5.501   6.939
 7948SOL    HW124743   0.682   5.459   6.992
 7948SOL    HW224744   0.747   5.474   6.843
 7949SOL     OW24745   6.487   4.493   3.981
 7949SOL    HW124746   6.530   4.551   3.911
 7949SOL    HW224747   6.533   4.404   3.982
 7950SOL     OW24748   2.994   5.285   4.433
 7950SOL    HW124749   2.965   5.361   4.491
 7950SOL    HW224750   3.090   5.296   4.408
 7951SOL     OW24751   3.500   3.102   1.003
 7951SOL    HW124752   3.561   3.024   0.990
 7951SOL    HW224753   3.440   3.084   1.082
 7952SOL     OW24754   5.210   4.135   0.255
 7952SOL    HW124755   5.153   4.096   0.326
 7952SOL    HW224756   5.179   4.228   0.235
 7953SOL     OW24757   2.261   2.883   2.791
 7953SOL    HW124758   2.192   2.819   2.825
 7953SOL    HW224759   2.235   2.976   2.817
 7954SOL     OW24760   4.903   5.233   5.613
 7954SOL    HW124761   5.003   5.224   5.606
 7954SOL    HW224762   4.861   5.208   5.526
 7955SOL     OW24763   1.310   6.826   6.361
 7955SOL    HW124764   1.329   6.923   6.381
 7955SOL    HW224765   1.362   6.798   6.281
 7956SOL     OW24766   6.037   0.152   3.837
 7956SOL    HW124767   6.118   0.211   3.835
 7956SOL    HW224768   5.957   0.205   3.809
 7957SOL     OW24769   0.976   2.509   1.091
 7957SOL    HW124770   0.969   2.519   1.190
 7957SOL    HW224771   1.039   2.434   1.069
 7958SOL     OW24772   2.147   5.525   2.849
 7958SOL    HW124773   2.052   5.555   2.843
 7958SOL    HW224774   2.155   5.431   2.815
 7959SOL     OW24775   5.179   5.202   0.861
 7959SOL    HW124776   5.176   5.278   0.926
 7959SOL    HW224777   5.183   5.116   0.912
 7960SOL     OW24778   2.335   2.085   1.186
 7960SOL    HW124779   2.324   2.117   1.280
 7960SOL    HW224780   2.342   1.985   1.185
 7961SOL     OW24781   2.001   5.274   6.398
 7961SOL    HW124782   2.006   5.181   6.363
 7961SOL    HW224783   2.093   5.314   6.398
 7962SOL     OW24784   1.018   0.059   2.271
 7962SOL    HW124785   0.939   7.015   2.263
 7962SOL    HW224786   1.064   0.066   2.183
 7963SOL     OW24787   1.128   0.064   4.669
 7963SOL    HW124788   1.091   0.040   4.579
 7963SOL    HW224789   1.115   0.162   4.685
 7964SOL     OW24790   6.032   5.700   3.187
 7964SOL    HW124791   6.084   5.786   3.183
 7964SOL    HW224792   5.942   5.717   3.227
 7965SOL     OW24793   5.668   1.834   0.887
 7965SOL    HW124794   5.666   1.748   0.837
 7965SOL    HW224795   5.600   1.831   0.961
 7966SOL     OW24796   0.047   5.799   3.697
 7966SOL    HW124797   0.117   5.820   3.765
 7966SOL    HW224798   0.075   5.719   3.644
 7967SOL     OW24799   2.937   6.430   2.579
 7967SOL    HW124800   2.971   6.351   2.629
 7967SOL    HW224801   3.011   6.470   2.524
 7968SOL     OW24802   1.800   0.982   1.495
 7968SOL    HW124803   1.717   1.036   1.483
 7968SOL    HW224804   1.850   1.016   1.575
 7969SOL     OW24805   3.532   2.075   3.237
 7969SOL    HW124806   3.441   2.059   3.198
 7969SOL    HW224807   3.524   2.135   3.317
 7970SOL     OW24808   0.253   4.935   3.293
 7970SOL    HW124809   0.199   4.915   3.375
 7970SOL    HW224810   0.241   5.031   3.268
 7971SOL     OW24811   2.592   1.292   1.986
 7971SOL    HW124812   2.649   1.374   1.981
 7971SOL    HW224813   2.501   1.312   1.949
 7972SOL     OW24814   0.763   4.748   2.043
 7972SOL    HW124815   0.724   4.657   2.037
 7972SOL    HW224816   0.708   4.804   2.105
 7973SOL     OW24817   4.695   2.191   2.458
 7973SOL    HW124818   4.739   2.229   2.539
 7973SOL    HW224819   4.752   2.207   2.378
 7974SOL     OW24820   5.363   6.913   4.409
 7974SOL    HW124821   5.445   6.872   4.370
 7974SOL    HW224822   5.282   6.880   4.360
 7975SOL     OW24823   2.298   1.186   3.470
 7975SOL    HW124824   2.215   1.200   3.415
 7975SOL    HW224825   2.308   1.088   3.491
 7976SOL     OW24826   0.476   5.828   6.340
 7976SOL    HW124827   0.524   5.893   6.282
 7976SOL    HW224828   0.515   5.737   6.328
 7977SOL     OW24829   5.328   6.050   1.624
 7977SOL    HW124830   5.236   6.020   1.650
 7977SOL    HW224831   5.355   6.128   1.681
 7978SOL     OW24832   4.050   2.620   6.138
 7978SOL    HW124833   3.985   2.562   6.089
 7978SOL    HW224834   4.093   2.684   6.075
 7979SOL     OW24835   4.528   0.062   4.096
 7979SOL    HW124836   4.434   0.071   4.062
 7979SOL    HW224837   4.579   0.144   4.074
 7980SOL     OW24838   2.504   0.326   1.997
 7980SOL    HW124839   2.535   0.239   2.034
 7980SOL    HW224840   2.544   0.339   1.906
 7981SOL     OW24841   1.222   5.719   2.810
 7981SOL    HW124842   1.187   5.798   2.859
 7981SOL    HW224843   1.321   5.729   2.796
 7982SOL     OW24844   6.863   3.073   0.611
 7982SOL    HW124845   6.768   3.100   0.592
 7982SOL    HW224846   6.866   2.978   0.639
 7983SOL     OW24847   5.035   2.430   2.171
 7983SOL    HW124848   4.999   2.474   2.253
 7983SOL    HW224849   5.109   2.368   2.196
 7984SOL     OW24850   0.750   0.612   0.527
 7984SOL    HW124851   0.651   0.597   0.533
 7984SOL    HW224852   0.769   0.709   0.539
 7985SOL     OW24853   0.582   1.156   1.080
 7985SOL    HW124854   0.643   1.081   1.054
 7985SOL    HW224855   0.633   1.242   1.080
 7986SOL     OW24856   3.617   2.021   1.086
 7986SOL    HW124857   3.596   2.070   1.170
 7986SOL    HW224858   3.561   2.057   1.011
 7987SOL     OW24859   0.291   3.033   4.932
 7987SOL    HW124860   0.279   3.098   5.007
 7987SOL    HW224861   0.342   2.954   4.966
 7988SOL     OW24862   2.878   1.538   5.794
 7988SOL    HW124863   2.797   1.595   5.780
 7988SOL    HW224864   2.860   1.473   5.868
 7989SOL     OW24865   3.288   3.301   5.617
 7989SOL    HW124866   3.375   3.331   5.580
 7989SOL    HW224867   3.301   3.271   5.712
 7990SOL     OW24868   2.145   2.330   4.976
 7990SOL    HW124869   2.218   2.332   4.907
 7990SOL    HW224870   2.114   2.423   4.994
 7991SOL     OW24871   0.387   3.536   5.295
 7991SOL    HW124872   0.388   3.613   5.359
 7991SOL    HW224873   0.480   3.499   5.287
 7992SOL     OW24874   2.531   0.726   0.539
 7992SOL    HW124875   2.514   0.775   0.625
 7992SOL    HW224876   2.613   0.764   0.496
 7993SOL     OW24877   2.041   6.965   6.775
 7993SOL    HW124878   1.980   6.925   6.844
 7993SOL    HW224879   2.122   7.002   6.820
 7994SOL     OW24880   5.803   0.733   3.629
 7994SOL    HW124881   5.728   0.701   3.687
 7994SOL    HW224882   5.787   0.829   3.605
 7995SOL     OW24883   4.106   4.794   2.810
 7995SOL    HW124884   4.112   4.796   2.710
 7995SOL    HW224885   4.027   4.847   2.840
 7996SOL     OW24886   3.645   0.764   4.844
 7996SOL    HW124887   3.738   0.769   4.807
 7996SOL    HW224888   3.647   0.715   4.932
 7997SOL     OW24889   5.810   2.924   2.118
 7997SOL    HW124890   5.797   2.917   2.019
 7997SOL    HW224891   5.856   2.842   2.152
 7998SOL     OW24892   6.437   5.236   6.714
 7998SOL    HW124893   6.440   5.156   6.654
 7998SOL    HW224894   6.343   5.268   6.722
 7999SOL     OW24895   1.784   0.602   5.826
 7999SOL    HW124896   1.798   0.526   5.890
 7999SOL    HW224897   1.722   0.669   5.868
 8000SOL     OW24898   6.052   6.804   5.698
 8000SOL    HW124899   6.151   6.817   5.700
 8000SOL    HW224900   6.020   6.810   5.603
 8001SOL     OW24901   2.318   0.173   1.473
 8001SOL    HW124902   2.369   0.103   1.522
 8001SOL    HW224903   2.272   0.233   1.539
 8002SOL     OW24904   5.417   2.900   5.425
 8002SOL    HW124905   5.472   2.975   5.462
 8002SOL    HW224906   5.332   2.892   5.478
 8003SOL     OW24907   3.957   5.114   3.202
 8003SOL    HW124908   4.030   5.174   3.173
 8003SOL    HW224909   3.934   5.133   3.298
 8004SOL     OW24910   1.826   3.863   2.619
 8004SOL    HW124911   1.800   3.847   2.714
 8004SOL    HW224912   1.923   3.841   2.606
 8005SOL     OW24913   2.763   1.016   1.710
 8005SOL    HW124914   2.825   0.941   1.689
 8005SOL    HW224915   2.786   1.054   1.800
 8006SOL     OW24916   3.296   6.417   0.734
 8006SOL    HW124917   3.211   6.384   0.693
 8006SOL    HW224918   3.333   6.347   0.795
 8007SOL     OW24919   0.415   0.977   4.713
 8007SOL    HW124920   0.380   1.066   4.685
 8007SOL    HW224921   0.404   0.911   4.638
 8008SOL     OW24922   6.402   5.847   0.504
 8008SOL    HW124923   6.368   5.871   0.413
 8008SOL    HW224924   6.403   5.929   0.562
 8009SOL     OW24925   6.822   6.710   3.549
 8009SOL    HW124926   6.853   6.628   3.597
 8009SOL    HW224927   6.806   6.689   3.453
 8010SOL     OW24928   2.652   2.628   6.584
 8010SOL    HW124929   2.657   2.537   6.544
 8010SOL    HW224930   2.566   2.638   6.634
 8011SOL     OW24931   2.534   2.064   0.946
 8011SOL    HW124932   2.481   2.049   1.030
 8011SOL    HW224933   2.623   2.019   0.954
 8012SOL     OW24934   2.837   6.742   3.125
 8012SOL    HW124935   2.927   6.733   3.082
 8012SOL    HW224936   2.829   6.677   3.200
 8013SOL     OW24937   6.178   4.619   4.931
 8013SOL    HW124938   6.232   4.675   4.994
 8013SOL    HW224939   6.086   4.607   4.968
 8014SOL     OW24940   2.101   0.278   0.045
 8014SOL    HW124941   2.098   0.249   0.140
 8014SOL    HW224942   2.078   0.375   0.039
 8015SOL     OW24943   1.850   2.259   6.839
 8015SOL    HW124944   1.821   2.355   6.842
 8015SOL    HW224945   1.872   2.228   6.931
 8016SOL     OW24946   3.542   6.535   1.705
 8016SOL    HW124947   3.526   6.440   1.682
 8016SOL    HW224948   3.458   6.577   1.737
 8017SOL     OW24949   5.782   4.308   4.175
 8017SOL    HW124950   5.739   4.349   4.256
 8017SOL    HW224951   5.806   4.213   4.196
 8018SOL     OW24952   5.641   2.591   4.774
 8018SOL    HW124953   5.604   2.513   4.824
 8018SOL    HW224954   5.738   2.602   4.796
 8019SOL     OW24955   2.454   5.203   0.963
 8019SOL    HW124956   2.523   5.190   1.035
 8019SOL    HW224957   2.497   5.241   0.882
 8020SOL     OW24958   6.119   6.243   6.564
 8020SOL    HW124959   6.130   6.193   6.478
 8020SOL    HW224960   6.051   6.315   6.553
 8021SOL     OW24961   0.765   0.924   0.918
 8021SOL    HW124962   0.802   0.998   0.861
 8021SOL    HW224963   0.810   0.838   0.894
 8022SOL     OW24964   4.134   6.110   3.102
 8022SOL    HW124965   4.144   6.191   3.160
 8022SOL    HW224966   4.210   6.106   3.038
 8023SOL     OW24967   6.218   6.496   3.281
 8023SOL    HW124968   6.306   6.450   3.267
 8023SOL    HW224969   6.232   6.578   3.337
 8024SOL     OW24970   4.738   5.322   4.901
 8024SOL    HW124971   4.813   5.265   4.936
 8024SOL    HW224972   4.757   5.418   4.923
 8025SOL     OW24973   3.829   6.049   0.472
 8025SOL    HW124974   3.753   6.038   0.407
 8025SOL    HW224975   3.845   5.962   0.518
 8026SOL     OW24976   1.583   2.394   0.503
 8026SOL    HW124977   1.608   2.314   0.557
 8026SOL    HW224978   1.659   2.419   0.443
 8027SOL     OW24979   5.128   2.783   5.399
 8027SOL    HW124980   5.076   2.709   5.442
 8027SOL    HW224981   5.135   2.766   5.300
 8028SOL     OW24982   5.564   4.862   6.887
 8028SOL    HW124983   5.570   4.796   6.812
 8028SOL    HW224984   5.656   4.890   6.915
 8029SOL     OW24985   2.983   4.592   0.631
 8029SOL    HW124986   3.062   4.531   0.621
 8029SOL    HW224987   2.924   4.557   0.704
 8030SOL     OW24988   5.942   3.857   6.881
 8030SOL    HW124989   5.975   3.813   6.797
 8030SOL    HW224990   5.905   3.787   6.943
 8031SOL     OW24991   3.661   5.794   1.599
 8031SOL    HW124992   3.669   5.893   1.612
 8031SOL    HW224993   3.745   5.759   1.556
 8032SOL     OW24994   5.271   4.545   6.067
 8032SOL    HW124995   5.273   4.498   5.979
 8032SOL    HW224996   5.358   4.590   6.083
 8033SOL     OW24997   5.972   2.618   0.248
 8033SOL    HW124998   5.950   2.526   0.280
 8033SOL    HW224999   5.904   2.647   0.181
 8034SOL     OW25000   5.964   1.396   5.483
 8034SOL    HW125001   5.982   1.398   5.581
 8034SOL    HW225002   5.888   1.457   5.461
 8035SOL     OW25003   5.554   6.690   0.039
 8035SOL    HW125004   5.565   6.651   6.965
 8035SOL    HW225005   5.644   6.699   0.082
 8036SOL     OW25006   1.948   3.976   1.653
 8036SOL    HW125007   2.041   3.949   1.675
 8036SOL    HW225008   1.905   4.017   1.734
 8037SOL     OW25009   2.094   2.975   1.527
 8037SOL    HW125010   2.109   3.072   1.510
 8037SOL    HW225011   2.177   2.924   1.506
 8038SOL     OW25012   6.790   2.010   4.361
 8038SOL    HW125013   6.820   1.935   4.303
 8038SOL    HW225014   6.829   2.096   4.329
 8039SOL     OW25015   2.313   6.566   4.185
 8039SOL    HW125016   2.291   6.468   4.179
 8039SOL    HW225017   2.348   6.586   4.276
 8040SOL     OW25018   0.245   5.401   0.864
 8040SOL    HW125019   0.181   5.401   0.788
 8040SOL    HW225020   0.207   5.346   0.939
 8041SOL     OW25021   4.351   1.575   0.716
 8041SOL    HW125022   4.432   1.628   0.743
 8041SOL    HW225023   4.350   1.563   0.617
 8042SOL     OW25024   2.761   3.418   1.103
 8042SOL    HW125025   2.703   3.456   1.174
 8042SOL    HW225026   2.857   3.428   1.129
 8043SOL     OW25027   2.442   0.037   1.689
 8043SOL    HW125028   2.425   0.119   1.743
 8043SOL    HW225029   2.538   0.034   1.661
 8044SOL     OW25030   3.290   3.955   1.899
 8044SOL    HW125031   3.197   3.925   1.879
 8044SOL    HW225032   3.303   3.962   1.998
 8045SOL     OW25033   6.478   2.826   3.200
 8045SOL    HW125034   6.422   2.759   3.151
 8045SOL    HW225035   6.545   2.779   3.257
 8046SOL     OW25036   6.805   5.082   5.949
 8046SOL    HW125037   6.844   5.040   6.031
 8046SOL    HW225038   6.750   5.162   5.974
 8047SOL     OW25039   3.692   6.046   3.897
 8047SOL    HW125040   3.659   6.136   3.868
 8047SOL    HW225041   3.653   6.023   3.986
 8048SOL     OW25042   6.716   0.107   5.525
 8048SOL    HW125043   6.784   0.177   5.503
 8048SOL    HW225044   6.760   0.027   5.564
 8049SOL     OW25045   1.482   5.329   0.560
 8049SOL    HW125046   1.550   5.350   0.489
 8049SOL    HW225047   1.499   5.387   0.640
 8050SOL     OW25048   1.490   2.640   1.258
 8050SOL    HW125049   1.446   2.569   1.314
 8050SOL    HW225050   1.560   2.687   1.311
 8051SOL     OW25051   4.139   1.364   3.314
 8051SOL    HW125052   4.163   1.455   3.282
 8051SOL    HW225053   4.215   1.301   3.295
 8052SOL     OW25054   3.296   2.073   2.859
 8052SOL    HW125055   3.293   1.978   2.827
 8052SOL    HW225056   3.391   2.104   2.866
 8053SOL     OW25057   3.951   3.385   2.203
 8053SOL    HW125058   4.024   3.451   2.186
 8053SOL    HW225059   3.904   3.408   2.288
 8054SOL     OW25060   3.994   6.376   4.987
 8054SOL    HW125061   4.004   6.327   4.900
 8054SOL    HW225062   4.041   6.325   5.059
 8055SOL     OW25063   1.431   6.751   5.342
 8055SOL    HW125064   1.525   6.778   5.365
 8055SOL    HW225065   1.380   6.831   5.311
 8056SOL     OW25066   4.271   1.631   2.845
 8056SOL    HW125067   4.229   1.541   2.835
 8056SOL    HW225068   4.211   1.691   2.899
 8057SOL     OW25069   3.759   6.506   3.974
 8057SOL    HW125070   3.781   6.409   3.982
 8057SOL    HW225071   3.771   6.550   4.063
 8058SOL     OW25072   1.856   0.847   3.000
 8058SOL    HW125073   1.789   0.890   3.061
 8058SOL    HW225074   1.820   0.759   2.969
 8059SOL     OW25075   2.667   1.635   4.037
 8059SOL    HW125076   2.710   1.590   3.959
 8059SOL    HW225077   2.572   1.659   4.013
 8060SOL     OW25078   0.780   1.545   4.744
 8060SOL    HW125079   0.759   1.504   4.655
 8060SOL    HW225080   0.873   1.582   4.742
 8061SOL     OW25081   0.252   5.647   1.756
 8061SOL    HW125082   0.275   5.744   1.767
 8061SOL    HW225083   0.169   5.627   1.808
 8062SOL     OW25084   2.202   3.845   2.850
 8062SOL    HW125085   2.105   3.834   2.872
 8062SOL    HW225086   2.244   3.755   2.839
 8063SOL     OW25087   3.011   3.171   6.849
 8063SOL    HW125088   2.963   3.254   6.822
 8063SOL    HW225089   2.972   3.136   6.935
 8064SOL     OW25090   6.400   3.633   0.070
 8064SOL    HW125091   6.439   3.562   0.012
 8064SOL    HW225092   6.323   3.676   0.024
 8065SOL     OW25093   4.608   6.848   6.281
 8065SOL    HW125094   4.693   6.891   6.252
 8065SOL    HW225095   4.535   6.873   6.218
 8066SOL     OW25096   2.067   0.364   1.819
 8066SOL    HW125097   2.030   0.428   1.750
 8066SOL    HW225098   2.009   0.366   1.900
 8067SOL     OW25099   4.975   2.507   1.620
 8067SOL    HW125100   4.898   2.462   1.667
 8067SOL    HW225101   5.004   2.586   1.673
 8068SOL     OW25102   0.831   4.481   4.062
 8068SOL    HW125103   0.925   4.509   4.041
 8068SOL    HW225104   0.803   4.521   4.149
 8069SOL     OW25105   1.769   6.276   2.091
 8069SOL    HW125106   1.788   6.200   2.029
 8069SOL    HW225107   1.826   6.355   2.065
 8070SOL     OW25108   3.935   0.269   1.795
 8070SOL    HW125109   4.033   0.258   1.810
 8070SOL    HW225110   3.892   0.178   1.793
 8071SOL     OW25111   4.119   6.328   0.161
 8071SOL    HW125112   4.141   6.403   0.222
 8071SOL    HW225113   4.105   6.244   0.214
 8072SOL     OW25114   5.296   0.558   1.528
 8072SOL    HW125115   5.275   0.584   1.434
 8072SOL    HW225116   5.214   0.518   1.570
 8073SOL     OW25117   4.239   6.361   5.582
 8073SOL    HW125118   4.153   6.336   5.627
 8073SOL    HW225119   4.267   6.452   5.612
 8074SOL     OW25120   3.383   3.586   6.832
 8074SOL    HW125121   3.289   3.616   6.848
 8074SOL    HW225122   3.415   3.622   6.744
 8075SOL     OW25123   5.707   1.635   2.613
 8075SOL    HW125124   5.765   1.584   2.551
 8075SOL    HW225125   5.723   1.604   2.707
 8076SOL     OW25126   5.519   2.930   6.615
 8076SOL    HW125127   5.609   2.891   6.593
 8076SOL    HW225128   5.454   2.907   6.542
 8077SOL     OW25129   1.337   0.859   0.589
 8077SOL    HW125130   1.255   0.858   0.531
 8077SOL    HW225131   1.309   0.857   0.685
 8078SOL     OW25132   6.139   3.350   0.473
 8078SOL    HW125133   6.183   3.427   0.518
 8078SOL    HW225134   6.153   3.267   0.526
 8079SOL     OW25135   6.715   1.618   1.962
 8079SOL    HW125136   6.743   1.714   1.969
 8079SOL    HW225137   6.660   1.593   2.042
 8080SOL     OW25138   3.612   5.268   0.428
 8080SOL    HW125139   3.525   5.240   0.388
 8080SOL    HW225140   3.612   5.367   0.443
 8081SOL     OW25141   5.758   0.996   5.777
 8081SOL    HW125142   5.858   1.004   5.782
 8081SOL    HW225143   5.719   1.087   5.759
 8082SOL     OW25144   6.452   3.093   4.244
 8082SOL    HW125145   6.468   3.145   4.328
 8082SOL    HW225146   6.477   3.149   4.165
 8083SOL     OW25147   4.687   2.708   4.166
 8083SOL    HW125148   4.676   2.615   4.132
 8083SOL    HW225149   4.663   2.712   4.263
 8084SOL     OW25150   6.459   0.067   1.257
 8084SOL    HW125151   6.365   0.046   1.231
 8084SOL    HW225152   6.507   0.110   1.181
 8085SOL     OW25153   6.086   1.831   1.442
 8085SOL    HW125154   6.178   1.844   1.479
 8085SOL    HW225155   6.024   1.803   1.516
 8086SOL     OW25156   3.587   6.790   5.290
 8086SOL    HW125157   3.530   6.829   5.363
 8086SOL    HW225158   3.630   6.864   5.239
 8087SOL     OW25159   3.120   3.243   1.392
 8087SOL    HW125160   3.076   3.173   1.448
 8087SOL    HW225161   3.219   3.231   1.396
 8088SOL     OW25162   4.304   1.029   2.726
 8088SOL    HW125163   4.284   1.112   2.674
 8088SOL    HW225164   4.342   1.054   2.815
 8089SOL     OW25165   5.900   2.845   0.729
 8089SOL    HW125166   5.862   2.834   0.638
 8089SOL    HW225167   5.904   2.942   0.753
 8090SOL     OW25168   4.865   2.479   5.228
 8090SOL    HW125169   4.806   2.403   5.253
 8090SOL    HW225170   4.808   2.554   5.193
 8091SOL     OW25171   3.148   5.369   5.951
 8091SOL    HW125172   3.174   5.273   5.939
 8091SOL    HW225173   3.072   5.391   5.891
 8092SOL     OW25174   0.767   1.807   4.063
 8092SOL    HW125175   0.781   1.716   4.024
 8092SOL    HW225176   0.682   1.846   4.030
 8093SOL     OW25177   5.846   5.893   1.462
 8093SOL    HW125178   5.801   5.982   1.461
 8093SOL    HW225179   5.778   5.821   1.475
 8094SOL     OW25180   1.037   3.369   4.555
 8094SOL    HW125181   1.134   3.346   4.551
 8094SOL    HW225182   1.025   3.456   4.603
 8095SOL     OW25183   5.903   4.031   4.185
 8095SOL    HW125184   5.883   3.953   4.245
 8095SOL    HW225185   5.948   3.997   4.102
 8096SOL     OW25186   3.826   6.322   1.668
 8096SOL    HW125187   3.923   6.317   1.646
 8096SOL    HW225188   3.799   6.417   1.678
 8097SOL     OW25189   4.851   1.341   4.778
 8097SOL    HW125190   4.924   1.304   4.720
 8097SOL    HW225191   4.886   1.418   4.831
 8098SOL     OW25192   2.733   6.919   3.742
 8098SOL    HW125193   2.775   6.908   3.652
 8098SOL    HW225194   2.738   6.833   3.792
 8099SOL     OW25195   5.602   6.500   5.113
 8099SOL    HW125196   5.541   6.439   5.060
 8099SOL    HW225197   5.575   6.498   5.209
 8100SOL     OW25198   0.990   6.731   0.707
 8100SOL    HW125199   0.984   6.796   0.632
 8100SOL    HW225200   0.976   6.638   0.673
 8101SOL     OW25201   1.427   5.595   3.046
 8101SOL    HW125202   1.461   5.582   2.953
 8101SOL    HW225203   1.489   5.656   3.095
 8102SOL     OW25204   0.070   6.333   6.122
 8102SOL    HW125205   0.058   6.293   6.213
 8102SOL    HW225206   0.069   6.433   6.129
 8103SOL     OW25207   2.750   1.857   2.180
 8103SOL    HW125208   2.693   1.811   2.113
 8103SOL    HW225209   2.699   1.932   2.223
 8104SOL     OW25210   2.270   6.378   5.979
 8104SOL    HW125211   2.226   6.315   5.913
 8104SOL    HW225212   2.357   6.339   6.009
 8105SOL     OW25213   1.350   2.281   2.718
 8105SOL    HW125214   1.353   2.355   2.651
 8105SOL    HW225215   1.328   2.318   2.808
 8106SOL     OW25216   0.671   3.674   4.428
 8106SOL    HW125217   0.654   3.659   4.525
 8106SOL    HW225218   0.713   3.592   4.388
 8107SOL     OW25219   2.067   6.060   5.998
 8107SOL    HW125220   2.017   5.976   5.977
 8107SOL    HW225221   2.079   6.113   5.914
 8108SOL     OW25222   1.755   3.236   4.374
 8108SOL    HW125223   1.759   3.307   4.444
 8108SOL    HW225224   1.722   3.151   4.413
 8109SOL     OW25225   1.089   4.974   5.360
 8109SOL    HW125226   1.134   4.901   5.307
 8109SOL    HW225227   1.004   4.939   5.399
 8110SOL     OW25228   1.803   4.549   0.931
 8110SOL    HW125229   1.735   4.540   1.004
 8110SOL    HW225230   1.800   4.468   0.873
 8111SOL     OW25231   2.557   5.582   4.334
 8111SOL    HW125232   2.634   5.541   4.285
 8111SOL    HW225233   2.476   5.582   4.275
 8112SOL     OW25234   3.236   1.204   4.554
 8112SOL    HW125235   3.313   1.179   4.496
 8112SOL    HW225236   3.193   1.121   4.590
 8113SOL     OW25237   3.599   3.163   6.131
 8113SOL    HW125238   3.625   3.067   6.125
 8113SOL    HW225239   3.534   3.176   6.206
 8114SOL     OW25240   2.624   3.762   1.105
 8114SOL    HW125241   2.560   3.687   1.086
 8114SOL    HW225242   2.713   3.725   1.128
 8115SOL     OW25243   3.969   1.902   1.224
 8115SOL    HW125244   3.929   1.820   1.184
 8115SOL    HW225245   3.954   1.902   1.323
 8116SOL     OW25246   6.061   0.873   5.506
 8116SOL    HW125247   6.118   0.953   5.527
 8116SOL    HW225248   6.086   0.798   5.567
 8117SOL     OW25249   2.339   2.018   5.902
 8117SOL    HW125250   2.351   2.015   5.803
 8117SOL    HW225251   2.391   2.095   5.939
 8118SOL     OW25252   1.261   2.588   4.703
 8118SOL    HW125253   1.215   2.677   4.700
 8118SOL    HW225254   1.315   2.575   4.620
 8119SOL     OW25255   1.227   5.826   2.101
 8119SOL    HW125256   1.215   5.919   2.133
 8119SOL    HW225257   1.311   5.820   2.046
 8120SOL     OW25258   4.135   4.180   1.454
 8120SOL    HW125259   4.081   4.249   1.504
 8120SOL    HW225260   4.214   4.224   1.412
 8121SOL     OW25261   6.612   6.932   2.857
 8121SOL    HW125262   6.554   6.981   2.792
 8121SOL    HW225263   6.661   6.858   2.809
 8122SOL     OW25264   0.629   6.344   1.405
 8122SOL    HW125265   0.599   6.256   1.443
 8122SOL    HW225266   0.605   6.417   1.468
 8123SOL     OW25267   0.566   5.553   0.347
 8123SOL    HW125268   0.496   5.512   0.406
 8123SOL    HW225269   0.527   5.630   0.298
 8124SOL     OW25270   0.753   6.119   2.436
 8124SOL    HW125271   0.687   6.177   2.388
 8124SOL    HW225272   0.774   6.159   2.525
 8125SOL     OW25273   5.723   5.641   2.661
 8125SOL    HW125274   5.743   5.573   2.732
 8125SOL    HW225275   5.776   5.620   2.579
 8126SOL     OW25276   6.186   4.491   2.078
 8126SOL    HW125277   6.187   4.498   2.177
 8126SOL    HW225278   6.101   4.530   2.042
 8127SOL     OW25279   3.135   4.412   1.163
 8127SOL    HW125280   3.068   4.466   1.111
 8127SOL    HW225281   3.219   4.465   1.175
 8128SOL     OW25282   3.639   2.628   5.428
 8128SOL    HW125283   3.735   2.621   5.399
 8128SOL    HW225284   3.589   2.686   5.363
 8129SOL     OW25285   5.024   6.930   0.292
 8129SOL    HW125286   5.023   6.949   0.194
 8129SOL    HW225287   4.934   6.896   0.320
 8130SOL     OW25288   0.916   7.005   0.554
 8130SOL    HW125289   0.884   0.013   0.646
 8130SOL    HW225290   0.915   0.068   0.495
 8131SOL     OW25291   0.860   1.122   0.377
 8131SOL    HW125292   0.934   1.189   0.378
 8131SOL    HW225293   0.778   1.163   0.338
 8132SOL     OW25294   6.536   4.869   3.073
 8132SOL    HW125295   6.621   4.850   3.023
 8132SOL    HW225296   6.557   4.904   3.164
 8133SOL     OW25297   0.753   5.888   1.992
 8133SOL    HW125298   0.762   5.987   2.002
 8133SOL    HW225299   0.844   5.847   1.980
 8134SOL     OW25300   1.950   2.720   1.824
 8134SOL    HW125301   2.039   2.714   1.780
 8134SOL    HW225302   1.920   2.815   1.827
 8135SOL     OW25303   4.046   5.946   2.228
 8135SOL    HW125304   4.098   5.936   2.313
 8135SOL    HW225305   3.952   5.974   2.250
 8136SOL     OW25306   3.793   6.071   1.009
 8136SOL    HW125307   3.728   6.115   0.947
 8136SOL    HW225308   3.796   6.122   1.095
 8137SOL     OW25309   3.079   3.841   5.645
 8137SOL    HW125310   2.995   3.793   5.671
 8137SOL    HW225311   3.077   3.861   5.547
 8138SOL     OW25312   4.780   0.960   3.732
 8138SOL    HW125313   4.827   0.964   3.821
 8138SOL    HW225314   4.828   0.898   3.671
 8139SOL     OW25315   1.812   2.652   3.937
 8139SOL    HW125316   1.728   2.601   3.959
 8139SOL    HW225317   1.793   2.716   3.862
 8140SOL     OW25318   4.448   0.151   1.107
 8140SOL    HW125319   4.352   0.131   1.123
 8140SOL    HW225320   4.502   0.118   1.184
 8141SOL     OW25321   5.589   0.976   5.127
 8141SOL    HW125322   5.657   0.941   5.062
 8141SOL    HW225323   5.636   1.011   5.208
 8142SOL     OW25324   2.564   5.315   1.396
 8142SOL    HW125325   2.481   5.325   1.450
 8142SOL    HW225326   2.588   5.404   1.355
 8143SOL     OW25327   6.148   5.323   0.859
 8143SOL    HW125328   6.142   5.316   0.959
 8143SOL    HW225329   6.059   5.303   0.819
 8144SOL     OW25330   6.900   5.296   0.123
 8144SOL    HW125331   6.906   5.197   0.107
 8144SOL    HW225332   6.968   5.323   0.191
 8145SOL     OW25333   5.480   5.434   6.777
 8145SOL    HW125334   5.525   5.504   6.834
 8145SOL    HW225335   5.394   5.406   6.820
 8146SOL     OW25336   6.136   0.351   4.523
 8146SOL    HW125337   6.131   0.427   4.458
 8146SOL    HW225338   6.222   0.301   4.510
 8147SOL     OW25339   2.233   0.907   6.484
 8147SOL    HW125340   2.209   0.821   6.529
 8147SOL    HW225341   2.285   0.888   6.401
 8148SOL     OW25342   4.806   4.829   0.626
 8148SOL    HW125343   4.858   4.809   0.709
 8148SOL    HW225344   4.752   4.749   0.600
 8149SOL     OW25345   0.429   6.951   5.021
 8149SOL    HW125346   0.523   6.969   5.049
 8149SOL    HW225347   0.413   6.852   5.016
 8150SOL     OW25348   0.361   4.081   0.736
 8150SOL    HW125349   0.339   4.133   0.819
 8150SOL    HW225350   0.356   4.140   0.656
 8151SOL     OW25351   6.328   6.211   2.925
 8151SOL    HW125352   6.345   6.304   2.958
 8151SOL    HW225353   6.230   6.197   2.916
 8152SOL     OW25354   4.898   1.578   3.321
 8152SOL    HW125355   4.848   1.533   3.248
 8152SOL    HW225356   4.993   1.546   3.322
 8153SOL     OW25357   0.466   1.329   1.891
 8153SOL    HW125358   0.412   1.308   1.973
 8153SOL    HW225359   0.554   1.368   1.918
 8154SOL     OW25360   1.890   0.286   2.921
 8154SOL    HW125361   1.901   0.289   2.821
 8154SOL    HW225362   1.793   0.276   2.943
 8155SOL     OW25363   2.019   4.965   3.360
 8155SOL    HW125364   2.026   5.021   3.443
 8155SOL    HW225365   2.002   4.870   3.386
 8156SOL     OW25366   0.819   4.576   1.316
 8156SOL    HW125367   0.833   4.613   1.408
 8156SOL    HW225368   0.788   4.481   1.322
 8157SOL     OW25369   6.826   3.924   5.010
 8157SOL    HW125370   6.874   3.989   5.068
 8157SOL    HW225371   6.757   3.971   4.956
 8158SOL     OW25372   6.074   5.822   6.798
 8158SOL    HW125373   6.029   5.774   6.874
 8158SOL    HW225374   6.094   5.916   6.826
 8159SOL     OW25375   3.137   6.933   5.127
 8159SOL    HW125376   3.108   6.959   5.034
 8159SOL    HW225377   3.194   6.851   5.122
 8160SOL     OW25378   5.581   1.212   1.948
 8160SOL    HW125379   5.673   1.222   1.911
 8160SOL    HW225380   5.537   1.132   1.909
 8161SOL     OW25381   5.740   3.535   1.659
 8161SOL    HW125382   5.695   3.550   1.571
 8161SOL    HW225383   5.684   3.475   1.716
 8162SOL     OW25384   0.245   5.281   5.711
 8162SOL    HW125385   0.296   5.287   5.626
 8162SOL    HW225386   0.150   5.310   5.695
 8163SOL     OW25387   4.453   4.743   5.352
 8163SOL    HW125388   4.447   4.681   5.431
 8163SOL    HW225389   4.501   4.827   5.379
 8164SOL     OW25390   5.523   1.615   1.316
 8164SOL    HW125391   5.550   1.639   1.409
 8164SOL    HW225392   5.597   1.564   1.272
 8165SOL     OW25393   0.065   1.165   0.458
 8165SOL    HW125394   0.011   1.161   0.374
 8165SOL    HW225395   0.055   1.080   0.508
 8166SOL     OW25396   1.411   1.616   5.229
 8166SOL    HW125397   1.478   1.549   5.198
 8166SOL    HW225398   1.378   1.669   5.151
 8167SOL     OW25399   1.812   3.176   4.121
 8167SOL    HW125400   1.794   3.213   4.212
 8167SOL    HW225401   1.757   3.225   4.053
 8168SOL     OW25402   1.630   0.669   2.528
 8168SOL    HW125403   1.722   0.668   2.489
 8168SOL    HW225404   1.581   0.750   2.497
 8169SOL     OW25405   5.444   2.729   0.476
 8169SOL    HW125406   5.444   2.806   0.412
 8169SOL    HW225407   5.434   2.763   0.569
 8170SOL     OW25408   6.645   5.038   2.314
 8170SOL    HW125409   6.690   5.126   2.303
 8170SOL    HW225410   6.588   5.039   2.396
 8171SOL     OW25411   2.489   1.192   0.543
 8171SOL    HW125412   2.540   1.260   0.594
 8171SOL    HW225413   2.413   1.158   0.598
 8172SOL     OW25414   1.021   2.527   0.602
 8172SOL    HW125415   0.932   2.542   0.559
 8172SOL    HW225416   1.094   2.541   0.535
 8173SOL     OW25417   5.907   1.101   1.396
 8173SOL    HW125418   5.894   1.147   1.308
 8173SOL    HW225419   5.871   1.008   1.391
 8174SOL     OW25420   3.020   5.800   3.275
 8174SOL    HW125421   3.110   5.761   3.298
 8174SOL    HW225422   3.033   5.880   3.217
 8175SOL     OW25423   0.318   1.396   5.592
 8175SOL    HW125424   0.326   1.478   5.648
 8175SOL    HW225425   0.353   1.317   5.643
 8176SOL     OW25426   2.327   4.214   0.339
 8176SOL    HW125427   2.422   4.212   0.368
 8176SOL    HW225428   2.270   4.244   0.415
 8177SOL     OW25429   3.107   0.913   3.513
 8177SOL    HW125430   3.115   0.855   3.593
 8177SOL    HW225431   3.163   0.876   3.439
 8178SOL     OW25432   3.107   6.958   1.804
 8178SOL    HW125433   3.206   6.975   1.795
 8178SOL    HW225434   3.089   6.913   1.891
 8179SOL     OW25435   5.630   0.895   3.193
 8179SOL    HW125436   5.570   0.863   3.266
 8179SOL    HW225437   5.725   0.873   3.217
 8180SOL     OW25438   4.943   6.261   0.142
 8180SOL    HW125439   4.927   6.162   0.142
 8180SOL    HW225440   4.941   6.295   0.236
 8181SOL     OW25441   0.232   0.199   7.004
 8181SOL    HW125442   0.244   0.290   0.025
 8181SOL    HW225443   0.184   0.141   0.053
 8182SOL     OW25444   3.056   3.606   4.493
 8182SOL    HW125445   3.152   3.588   4.516
 8182SOL    HW225446   3.039   3.580   4.398
 8183SOL     OW25447   6.926   0.363   5.259
 8183SOL    HW125448   6.940   0.462   5.252
 8183SOL    HW225449   6.897   0.328   5.170
 8184SOL     OW25450   0.888   6.109   6.842
 8184SOL    HW125451   0.901   6.094   6.744
 8184SOL    HW225452   0.923   6.030   6.892
 8185SOL     OW25453   0.656   6.293   6.192
 8185SOL    HW125454   0.744   6.311   6.234
 8185SOL    HW225455   0.665   6.299   6.092
 8186SOL     OW25456   1.716   5.571   6.272
 8186SOL    HW125457   1.740   5.509   6.198
 8186SOL    HW225458   1.720   5.666   6.239
 8187SOL     OW25459   0.821   0.811   5.930
 8187SOL    HW125460   0.824   0.884   5.862
 8187SOL    HW225461   0.857   0.845   6.017
 8188SOL     OW25462   1.939   2.875   3.055
 8188SOL    HW125463   1.864   2.936   3.079
 8188SOL    HW225464   2.011   2.926   3.008
 8189SOL     OW25465   5.788   5.294   3.536
 8189SOL    HW125466   5.801   5.212   3.480
 8189SOL    HW225467   5.720   5.353   3.493
 8190SOL     OW25468   0.022   4.077   2.682
 8190SOL    HW125469   0.111   4.118   2.704
 8190SOL    HW225470   0.037   3.992   2.631
 8191SOL     OW25471   3.947   5.571   0.700
 8191SOL    HW125472   4.042   5.551   0.725
 8191SOL    HW225473   3.898   5.485   0.686
 8192SOL     OW25474   0.426   6.149   3.716
 8192SOL    HW125475   0.519   6.148   3.751
 8192SOL    HW225476   0.362   6.128   3.790
 8193SOL     OW25477   0.584   5.081   4.509
 8193SOL    HW125478   0.643   5.071   4.429
 8193SOL    HW225479   0.489   5.066   4.483
 8194SOL     OW25480   4.583   6.633   2.153
 8194SOL    HW125481   4.610   6.706   2.091
 8194SOL    HW225482   4.485   6.637   2.169
 8195SOL     OW25483   6.327   6.463   2.974
 8195SOL    HW125484   6.271   6.519   2.914
 8195SOL    HW225485   6.394   6.520   3.022
 8196SOL     OW25486   4.892   0.887   0.989
 8196SOL    HW125487   4.811   0.899   0.931
 8196SOL    HW225488   4.969   0.935   0.948
 8197SOL     OW25489   3.818   1.530   2.469
 8197SOL    HW125490   3.914   1.553   2.488
 8197SOL    HW225491   3.759   1.599   2.511
 8198SOL     OW25492   1.426   6.828   1.792
 8198SOL    HW125493   1.469   6.753   1.841
 8198SOL    HW225494   1.442   6.914   1.841
 8199SOL     OW25495   5.494   2.888   0.252
 8199SOL    HW125496   5.564   2.884   0.182
 8199SOL    HW225497   5.403   2.890   0.209
 8200SOL     OW25498   4.591   3.290   0.579
 8200SOL    HW125499   4.611   3.318   0.673
 8200SOL    HW225500   4.664   3.320   0.519
 8201SOL     OW25501   5.691   0.008   4.924
 8201SOL    HW125502   5.655   6.934   4.940
 8201SOL    HW225503   5.626   0.059   4.867
 8202SOL     OW25504   0.837   6.700   2.126
 8202SOL    HW125505   0.914   6.740   2.175
 8202SOL    HW225506   0.812   6.613   2.168
 8203SOL     OW25507   1.457   3.113   1.857
 8203SOL    HW125508   1.551   3.137   1.883
 8203SOL    HW225509   1.435   3.153   1.768
 8204SOL     OW25510   3.104   2.869   1.358
 8204SOL    HW125511   3.056   2.933   1.419
 8204SOL    HW225512   3.173   2.819   1.410
 8205SOL     OW25513   0.989   3.441   0.167
 8205SOL    HW125514   1.002   3.493   0.251
 8205SOL    HW225515   0.985   3.344   0.188
 8206SOL     OW25516   3.335   0.405   0.641
 8206SOL    HW125517   3.325   0.363   0.731
 8206SOL    HW225518   3.409   0.361   0.591
 8207SOL     OW25519   4.217   3.602   4.986
 8207SOL    HW125520   4.175   3.514   4.966
 8207SOL    HW225521   4.315   3.598   4.965
 8208SOL     OW25522   2.373   0.934   0.440
 8208SOL    HW125523   2.430   1.010   0.471
 8208SOL    HW225524   2.426   0.850   0.442
 8209SOL     OW25525   6.071   1.573   4.924
 8209SOL    HW125526   6.047   1.671   4.923
 8209SOL    HW225527   6.170   1.563   4.909
 8210SOL     OW25528   2.078   2.340   6.724
 8210SOL    HW125529   2.039   2.337   6.632
 8210SOL    HW225530   2.004   2.337   6.792
 8211SOL     OW25531   3.521   4.535   1.363
 8211SOL    HW125532   3.525   4.555   1.461
 8211SOL    HW225533   3.517   4.436   1.350
 8212SOL     OW25534   1.733   3.026   3.776
 8212SOL    HW125535   1.639   3.022   3.811
 8212SOL    HW225536   1.790   3.075   3.842
 8213SOL     OW25537   6.883   5.265   1.314
 8213SOL    HW125538   6.872   5.205   1.234
 8213SOL    HW225539   6.871   5.211   1.397
 8214SOL     OW25540   5.770   3.958   3.689
 8214SOL    HW125541   5.792   4.055   3.689
 8214SOL    HW225542   5.831   3.909   3.626
 8215SOL     OW25543   3.749   5.442   3.683
 8215SOL    HW125544   3.696   5.373   3.634
 8215SOL    HW225545   3.686   5.506   3.728
 8216SOL     OW25546   5.674   3.583   3.755
 8216SOL    HW125547   5.714   3.626   3.836
 8216SOL    HW225548   5.735   3.596   3.677
 8217SOL     OW25549   2.157   6.324   7.007
 8217SOL    HW125550   2.143   6.243   0.045
 8217SOL    HW225551   2.252   6.354   7.014
 8218SOL     OW25552   6.673   2.203   6.765
 8218SOL    HW125553   6.633   2.195   6.673
 8218SOL    HW225554   6.754   2.263   6.760
 8219SOL     OW25555   6.113   1.851   6.936
 8219SOL    HW125556   6.036   1.857   6.999
 8219SOL    HW225557   6.082   1.816   6.848
 8220SOL     OW25558   3.757   3.448   2.455
 8220SOL    HW125559   3.685   3.379   2.458
 8220SOL    HW225560   3.815   3.440   2.536
 8221SOL     OW25561   5.260   6.060   3.584
 8221SOL    HW125562   5.228   5.974   3.544
 8221SOL    HW225563   5.350   6.046   3.624
 8222SOL     OW25564   5.788   1.705   1.468
 8222SOL    HW125565   5.818   1.610   1.470
 8222SOL    HW225566   5.826   1.754   1.547
 8223SOL     OW25567   0.527   5.067   5.845
 8223SOL    HW125568   0.535   5.109   5.755
 8223SOL    HW225569   0.443   5.012   5.849
 8224SOL     OW25570   1.208   2.996   3.974
 8224SOL    HW125571   1.169   2.914   4.016
 8224SOL    HW225572   1.168   3.077   4.017
 8225SOL     OW25573   4.794   1.306   0.528
 8225SOL    HW125574   4.811   1.315   0.429
 8225SOL    HW225575   4.721   1.368   0.555
 8226SOL     OW25576   5.046   0.594   1.021
 8226SOL    HW125577   5.046   0.517   0.958
 8226SOL    HW225578   4.951   0.624   1.036
 8227SOL     OW25579   6.303   3.198   3.601
 8227SOL    HW125580   6.210   3.216   3.568
 8227SOL    HW225581   6.329   3.104   3.580
 8228SOL     OW25582   6.505   2.736   5.585
 8228SOL    HW125583   6.451   2.774   5.510
 8228SOL    HW225584   6.460   2.654   5.620
 8229SOL     OW25585   3.355   5.249   0.307
 8229SOL    HW125586   3.303   5.326   0.343
 8229SOL    HW225587   3.300   5.165   0.317
 8230SOL     OW25588   5.246   0.300   4.077
 8230SOL    HW125589   5.167   0.359   4.093
 8230SOL    HW225590   5.330   0.349   4.100
 8231SOL     OW25591   4.839   6.133   0.972
 8231SOL    HW125592   4.786   6.200   1.025
 8231SOL    HW225593   4.777   6.061   0.938
 8232SOL     OW25594   2.892   2.562   6.275
 8232SOL    HW125595   2.840   2.520   6.349
 8232SOL    HW225596   2.947   2.492   6.230
 8233SOL     OW25597   0.383   5.066   0.182
 8233SOL    HW125598   0.392   5.058   0.282
 8233SOL    HW225599   0.286   5.063   0.157
 8234SOL     OW25600   3.595   1.982   6.648
 8234SOL    HW125601   3.533   2.005   6.724
 8234SOL    HW225602   3.659   1.911   6.677
 8235SOL     OW25603   4.465   3.334   1.254
 8235SOL    HW125604   4.492   3.237   1.254
 8235SOL    HW225605   4.385   3.346   1.313
 8236SOL     OW25606   6.038   3.345   0.774
 8236SOL    HW125607   6.061   3.374   0.681
 8236SOL    HW225608   6.018   3.248   0.775
 8237SOL     OW25609   4.275   6.122   5.413
 8237SOL    HW125610   4.244   6.215   5.434
 8237SOL    HW225611   4.363   6.127   5.366
 8238SOL     OW25612   1.968   1.869   6.811
 8238SOL    HW125613   2.015   1.782   6.797
 8238SOL    HW225614   1.918   1.893   6.727
 8239SOL     OW25615   0.308   2.131   6.294
 8239SOL    HW125616   0.222   2.173   6.264
 8239SOL    HW225617   0.295   2.032   6.304
 8240SOL     OW25618   4.031   3.757   3.750
 8240SOL    HW125619   4.115   3.732   3.799
 8240SOL    HW225620   3.974   3.814   3.810
 8241SOL     OW25621   3.854   6.785   0.394
 8241SOL    HW125622   3.946   6.794   0.357
 8241SOL    HW225623   3.843   6.695   0.436
 8242SOL     OW25624   0.798   4.214   5.617
 8242SOL    HW125625   0.855   4.255   5.688
 8242SOL    HW225626   0.750   4.286   5.567
 8243SOL     OW25627   0.547   3.739   5.057
 8243SOL    HW125628   0.601   3.707   4.979
 8243SOL    HW225629   0.450   3.726   5.038
 8244SOL     OW25630   0.085   6.835   4.242
 8244SOL    HW125631   0.072   6.935   4.246
 8244SOL    HW225632   7.017   6.792   4.213
 8245SOL     OW25633   3.542   2.644   0.901
 8245SOL    HW125634   3.452   2.681   0.877
 8245SOL    HW225635   3.575   2.585   0.827
 8246SOL     OW25636   5.209   3.552   5.778
 8246SOL    HW125637   5.230   3.501   5.695
 8246SOL    HW225638   5.114   3.536   5.804
 8247SOL     OW25639   1.054   0.217   1.267
 8247SOL    HW125640   0.981   0.178   1.210
 8247SOL    HW225641   1.119   0.265   1.208
 8248SOL     OW25642   6.322   4.226   3.424
 8248SOL    HW125643   6.395   4.205   3.358
 8248SOL    HW225644   6.287   4.318   3.407
 8249SOL     OW25645   2.023   4.901   3.780
 8249SOL    HW125646   1.973   4.845   3.846
 8249SOL    HW225647   2.116   4.866   3.771
 8250SOL     OW25648   4.096   3.666   2.512
 8250SOL    HW125649   4.080   3.705   2.603
 8250SOL    HW225650   4.138   3.576   2.521
 8251SOL     OW25651   5.746   1.898   4.625
 8251SOL    HW125652   5.780   1.985   4.662
 8251SOL    HW225653   5.723   1.909   4.529
 8252SOL     OW25654   1.689   3.026   5.178
 8252SOL    HW125655   1.780   2.991   5.157
 8252SOL    HW225656   1.653   2.979   5.258
 8253SOL     OW25657   3.057   3.136   5.131
 8253SOL    HW125658   3.053   3.180   5.042
 8253SOL    HW225659   3.150   3.104   5.148
 8254SOL     OW25660   3.941   5.699   3.635
 8254SOL    HW125661   3.864   5.645   3.602
 8254SOL    HW225662   3.972   5.663   3.723
 8255SOL     OW25663   4.607   5.249   3.601
 8255SOL    HW125664   4.544   5.310   3.649
 8255SOL    HW225665   4.675   5.304   3.552
 8256SOL     OW25666   7.000   1.643   4.311
 8256SOL    HW125667   7.006   1.553   4.268
 8256SOL    HW225668   0.050   1.650   4.384
 8257SOL     OW25669   6.576   4.282   3.630
 8257SOL    HW125670   6.538   4.369   3.596
 8257SOL    HW225671   6.508   4.236   3.687
 8258SOL     OW25672   4.343   1.522   0.031
 8258SOL    HW125673   4.285   1.443   0.010
 8258SOL    HW225674   4.408   1.498   0.103
 8259SOL     OW25675   3.904   1.994   1.903
 8259SOL    HW125676   3.858   2.038   1.825
 8259SOL    HW225677   3.937   2.064   1.965
 8260SOL     OW25678   2.480   5.881   0.399
 8260SOL    HW125679   2.530   5.968   0.397
 8260SOL    HW225680   2.391   5.893   0.355
 8261SOL     OW25681   5.326   1.360   1.937
 8261SOL    HW125682   5.385   1.288   1.975
 8261SOL    HW225683   5.315   1.432   2.005
 8262SOL     OW25684   0.854   2.237   1.237
 8262SOL    HW125685   0.934   2.210   1.290
 8262SOL    HW225686   0.777   2.255   1.298
 8263SOL     OW25687   6.656   1.580   1.180
 8263SOL    HW125688   6.604   1.659   1.147
 8263SOL    HW225689   6.725   1.611   1.246
 8264SOL     OW25690   1.996   5.102   3.119
 8264SOL    HW125691   2.077   5.114   3.062
 8264SOL    HW225692   2.012   5.029   3.186
 8265SOL     OW25693   1.660   0.535   1.993
 8265SOL    HW125694   1.625   0.588   1.916
 8265SOL    HW225695   1.589   0.529   2.064
 8266SOL     OW25696   3.013   0.090   2.904
 8266SOL    HW125697   2.922   0.049   2.899
 8266SOL    HW225698   3.078   0.032   2.855
 8267SOL     OW25699   0.974   3.386   1.061
 8267SOL    HW125700   1.005   3.356   0.971
 8267SOL    HW225701   0.987   3.312   1.127
 8268SOL     OW25702   2.771   6.849   5.403
 8268SOL    HW125703   2.824   6.934   5.407
 8268SOL    HW225704   2.832   6.772   5.385
 8269SOL     OW25705   5.489   1.801   1.111
 8269SOL    HW125706   5.492   1.729   1.180
 8269SOL    HW225707   5.413   1.786   1.048
 8270SOL     OW25708   3.762   6.344   3.617
 8270SOL    HW125709   3.774   6.262   3.561
 8270SOL    HW225710   3.700   6.324   3.693
 8271SOL     OW25711   6.697   1.890   2.633
 8271SOL    HW125712   6.727   1.985   2.636
 8271SOL    HW225713   6.776   1.830   2.640
 8272SOL     OW25714   3.676   1.275   3.089
 8272SOL    HW125715   3.761   1.285   3.140
 8272SOL    HW225716   3.610   1.224   3.144
 8273SOL     OW25717   2.357   6.299   0.644
 8273SOL    HW125718   2.307   6.280   0.728
 8273SOL    HW225719   2.386   6.395   0.643
 8274SOL     OW25720   5.327   5.183   2.964
 8274SOL    HW125721   5.312   5.156   2.869
 8274SOL    HW225722   5.325   5.101   3.023
 8275SOL     OW25723   4.942   1.901   5.823
 8275SOL    HW125724   4.844   1.916   5.816
 8275SOL    HW225725   4.991   1.976   5.780
 8276SOL     OW25726   0.657   1.842   3.435
 8276SOL    HW125727   0.614   1.753   3.447
 8276SOL    HW225728   0.738   1.833   3.377
 8277SOL     OW25729   6.710   7.013   6.796
 8277SOL    HW125730   6.700   6.916   6.774
 8277SOL    HW225731   6.680   0.050   6.717
 8278SOL     OW25732   2.315   2.368   0.772
 8278SOL    HW125733   2.337   2.463   0.750
 8278SOL    HW225734   2.257   2.330   0.700
 8279SOL     OW25735   6.882   6.293   3.935
 8279SOL    HW125736   6.902   6.198   3.959
 8279SOL    HW225737   6.784   6.303   3.917
 8280SOL     OW25738   3.073   2.723   5.860
 8280SOL    HW125739   3.083   2.623   5.863
 8280SOL    HW225740   3.029   2.754   5.944
 8281SOL     OW25741   0.024   5.965   1.756
 8281SOL    HW125742   0.124   5.963   1.761
 8281SOL    HW225743   7.004   5.913   1.832
 8282SOL     OW25744   5.282   2.148   5.363
 8282SOL    HW125745   5.381   2.159   5.349
 8282SOL    HW225746   5.265   2.064   5.414
 8283SOL     OW25747   1.760   4.225   5.923
 8283SOL    HW125748   1.735   4.172   5.841
 8283SOL    HW225749   1.859   4.235   5.927
 8284SOL     OW25750   0.181   4.400   2.051
 8284SOL    HW125751   0.146   4.306   2.047
 8284SOL    HW225752   0.195   4.426   2.146
 8285SOL     OW25753   3.432   3.430   5.279
 8285SOL    HW125754   3.348   3.388   5.314
 8285SOL    HW225755   3.419   3.529   5.272
 8286SOL     OW25756   6.552   2.221   5.831
 8286SOL    HW125757   6.458   2.193   5.850
 8286SOL    HW225758   6.551   2.314   5.792
 8287SOL     OW25759   2.116   5.484   4.822
 8287SOL    HW125760   2.186   5.446   4.883
 8287SOL    HW225761   2.027   5.477   4.866
 8288SOL     OW25762   2.582   2.524   3.413
 8288SOL    HW125763   2.524   2.442   3.412
 8288SOL    HW225764   2.585   2.561   3.505
 8289SOL     OW25765   0.578   6.313   6.874
 8289SOL    HW125766   0.643   6.241   6.848
 8289SOL    HW225767   0.622   6.402   6.867
 8290SOL     OW25768   6.816   2.546   0.435
 8290SOL    HW125769   6.904   2.501   0.416
 8290SOL    HW225770   6.743   2.478   0.431
 8291SOL     OW25771   4.671   0.401   6.856
 8291SOL    HW125772   4.670   0.419   6.758
 8291SOL    HW225773   4.601   0.456   6.901
 8292SOL     OW25774   3.114   6.675   6.879
 8292SOL    HW125775   3.186   6.605   6.875
 8292SOL    HW225776   3.028   6.632   6.907
 8293SOL     OW25777   5.453   5.841   6.145
 8293SOL    HW125778   5.369   5.870   6.099
 8293SOL    HW225779   5.456   5.741   6.149
 8294SOL     OW25780   5.408   2.411   0.147
 8294SOL    HW125781   5.488   2.361   0.115
 8294SOL    HW225782   5.325   2.363   0.118
 8295SOL     OW25783   4.917   4.172   1.106
 8295SOL    HW125784   5.016   4.168   1.120
 8295SOL    HW225785   4.893   4.119   1.024
 8296SOL     OW25786   1.908   5.368   6.721
 8296SOL    HW125787   1.878   5.273   6.736
 8296SOL    HW225788   1.951   5.402   6.805
 8297SOL     OW25789   0.127   2.809   2.885
 8297SOL    HW125790   0.204   2.844   2.832
 8297SOL    HW225791   0.094   2.724   2.843
 8298SOL     OW25792   4.904   0.582   1.733
 8298SOL    HW125793   4.962   0.663   1.733
 8298SOL    HW225794   4.846   0.582   1.651
 8299SOL     OW25795   6.176   1.996   1.841
 8299SOL    HW125796   6.227   1.911   1.854
 8299SOL    HW225797   6.084   1.986   1.880
 8300SOL     OW25798   0.560   4.886   3.886
 8300SOL    HW125799   0.533   4.810   3.828
 8300SOL    HW225800   0.629   4.855   3.952
 8301SOL     OW25801   3.497   2.816   6.851
 8301SOL    HW125802   3.407   2.841   6.816
 8301SOL    HW225803   3.511   2.718   6.839
 8302SOL     OW25804   5.920   6.441   6.482
 8302SOL    HW125805   5.877   6.439   6.392
 8302SOL    HW225806   5.969   6.527   6.495
 8303SOL     OW25807   0.177   7.005   4.883
 8303SOL    HW125808   0.124   6.939   4.937
 8303SOL    HW225809   0.274   6.990   4.900
 8304SOL     OW25810   0.743   3.742   6.868
 8304SOL    HW125811   0.822   3.791   6.832
 8304SOL    HW225812   0.660   3.776   6.825
 8305SOL     OW25813   3.597   5.208   3.224
 8305SOL    HW125814   3.672   5.217   3.160
 8305SOL    HW225815   3.633   5.205   3.318
 8306SOL     OW25816   0.931   3.061   4.260
 8306SOL    HW125817   0.997   2.987   4.256
 8306SOL    HW225818   0.922   3.093   4.354
 8307SOL     OW25819   4.456   5.686   1.107
 8307SOL    HW125820   4.493   5.719   1.194
 8307SOL    HW225821   4.489   5.592   1.091
 8308SOL     OW25822   3.617   6.684   2.384
 8308SOL    HW125823   3.709   6.665   2.348
 8308SOL    HW225824   3.595   6.619   2.456
 8309SOL     OW25825   5.767   5.743   1.713
 8309SOL    HW125826   5.745   5.839   1.731
 8309SOL    HW225827   5.863   5.736   1.684
 8310SOL     OW25828   0.093   4.738   0.539
 8310SOL    HW125829   0.071   4.771   0.631
 8310SOL    HW225830   0.183   4.694   0.541
 8311SOL     OW25831   6.910   0.639   6.728
 8311SOL    HW125832   6.812   0.625   6.711
 8311SOL    HW225833   6.932   0.736   6.718
 8312SOL     OW25834   5.456   6.745   1.527
 8312SOL    HW125835   5.428   6.741   1.431
 8312SOL    HW225836   5.553   6.769   1.532
 8313SOL     OW25837   3.345   1.368   2.218
 8313SOL    HW125838   3.354   1.370   2.318
 8313SOL    HW225839   3.428   1.403   2.176
 8314SOL     OW25840   6.748   0.424   2.544
 8314SOL    HW125841   6.752   0.369   2.627
 8314SOL    HW225842   6.678   0.495   2.555
 8315SOL     OW25843   4.986   3.915   0.091
 8315SOL    HW125844   4.926   3.930   0.169
 8315SOL    HW225845   4.952   3.967   0.012
 8316SOL     OW25846   1.408   3.536   6.919
 8316SOL    HW125847   1.386   3.603   6.991
 8316SOL    HW225848   1.343   3.547   6.843
 8317SOL     OW25849   2.322   4.461   1.631
 8317SOL    HW125850   2.309   4.558   1.648
 8317SOL    HW225851   2.380   4.449   1.550
 8318SOL     OW25852   3.888   1.545   4.906
 8318SOL    HW125853   3.865   1.634   4.945
 8318SOL    HW225854   3.858   1.473   4.969
 8319SOL     OW25855   3.487   1.346   5.287
 8319SOL    HW125856   3.440   1.327   5.201
 8319SOL    HW225857   3.419   1.350   5.361
 8320SOL     OW25858   3.099   4.324   1.416
 8320SOL    HW125859   3.179   4.267   1.431
 8320SOL    HW225860   3.096   4.353   1.320
 8321SOL     OW25861   0.717   0.348   1.482
 8321SOL    HW125862   0.751   0.400   1.561
 8321SOL    HW225863   0.711   0.251   1.505
 8322SOL     OW25864   6.570   6.629   6.905
 8322SOL    HW125865   6.566   6.650   7.003
 8322SOL    HW225866   6.615   6.540   6.892
 8323SOL     OW25867   1.119   1.808   2.201
 8323SOL    HW125868   1.044   1.753   2.164
 8323SOL    HW225869   1.145   1.878   2.134
 8324SOL     OW25870   6.095   0.738   2.121
 8324SOL    HW125871   6.182   0.688   2.119
 8324SOL    HW225872   6.038   0.710   2.044
 8325SOL     OW25873   3.415   3.013   3.979
 8325SOL    HW125874   3.489   3.014   3.912
 8325SOL    HW225875   3.327   3.011   3.931
 8326SOL     OW25876   3.942   2.958   6.143
 8326SOL    HW125877   3.935   2.898   6.222
 8326SOL    HW225878   3.972   2.905   6.063
 8327SOL     OW25879   5.425   2.320   6.093
 8327SOL    HW125880   5.399   2.417   6.095
 8327SOL    HW225881   5.518   2.311   6.058
 8328SOL     OW25882   2.188   2.274   6.142
 8328SOL    HW125883   2.247   2.216   6.198
 8328SOL    HW225884   2.092   2.256   6.165
 8329SOL     OW25885   0.063   2.926   5.183
 8329SOL    HW125886   0.096   2.918   5.277
 8329SOL    HW225887   6.999   2.985   5.182
 8330SOL     OW25888   2.051   6.466   0.782
 8330SOL    HW125889   2.101   6.546   0.750
 8330SOL    HW225890   2.032   6.475   0.880
 8331SOL     OW25891   2.776   6.613   1.088
 8331SOL    HW125892   2.846   6.684   1.080
 8331SOL    HW225893   2.723   6.608   1.004
 8332SOL     OW25894   4.922   4.868   2.318
 8332SOL    HW125895   5.005   4.923   2.312
 8332SOL    HW225896   4.896   4.835   2.227
 8333SOL     OW25897   0.655   5.806   0.177
 8333SOL    HW125898   0.596   5.771   0.104
 8333SOL    HW225899   0.606   5.877   0.228
 8334SOL     OW25900   5.757   2.063   3.556
 8334SOL    HW125901   5.749   2.107   3.645
 8334SOL    HW225902   5.851   2.074   3.521
 8335SOL     OW25903   6.042   6.505   5.709
 8335SOL    HW125904   6.037   6.603   5.689
 8335SOL    HW225905   5.949   6.468   5.713
 8336SOL     OW25906   0.596   1.741   1.687
 8336SOL    HW125907   0.685   1.695   1.694
 8336SOL    HW225908   0.594   1.795   1.603
 8337SOL     OW25909   0.580   6.397   2.778
 8337SOL    HW125910   0.616   6.489   2.763
 8337SOL    HW225911   0.516   6.399   2.855
 8338SOL     OW25912   1.593   4.605   1.585
 8338SOL    HW125913   1.608   4.641   1.493
 8338SOL    HW225914   1.642   4.519   1.595
 8339SOL     OW25915   5.194   1.662   2.621
 8339SOL    HW125916   5.274   1.611   2.589
 8339SOL    HW225917   5.171   1.733   2.555
 8340SOL     OW25918   5.056   3.985   0.773
 8340SOL    HW125919   5.035   3.971   0.676
 8340SOL    HW225920   4.986   4.045   0.813
 8341SOL     OW25921   2.618   6.236   1.204
 8341SOL    HW125922   2.696   6.249   1.265
 8341SOL    HW225923   2.533   6.248   1.255
 8342SOL     OW25924   4.158   0.754   0.904
 8342SOL    HW125925   4.113   0.669   0.875
 8342SOL    HW225926   4.235   0.732   0.964
 8343SOL     OW25927   1.515   5.327   6.152
 8343SOL    HW125928   1.582   5.262   6.115
 8343SOL    HW225929   1.426   5.282   6.159
 8344SOL     OW25930   4.513   6.174   5.691
 8344SOL    HW125931   4.441   6.188   5.623
 8344SOL    HW225932   4.552   6.082   5.680
 8345SOL     OW25933   6.075   1.190   2.694
 8345SOL    HW125934   6.155   1.140   2.729
 8345SOL    HW225935   6.018   1.127   2.642
 8346SOL     OW25936   3.024   5.472   1.353
 8346SOL    HW125937   3.114   5.435   1.330
 8346SOL    HW225938   3.021   5.498   1.449
 8347SOL     OW25939   3.753   6.618   5.493
 8347SOL    HW125940   3.782   6.683   5.563
 8347SOL    HW225941   3.681   6.658   5.437
 8348SOL     OW25942   1.146   0.611   0.296
 8348SOL    HW125943   1.062   0.558   0.303
 8348SOL    HW225944   1.137   0.694   0.352
 8349SOL     OW25945   5.712   4.326   1.711
 8349SOL    HW125946   5.635   4.274   1.677
 8349SOL    HW225947   5.795   4.300   1.662
 8350SOL     OW25948   6.473   1.144   5.109
 8350SOL    HW125949   6.457   1.097   5.197
 8350SOL    HW225950   6.562   1.190   5.112
 8351SOL     OW25951   3.547   6.286   3.797
 8351SOL    HW125952   3.494   6.366   3.825
 8351SOL    HW225953   3.487   6.221   3.751
 8352SOL     OW25954   6.826   6.574   2.118
 8352SOL    HW125955   6.816   6.670   2.092
 8352SOL    HW225956   6.822   6.566   2.218
 8353SOL     OW25957   0.396   3.226   2.481
 8353SOL    HW125958   0.394   3.253   2.578
 8353SOL    HW225959   0.491   3.219   2.451
 8354SOL     OW25960   2.636   1.184   6.975
 8354SOL    HW125961   2.622   1.163   6.878
 8354SOL    HW225962   2.552   1.165   0.008
 8355SOL     OW25963   3.323   0.218   0.035
 8355SOL    HW125964   3.255   0.182   6.988
 8355SOL    HW225965   3.347   0.146   0.100
 8356SOL     OW25966   2.126   6.002   6.946
 8356SOL    HW125967   2.051   6.045   6.896
 8356SOL    HW225968   2.152   6.060   0.005
 8357SOL     OW25969   4.635   5.963   4.979
 8357SOL    HW125970   4.602   6.057   4.985
 8357SOL    HW225971   4.589   5.907   5.048
 8358SOL     OW25972   1.646   2.918   5.429
 8358SOL    HW125973   1.649   2.823   5.460
 8358SOL    HW225974   1.728   2.966   5.462
 8359SOL     OW25975   4.438   5.544   4.557
 8359SOL    HW125976   4.472   5.499   4.475
 8359SOL    HW225977   4.339   5.559   4.548
 8360SOL     OW25978   5.402   0.168   2.964
 8360SOL    HW125979   5.474   0.226   2.925
 8360SOL    HW225980   5.432   0.132   3.052
 8361SOL     OW25981   1.909   0.577   2.428
 8361SOL    HW125982   1.964   0.549   2.349
 8361SOL    HW225983   1.945   0.663   2.465
 8362SOL     OW25984   3.002   1.905   0.568
 8362SOL    HW125985   3.021   1.821   0.619
 8362SOL    HW225986   2.921   1.950   0.607
 8363SOL     OW25987   6.815   3.168   0.127
 8363SOL    HW125988   6.768   3.202   0.208
 8363SOL    HW225989   6.757   3.100   0.081
 8364SOL     OW25990   6.746   3.768   3.392
 8364SOL    HW125991   6.676   3.696   3.381
 8364SOL    HW225992   6.702   3.854   3.418
 8365SOL     OW25993   1.867   3.378   6.442
 8365SOL    HW125994   1.914   3.431   6.512
 8365SOL    HW225995   1.934   3.336   6.381
 8366SOL     OW25996   3.140   6.647   2.977
 8366SOL    HW125997   3.071   6.581   2.949
 8366SOL    HW225998   3.130   6.731   2.924
 8367SOL     OW25999   5.719   6.556   3.927
 8367SOL    HW126000   5.729   6.469   3.878
 8367SOL    HW226001   5.623   6.570   3.951
 8368SOL     OW26002   2.963   5.266   6.157
 8368SOL    HW126003   2.985   5.173   6.185
 8368SOL    HW226004   3.010   5.288   6.072
 8369SOL     OW26005   1.749   1.571   0.581
 8369SOL    HW126006   1.840   1.610   0.570
 8369SOL    HW226007   1.681   1.634   0.542
 8370SOL     OW26008   1.136   1.699   6.094
 8370SOL    HW126009   1.202   1.771   6.077
 8370SOL    HW226010   1.072   1.728   6.166
 8371SOL     OW26011   1.581   3.054   1.061
 8371SOL    HW126012   1.574   2.956   1.076
 8371SOL    HW226013   1.559   3.076   0.966
 8372SOL     OW26014   6.949   0.897   3.010
 8372SOL    HW126015   6.929   0.987   2.970
 8372SOL    HW226016   0.014   0.902   3.065
 8373SOL     OW26017   1.656   5.768   5.457
 8373SOL    HW126018   1.686   5.806   5.544
 8373SOL    HW226019   1.633   5.843   5.395
 8374SOL     OW26020   6.772   0.011   0.090
 8374SOL    HW126021   6.786   0.032   7.011
 8374SOL    HW226022   6.690   0.058   0.123
 8375SOL     OW26023   3.673   6.622   6.028
 8375SOL    HW126024   3.657   6.523   6.031
 8375SOL    HW226025   3.744   6.643   5.961
 8376SOL     OW26026   3.187   0.809   4.458
 8376SOL    HW126027   3.090   0.832   4.457
 8376SOL    HW226028   3.199   0.715   4.491
 8377SOL     OW26029   5.801   4.558   1.600
 8377SOL    HW126030   5.899   4.560   1.623
 8377SOL    HW226031   5.766   4.465   1.613
 8378SOL     OW26032   4.846   3.049   2.799
 8378SOL    HW126033   4.786   2.978   2.762
 8378SOL    HW226034   4.844   3.044   2.899
 8379SOL     OW26035   6.087   2.895   2.655
 8379SOL    HW126036   6.170   2.946   2.631
 8379SOL    HW226037   6.107   2.797   2.658
 8380SOL     OW26038   4.330   1.951   3.328
 8380SOL    HW126039   4.332   1.925   3.425
 8380SOL    HW226040   4.237   1.942   3.293
 8381SOL     OW26041   1.910   5.449   4.997
 8381SOL    HW126042   1.914   5.509   5.076
 8381SOL    HW226043   1.914   5.353   5.027
 8382SOL     OW26044   1.235   3.132   2.297
 8382SOL    HW126045   1.292   3.212   2.285
 8382SOL    HW226046   1.283   3.064   2.352
 8383SOL     OW26047   2.696   2.385   6.470
 8383SOL    HW126048   2.653   2.309   6.421
 8383SOL    HW226049   2.790   2.360   6.495
 8384SOL     OW26050   0.471   6.757   1.841
 8384SOL    HW126051   0.543   6.695   1.809
 8384SOL    HW226052   0.451   6.824   1.769
 8385SOL     OW26053   4.796   2.397   2.000
 8385SOL    HW126054   4.892   2.374   2.015
 8385SOL    HW226055   4.774   2.390   1.903
 8386SOL     OW26056   1.076   4.071   2.806
 8386SOL    HW126057   0.990   4.123   2.809
 8386SOL    HW226058   1.059   3.976   2.829
 8387SOL     OW26059   0.477   2.562   1.267
 8387SOL    HW126060   0.557   2.541   1.211
 8387SOL    HW226061   0.435   2.647   1.234
 8388SOL     OW26062   1.984   0.742   2.062
 8388SOL    HW126063   1.973   0.747   2.161
 8388SOL    HW226064   2.014   0.650   2.037
 8389SOL     OW26065   5.418   2.800   1.990
 8389SOL    HW126066   5.387   2.881   2.039
 8389SOL    HW226067   5.356   2.781   1.914
 8390SOL     OW26068   5.429   1.721   5.395
 8390SOL    HW126069   5.390   1.631   5.418
 8390SOL    HW226070   5.526   1.721   5.419
 8391SOL     OW26071   6.207   0.592   0.858
 8391SOL    HW126072   6.234   0.527   0.930
 8391SOL    HW226073   6.288   0.618   0.805
 8392SOL     OW26074   5.492   3.238   5.059
 8392SOL    HW126075   5.486   3.220   5.158
 8392SOL    HW226076   5.408   3.285   5.029
 8393SOL     OW26077   5.242   0.039   1.310
 8393SOL    HW126078   5.193   0.119   1.276
 8393SOL    HW226079   5.177   6.990   1.347
 8394SOL     OW26080   6.145   3.532   1.555
 8394SOL    HW126081   6.237   3.530   1.517
 8394SOL    HW226082   6.138   3.604   1.624
 8395SOL     OW26083   1.618   0.968   4.567
 8395SOL    HW126084   1.566   0.884   4.587
 8395SOL    HW226085   1.701   0.970   4.622
 8396SOL     OW26086   4.347   5.827   4.561
 8396SOL    HW126087   4.331   5.737   4.519
 8396SOL    HW226088   4.438   5.859   4.535
 8397SOL     OW26089   6.281   1.123   2.875
 8397SOL    HW126090   6.322   1.209   2.906
 8397SOL    HW226091   6.205   1.098   2.936
 8398SOL     OW26092   4.966   2.043   6.122
 8398SOL    HW126093   4.927   2.129   6.091
 8398SOL    HW226094   5.052   2.025   6.073
 8399SOL     OW26095   6.833   5.037   0.772
 8399SOL    HW126096   6.879   5.117   0.733
 8399SOL    HW226097   6.734   5.050   0.768
 8400SOL     OW26098   1.647   2.223   4.665
 8400SOL    HW126099   1.683   2.151   4.606
 8400SOL    HW226100   1.637   2.188   4.758
 8401SOL     OW26101   3.334   0.562   5.955
 8401SOL    HW126102   3.344   0.586   5.859
 8401SOL    HW226103   3.390   0.624   6.011
 8402SOL     OW26104   4.144   0.346   5.937
 8402SOL    HW126105   4.100   0.344   5.847
 8402SOL    HW226106   4.076   0.370   6.007
 8403SOL     OW26107   5.909   4.977   4.191
 8403SOL    HW126108   5.838   5.047   4.198
 8403SOL    HW226109   5.877   4.903   4.132
 8404SOL     OW26110   1.765   1.872   6.610
 8404SOL    HW126111   1.691   1.816   6.572
 8404SOL    HW226112   1.727   1.937   6.675
 8405SOL     OW26113   3.820   0.925   5.490
 8405SOL    HW126114   3.743   0.985   5.512
 8405SOL    HW226115   3.890   0.978   5.442
 8406SOL     OW26116   4.971   0.633   6.155
 8406SOL    HW126117   4.900   0.692   6.117
 8406SOL    HW226118   4.989   0.660   6.250
 8407SOL     OW26119   3.431   6.830   4.115
 8407SOL    HW126120   3.430   6.786   4.025
 8407SOL    HW226121   3.524   6.830   4.152
 8408SOL     OW26122   4.239   1.140   1.468
 8408SOL    HW126123   4.257   1.208   1.396
 8408SOL    HW226124   4.224   1.051   1.426
 8409SOL     OW26125   4.396   2.432   1.802
 8409SOL    HW126126   4.361   2.519   1.768
 8409SOL    HW226127   4.455   2.448   1.881
 8410SOL     OW26128   6.813   1.892   1.646
 8410SOL    HW126129   6.805   1.956   1.723
 8410SOL    HW226130   6.725   1.881   1.601
 8411SOL     OW26131   1.587   5.424   0.297
 8411SOL    HW126132   1.621   5.518   0.288
 8411SOL    HW226133   1.489   5.423   0.280
 8412SOL     OW26134   2.876   2.752   6.047
 8412SOL    HW126135   2.781   2.776   6.069
 8412SOL    HW226136   2.908   2.681   6.109
 8413SOL     OW26137   4.337   5.715   4.891
 8413SOL    HW126138   4.399   5.637   4.890
 8413SOL    HW226139   4.362   5.779   4.817
 8414SOL     OW26140   0.816   0.879   1.732
 8414SOL    HW126141   0.791   0.925   1.817
 8414SOL    HW226142   0.874   0.800   1.752
 8415SOL     OW26143   2.014   0.958   5.110
 8415SOL    HW126144   1.948   1.030   5.088
 8415SOL    HW226145   2.106   0.996   5.106
 8416SOL     OW26146   6.683   1.559   5.013
 8416SOL    HW126147   6.642   1.604   4.933
 8416SOL    HW226148   6.614   1.547   5.084
 8417SOL     OW26149   1.505   4.511   5.340
 8417SOL    HW126150   1.442   4.437   5.317
 8417SOL    HW226151   1.584   4.508   5.279
 8418SOL     OW26152   0.977   6.033   2.330
 8418SOL    HW126153   0.884   6.051   2.361
 8418SOL    HW226154   1.000   5.937   2.346
 8419SOL     OW26155   4.766   1.426   3.859
 8419SOL    HW126156   4.833   1.479   3.806
 8419SOL    HW226157   4.735   1.347   3.806
 8420SOL     OW26158   2.617   0.297   2.854
 8420SOL    HW126159   2.548   0.356   2.899
 8420SOL    HW226160   2.689   0.277   2.920
 8421SOL     OW26161   4.815   6.171   6.199
 8421SOL    HW126162   4.830   6.244   6.266
 8421SOL    HW226163   4.897   6.116   6.191
 8422SOL     OW26164   4.639   2.599   2.954
 8422SOL    HW126165   4.649   2.653   2.871
 8422SOL    HW226166   4.711   2.624   3.019
 8423SOL     OW26167   6.579   5.015   6.381
 8423SOL    HW126168   6.538   4.935   6.426
 8423SOL    HW226169   6.512   5.089   6.377
 8424SOL     OW26170   2.111   0.058   3.695
 8424SOL    HW126171   2.100   0.107   3.608
 8424SOL    HW226172   2.127   0.123   3.769
 8425SOL     OW26173   4.149   3.425   3.066
 8425SOL    HW126174   4.059   3.451   3.031
 8425SOL    HW226175   4.217   3.433   2.993
 8426SOL     OW26176   3.708   2.808   1.939
 8426SOL    HW126177   3.734   2.845   2.029
 8426SOL    HW226178   3.732   2.874   1.868
 8427SOL     OW26179   3.543   3.820   3.693
 8427SOL    HW126180   3.629   3.779   3.725
 8427SOL    HW226181   3.494   3.858   3.771
 8428SOL     OW26182   6.541   6.814   0.403
 8428SOL    HW126183   6.622   6.871   0.423
 8428SOL    HW226184   6.557   6.762   0.320
 8429SOL     OW26185   2.463   5.482   6.023
 8429SOL    HW126186   2.557   5.482   6.054
 8429SOL    HW226187   2.401   5.486   6.101
 8430SOL     OW26188   4.226   6.942   5.386
 8430SOL    HW126189   4.223   6.914   5.482
 8430SOL    HW226190   4.245   6.862   5.328
 8431SOL     OW26191   3.462   4.035   6.368
 8431SOL    HW126192   3.523   4.113   6.353
 8431SOL    HW226193   3.491   3.959   6.310
 8432SOL     OW26194   6.180   5.306   5.974
 8432SOL    HW126195   6.081   5.304   5.968
 8432SOL    HW226196   6.208   5.347   6.062
 8433SOL     OW26197   5.410   2.777   0.736
 8433SOL    HW126198   5.367   2.857   0.778
 8433SOL    HW226199   5.506   2.772   0.766
 8434SOL     OW26200   2.694   6.188   5.508
 8434SOL    HW126201   2.697   6.112   5.443
 8434SOL    HW226202   2.739   6.162   5.593
 8435SOL     OW26203   4.922   1.062   3.133
 8435SOL    HW126204   4.988   1.128   3.097
 8435SOL    HW226205   4.971   0.989   3.180
 8436SOL     OW26206   2.169   6.005   2.524
 8436SOL    HW126207   2.130   6.020   2.615
 8436SOL    HW226208   2.269   6.003   2.531
 8437SOL     OW26209   2.175   3.935   2.214
 8437SOL    HW126210   2.142   3.841   2.222
 8437SOL    HW226211   2.252   3.938   2.151
 8438SOL     OW26212   1.254   4.284   2.285
 8438SOL    HW126213   1.280   4.225   2.361
 8438SOL    HW226214   1.248   4.379   2.316
 8439SOL     OW26215   6.073   5.204   3.601
 8439SOL    HW126216   6.021   5.208   3.686
 8439SOL    HW226217   6.017   5.160   3.530
 8440SOL     OW26218   1.875   1.369   2.872
 8440SOL    HW126219   1.918   1.297   2.817
 8440SOL    HW226220   1.914   1.369   2.964
 8441SOL     OW26221   5.759   1.094   4.493
 8441SOL    HW126222   5.689   1.115   4.561
 8441SOL    HW226223   5.850   1.110   4.533
 8442SOL     OW26224   3.536   1.433   6.040
 8442SOL    HW126225   3.561   1.477   5.954
 8442SOL    HW226226   3.477   1.354   6.022
 8443SOL     OW26227   0.967   3.820   2.962
 8443SOL    HW126228   0.990   3.727   2.991
 8443SOL    HW226229   0.868   3.831   2.959
 8444SOL     OW26230   4.849   5.094   4.347
 8444SOL    HW126231   4.801   5.121   4.430
 8444SOL    HW226232   4.901   5.171   4.311
 8445SOL     OW26233   4.036   5.740   6.785
 8445SOL    HW126234   4.050   5.641   6.777
 8445SOL    HW226235   4.120   5.783   6.818
 8446SOL     OW26236   7.013   5.885   4.791
 8446SOL    HW126237   0.031   5.970   4.751
 8446SOL    HW226238   0.032   5.807   4.741
 8447SOL     OW26239   3.819   2.116   2.937
 8447SOL    HW126240   3.791   2.079   2.849
 8447SOL    HW226241   3.818   2.043   3.006
 8448SOL     OW26242   4.175   6.356   3.240
 8448SOL    HW126243   4.206   6.332   3.332
 8448SOL    HW226244   4.218   6.442   3.211
 8449SOL     OW26245   2.357   2.372   3.476
 8449SOL    HW126246   2.296   2.412   3.545
 8449SOL    HW226247   2.318   2.386   3.385
 8450SOL     OW26248   0.087   0.871   0.031
 8450SOL    HW126249   0.024   0.795   0.013
 8450SOL    HW226250   0.039   0.945   0.078
 8451SOL     OW26251   4.377   2.774   0.910
 8451SOL    HW126252   4.375   2.871   0.935
 8451SOL    HW226253   4.288   2.733   0.930
 8452SOL     OW26254   5.558   1.955   5.594
 8452SOL    HW126255   5.567   2.004   5.507
 8452SOL    HW226256   5.639   1.897   5.607
 8453SOL     OW26257   1.012   6.111   0.888
 8453SOL    HW126258   1.063   6.028   0.870
 8453SOL    HW226259   1.075   6.183   0.918
 8454SOL     OW26260   6.883   4.081   0.076
 8454SOL    HW126261   6.861   3.991   0.039
 8454SOL    HW226262   6.817   4.148   0.041
 8455SOL     OW26263   6.899   0.600   3.244
 8455SOL    HW126264   6.819   0.544   3.226
 8455SOL    HW226265   6.938   0.632   3.158
 8456SOL     OW26266   5.845   1.087   3.685
 8456SOL    HW126267   5.798   1.157   3.739
 8456SOL    HW226268   5.907   1.035   3.744
 8457SOL     OW26269   6.493   6.548   4.688
 8457SOL    HW126270   6.476   6.646   4.679
 8457SOL    HW226271   6.549   6.516   4.611
 8458SOL     OW26272   0.469   6.532   6.706
 8458SOL    HW126273   0.373   6.553   6.688
 8458SOL    HW226274   0.477   6.438   6.738
 8459SOL     OW26275   1.717   5.986   3.579
 8459SOL    HW126276   1.767   5.902   3.557
 8459SOL    HW226277   1.757   6.063   3.528
 8460SOL     OW26278   3.328   4.127   4.285
 8460SOL    HW126279   3.301   4.127   4.381
 8460SOL    HW226280   3.249   4.106   4.228
 8461SOL     OW26281   6.589   3.788   3.681
 8461SOL    HW126282   6.497   3.827   3.687
 8461SOL    HW226283   6.586   3.703   3.629
 8462SOL     OW26284   1.971   2.599   2.254
 8462SOL    HW126285   1.993   2.538   2.178
 8462SOL    HW226286   2.040   2.672   2.259
 8463SOL     OW26287   5.401   1.151   2.179
 8463SOL    HW126288   5.461   1.075   2.153
 8463SOL    HW226289   5.454   1.237   2.178
 8464SOL     OW26290   6.260   2.358   4.633
 8464SOL    HW126291   6.212   2.301   4.566
 8464SOL    HW226292   6.289   2.444   4.589
 8465SOL     OW26293   1.843   2.395   0.376
 8465SOL    HW126294   1.803   2.371   0.287
 8465SOL    HW226295   1.884   2.313   0.416
 8466SOL     OW26296   0.734   6.607   3.714
 8466SOL    HW126297   0.833   6.591   3.715
 8466SOL    HW226298   0.714   6.692   3.764
 8467SOL     OW26299   2.627   5.363   0.452
 8467SOL    HW126300   2.612   5.344   0.549
 8467SOL    HW226301   2.543   5.399   0.412
 8468SOL     OW26302   4.508   1.483   0.233
 8468SOL    HW126303   4.463   1.533   0.307
 8468SOL    HW226304   4.608   1.488   0.246
 8469SOL     OW26305   3.773   2.284   6.648
 8469SOL    HW126306   3.735   2.214   6.709
 8469SOL    HW226307   3.841   2.338   6.697
 8470SOL     OW26308   2.290   2.235   6.410
 8470SOL    HW126309   2.303   2.311   6.473
 8470SOL    HW226310   2.378   2.205   6.375
 8471SOL     OW26311   3.786   0.904   3.605
 8471SOL    HW126312   3.879   0.914   3.639
 8471SOL    HW226313   3.726   0.869   3.677
 8472SOL     OW26314   1.335   6.351   3.512
 8472SOL    HW126315   1.280   6.429   3.483
 8472SOL    HW226316   1.432   6.376   3.510
 8473SOL     OW26317   6.945   5.718   6.802
 8473SOL    HW126318   6.926   5.740   6.898
 8473SOL    HW226319   6.942   5.619   6.788
 8474SOL     OW26320   3.646   4.077   1.287
 8474SOL    HW126321   3.598   4.099   1.202
 8474SOL    HW226322   3.743   4.061   1.268
 8475SOL     OW26323   4.697   1.145   3.363
 8475SOL    HW126324   4.751   1.102   3.436
 8475SOL    HW226325   4.736   1.121   3.274
 8476SOL     OW26326   4.499   0.200   2.557
 8476SOL    HW126327   4.529   0.242   2.471
 8476SOL    HW226328   4.528   0.256   2.634
 8477SOL     OW26329   3.027   1.433   1.684
 8477SOL    HW126330   3.052   1.431   1.780
 8477SOL    HW226331   3.086   1.371   1.632
 8478SOL     OW26332   1.489   0.411   5.829
 8478SOL    HW126333   1.436   0.491   5.803
 8478SOL    HW226334   1.453   0.330   5.782
 8479SOL     OW26335   5.098   0.775   1.679
 8479SOL    HW126336   5.183   0.801   1.632
 8479SOL    HW226337   5.026   0.840   1.654
 8480SOL     OW26338   1.962   0.818   1.296
 8480SOL    HW126339   1.885   0.823   1.233
 8480SOL    HW226340   1.951   0.886   1.368
 8481SOL     OW26341   4.061   0.358   4.128
 8481SOL    HW126342   4.053   0.412   4.044
 8481SOL    HW226343   3.979   0.302   4.140
 8482SOL     OW26344   1.207   0.333   2.148
 8482SOL    HW126345   1.122   0.369   2.186
 8482SOL    HW226346   1.191   0.298   2.056
 8483SOL     OW26347   4.244   6.165   1.616
 8483SOL    HW126348   4.195   6.135   1.535
 8483SOL    HW226349   4.216   6.110   1.695
 8484SOL     OW26350   0.680   4.905   4.706
 8484SOL    HW126351   0.655   4.941   4.796
 8484SOL    HW226352   0.637   4.960   4.635
 8485SOL     OW26353   2.648   3.701   5.890
 8485SOL    HW126354   2.550   3.715   5.874
 8485SOL    HW226355   2.683   3.775   5.948
 8486SOL     OW26356   4.511   0.819   2.629
 8486SOL    HW126357   4.539   0.853   2.539
 8486SOL    HW226358   4.421   0.856   2.652
 8487SOL     OW26359   4.327   6.882   1.116
 8487SOL    HW126360   4.387   6.810   1.151
 8487SOL    HW226361   4.340   6.890   1.017
 8488SOL     OW26362   5.288   2.900   4.781
 8488SOL    HW126363   5.306   2.826   4.717
 8488SOL    HW226364   5.222   2.964   4.741
 8489SOL     OW26365   4.363   4.919   2.562
 8489SOL    HW126366   4.320   4.844   2.611
 8489SOL    HW226367   4.389   4.991   2.626
 8490SOL     OW26368   3.955   5.398   2.649
 8490SOL    HW126369   3.962   5.472   2.716
 8490SOL    HW226370   3.910   5.319   2.691
 8491SOL     OW26371   2.116   1.092   2.514
 8491SOL    HW126372   2.059   1.173   2.529
 8491SOL    HW226373   2.176   1.108   2.435
 8492SOL     OW26374   5.697   3.259   4.894
 8492SOL    HW126375   5.624   3.249   4.961
 8492SOL    HW226376   5.766   3.322   4.929
 8493SOL     OW26377   3.853   2.148   1.141
 8493SOL    HW126378   3.782   2.112   1.080
 8493SOL    HW226379   3.900   2.071   1.184
 8494SOL     OW26380   3.553   5.502   6.960
 8494SOL    HW126381   3.591   5.471   6.873
 8494SOL    HW226382   3.511   5.592   6.947
 8495SOL     OW26383   0.310   2.509   0.837
 8495SOL    HW126384   0.270   2.552   0.756
 8495SOL    HW226385   0.385   2.566   0.871
 8496SOL     OW26386   6.954   2.919   3.049
 8496SOL    HW126387   6.926   2.855   3.120
 8496SOL    HW226388   0.024   2.891   3.011
 8497SOL     OW26389   6.329   5.617   3.126
 8497SOL    HW126390   6.327   5.575   3.216
 8497SOL    HW226391   6.246   5.593   3.076
 8498SOL     OW26392   0.233   0.623   0.650
 8498SOL    HW126393   0.190   0.594   0.736
 8498SOL    HW226394   0.173   0.600   0.573
 8499SOL     OW26395   3.767   4.061   6.326
 8499SOL    HW126396   3.776   3.962   6.336
 8499SOL    HW226397   3.772   4.104   6.416
 8500SOL     OW26398   3.049   0.756   6.162
 8500SOL    HW126399   2.983   0.741   6.236
 8500SOL    HW226400   3.039   0.848   6.125
 8501SOL     OW26401   1.807   4.149   6.631
 8501SOL    HW126402   1.711   4.130   6.654
 8501SOL    HW226403   1.851   4.066   6.599
 8502SOL     OW26404   0.147   0.639   2.315
 8502SOL    HW126405   0.191   0.693   2.242
 8502SOL    HW226406   0.174   0.676   2.404
 8503SOL     OW26407   2.589   5.816   2.891
 8503SOL    HW126408   2.672   5.804   2.945
 8503SOL    HW226409   2.509   5.797   2.948
 8504SOL     OW26410   1.172   5.940   3.535
 8504SOL    HW126411   1.149   5.948   3.438
 8504SOL    HW226412   1.266   5.909   3.544
 8505SOL     OW26413   4.774   2.880   3.497
 8505SOL    HW126414   4.752   2.926   3.411
 8505SOL    HW226415   4.868   2.903   3.524
 8506SOL     OW26416   1.273   6.593   0.189
 8506SOL    HW126417   1.244   6.523   0.254
 8506SOL    HW226418   1.210   6.671   0.194
 8507SOL     OW26419   1.385   0.876   5.043
 8507SOL    HW126420   1.407   0.934   5.122
 8507SOL    HW226421   1.433   0.789   5.052
 8508SOL     OW26422   1.140   2.413   6.509
 8508SOL    HW126423   1.210   2.474   6.546
 8508SOL    HW226424   1.052   2.432   6.552
 8509SOL     OW26425   6.428   1.821   4.566
 8509SOL    HW126426   6.420   1.725   4.592
 8509SOL    HW226427   6.343   1.869   4.590
 8510SOL     OW26428   5.405   0.247   2.513
 8510SOL    HW126429   5.403   0.156   2.470
 8510SOL    HW226430   5.498   0.265   2.546
 8511SOL     OW26431   6.678   4.870   1.797
 8511SOL    HW126432   6.689   4.827   1.887
 8511SOL    HW226433   6.715   4.810   1.727
 8512SOL     OW26434   4.790   1.801   0.285
 8512SOL    HW126435   4.784   1.780   0.382
 8512SOL    HW226436   4.815   1.897   0.273
 8513SOL     OW26437   7.006   4.076   1.301
 8513SOL    HW126438   0.017   3.984   1.275
 8513SOL    HW226439   6.971   4.124   1.220
 8514SOL     OW26440   2.449   2.409   5.638
 8514SOL    HW126441   2.407   2.403   5.729
 8514SOL    HW226442   2.548   2.394   5.647
 8515SOL     OW26443   1.089   0.397   0.810
 8515SOL    HW126444   1.149   0.376   0.733
 8515SOL    HW226445   0.998   0.421   0.776
 8516SOL     OW26446   5.565   2.314   3.426
 8516SOL    HW126447   5.634   2.289   3.494
 8516SOL    HW226448   5.538   2.233   3.374
 8517SOL     OW26449   2.000   2.267   5.268
 8517SOL    HW126450   1.938   2.322   5.324
 8517SOL    HW226451   2.083   2.319   5.249
 8518SOL     OW26452   5.433   5.117   6.980
 8518SOL    HW126453   5.434   5.170   6.895
 8518SOL    HW226454   5.437   5.019   6.959
 8519SOL     OW26455   1.493   3.679   0.835
 8519SOL    HW126456   1.499   3.729   0.921
 8519SOL    HW226457   1.585   3.656   0.803
 8520SOL     OW26458   4.219   3.766   5.990
 8520SOL    HW126459   4.144   3.831   6.001
 8520SOL    HW226460   4.293   3.789   6.054
 8521SOL     OW26461   2.168   6.228   5.785
 8521SOL    HW126462   2.090   6.261   5.732
 8521SOL    HW226463   2.231   6.179   5.724
 8522SOL     OW26464   1.411   6.464   0.468
 8522SOL    HW126465   1.457   6.539   0.419
 8522SOL    HW226466   1.319   6.451   0.431
 8523SOL     OW26467   2.881   1.106   0.064
 8523SOL    HW126468   2.849   1.012   0.047
 8523SOL    HW226469   2.811   1.171   0.035
 8524SOL     OW26470   2.257   5.679   4.645
 8524SOL    HW126471   2.219   5.588   4.624
 8524SOL    HW226472   2.325   5.671   4.718
 8525SOL     OW26473   6.635   4.825   1.225
 8525SOL    HW126474   6.614   4.912   1.269
 8525SOL    HW226475   6.588   4.750   1.272
 8526SOL     OW26476   1.791   6.170   0.471
 8526SOL    HW126477   1.762   6.221   0.552
 8526SOL    HW226478   1.890   6.155   0.474
 8527SOL     OW26479   3.386   0.935   5.716
 8527SOL    HW126480   3.371   0.959   5.621
 8527SOL    HW226481   3.444   0.853   5.721
 8528SOL     OW26482   4.724   2.193   0.490
 8528SOL    HW126483   4.646   2.130   0.493
 8528SOL    HW226484   4.715   2.253   0.410
 8529SOL     OW26485   1.308   6.397   6.646
 8529SOL    HW126486   1.220   6.393   6.694
 8529SOL    HW226487   1.316   6.484   6.597
 8530SOL     OW26488   3.117   3.995   4.479
 8530SOL    HW126489   3.177   4.018   4.556
 8530SOL    HW226490   3.047   3.930   4.508
 8531SOL     OW26491   6.804   5.479   3.771
 8531SOL    HW126492   6.742   5.555   3.755
 8531SOL    HW226493   6.763   5.416   3.837
 8532SOL     OW26494   2.580   5.411   4.548
 8532SOL    HW126495   2.505   5.428   4.612
 8532SOL    HW226496   2.576   5.478   4.474
 8533SOL     OW26497   1.993   6.067   5.211
 8533SOL    HW126498   1.997   5.971   5.239
 8533SOL    HW226499   2.056   6.082   5.135
 8534SOL     OW26500   3.164   2.126   3.927
 8534SOL    HW126501   3.110   2.140   3.844
 8534SOL    HW226502   3.249   2.179   3.920
 8535SOL     OW26503   6.293   0.399   3.043
 8535SOL    HW126504   6.227   0.431   3.110
 8535SOL    HW226505   6.312   0.472   2.977
 8536SOL     OW26506   0.199   0.932   4.415
 8536SOL    HW126507   0.292   0.897   4.404
 8536SOL    HW226508   0.196   1.028   4.387
 8537SOL     OW26509   6.887   1.168   2.970
 8537SOL    HW126510   6.942   1.244   3.004
 8537SOL    HW226511   6.800   1.202   2.936
 8538SOL     OW26512   1.673   2.480   6.790
 8538SOL    HW126513   1.628   2.480   6.880
 8538SOL    HW226514   1.611   2.519   6.722
 8539SOL     OW26515   6.285   2.626   2.941
 8539SOL    HW126516   6.245   2.574   2.866
 8539SOL    HW226517   6.215   2.642   3.011
 8540SOL     OW26518   4.109   0.015   0.581
 8540SOL    HW126519   4.144   0.049   0.494
 8540SOL    HW226520   4.164   0.054   0.656
 8541SOL     OW26521   1.810   2.553   4.224
 8541SOL    HW126522   1.801   2.617   4.301
 8541SOL    HW226523   1.823   2.605   4.139
 8542SOL     OW26524   3.895   4.347   0.256
 8542SOL    HW126525   3.820   4.411   0.274
 8542SOL    HW226526   3.960   4.350   0.332
 8543SOL     OW26527   2.123   2.596   6.384
 8543SOL    HW126528   2.205   2.543   6.407
 8543SOL    HW226529   2.139   2.646   6.299
 8544SOL     OW26530   6.573   2.812   3.474
 8544SOL    HW126531   6.646   2.875   3.447
 8544SOL    HW226532   6.614   2.730   3.514
 8545SOL     OW26533   5.032   6.399   4.830
 8545SOL    HW126534   5.118   6.366   4.791
 8545SOL    HW226535   5.050   6.481   4.884
 8546SOL     OW26536   4.198   1.869   5.277
 8546SOL    HW126537   4.180   1.773   5.254
 8546SOL    HW226538   4.138   1.928   5.224
 8547SOL     OW26539   0.844   4.284   3.329
 8547SOL    HW126540   0.860   4.221   3.253
 8547SOL    HW226541   0.892   4.252   3.410
 8548SOL     OW26542   6.046   1.675   5.800
 8548SOL    HW126543   6.112   1.604   5.773
 8548SOL    HW226544   5.976   1.634   5.858
 8549SOL     OW26545   5.997   3.473   4.659
 8549SOL    HW126546   5.979   3.515   4.570
 8549SOL    HW226547   6.091   3.439   4.661
 8550SOL     OW26548   0.883   4.070   6.481
 8550SOL    HW126549   0.982   4.055   6.484
 8550SOL    HW226550   0.836   3.987   6.509
 8551SOL     OW26551   3.645   3.944   0.419
 8551SOL    HW126552   3.577   3.886   0.374
 8551SOL    HW226553   3.599   4.015   0.472
 8552SOL     OW26554   2.734   6.731   3.963
 8552SOL    HW126555   2.821   6.690   3.938
 8552SOL    HW226556   2.660   6.665   3.948
 8553SOL     OW26557   5.778   6.242   0.359
 8553SOL    HW126558   5.744   6.335   0.374
 8553SOL    HW226559   5.843   6.241   0.283
 8554SOL     OW26560   6.099   4.045   7.017
 8554SOL    HW126561   6.067   3.965   6.966
 8554SOL    HW226562   6.050   4.126   6.985
 8555SOL     OW26563   1.285   6.931   4.055
 8555SOL    HW126564   1.204   6.916   3.999
 8555SOL    HW226565   1.341   6.848   4.057
 8556SOL     OW26566   6.263   0.358   3.499
 8556SOL    HW126567   6.264   0.435   3.435
 8556SOL    HW226568   6.357   0.329   3.516
 8557SOL     OW26569   0.105   0.558   1.328
 8557SOL    HW126570   0.109   0.653   1.298
 8557SOL    HW226571   0.068   0.501   1.255
 8558SOL     OW26572   1.415   5.177   1.873
 8558SOL    HW126573   1.435   5.225   1.788
 8558SOL    HW226574   1.322   5.140   1.870
 8559SOL     OW26575   0.795   0.639   6.458
 8559SOL    HW126576   0.781   0.540   6.462
 8559SOL    HW226577   0.755   0.675   6.374
 8560SOL     OW26578   6.091   2.155   0.140
 8560SOL    HW126579   6.006   2.115   0.175
 8560SOL    HW226580   6.126   2.221   0.207
 8561SOL     OW26581   4.723   6.460   4.173
 8561SOL    HW126582   4.654   6.502   4.232
 8561SOL    HW226583   4.679   6.430   4.088
 8562SOL     OW26584   3.856   6.967   4.599
 8562SOL    HW126585   3.871   6.951   4.696
 8562SOL    HW226586   3.777   0.009   4.587
 8563SOL     OW26587   2.594   2.972   5.755
 8563SOL    HW126588   2.620   3.061   5.792
 8563SOL    HW226589   2.611   2.971   5.656
 8564SOL     OW26590   0.668   0.304   4.101
 8564SOL    HW126591   0.633   0.329   4.191
 8564SOL    HW226592   0.655   0.206   4.086
 8565SOL     OW26593   3.941   6.971   1.782
 8565SOL    HW126594   3.968   6.906   1.852
 8565SOL    HW226595   3.974   6.941   1.693
 8566SOL     OW26596   2.139   3.051   3.451
 8566SOL    HW126597   2.150   3.151   3.442
 8566SOL    HW226598   2.125   3.028   3.547
 8567SOL     OW26599   5.194   0.124   1.013
 8567SOL    HW126600   5.227   0.130   0.919
 8567SOL    HW226601   5.196   0.029   1.043
 8568SOL     OW26602   5.251   1.198   0.438
 8568SOL    HW126603   5.183   1.156   0.378
 8568SOL    HW226604   5.225   1.185   0.533
 8569SOL     OW26605   4.398   1.607   4.500
 8569SOL    HW126606   4.305   1.579   4.476
 8569SOL    HW226607   4.430   1.675   4.433
 8570SOL     OW26608   0.527   4.063   0.084
 8570SOL    HW126609   0.484   4.083   0.173
 8570SOL    HW226610   0.561   3.969   0.084
 8571SOL     OW26611   0.010   4.240   5.388
 8571SOL    HW126612   0.014   4.253   5.487
 8571SOL    HW226613   0.026   4.327   5.342
 8572SOL     OW26614   2.864   4.817   5.497
 8572SOL    HW126615   2.856   4.731   5.447
 8572SOL    HW226616   2.794   4.880   5.465
 8573SOL     OW26617   3.485   5.745   5.096
 8573SOL    HW126618   3.474   5.731   4.998
 8573SOL    HW226619   3.579   5.774   5.115
 8574SOL     OW26620   0.359   3.981   4.976
 8574SOL    HW126621   0.275   3.931   4.997
 8574SOL    HW226622   0.421   3.977   5.054
 8575SOL     OW26623   3.431   3.364   6.953
 8575SOL    HW126624   3.425   3.456   6.913
 8575SOL    HW226625   3.340   3.330   6.975
 8576SOL     OW26626   1.664   0.032   1.530
 8576SOL    HW126627   1.628   0.029   1.437
 8576SOL    HW226628   1.689   0.126   1.552
 8577SOL     OW26629   6.473   5.915   3.201
 8577SOL    HW126630   6.541   5.866   3.147
 8577SOL    HW226631   6.469   5.875   3.293
 8578SOL     OW26632   4.228   0.043   3.492
 8578SOL    HW126633   4.300   0.111   3.504
 8578SOL    HW226634   4.139   0.085   3.511
 8579SOL     OW26635   0.815   5.721   3.136
 8579SOL    HW126636   0.854   5.813   3.136
 8579SOL    HW226637   0.836   5.676   3.223
 8580SOL     OW26638   2.507   4.379   6.797
 8580SOL    HW126639   2.569   4.375   6.718
 8580SOL    HW226640   2.556   4.348   6.879
 8581SOL     OW26641   2.681   2.522   1.118
 8581SOL    HW126642   2.706   2.618   1.124
 8581SOL    HW226643   2.582   2.512   1.132
 8582SOL     OW26644   4.177   4.156   1.078
 8582SOL    HW126645   4.229   4.108   1.007
 8582SOL    HW226646   4.199   4.117   1.167
 8583SOL     OW26647   6.091   0.020   6.375
 8583SOL    HW126648   6.076   6.968   6.304
 8583SOL    HW226649   6.039   0.103   6.350
 8584SOL     OW26650   6.742   5.286   6.794
 8584SOL    HW126651   6.818   5.333   6.750
 8584SOL    HW226652   6.657   5.336   6.775
 8585SOL     OW26653   0.378   1.563   0.269
 8585SOL    HW126654   0.310   1.491   0.283
 8585SOL    HW226655   0.333   1.643   0.230
 8586SOL     OW26656   4.366   5.702   3.809
 8586SOL    HW126657   4.450   5.747   3.838
 8586SOL    HW226658   4.327   5.750   3.730
 8587SOL     OW26659   6.979   1.330   1.293
 8587SOL    HW126660   6.990   1.388   1.213
 8587SOL    HW226661   6.929   1.380   1.364
 8588SOL     OW26662   4.702   2.314   0.243
 8588SOL    HW126663   4.681   2.410   0.224
 8588SOL    HW226664   4.634   2.255   0.198
 8589SOL     OW26665   3.254   1.834   4.650
 8589SOL    HW126666   3.155   1.843   4.648
 8589SOL    HW226667   3.285   1.820   4.744
 8590SOL     OW26668   6.122   4.699   5.460
 8590SOL    HW126669   6.132   4.776   5.523
 8590SOL    HW226670   6.067   4.627   5.504
 8591SOL     OW26671   1.120   3.363   6.821
 8591SOL    HW126672   1.212   3.335   6.792
 8591SOL    HW226673   1.059   3.364   6.742
 8592SOL     OW26674   6.082   5.569   6.678
 8592SOL    HW126675   5.992   5.530   6.655
 8592SOL    HW226676   6.069   5.647   6.740
 8593SOL     OW26677   1.100   0.353   2.683
 8593SOL    HW126678   1.133   0.352   2.589
 8593SOL    HW226679   1.008   0.393   2.686
 8594SOL     OW26680   3.915   3.569   4.301
 8594SOL    HW126681   3.971   3.649   4.325
 8594SOL    HW226682   3.861   3.590   4.219
 8595SOL     OW26683   1.680   1.998   2.004
 8595SOL    HW126684   1.684   2.096   1.988
 8595SOL    HW226685   1.764   1.968   2.050
 8596SOL     OW26686   6.402   4.764   2.385
 8596SOL    HW126687   6.338   4.834   2.353
 8596SOL    HW226688   6.410   4.692   2.316
 8597SOL     OW26689   1.409   1.320   0.959
 8597SOL    HW126690   1.428   1.269   1.043
 8597SOL    HW226691   1.393   1.255   0.885
 8598SOL     OW26692   5.328   4.746   0.222
 8598SOL    HW126693   5.423   4.746   0.254
 8598SOL    HW226694   5.301   4.652   0.199
 8599SOL     OW26695   1.369   3.455   2.523
 8599SOL    HW126696   1.331   3.546   2.506
 8599SOL    HW226697   1.467   3.454   2.502
 8600SOL     OW26698   6.325   4.141   6.633
 8600SOL    HW126699   6.389   4.064   6.639
 8600SOL    HW226700   6.371   4.224   6.667
 8601SOL     OW26701   6.853   0.010   3.888
 8601SOL    HW126702   6.797   6.953   3.922
 8601SOL    HW226703   6.817   0.042   3.800
 8602SOL     OW26704   3.204   6.654   2.244
 8602SOL    HW126705   3.300   6.682   2.236
 8602SOL    HW226706   3.145   6.730   2.216
 8603SOL     OW26707   4.485   3.418   0.816
 8603SOL    HW126708   4.397   3.370   0.813
 8603SOL    HW226709   4.487   3.490   0.747
 8604SOL     OW26710   5.590   2.533   2.573
 8604SOL    HW126711   5.546   2.457   2.619
 8604SOL    HW226712   5.663   2.499   2.514
 8605SOL     OW26713   2.657   6.462   1.844
 8605SOL    HW126714   2.678   6.437   1.939
 8605SOL    HW226715   2.675   6.559   1.831
 8606SOL     OW26716   4.184   4.835   5.682
 8606SOL    HW126717   4.113   4.810   5.615
 8606SOL    HW226718   4.245   4.903   5.640
 8607SOL     OW26719   4.146   6.037   1.876
 8607SOL    HW126720   4.063   6.031   1.821
 8607SOL    HW226721   4.151   5.960   1.939
 8608SOL     OW26722   4.577   6.193   2.478
 8608SOL    HW126723   4.555   6.113   2.422
 8608SOL    HW226724   4.505   6.261   2.468
 8609SOL     OW26725   3.679   0.686   5.459
 8609SOL    HW126726   3.741   0.625   5.509
 8609SOL    HW226727   3.717   0.779   5.460
 8610SOL     OW26728   6.776   6.699   4.366
 8610SOL    HW126729   6.855   6.688   4.306
 8610SOL    HW226730   6.802   6.675   4.460
 8611SOL     OW26731   1.543   2.032   3.383
 8611SOL    HW126732   1.473   1.994   3.323
 8611SOL    HW226733   1.634   2.008   3.349
 8612SOL     OW26734   4.486   2.980   5.338
 8612SOL    HW126735   4.423   2.910   5.303
 8612SOL    HW226736   4.579   2.961   5.307
 8613SOL     OW26737   1.240   1.113   0.300
 8613SOL    HW126738   1.175   1.176   0.342
 8613SOL    HW226739   1.333   1.135   0.331
 8614SOL     OW26740   0.898   1.805   3.308
 8614SOL    HW126741   0.946   1.758   3.234
 8614SOL    HW226742   0.955   1.879   3.343
 8615SOL     OW26743   4.403   2.745   5.216
 8615SOL    HW126744   4.313   2.725   5.255
 8615SOL    HW226745   4.433   2.669   5.159
 8616SOL     OW26746   1.586   3.308   6.918
 8616SOL    HW126747   1.664   3.318   6.855
 8616SOL    HW226748   1.543   3.397   6.931
 8617SOL     OW26749   5.920   3.049   1.306
 8617SOL    HW126750   5.827   3.049   1.269
 8617SOL    HW226751   5.983   3.083   1.238
 8618SOL     OW26752   4.626   0.662   4.090
 8618SOL    HW126753   4.704   0.644   4.029
 8618SOL    HW226754   4.555   0.595   4.073
 8619SOL     OW26755   4.812   5.654   0.820
 8619SOL    HW126756   4.796   5.555   0.829
 8619SOL    HW226757   4.725   5.701   0.809
 8620SOL     OW26758   6.094   6.628   3.094
 8620SOL    HW126759   6.150   6.561   3.142
 8620SOL    HW226760   6.057   6.694   3.160
 8621SOL     OW26761   5.644   0.878   2.881
 8621SOL    HW126762   5.598   0.883   2.970
 8621SOL    HW226763   5.741   0.859   2.894
 8622SOL     OW26764   5.241   5.340   6.865
 8622SOL    HW126765   5.224   5.425   6.915
 8622SOL    HW226766   5.197   5.264   6.913
 8623SOL     OW26767   6.455   3.417   2.427
 8623SOL    HW126768   6.388   3.392   2.497
 8623SOL    HW226769   6.449   3.515   2.407
 8624SOL     OW26770   0.664   5.313   3.724
 8624SOL    HW126771   0.622   5.224   3.704
 8624SOL    HW226772   0.661   5.370   3.642
 8625SOL     OW26773   3.688   0.658   5.105
 8625SOL    HW126774   3.734   0.570   5.119
 8625SOL    HW226775   3.622   0.672   5.178
 8626SOL     OW26776   3.063   3.770   3.138
 8626SOL    HW126777   3.105   3.687   3.174
 8626SOL    HW226778   3.008   3.814   3.209
 8627SOL     OW26779   2.074   0.340   6.667
 8627SOL    HW126780   2.087   0.362   6.570
 8627SOL    HW226781   2.128   0.404   6.723
 8628SOL     OW26782   5.846   1.429   0.320
 8628SOL    HW126783   5.908   1.439   0.398
 8628SOL    HW226784   5.764   1.379   0.349
 8629SOL     OW26785   1.191   4.809   4.130
 8629SOL    HW126786   1.136   4.807   4.046
 8629SOL    HW226787   1.268   4.872   4.118
 8630SOL     OW26788   5.471   4.223   4.094
 8630SOL    HW126789   5.525   4.164   4.154
 8630SOL    HW226790   5.408   4.167   4.040
 8631SOL     OW26791   3.662   6.226   4.617
 8631SOL    HW126792   3.751   6.252   4.580
 8631SOL    HW226793   3.670   6.211   4.716
 8632SOL     OW26794   4.778   0.405   3.733
 8632SOL    HW126795   4.724   0.440   3.657
 8632SOL    HW226796   4.805   0.481   3.792
 8633SOL     OW26797   5.936   0.988   4.132
 8633SOL    HW126798   5.838   1.008   4.134
 8633SOL    HW226799   5.950   0.889   4.136
 8634SOL     OW26800   6.866   5.225   1.984
 8634SOL    HW126801   6.882   5.138   2.030
 8634SOL    HW226802   6.863   5.298   2.052
 8635SOL     OW26803   6.250   4.112   5.046
 8635SOL    HW126804   6.271   4.111   5.144
 8635SOL    HW226805   6.270   4.022   5.007
 8636SOL     OW26806   5.809   5.764   0.502
 8636SOL    HW126807   5.763   5.797   0.585
 8636SOL    HW226808   5.879   5.697   0.527
 8637SOL     OW26809   2.073   0.569   1.291
 8637SOL    HW126810   2.036   0.661   1.302
 8637SOL    HW226811   2.126   0.544   1.373
 8638SOL     OW26812   3.939   5.100   0.695
 8638SOL    HW126813   3.890   5.058   0.772
 8638SOL    HW226814   3.937   5.038   0.617
 8639SOL     OW26815   6.832   3.128   2.663
 8639SOL    HW126816   6.830   3.032   2.635
 8639SOL    HW226817   6.775   3.141   2.744
 8640SOL     OW26818   5.046   6.009   1.073
 8640SOL    HW126819   5.037   5.919   1.030
 8640SOL    HW226820   4.969   6.066   1.047
 8641SOL     OW26821   5.616   4.686   3.291
 8641SOL    HW126822   5.562   4.603   3.277
 8641SOL    HW226823   5.713   4.665   3.278
 8642SOL     OW26824   4.615   1.389   1.568
 8642SOL    HW126825   4.543   1.453   1.544
 8642SOL    HW226826   4.705   1.430   1.550
 8643SOL     OW26827   4.676   1.020   5.988
 8643SOL    HW126828   4.672   1.119   5.975
 8643SOL    HW226829   4.591   0.978   5.955
 8644SOL     OW26830   6.339   3.374   5.162
 8644SOL    HW126831   6.411   3.346   5.225
 8644SOL    HW226832   6.332   3.474   5.161
 8645SOL     OW26833   6.108   4.724   1.712
 8645SOL    HW126834   6.201   4.758   1.725
 8645SOL    HW226835   6.077   4.744   1.619
 8646SOL     OW26836   5.211   0.961   0.690
 8646SOL    HW126837   5.216   0.910   0.776
 8646SOL    HW226838   5.277   0.923   0.625
 8647SOL     OW26839   4.365   4.869   1.252
 8647SOL    HW126840   4.320   4.958   1.238
 8647SOL    HW226841   4.449   4.882   1.305
 8648SOL     OW26842   5.435   1.749   4.520
 8648SOL    HW126843   5.515   1.745   4.460
 8648SOL    HW226844   5.427   1.841   4.559
 8649SOL     OW26845   0.021   4.570   5.625
 8649SOL    HW126846   0.099   4.553   5.565
 8649SOL    HW226847   0.053   4.576   5.720
 8650SOL     OW26848   1.628   4.741   2.321
 8650SOL    HW126849   1.677   4.688   2.391
 8650SOL    HW226850   1.690   4.761   2.245
 8651SOL     OW26851   3.384   1.588   0.947
 8651SOL    HW126852   3.458   1.522   0.938
 8651SOL    HW226853   3.416   1.669   0.996
 8652SOL     OW26854   1.434   3.479   3.889
 8652SOL    HW126855   1.392   3.569   3.906
 8652SOL    HW226856   1.367   3.418   3.847
 8653SOL     OW26857   6.492   3.446   6.850
 8653SOL    HW126858   6.583   3.487   6.851
 8653SOL    HW226859   6.501   3.346   6.853
 8654SOL     OW26860   0.622   0.058   2.780
 8654SOL    HW126861   0.703   0.012   2.743
 8654SOL    HW226862   0.647   0.150   2.810
 8655SOL     OW26863   6.046   5.922   4.117
 8655SOL    HW126864   5.967   5.938   4.058
 8655SOL    HW226865   6.048   5.991   4.189
 8656SOL     OW26866   5.956   2.244   1.423
 8656SOL    HW126867   6.032   2.275   1.365
 8656SOL    HW226868   5.906   2.171   1.377
 8657SOL     OW26869   3.395   3.972   0.000
 8657SOL    HW126870   3.460   3.896   0.006
 8657SOL    HW226871   3.442   4.058   0.020
 8658SOL     OW26872   6.749   5.150   0.424
 8658SOL    HW126873   6.824   5.084   0.430
 8658SOL    HW226874   6.711   5.147   0.331
 8659SOL     OW26875   5.454   0.396   4.595
 8659SOL    HW126876   5.374   0.411   4.537
 8659SOL    HW226877   5.430   0.334   4.669
 8660SOL     OW26878   5.726   4.744   1.399
 8660SOL    HW126879   5.649   4.794   1.439
 8660SOL    HW226880   5.756   4.672   1.462
 8661SOL     OW26881   6.654   3.553   1.520
 8661SOL    HW126882   6.699   3.563   1.608
 8661SOL    HW226883   6.667   3.638   1.467
 8662SOL     OW26884   0.425   0.015   0.712
 8662SOL    HW126885   0.429   0.111   0.685
 8662SOL    HW226886   0.432   6.975   0.630
 8663SOL     OW26887   2.385   5.503   0.376
 8663SOL    HW126888   2.326   5.431   0.339
 8663SOL    HW226889   2.375   5.506   0.475
 8664SOL     OW26890   4.477   5.586   0.667
 8664SOL    HW126891   4.548   5.533   0.622
 8664SOL    HW226892   4.400   5.527   0.690
 8665SOL     OW26893   5.363   5.277   5.342
 8665SOL    HW126894   5.445   5.299   5.394
 8665SOL    HW226895   5.388   5.226   5.259
 8666SOL     OW26896   5.147   3.091   4.667
 8666SOL    HW126897   5.124   3.167   4.728
 8666SOL    HW226898   5.165   3.127   4.575
 8667SOL     OW26899   4.556   1.790   3.695
 8667SOL    HW126900   4.510   1.752   3.775
 8667SOL    HW226901   4.567   1.719   3.625
 8668SOL     OW26902   3.998   2.198   4.333
 8668SOL    HW126903   3.914   2.248   4.354
 8668SOL    HW226904   3.985   2.101   4.351
 8669SOL     OW26905   4.326   0.739   6.207
 8669SOL    HW126906   4.284   0.708   6.292
 8669SOL    HW226907   4.264   0.802   6.160
 8670SOL     OW26908   3.502   5.053   4.177
 8670SOL    HW126909   3.429   5.119   4.193
 8670SOL    HW226910   3.497   5.020   4.082
 8671SOL     OW26911   5.427   6.614   3.037
 8671SOL    HW126912   5.405   6.693   3.094
 8671SOL    HW226913   5.516   6.577   3.064
 8672SOL     OW26914   3.370   5.023   4.626
 8672SOL    HW126915   3.316   4.963   4.685
 8672SOL    HW226916   3.379   4.982   4.536
 8673SOL     OW26917   5.798   2.084   0.826
 8673SOL    HW126918   5.795   2.165   0.885
 8673SOL    HW226919   5.716   2.029   0.842
 8674SOL     OW26920   0.804   6.973   2.624
 8674SOL    HW126921   0.874   0.026   2.625
 8674SOL    HW226922   0.759   6.972   2.535
 8675SOL     OW26923   1.986   1.337   2.536
 8675SOL    HW126924   1.954   1.418   2.487
 8675SOL    HW226925   2.064   1.361   2.593
 8676SOL     OW26926   4.554   0.460   3.140
 8676SOL    HW126927   4.595   0.410   3.217
 8676SOL    HW226928   4.455   0.464   3.153
 8677SOL     OW26929   2.512   4.266   5.782
 8677SOL    HW126930   2.567   4.200   5.730
 8677SOL    HW226931   2.552   4.357   5.771
 8678SOL     OW26932   1.321   0.139   6.440
 8678SOL    HW126933   1.387   0.105   6.507
 8678SOL    HW226934   1.344   0.233   6.414
 8679SOL     OW26935   0.053   2.232   4.643
 8679SOL    HW126936   0.025   2.196   4.732
 8679SOL    HW226937   0.134   2.289   4.654
 8680SOL     OW26938   1.515   3.028   0.320
 8680SOL    HW126939   1.480   3.077   0.400
 8680SOL    HW226940   1.485   3.074   0.236
 8681SOL     OW26941   3.518   3.936   0.752
 8681SOL    HW126942   3.603   3.968   0.795
 8681SOL    HW226943   3.501   3.842   0.778
 8682SOL     OW26944   2.025   6.052   2.743
 8682SOL    HW126945   1.949   6.067   2.680
 8682SOL    HW226946   2.008   6.101   2.829
 8683SOL     OW26947   6.381   3.086   0.146
 8683SOL    HW126948   6.459   3.118   0.199
 8683SOL    HW226949   6.316   3.161   0.134
 8684SOL     OW26950   6.454   2.875   4.068
 8684SOL    HW126951   6.467   2.776   4.080
 8684SOL    HW226952   6.454   2.919   4.158
 8685SOL     OW26953   1.228   2.420   5.340
 8685SOL    HW126954   1.275   2.342   5.383
 8685SOL    HW226955   1.291   2.498   5.336
 8686SOL     OW26956   6.685   2.617   3.688
 8686SOL    HW126957   6.732   2.611   3.777
 8686SOL    HW226958   6.683   2.526   3.646
 8687SOL     OW26959   3.849   7.005   3.535
 8687SOL    HW126960   3.913   0.062   3.521
 8687SOL    HW226961   3.896   6.917   3.522
 8688SOL     OW26962   2.206   0.718   2.246
 8688SOL    HW126963   2.174   0.769   2.166
 8688SOL    HW226964   2.302   0.693   2.233
 8689SOL     OW26965   4.620   5.918   0.786
 8689SOL    HW126966   4.615   5.955   0.693
 8689SOL    HW226967   4.527   5.911   0.823
 8690SOL     OW26968   0.274   1.548   2.468
 8690SOL    HW126969   0.239   1.455   2.455
 8690SOL    HW226970   0.201   1.614   2.448
 8691SOL     OW26971   5.251   2.169   0.534
 8691SOL    HW126972   5.286   2.242   0.476
 8691SOL    HW226973   5.175   2.204   0.589
 8692SOL     OW26974   2.102   1.519   4.129
 8692SOL    HW126975   2.113   1.508   4.228
 8692SOL    HW226976   2.032   1.588   4.111
 8693SOL     OW26977   5.203   2.323   0.832
 8693SOL    HW126978   5.231   2.227   0.839
 8693SOL    HW226979   5.116   2.337   0.880
 8694SOL     OW26980   4.827   6.878   5.669
 8694SOL    HW126981   4.790   6.878   5.575
 8694SOL    HW226982   4.837   6.783   5.700
 8695SOL     OW26983   4.428   4.439   5.894
 8695SOL    HW126984   4.435   4.529   5.851
 8695SOL    HW226985   4.352   4.438   5.959
 8696SOL     OW26986   2.342   5.332   1.572
 8696SOL    HW126987   2.390   5.265   1.628
 8696SOL    HW226988   2.306   5.406   1.629
 8697SOL     OW26989   6.207   4.649   1.085
 8697SOL    HW126990   6.234   4.745   1.094
 8697SOL    HW226991   6.206   4.607   1.176
 8698SOL     OW26992   5.159   5.616   4.425
 8698SOL    HW126993   5.107   5.554   4.483
 8698SOL    HW226994   5.251   5.628   4.462
 8699SOL     OW26995   1.096   1.841   5.155
 8699SOL    HW126996   1.014   1.863   5.101
 8699SOL    HW226997   1.177   1.851   5.097
 8700SOL     OW26998   3.158   1.273   5.843
 8700SOL    HW126999   3.139   1.328   5.763
 8700SOL    HW227000   3.104   1.307   5.920
 8701SOL     OW27001   0.840   1.833   5.064
 8701SOL    HW127002   0.815   1.891   5.142
 8701SOL    HW227003   0.793   1.865   4.982
 8702SOL     OW27004   4.569   6.102   6.990
 8702SOL    HW127005   4.550   6.053   6.906
 8702SOL    HW227006   4.667   6.116   6.999
 8703SOL     OW27007   2.720   5.559   0.756
 8703SOL    HW127008   2.662   5.623   0.705
 8703SOL    HW227009   2.754   5.605   0.838
 8704SOL     OW27010   0.226   4.008   1.807
 8704SOL    HW127011   0.309   4.062   1.793
 8704SOL    HW227012   0.179   3.996   1.720
 8705SOL     OW27013   4.918   0.126   5.717
 8705SOL    HW127014   4.864   0.042   5.714
 8705SOL    HW227015   4.857   0.204   5.729
 8706SOL     OW27016   5.282   1.885   0.532
 8706SOL    HW127017   5.329   1.944   0.599
 8706SOL    HW227018   5.215   1.939   0.482
 8707SOL     OW27019   5.113   2.731   5.950
 8707SOL    HW127020   5.072   2.641   5.937
 8707SOL    HW227021   5.140   2.770   5.862
 8708SOL     OW27022   4.051   1.478   1.163
 8708SOL    HW127023   4.080   1.393   1.118
 8708SOL    HW227024   4.082   1.478   1.258
 8709SOL     OW27025   6.911   4.348   0.863
 8709SOL    HW127026   6.949   4.257   0.847
 8709SOL    HW227027   6.977   4.403   0.914
 8710SOL     OW27028   1.637   3.552   3.512
 8710SOL    HW127029   1.686   3.571   3.427
 8710SOL    HW227030   1.576   3.474   3.499
 8711SOL     OW27031   0.121   1.027   3.775
 8711SOL    HW127032   0.024   1.052   3.771
 8711SOL    HW227033   0.137   0.968   3.855
 8712SOL     OW27034   3.131   1.863   5.795
 8712SOL    HW127035   3.124   1.880   5.697
 8712SOL    HW227036   3.058   1.801   5.823
 8713SOL     OW27037   0.361   4.584   3.477
 8713SOL    HW127038   0.320   4.494   3.488
 8713SOL    HW227039   0.406   4.590   3.388
 8714SOL     OW27040   1.341   1.496   4.847
 8714SOL    HW127041   1.387   1.503   4.758
 8714SOL    HW227042   1.397   1.438   4.908
 8715SOL     OW27043   6.328   1.784   1.538
 8715SOL    HW127044   6.331   1.769   1.637
 8715SOL    HW227045   6.421   1.798   1.504
 8716SOL     OW27046   1.387   2.202   1.106
 8716SOL    HW127047   1.433   2.258   1.175
 8716SOL    HW227048   1.441   2.202   1.022
 8717SOL     OW27049   3.614   3.423   1.154
 8717SOL    HW127050   3.665   3.337   1.145
 8717SOL    HW227051   3.622   3.456   1.249
 8718SOL     OW27052   6.069   3.302   5.101
 8718SOL    HW127053   6.168   3.313   5.094
 8718SOL    HW227054   6.047   3.215   5.146
 8719SOL     OW27055   6.941   0.563   5.969
 8719SOL    HW127056   6.952   0.573   6.067
 8719SOL    HW227057   0.011   0.541   5.927
 8720SOL     OW27058   4.963   3.633   6.393
 8720SOL    HW127059   4.904   3.687   6.332
 8720SOL    HW227060   5.033   3.692   6.432
 8721SOL     OW27061   0.050   2.586   4.095
 8721SOL    HW127062   0.150   2.576   4.091
 8721SOL    HW227063   0.019   2.575   4.189
 8722SOL     OW27064   3.666   2.294   0.349
 8722SOL    HW127065   3.690   2.389   0.369
 8722SOL    HW227066   3.579   2.292   0.299
 8723SOL     OW27067   6.769   4.489   1.224
 8723SOL    HW127068   6.689   4.547   1.208
 8723SOL    HW227069   6.803   4.504   1.317
 8724SOL     OW27070   5.087   6.892   6.280
 8724SOL    HW127071   5.132   6.877   6.368
 8724SOL    HW227072   5.156   6.895   6.207
 8725SOL     OW27073   2.964   5.661   0.423
 8725SOL    HW127074   2.984   5.751   0.463
 8725SOL    HW227075   2.989   5.661   0.327
 8726SOL     OW27076   5.769   0.366   1.277
 8726SOL    HW127077   5.688   0.425   1.278
 8726SOL    HW227078   5.847   0.417   1.240
 8727SOL     OW27079   6.501   5.975   1.183
 8727SOL    HW127080   6.581   5.931   1.142
 8727SOL    HW227081   6.532   6.043   1.250
 8728SOL     OW27082   2.662   0.029   5.101
 8728SOL    HW127083   2.753   0.013   5.139
 8728SOL    HW227084   2.605   0.074   5.169
 8729SOL     OW27085   5.307   6.040   4.286
 8729SOL    HW127086   5.231   6.026   4.350
 8729SOL    HW227087   5.353   6.126   4.306
 8730SOL     OW27088   0.300   5.914   1.814
 8730SOL    HW127089   0.328   5.922   1.910
 8730SOL    HW227090   0.380   5.930   1.755
 8731SOL     OW27091   0.627   1.699   2.557
 8731SOL    HW127092   0.688   1.710   2.636
 8731SOL    HW227093   0.676   1.719   2.473
 8732SOL     OW27094   5.521   4.146   1.596
 8732SOL    HW127095   5.549   4.077   1.529
 8732SOL    HW227096   5.442   4.112   1.647
 8733SOL     OW27097   0.942   6.373   1.494
 8733SOL    HW127098   0.879   6.315   1.443
 8733SOL    HW227099   0.910   6.468   1.490
 8734SOL     OW27100   6.542   5.557   1.207
 8734SOL    HW127101   6.625   5.606   1.230
 8734SOL    HW227102   6.546   5.465   1.246
 8735SOL     OW27103   6.796   1.947   6.929
 8735SOL    HW127104   6.877   1.987   6.972
 8735SOL    HW227105   6.738   2.019   6.892
 8736SOL     OW27106   0.648   4.769   6.691
 8736SOL    HW127107   0.570   4.707   6.694
 8736SOL    HW227108   0.628   4.852   6.742
 8737SOL     OW27109   3.953   6.093   6.405
 8737SOL    HW127110   4.014   6.114   6.328
 8737SOL    HW227111   3.999   6.029   6.467
 8738SOL     OW27112   1.090   3.591   4.364
 8738SOL    HW127113   1.026   3.668   4.359
 8738SOL    HW227114   1.040   3.507   4.381
 8739SOL     OW27115   0.385   3.045   5.265
 8739SOL    HW127116   0.332   3.128   5.244
 8739SOL    HW227117   0.390   2.988   5.184
 8740SOL     OW27118   1.998   6.209   1.358
 8740SOL    HW127119   1.913   6.258   1.343
 8740SOL    HW227120   2.044   6.247   1.439
 8741SOL     OW27121   1.269   3.485   2.769
 8741SOL    HW127122   1.315   3.457   2.685
 8741SOL    HW227123   1.242   3.581   2.761
 8742SOL     OW27124   4.710   0.175   1.882
 8742SOL    HW127125   4.734   0.142   1.973
 8742SOL    HW227126   4.775   0.140   1.815
 8743SOL     OW27127   2.330   4.991   2.787
 8743SOL    HW127128   2.277   4.909   2.767
 8743SOL    HW227129   2.422   4.982   2.749
 8744SOL     OW27130   3.114   2.476   6.106
 8744SOL    HW127131   3.125   2.442   6.013
 8744SOL    HW227132   3.200   2.516   6.137
 8745SOL     OW27133   6.429   2.491   6.073
 8745SOL    HW127134   6.493   2.489   5.997
 8745SOL    HW227135   6.455   2.565   6.136
 8746SOL     OW27136   5.357   4.284   5.465
 8746SOL    HW127137   5.381   4.204   5.411
 8746SOL    HW227138   5.364   4.366   5.408
 8747SOL     OW27139   1.856   2.272   4.270
 8747SOL    HW127140   1.935   2.213   4.254
 8747SOL    HW227141   1.876   2.364   4.239
 8748SOL     OW27142   2.464   0.093   6.882
 8748SOL    HW127143   2.471   0.113   6.784
 8748SOL    HW227144   2.374   0.057   6.903
 8749SOL     OW27145   4.061   0.561   3.443
 8749SOL    HW127146   3.990   0.496   3.467
 8749SOL    HW227147   4.090   0.611   3.524
 8750SOL     OW27148   2.286   1.488   5.109
 8750SOL    HW127149   2.216   1.540   5.060
 8750SOL    HW227150   2.245   1.443   5.188
 8751SOL     OW27151   1.896   6.957   3.084
 8751SOL    HW127152   1.954   6.966   3.003
 8751SOL    HW227153   1.804   6.929   3.058
 8752SOL     OW27154   1.544   2.301   6.120
 8752SOL    HW127155   1.460   2.280   6.070
 8752SOL    HW227156   1.623   2.266   6.069
 8753SOL     OW27157   5.176   1.331   4.821
 8753SOL    HW127158   5.261   1.372   4.853
 8753SOL    HW227159   5.189   1.294   4.729
 8754SOL     OW27160   1.458   1.762   5.466
 8754SOL    HW127161   1.457   1.728   5.372
 8754SOL    HW227162   1.391   1.712   5.521
 8755SOL     OW27163   1.991   2.018   1.227
 8755SOL    HW127164   2.056   2.003   1.302
 8755SOL    HW227165   2.040   2.019   1.140
 8756SOL     OW27166   2.097   3.527   4.474
 8756SOL    HW127167   2.127   3.620   4.496
 8756SOL    HW227168   2.004   3.530   4.438
 8757SOL     OW27169   5.284   6.153   5.217
 8757SOL    HW127170   5.257   6.106   5.301
 8757SOL    HW227171   5.217   6.225   5.197
 8758SOL     OW27172   5.974   6.204   1.537
 8758SOL    HW127173   5.886   6.157   1.546
 8758SOL    HW227174   6.012   6.188   1.447
 8759SOL     OW27175   5.349   0.955   5.846
 8759SOL    HW127176   5.325   0.953   5.943
 8759SOL    HW227177   5.270   0.986   5.792
 8760SOL     OW27178   1.701   2.168   4.053
 8760SOL    HW127179   1.736   2.194   4.143
 8760SOL    HW227180   1.776   2.168   3.987
 8761SOL     OW27181   4.461   6.801   0.004
 8761SOL    HW127182   4.501   6.735   0.068
 8761SOL    HW227183   4.486   6.775   6.928
 8762SOL     OW27184   0.839   3.985   0.947
 8762SOL    HW127185   0.779   4.063   0.965
 8762SOL    HW227186   0.906   4.010   0.877
 8763SOL     OW27187   0.395   6.302   6.242
 8763SOL    HW127188   0.489   6.294   6.206
 8763SOL    HW227189   0.343   6.364   6.184
 8764SOL     OW27190   3.720   1.797   5.133
 8764SOL    HW127191   3.776   1.804   5.216
 8764SOL    HW227192   3.718   1.885   5.087
 8765SOL     OW27193   6.816   0.452   4.319
 8765SOL    HW127194   6.915   0.457   4.331
 8765SOL    HW227195   6.776   0.405   4.397
 8766SOL     OW27196   2.353   4.783   2.319
 8766SOL    HW127197   2.412   4.717   2.367
 8766SOL    HW227198   2.289   4.823   2.384
 8767SOL     OW27199   4.311   1.349   4.061
 8767SOL    HW127200   4.349   1.423   4.117
 8767SOL    HW227201   4.237   1.385   4.003
 8768SOL     OW27202   1.178   3.174   0.079
 8768SOL    HW127203   1.137   3.084   0.067
 8768SOL    HW227204   1.185   3.219   7.008
 8769SOL     OW27205   1.586   0.330   5.500
 8769SOL    HW127206   1.640   0.247   5.488
 8769SOL    HW227207   1.533   0.323   5.584
 8770SOL     OW27208   5.500   2.488   2.034
 8770SOL    HW127209   5.496   2.413   2.100
 8770SOL    HW227210   5.530   2.572   2.080
 8771SOL     OW27211   1.257   1.834   6.440
 8771SOL    HW127212   1.302   1.763   6.494
 8771SOL    HW227213   1.322   1.905   6.415
 8772SOL     OW27214   5.167   0.960   6.971
 8772SOL    HW127215   5.218   0.966   6.885
 8772SOL    HW227216   5.228   0.930   0.026
 8773SOL     OW27217   2.943   2.133   3.377
 8773SOL    HW127218   2.866   2.176   3.424
 8773SOL    HW227219   2.919   2.038   3.355
 8774SOL     OW27220   1.018   0.674   0.045
 8774SOL    HW127221   1.067   0.649   0.128
 8774SOL    HW227222   1.075   0.736   7.008
 8775SOL     OW27223   6.580   6.923   3.438
 8775SOL    HW127224   6.663   6.944   3.387
 8775SOL    HW227225   6.598   6.848   3.502
 8776SOL     OW27226   3.301   3.290   4.609
 8776SOL    HW127227   3.228   3.250   4.664
 8776SOL    HW227228   3.388   3.279   4.655
 8777SOL     OW27229   6.661   6.220   1.494
 8777SOL    HW127230   6.576   6.169   1.492
 8777SOL    HW227231   6.718   6.188   1.569
 8778SOL     OW27232   0.357   2.115   3.054
 8778SOL    HW127233   0.366   2.171   3.136
 8778SOL    HW227234   0.423   2.145   2.985
 8779SOL     OW27235   1.353   4.322   0.570
 8779SOL    HW127236   1.304   4.258   0.512
 8779SOL    HW227237   1.317   4.415   0.555
 8780SOL     OW27238   1.469   5.457   4.152
 8780SOL    HW127239   1.499   5.511   4.230
 8780SOL    HW227240   1.547   5.412   4.110
 8781SOL     OW27241   0.403   2.069   1.787
 8781SOL    HW127242   0.353   1.998   1.837
 8781SOL    HW227243   0.369   2.073   1.693
 8782SOL     OW27244   4.456   1.786   2.733
 8782SOL    HW127245   4.551   1.758   2.749
 8782SOL    HW227246   4.395   1.710   2.753
 8783SOL     OW27247   5.522   3.501   5.236
 8783SOL    HW127248   5.533   3.525   5.140
 8783SOL    HW227249   5.459   3.566   5.280
 8784SOL     OW27250   5.466   4.431   4.813
 8784SOL    HW127251   5.497   4.524   4.832
 8784SOL    HW227252   5.367   4.431   4.802
 8785SOL     OW27253   5.915   4.760   6.351
 8785SOL    HW127254   5.895   4.697   6.276
 8785SOL    HW227255   6.014   4.772   6.359
 8786SOL     OW27256   2.155   6.634   0.200
 8786SOL    HW127257   2.082   6.575   0.167
 8786SOL    HW227258   2.203   6.590   0.275
 8787SOL     OW27259   0.411   3.182   0.562
 8787SOL    HW127260   0.397   3.204   0.659
 8787SOL    HW227261   0.338   3.223   0.508
 8788SOL     OW27262   0.989   1.854   5.425
 8788SOL    HW127263   1.042   1.834   5.343
 8788SOL    HW227264   0.906   1.903   5.400
 8789SOL     OW27265   0.142   6.882   6.239
 8789SOL    HW127266   0.192   6.942   6.302
 8789SOL    HW227267   0.056   6.927   6.212
 8790SOL     OW27268   5.706   1.813   0.449
 8790SOL    HW127269   5.787   1.761   0.477
 8790SOL    HW227270   5.683   1.879   0.521
 8791SOL     OW27271   4.620   6.507   5.570
 8791SOL    HW127272   4.564   6.580   5.610
 8791SOL    HW227273   4.612   6.510   5.470
 8792SOL     OW27274   4.971   6.999   2.892
 8792SOL    HW127275   5.066   7.009   2.861
 8792SOL    HW227276   4.956   0.040   2.972
 8793SOL     OW27277   0.891   5.657   4.296
 8793SOL    HW127278   0.912   5.680   4.391
 8793SOL    HW227279   0.893   5.558   4.284
 8794SOL     OW27280   2.419   6.751   2.531
 8794SOL    HW127281   2.443   6.722   2.623
 8794SOL    HW227282   2.326   6.721   2.509
 8795SOL     OW27283   1.964   6.037   5.552
 8795SOL    HW127284   2.016   5.973   5.609
 8795SOL    HW227285   2.027   6.084   5.489
 8796SOL     OW27286   5.378   2.179   5.028
 8796SOL    HW127287   5.299   2.163   5.087
 8796SOL    HW227288   5.442   2.102   5.035
 8797SOL     OW27289   0.599   6.353   6.460
 8797SOL    HW127290   0.595   6.429   6.525
 8797SOL    HW227291   0.562   6.383   6.372
 8798SOL     OW27292   4.733   3.808   5.327
 8798SOL    HW127293   4.713   3.888   5.270
 8798SOL    HW227294   4.726   3.725   5.271
 8799SOL     OW27295   3.450   5.860   2.888
 8799SOL    HW127296   3.439   5.872   2.987
 8799SOL    HW227297   3.479   5.947   2.847
 8800SOL     OW27298   4.340   4.768   6.929
 8800SOL    HW127299   4.261   4.732   6.978
 8800SOL    HW227300   4.331   4.748   6.832
 8801SOL     OW27301   2.774   0.477   5.002
 8801SOL    HW127302   2.771   0.500   4.905
 8801SOL    HW227303   2.854   0.421   5.021
 8802SOL     OW27304   2.652   0.158   2.358
 8802SOL    HW127305   2.666   0.256   2.370
 8802SOL    HW227306   2.590   0.124   2.428
 8803SOL     OW27307   4.139   5.959   0.908
 8803SOL    HW127308   4.227   5.910   0.905
 8803SOL    HW227309   4.139   6.024   0.983
 8804SOL     OW27310   4.373   0.648   1.061
 8804SOL    HW127311   4.470   0.667   1.042
 8804SOL    HW227312   4.344   0.704   1.139
 8805SOL     OW27313   0.455   0.414   2.705
 8805SOL    HW127314   0.519   0.410   2.781
 8805SOL    HW227315   0.385   0.343   2.717
 8806SOL     OW27316   2.181   4.716   6.970
 8806SOL    HW127317   2.267   4.701   6.922
 8806SOL    HW227318   2.105   4.707   6.906
 8807SOL     OW27319   1.336   6.062   6.185
 8807SOL    HW127320   1.354   5.968   6.215
 8807SOL    HW227321   1.292   6.113   6.258
 8808SOL     OW27322   6.116   1.035   0.849
 8808SOL    HW127323   6.177   0.957   0.860
 8808SOL    HW227324   6.169   1.120   0.857
 8809SOL     OW27325   5.876   3.970   1.294
 8809SOL    HW127326   5.858   3.978   1.392
 8809SOL    HW227327   5.970   3.940   1.280
 8810SOL     OW27328   4.884   1.731   4.023
 8810SOL    HW127329   4.835   1.752   3.938
 8810SOL    HW227330   4.908   1.634   4.025
 8811SOL     OW27331   1.027   1.600   3.457
 8811SOL    HW127332   0.996   1.675   3.399
 8811SOL    HW227333   0.950   1.541   3.479
 8812SOL     OW27334   2.202   0.558   1.033
 8812SOL    HW127335   2.293   0.516   1.038
 8812SOL    HW227336   2.164   0.565   1.125
 8813SOL     OW27337   1.562   4.888   1.026
 8813SOL    HW127338   1.621   4.836   0.964
 8813SOL    HW227339   1.467   4.860   1.013
 8814SOL     OW27340   5.637   0.614   6.280
 8814SOL    HW127341   5.543   0.610   6.314
 8814SOL    HW227342   5.651   0.701   6.232
 8815SOL     OW27343   0.680   5.930   2.625
 8815SOL    HW127344   0.667   5.982   2.709
 8815SOL    HW227345   0.675   5.991   2.546
 8816SOL     OW27346   0.929   5.835   1.282
 8816SOL    HW127347   0.896   5.761   1.224
 8816SOL    HW227348   0.871   5.916   1.269
 8817SOL     OW27349   2.317   4.787   5.563
 8817SOL    HW127350   2.362   4.827   5.643
 8817SOL    HW227351   2.255   4.714   5.592
 8818SOL     OW27352   0.043   5.476   3.889
 8818SOL    HW127353   0.106   5.405   3.858
 8818SOL    HW227354   6.980   5.477   3.830
 8819SOL     OW27355   5.048   6.894   4.421
 8819SOL    HW127356   5.021   6.910   4.516
 8819SOL    HW227357   5.042   6.980   4.370
 8820SOL     OW27358   1.566   2.481   3.924
 8820SOL    HW127359   1.519   2.563   3.957
 8820SOL    HW227360   1.498   2.417   3.886
 8821SOL     OW27361   1.895   1.199   5.965
 8821SOL    HW127362   1.851   1.178   5.878
 8821SOL    HW227363   1.909   1.114   6.016
 8822SOL     OW27364   0.361   2.698   3.168
 8822SOL    HW127365   0.385   2.754   3.089
 8822SOL    HW227366   0.434   2.704   3.237
 8823SOL     OW27367   2.556   5.827   1.946
 8823SOL    HW127368   2.475   5.844   1.889
 8823SOL    HW227369   2.612   5.910   1.948
 8824SOL     OW27370   3.789   3.926   0.864
 8824SOL    HW127371   3.785   3.861   0.788
 8824SOL    HW227372   3.784   3.876   0.951
 8825SOL     OW27373   1.048   1.414   1.398
 8825SOL    HW127374   1.102   1.451   1.323
 8825SOL    HW227375   1.024   1.319   1.379
 8826SOL     OW27376   5.939   1.476   6.773
 8826SOL    HW127377   5.952   1.512   6.865
 8826SOL    HW227378   6.004   1.401   6.756
 8827SOL     OW27379   1.259   1.325   3.576
 8827SOL    HW127380   1.166   1.296   3.598
 8827SOL    HW227381   1.256   1.411   3.525
 8828SOL     OW27382   2.111   6.542   2.791
 8828SOL    HW127383   2.091   6.490   2.874
 8828SOL    HW227384   2.136   6.636   2.816
 8829SOL     OW27385   0.321   1.769   0.056
 8829SOL    HW127386   0.353   1.776   6.979
 8829SOL    HW227387   0.387   1.812   0.117
 8830SOL     OW27388   0.610   2.222   0.486
 8830SOL    HW127389   0.618   2.123   0.486
 8830SOL    HW227390   0.700   2.264   0.475
 8831SOL     OW27391   6.732   0.568   2.881
 8831SOL    HW127392   6.686   0.651   2.910
 8831SOL    HW227393   6.830   0.575   2.901
 8832SOL     OW27394   6.884   1.272   2.454
 8832SOL    HW127395   6.816   1.213   2.411
 8832SOL    HW227396   6.885   1.361   2.408
 8833SOL     OW27397   2.238   4.712   3.796
 8833SOL    HW127398   2.153   4.662   3.813
 8833SOL    HW227399   2.271   4.691   3.704
 8834SOL     OW27400   5.749   3.894   4.436
 8834SOL    HW127401   5.701   3.813   4.468
 8834SOL    HW227402   5.809   3.929   4.508
 8835SOL     OW27403   0.265   6.660   6.573
 8835SOL    HW127404   0.325   6.668   6.494
 8835SOL    HW227405   0.176   6.626   6.544
 8836SOL     OW27406   4.963   1.914   0.721
 8836SOL    HW127407   4.992   1.926   0.626
 8836SOL    HW227408   4.928   2.001   0.756
 8837SOL     OW27409   0.227   1.007   1.652
 8837SOL    HW127410   0.216   1.084   1.590
 8837SOL    HW227411   0.251   1.040   1.743
 8838SOL     OW27412   2.181   5.509   3.890
 8838SOL    HW127413   2.221   5.577   3.828
 8838SOL    HW227414   2.209   5.529   3.984
 8839SOL     OW27415   6.370   6.487   3.813
 8839SOL    HW127416   6.294   6.501   3.750
 8839SOL    HW227417   6.456   6.494   3.764
 8840SOL     OW27418   5.172   1.944   1.981
 8840SOL    HW127419   5.204   1.999   2.059
 8840SOL    HW227420   5.248   1.928   1.919
 8841SOL     OW27421   1.585   0.726   4.381
 8841SOL    HW127422   1.486   0.727   4.370
 8841SOL    HW227423   1.618   0.817   4.405
 8842SOL     OW27424   2.184   2.863   2.308
 8842SOL    HW127425   2.230   2.774   2.316
 8842SOL    HW227426   2.182   2.908   2.397
 8843SOL     OW27427   0.312   3.102   4.629
 8843SOL    HW127428   0.246   3.026   4.630
 8843SOL    HW227429   0.365   3.100   4.714
 8844SOL     OW27430   6.680   1.523   6.429
 8844SOL    HW127431   6.596   1.496   6.476
 8844SOL    HW227432   6.756   1.467   6.461
 8845SOL     OW27433   5.385   4.592   6.959
 8845SOL    HW127434   5.401   4.688   6.979
 8845SOL    HW227435   5.358   4.545   0.025
 8846SOL     OW27436   1.625   4.710   3.472
 8846SOL    HW127437   1.681   4.729   3.552
 8846SOL    HW227438   1.532   4.685   3.501
 8847SOL     OW27439   2.732   0.910   2.528
 8847SOL    HW127440   2.735   0.850   2.608
 8847SOL    HW227441   2.645   0.896   2.480
 8848SOL     OW27442   1.389   0.400   2.610
 8848SOL    HW127443   1.489   0.407   2.618
 8848SOL    HW227444   1.355   0.338   2.681
 8849SOL     OW27445   2.981   6.800   1.114
 8849SOL    HW127446   3.034   6.851   1.046
 8849SOL    HW227447   2.943   6.863   1.181
 8850SOL     OW27448   3.364   2.596   0.109
 8850SOL    HW127449   3.460   2.624   0.100
 8850SOL    HW227450   3.314   2.624   0.027
 8851SOL     OW27451   1.395   3.393   2.984
 8851SOL    HW127452   1.424   3.299   2.964
 8851SOL    HW227453   1.336   3.426   2.910
 8852SOL     OW27454   0.938   2.016   5.957
 8852SOL    HW127455   0.990   2.006   6.042
 8852SOL    HW227456   0.890   2.104   5.958
 8853SOL     OW27457   5.121   1.060   1.003
 8853SOL    HW127458   5.124   1.154   0.969
 8853SOL    HW227459   5.155   1.056   1.096
 8854SOL     OW27460   0.958   2.383   4.796
 8854SOL    HW127461   1.041   2.403   4.847
 8854SOL    HW227462   0.981   2.329   4.715
 8855SOL     OW27463   5.823   5.250   1.046
 8855SOL    HW127464   5.844   5.283   1.138
 8855SOL    HW227465   5.788   5.157   1.050
 8856SOL     OW27466   6.871   6.916   5.610
 8856SOL    HW127467   6.835   6.826   5.590
 8856SOL    HW227468   6.929   6.947   5.534
 8857SOL     OW27469   6.362   1.648   6.043
 8857SOL    HW127470   6.436   1.625   6.107
 8857SOL    HW227471   6.398   1.649   5.950
 8858SOL     OW27472   5.669   5.943   4.447
 8858SOL    HW127473   5.697   5.849   4.469
 8858SOL    HW227474   5.585   5.965   4.495
 8859SOL     OW27475   0.556   6.634   3.485
 8859SOL    HW127476   0.467   6.643   3.530
 8859SOL    HW227477   0.624   6.609   3.554
 8860SOL     OW27478   0.273   4.242   2.746
 8860SOL    HW127479   0.286   4.280   2.838
 8860SOL    HW227480   0.350   4.183   2.723
 8861SOL     OW27481   4.148   3.083   0.839
 8861SOL    HW127482   4.140   2.991   0.802
 8861SOL    HW227483   4.216   3.084   0.913
 8862SOL     OW27484   4.844   4.607   5.004
 8862SOL    HW127485   4.789   4.524   5.008
 8862SOL    HW227486   4.785   4.687   5.013
 8863SOL     OW27487   2.102   3.940   3.491
 8863SOL    HW127488   2.190   3.980   3.467
 8863SOL    HW227489   2.048   3.927   3.409
 8864SOL     OW27490   6.213   1.838   5.319
 8864SOL    HW127491   6.288   1.823   5.383
 8864SOL    HW227492   6.241   1.809   5.227
 8865SOL     OW27493   2.608   1.505   0.519
 8865SOL    HW127494   2.550   1.494   0.600
 8865SOL    HW227495   2.635   1.601   0.510
 8866SOL     OW27496   6.024   6.646   2.133
 8866SOL    HW127497   5.934   6.658   2.175
 8866SOL    HW227498   6.025   6.561   2.080
 8867SOL     OW27499   6.411   3.635   2.924
 8867SOL    HW127500   6.509   3.619   2.933
 8867SOL    HW227501   6.388   3.648   2.828
 8868SOL     OW27502   6.720   2.918   3.729
 8868SOL    HW127503   6.738   2.955   3.638
 8868SOL    HW227504   6.685   2.825   3.721
 8869SOL     OW27505   3.917   6.742   3.524
 8869SOL    HW127506   3.887   6.674   3.458
 8869SOL    HW227507   3.886   6.716   3.615
 8870SOL     OW27508   1.202   0.720   2.824
 8870SOL    HW127509   1.183   0.795   2.761
 8870SOL    HW227510   1.285   0.673   2.795
 8871SOL     OW27511   7.014   0.526   2.547
 8871SOL    HW127512   6.920   0.501   2.527
 8871SOL    HW227513   0.000   0.623   2.572
 8872SOL     OW27514   6.447   4.532   3.627
 8872SOL    HW127515   6.366   4.521   3.685
 8872SOL    HW227516   6.421   4.519   3.531
 8873SOL     OW27517   2.028   1.693   2.904
 8873SOL    HW127518   2.095   1.619   2.909
 8873SOL    HW227519   1.948   1.668   2.959
 8874SOL     OW27520   3.322   6.143   1.208
 8874SOL    HW127521   3.225   6.130   1.229
 8874SOL    HW227522   3.348   6.237   1.231
 8875SOL     OW27523   6.632   3.377   4.181
 8875SOL    HW127524   6.723   3.408   4.152
 8875SOL    HW227525   6.582   3.454   4.221
 8876SOL     OW27526   4.369   0.210   6.450
 8876SOL    HW127527   4.300   0.279   6.474
 8876SOL    HW227528   4.329   0.145   6.386
 8877SOL     OW27529   1.112   4.213   1.198
 8877SOL    HW127530   1.046   4.264   1.143
 8877SOL    HW227531   1.191   4.189   1.142
 8878SOL     OW27532   4.286   3.984   0.902
 8878SOL    HW127533   4.268   3.894   0.943
 8878SOL    HW227534   4.263   3.982   0.805
 8879SOL     OW27535   6.513   4.700   2.833
 8879SOL    HW127536   6.457   4.761   2.890
 8879SOL    HW227537   6.593   4.750   2.800
 8880SOL     OW27538   4.366   0.952   3.683
 8880SOL    HW127539   4.396   0.939   3.777
 8880SOL    HW227540   4.379   1.048   3.657
 8881SOL     OW27541   3.850   4.853   4.144
 8881SOL    HW127542   3.777   4.787   4.162
 8881SOL    HW227543   3.927   4.835   4.205
 8882SOL     OW27544   4.470   0.758   0.710
 8882SOL    HW127545   4.373   0.779   0.715
 8882SOL    HW227546   4.515   0.824   0.649
 8883SOL     OW27547   6.772   6.424   4.911
 8883SOL    HW127548   6.759   6.353   4.981
 8883SOL    HW227549   6.778   6.382   4.821
 8884SOL     OW27550   5.027   3.704   5.259
 8884SOL    HW127551   4.963   3.737   5.190
 8884SOL    HW227552   5.040   3.775   5.329
 8885SOL     OW27553   5.853   6.167   0.877
 8885SOL    HW127554   5.789   6.096   0.907
 8885SOL    HW227555   5.923   6.128   0.818
 8886SOL     OW27556   4.271   5.499   6.473
 8886SOL    HW127557   4.183   5.483   6.519
 8886SOL    HW227558   4.262   5.576   6.411
 8887SOL     OW27559   4.903   0.432   1.968
 8887SOL    HW127560   4.960   0.498   2.016
 8887SOL    HW227561   4.869   0.472   1.883
 8888SOL     OW27562   3.073   1.921   2.666
 8888SOL    HW127563   3.059   1.985   2.742
 8888SOL    HW227564   3.147   1.858   2.688
 8889SOL     OW27565   1.473   5.486   6.403
 8889SOL    HW127566   1.512   5.507   6.314
 8889SOL    HW227567   1.398   5.420   6.392
 8890SOL     OW27568   0.897   6.323   7.003
 8890SOL    HW127569   0.818   6.385   6.995
 8890SOL    HW227570   0.885   6.246   6.941
 8891SOL     OW27571   6.426   4.074   5.997
 8891SOL    HW127572   6.357   4.094   5.928
 8891SOL    HW227573   6.512   4.048   5.953
 8892SOL     OW27574   3.252   5.545   4.664
 8892SOL    HW127575   3.281   5.453   4.690
 8892SOL    HW227576   3.312   5.580   4.593
 8893SOL     OW27577   1.109   5.252   5.247
 8893SOL    HW127578   1.085   5.171   5.301
 8893SOL    HW227579   1.205   5.248   5.221
 8894SOL     OW27580   4.665   1.992   0.749
 8894SOL    HW127581   4.627   1.996   0.657
 8894SOL    HW227582   4.721   2.074   0.765
 8895SOL     OW27583   6.895   3.692   0.571
 8895SOL    HW127584   6.897   3.702   0.671
 8895SOL    HW227585   6.975   3.737   0.531
 8896SOL     OW27586   0.314   2.178   4.350
 8896SOL    HW127587   0.375   2.145   4.278
 8896SOL    HW227588   0.248   2.106   4.373
 8897SOL     OW27589   1.611   4.664   4.148
 8897SOL    HW127590   1.661   4.578   4.147
 8897SOL    HW227591   1.647   4.724   4.219
 8898SOL     OW27592   4.681   4.223   2.580
 8898SOL    HW127593   4.630   4.219   2.494
 8898SOL    HW227594   4.624   4.265   2.651
 8899SOL     OW27595   1.097   3.686   3.743
 8899SOL    HW127596   1.064   3.766   3.692
 8899SOL    HW227597   1.194   3.696   3.762
 8900SOL     OW27598   4.860   2.246   4.262
 8900SOL    HW127599   4.888   2.181   4.192
 8900SOL    HW227600   4.761   2.240   4.275
 8901SOL     OW27601   1.325   3.928   4.675
 8901SOL    HW127602   1.367   3.975   4.752
 8901SOL    HW227603   1.340   3.980   4.591
 8902SOL     OW27604   0.371   4.696   0.251
 8902SOL    HW127605   0.289   4.640   0.249
 8902SOL    HW227606   0.356   4.776   0.308
 8903SOL     OW27607   0.827   0.089   5.311
 8903SOL    HW127608   0.859   0.014   5.370
 8903SOL    HW227609   0.894   0.163   5.313
 8904SOL     OW27610   0.143   0.933   3.181
 8904SOL    HW127611   0.097   0.898   3.263
 8904SOL    HW227612   0.242   0.923   3.192
 8905SOL     OW27613   0.933   3.842   2.623
 8905SOL    HW127614   0.995   3.896   2.566
 8905SOL    HW227615   0.985   3.772   2.673
 8906SOL     OW27616   6.138   6.863   6.970
 8906SOL    HW127617   6.225   6.834   6.932
 8906SOL    HW227618   6.142   6.861   0.053
 8907SOL     OW27619   2.706   3.572   5.289
 8907SOL    HW127620   2.656   3.658   5.275
 8907SOL    HW227621   2.800   3.583   5.256
 8908SOL     OW27622   1.302   4.721   6.846
 8908SOL    HW127623   1.306   4.621   6.841
 8908SOL    HW227624   1.219   4.749   6.893
 8909SOL     OW27625   2.098   6.818   1.708
 8909SOL    HW127626   2.016   6.871   1.729
 8909SOL    HW227627   2.130   6.842   1.616
 8910SOL     OW27628   1.537   0.282   3.852
 8910SOL    HW127629   1.544   0.190   3.891
 8910SOL    HW227630   1.513   0.274   3.755
 8911SOL     OW27631   4.292   2.394   4.572
 8911SOL    HW127632   4.260   2.482   4.608
 8911SOL    HW227633   4.386   2.379   4.600
 8912SOL     OW27634   3.632   3.825   4.155
 8912SOL    HW127635   3.728   3.851   4.147
 8912SOL    HW227636   3.594   3.864   4.239
 8913SOL     OW27637   5.408   6.332   0.073
 8913SOL    HW127638   5.422   6.431   0.075
 8913SOL    HW227639   5.312   6.312   0.051
 8914SOL     OW27640   4.821   5.086   6.477
 8914SOL    HW127641   4.875   5.006   6.454
 8914SOL    HW227642   4.757   5.105   6.402
 8915SOL     OW27643   1.368   1.090   3.017
 8915SOL    HW127644   1.300   1.161   3.001
 8915SOL    HW227645   1.421   1.112   3.099
 8916SOL     OW27646   4.813   1.218   0.812
 8916SOL    HW127647   4.880   1.144   0.804
 8916SOL    HW227648   4.809   1.269   0.726
 8917SOL     OW27649   5.964   1.802   0.931
 8917SOL    HW127650   5.985   1.819   1.028
 8917SOL    HW227651   5.870   1.832   0.913
 8918SOL     OW27652   0.570   3.622   2.816
 8918SOL    HW127653   0.632   3.543   2.819
 8918SOL    HW227654   0.537   3.635   2.723
 8919SOL     OW27655   6.393   3.537   1.427
 8919SOL    HW127656   6.482   3.552   1.471
 8919SOL    HW227657   6.389   3.444   1.391
 8920SOL     OW27658   6.272   1.322   0.399
 8920SOL    HW127659   6.277   1.235   0.350
 8920SOL    HW227660   6.363   1.363   0.404
 8921SOL     OW27661   2.079   2.871   2.561
 8921SOL    HW127662   2.034   2.782   2.564
 8921SOL    HW227663   2.151   2.875   2.630
 8922SOL     OW27664   4.387   5.869   4.249
 8922SOL    HW127665   4.458   5.815   4.294
 8922SOL    HW227666   4.343   5.930   4.315
 8923SOL     OW27667   2.093   1.601   4.434
 8923SOL    HW127668   1.999   1.582   4.409
 8923SOL    HW227669   2.119   1.691   4.399
 8924SOL     OW27670   6.143   4.996   4.937
 8924SOL    HW127671   6.128   5.093   4.919
 8924SOL    HW227672   6.089   4.941   4.874
 8925SOL     OW27673   0.980   5.941   2.678
 8925SOL    HW127674   1.015   5.872   2.615
 8925SOL    HW227675   0.881   5.932   2.684
 8926SOL     OW27676   5.653   1.713   6.416
 8926SOL    HW127677   5.627   1.803   6.382
 8926SOL    HW227678   5.703   1.723   6.502
 8927SOL     OW27679   1.467   0.825   5.586
 8927SOL    HW127680   1.416   0.909   5.604
 8927SOL    HW227681   1.424   0.749   5.634
 8928SOL     OW27682   1.246   6.231   5.388
 8928SOL    HW127683   1.323   6.295   5.396
 8928SOL    HW227684   1.224   6.196   5.479
 8929SOL     OW27685   0.354   2.127   4.626
 8929SOL    HW127686   0.353   2.027   4.618
 8929SOL    HW227687   0.324   2.168   4.541
 8930SOL     OW27688   2.216   4.261   3.657
 8930SOL    HW127689   2.139   4.325   3.645
 8930SOL    HW227690   2.196   4.198   3.732
 8931SOL     OW27691   4.076   2.826   0.757
 8931SOL    HW127692   4.059   2.767   0.678
 8931SOL    HW227693   4.074   2.772   0.840
 8932SOL     OW27694   0.620   3.267   3.386
 8932SOL    HW127695   0.565   3.318   3.451
 8932SOL    HW227696   0.716   3.296   3.393
 8933SOL     OW27697   3.755   2.115   5.311
 8933SOL    HW127698   3.772   2.163   5.398
 8933SOL    HW227699   3.842   2.099   5.265
 8934SOL     OW27700   3.253   5.677   3.307
 8934SOL    HW127701   3.285   5.592   3.348
 8934SOL    HW227702   3.332   5.727   3.270
 8935SOL     OW27703   0.173   4.377   1.185
 8935SOL    HW127704   0.221   4.464   1.187
 8935SOL    HW227705   0.085   4.389   1.139
 8936SOL     OW27706   2.915   1.955   1.109
 8936SOL    HW127707   2.955   2.043   1.085
 8936SOL    HW227708   2.830   1.970   1.160
 8937SOL     OW27709   0.328   6.071   5.988
 8937SOL    HW127710   0.277   6.056   5.903
 8937SOL    HW227711   0.352   6.167   5.996
 8938SOL     OW27712   5.365   5.716   1.476
 8938SOL    HW127713   5.454   5.675   1.494
 8938SOL    HW227714   5.366   5.758   1.385
 8939SOL     OW27715   4.696   2.147   5.063
 8939SOL    HW127716   4.621   2.109   5.009
 8939SOL    HW227717   4.726   2.233   5.023
 8940SOL     OW27718   5.877   0.444   2.909
 8940SOL    HW127719   5.853   0.480   2.999
 8940SOL    HW227720   5.794   0.428   2.856
 8941SOL     OW27721   4.934   1.901   6.354
 8941SOL    HW127722   4.978   1.811   6.362
 8941SOL    HW227723   4.949   1.937   6.262
 8942SOL     OW27724   0.314   2.377   5.346
 8942SOL    HW127725   0.311   2.387   5.445
 8942SOL    HW227726   0.310   2.467   5.303
 8943SOL     OW27727   5.325   3.977   0.846
 8943SOL    HW127728   5.289   3.961   0.938
 8943SOL    HW227729   5.252   4.012   0.787
 8944SOL     OW27730   4.514   5.415   1.064
 8944SOL    HW127731   4.581   5.398   1.136
 8944SOL    HW227732   4.489   5.328   1.021
 8945SOL     OW27733   1.760   0.822   4.103
 8945SOL    HW127734   1.731   0.752   4.168
 8945SOL    HW227735   1.680   0.859   4.056
 8946SOL     OW27736   4.037   1.875   4.319
 8946SOL    HW127737   4.088   1.912   4.241
 8946SOL    HW227738   4.011   1.781   4.301
 8947SOL     OW27739   4.169   3.673   5.243
 8947SOL    HW127740   4.198   3.656   5.149
 8947SOL    HW227741   4.237   3.731   5.289
 8948SOL     OW27742   6.305   5.145   2.907
 8948SOL    HW127743   6.402   5.146   2.881
 8948SOL    HW227744   6.297   5.166   3.005
 8949SOL     OW27745   2.063   6.102   0.544
 8949SOL    HW127746   2.032   6.130   0.635
 8949SOL    HW227747   2.076   6.183   0.487
 8950SOL     OW27748   4.844   2.662   4.816
 8950SOL    HW127749   4.880   2.742   4.767
 8950SOL    HW227750   4.897   2.581   4.793
 8951SOL     OW27751   2.162   2.576   5.622
 8951SOL    HW127752   2.257   2.567   5.651
 8951SOL    HW227753   2.110   2.497   5.653
 8952SOL     OW27754   6.494   0.576   2.689
 8952SOL    HW127755   6.424   0.603   2.756
 8952SOL    HW227756   6.584   0.606   2.721
 8953SOL     OW27757   1.434   3.798   6.755
 8953SOL    HW127758   1.335   3.807   6.742
 8953SOL    HW227759   1.467   3.716   6.708
 8954SOL     OW27760   2.011   5.777   5.837
 8954SOL    HW127761   2.055   5.715   5.772
 8954SOL    HW227762   1.912   5.772   5.826
 8955SOL     OW27763   6.351   3.873   3.123
 8955SOL    HW127764   6.366   3.837   3.031
 8955SOL    HW227765   6.252   3.876   3.142
 8956SOL     OW27766   1.172   0.929   6.071
 8956SOL    HW127767   1.164   0.836   6.104
 8956SOL    HW227768   1.159   0.931   5.971
 8957SOL     OW27769   3.124   4.850   2.337
 8957SOL    HW127770   3.127   4.761   2.382
 8957SOL    HW227771   3.065   4.845   2.257
 8958SOL     OW27772   2.113   0.127   4.220
 8958SOL    HW127773   2.163   0.177   4.291
 8958SOL    HW227774   2.176   0.099   4.147
 8959SOL     OW27775   2.044   4.176   0.819
 8959SOL    HW127776   1.949   4.205   0.834
 8959SOL    HW227777   2.046   4.083   0.784
 8960SOL     OW27778   3.686   6.097   1.593
 8960SOL    HW127779   3.731   6.178   1.630
 8960SOL    HW227780   3.723   6.076   1.503
 8961SOL     OW27781   1.201   1.699   3.652
 8961SOL    HW127782   1.151   1.637   3.592
 8961SOL    HW227783   1.247   1.769   3.597
 8962SOL     OW27784   5.251   0.060   3.262
 8962SOL    HW127785   5.246   0.149   3.217
 8962SOL    HW227786   5.226   7.006   3.196
 8963SOL     OW27787   6.521   1.046   4.187
 8963SOL    HW127788   6.606   1.099   4.193
 8963SOL    HW227789   6.445   1.102   4.220
 8964SOL     OW27790   6.109   5.181   2.618
 8964SOL    HW127791   6.203   5.202   2.591
 8964SOL    HW227792   6.109   5.115   2.693
 8965SOL     OW27793   1.394   4.845   1.953
 8965SOL    HW127794   1.461   4.772   1.937
 8965SOL    HW227795   1.430   4.908   2.022
 8966SOL     OW27796   2.752   2.749   5.533
 8966SOL    HW127797   2.818   2.822   5.514
 8966SOL    HW227798   2.725   2.752   5.629
 8967SOL     OW27799   3.873   0.701   0.521
 8967SOL    HW127800   3.960   0.694   0.471
 8967SOL    HW227801   3.801   0.655   0.468
 8968SOL     OW27802   5.152   5.012   2.264
 8968SOL    HW127803   5.161   5.109   2.286
 8968SOL    HW227804   5.242   4.969   2.266
 8969SOL     OW27805   6.254   0.985   4.478
 8969SOL    HW127806   6.202   0.914   4.524
 8969SOL    HW227807   6.241   0.976   4.379
 8970SOL     OW27808   3.542   2.184   1.299
 8970SOL    HW127809   3.574   2.271   1.336
 8970SOL    HW227810   3.553   2.112   1.367
 8971SOL     OW27811   3.636   5.803   2.497
 8971SOL    HW127812   3.603   5.768   2.410
 8971SOL    HW227813   3.731   5.774   2.511
 8972SOL     OW27814   5.580   0.387   4.909
 8972SOL    HW127815   5.653   0.412   4.846
 8972SOL    HW227816   5.518   0.323   4.865
 8973SOL     OW27817   1.623   5.322   6.836
 8973SOL    HW127818   1.608   5.402   6.895
 8973SOL    HW227819   1.601   5.345   6.742
 8974SOL     OW27820   0.613   3.267   4.460
 8974SOL    HW127821   0.611   3.167   4.452
 8974SOL    HW227822   0.661   3.292   4.545
 8975SOL     OW27823   2.863   0.088   0.442
 8975SOL    HW127824   2.784   0.146   0.462
 8975SOL    HW227825   2.942   0.146   0.422
 8976SOL     OW27826   0.329   5.608   4.464
 8976SOL    HW127827   0.337   5.514   4.429
 8976SOL    HW227828   0.405   5.663   4.430
 8977SOL     OW27829   5.993   1.621   6.133
 8977SOL    HW127830   5.923   1.675   6.089
 8977SOL    HW227831   6.082   1.666   6.124
 8978SOL     OW27832   5.486   6.321   0.967
 8978SOL    HW127833   5.489   6.264   1.048
 8978SOL    HW227834   5.454   6.267   0.889
 8979SOL     OW27835   1.881   4.516   4.476
 8979SOL    HW127836   1.942   4.455   4.426
 8979SOL    HW227837   1.895   4.504   4.575
 8980SOL     OW27838   3.707   2.909   4.683
 8980SOL    HW127839   3.749   2.967   4.614
 8980SOL    HW227840   3.779   2.857   4.730
 8981SOL     OW27841   3.498   1.973   5.376
 8981SOL    HW127842   3.551   2.047   5.334
 8981SOL    HW227843   3.540   1.885   5.353
 8982SOL     OW27844   2.912   4.427   0.865
 8982SOL    HW127845   2.923   4.490   0.942
 8982SOL    HW227846   2.815   4.413   0.847
 8983SOL     OW27847   5.042   5.168   0.451
 8983SOL    HW127848   4.993   5.080   0.450
 8983SOL    HW227849   5.140   5.151   0.444
 8984SOL     OW27850   1.887   5.800   3.349
 8984SOL    HW127851   1.915   5.884   3.303
 8984SOL    HW227852   1.912   5.722   3.291
 8985SOL     OW27853   3.431   3.110   6.347
 8985SOL    HW127854   3.333   3.101   6.367
 8985SOL    HW227855   3.484   3.059   6.414
 8986SOL     OW27856   3.538   6.122   2.835
 8986SOL    HW127857   3.591   6.171   2.904
 8986SOL    HW227858   3.594   6.108   2.754
 8987SOL     OW27859   4.821   6.056   2.392
 8987SOL    HW127860   4.832   6.070   2.293
 8987SOL    HW227861   4.772   6.133   2.432
 8988SOL     OW27862   0.438   5.471   4.745
 8988SOL    HW127863   0.371   5.473   4.820
 8988SOL    HW227864   0.434   5.557   4.695
 8989SOL     OW27865   3.192   3.097   6.642
 8989SOL    HW127866   3.270   3.129   6.696
 8989SOL    HW227867   3.109   3.105   6.697
 8990SOL     OW27868   0.215   6.198   3.889
 8990SOL    HW127869   0.134   6.154   3.852
 8990SOL    HW227870   0.191   6.288   3.924
 8991SOL     OW27871   0.873   2.164   5.121
 8991SOL    HW127872   0.820   2.243   5.090
 8991SOL    HW227873   0.970   2.178   5.098
 8992SOL     OW27874   5.741   2.014   6.554
 8992SOL    HW127875   5.772   1.928   6.595
 8992SOL    HW227876   5.660   2.047   6.603
 8993SOL     OW27877   4.341   2.448   0.332
 8993SOL    HW127878   4.425   2.487   0.371
 8993SOL    HW227879   4.363   2.365   0.281
 8994SOL     OW27880   1.588   5.164   4.168
 8994SOL    HW127881   1.643   5.218   4.106
 8994SOL    HW227882   1.600   5.197   4.262
 8995SOL     OW27883   6.939   1.598   0.845
 8995SOL    HW127884   6.900   1.559   0.761
 8995SOL    HW227885   6.990   1.681   0.822
 8996SOL     OW27886   5.103   4.760   6.069
 8996SOL    HW127887   5.152   4.674   6.088
 8996SOL    HW227888   5.049   4.749   5.985
 8997SOL     OW27889   5.382   0.660   4.726
 8997SOL    HW127890   5.451   0.731   4.737
 8997SOL    HW227891   5.410   0.598   4.652
 8998SOL     OW27892   6.435   3.540   4.326
 8998SOL    HW127893   6.473   3.525   4.418
 8998SOL    HW227894   6.336   3.522   4.328
 8999SOL     OW27895   4.370   6.233   6.296
 8999SOL    HW127896   4.406   6.271   6.381
 8999SOL    HW227897   4.438   6.243   6.223
 9000SOL     OW27898   1.790   3.714   1.575
 9000SOL    HW127899   1.781   3.652   1.653
 9000SOL    HW227900   1.842   3.795   1.602
 9001SOL     OW27901   0.883   5.286   2.507
 9001SOL    HW127902   0.826   5.315   2.430
 9001SOL    HW227903   0.974   5.327   2.498
 9002SOL     OW27904   0.958   4.192   0.002
 9002SOL    HW127905   0.985   4.121   0.067
 9002SOL    HW227906   0.874   4.165   6.973
 9003SOL     OW27907   5.556   0.971   1.381
 9003SOL    HW127908   5.553   1.048   1.318
 9003SOL    HW227909   5.644   0.924   1.372
 9004SOL     OW27910   4.275   4.822   0.670
 9004SOL    HW127911   4.264   4.832   0.571
 9004SOL    HW227912   4.368   4.794   0.690
 9005SOL     OW27913   5.487   1.248   5.268
 9005SOL    HW127914   5.549   1.188   5.318
 9005SOL    HW227915   5.396   1.207   5.263
 9006SOL     OW27916   3.507   5.864   0.963
 9006SOL    HW127917   3.592   5.886   1.011
 9006SOL    HW227918   3.525   5.789   0.898
 9007SOL     OW27919   2.421   1.475   2.982
 9007SOL    HW127920   2.465   1.453   2.894
 9007SOL    HW227921   2.445   1.405   3.049
 9008SOL     OW27922   0.139   5.384   2.801
 9008SOL    HW127923   0.123   5.373   2.900
 9008SOL    HW227924   0.139   5.481   2.777
 9009SOL     OW27925   4.366   5.806   0.880
 9009SOL    HW127926   4.378   5.753   0.796
 9009SOL    HW227927   4.411   5.758   0.956
 9010SOL     OW27928   1.692   6.393   4.156
 9010SOL    HW127929   1.713   6.479   4.202
 9010SOL    HW227930   1.761   6.375   4.086
 9011SOL     OW27931   3.132   1.249   2.148
 9011SOL    HW127932   3.064   1.258   2.221
 9011SOL    HW227933   3.219   1.287   2.179
 9012SOL     OW27934   1.866   6.024   6.432
 9012SOL    HW127935   1.838   6.019   6.528
 9012SOL    HW227936   1.954   5.977   6.420
 9013SOL     OW27937   1.466   6.734   4.015
 9013SOL    HW127938   1.540   6.712   4.078
 9013SOL    HW227939   1.499   6.725   3.921
 9014SOL     OW27940   5.861   2.693   2.959
 9014SOL    HW127941   5.859   2.793   2.947
 9014SOL    HW227942   5.769   2.657   2.952
 9015SOL     OW27943   5.202   1.869   0.059
 9015SOL    HW127944   5.193   1.931   6.999
 9015SOL    HW227945   5.245   1.917   0.136
 9016SOL     OW27946   5.695   5.460   6.278
 9016SOL    HW127947   5.650   5.499   6.357
 9016SOL    HW227948   5.786   5.501   6.267
 9017SOL     OW27949   3.424   0.950   4.455
 9017SOL    HW127950   3.426   1.011   4.376
 9017SOL    HW227951   3.345   0.890   4.448
 9018SOL     OW27952   4.466   3.819   6.331
 9018SOL    HW127953   4.503   3.833   6.239
 9018SOL    HW227954   4.367   3.814   6.327
 9019SOL     OW27955   0.469   3.417   3.557
 9019SOL    HW127956   0.380   3.422   3.602
 9019SOL    HW227957   0.508   3.509   3.550
 9020SOL     OW27958   6.033   6.382   2.024
 9020SOL    HW127959   6.085   6.352   2.104
 9020SOL    HW227960   6.056   6.325   1.946
 9021SOL     OW27961   0.029   0.630   4.046
 9021SOL    HW127962   0.029   0.541   4.091
 9021SOL    HW227963   6.978   0.631   3.973
 9022SOL     OW27964   4.562   2.825   6.225
 9022SOL    HW127965   4.511   2.742   6.204
 9022SOL    HW227966   4.497   2.899   6.245
 9023SOL     OW27967   5.194   3.709   0.727
 9023SOL    HW127968   5.203   3.806   0.749
 9023SOL    HW227969   5.150   3.662   0.804
 9024SOL     OW27970   1.833   5.004   6.365
 9024SOL    HW127971   1.739   5.022   6.393
 9024SOL    HW227972   1.875   4.938   6.428
 9025SOL     OW27973   0.900   5.444   0.917
 9025SOL    HW127974   0.823   5.423   0.856
 9025SOL    HW227975   0.945   5.359   0.945
 9026SOL     OW27976   4.139   1.598   0.428
 9026SOL    HW127977   4.122   1.606   0.330
 9026SOL    HW227978   4.081   1.664   0.477
 9027SOL     OW27979   0.102   3.699   3.343
 9027SOL    HW127980   0.091   3.699   3.244
 9027SOL    HW227981   0.033   3.641   3.386
 9028SOL     OW27982   3.455   4.287   5.542
 9028SOL    HW127983   3.402   4.204   5.559
 9028SOL    HW227984   3.419   4.333   5.461
 9029SOL     OW27985   4.390   6.896   4.968
 9029SOL    HW127986   4.291   6.884   4.977
 9029SOL    HW227987   4.437   6.843   5.039
 9030SOL     OW27988   2.371   1.735   3.131
 9030SOL    HW127989   2.466   1.763   3.142
 9030SOL    HW227990   2.361   1.687   3.044
 9031SOL     OW27991   4.296   0.140   4.866
 9031SOL    HW127992   4.312   0.050   4.907
 9031SOL    HW227993   4.340   0.143   4.776
 9032SOL     OW27994   4.609   3.851   1.698
 9032SOL    HW127995   4.681   3.921   1.698
 9032SOL    HW227996   4.527   3.887   1.743
 9033SOL     OW27997   1.217   5.975   3.208
 9033SOL    HW127998   1.255   5.988   3.117
 9033SOL    HW227999   1.243   6.053   3.266
 9034SOL     OW28000   4.068   6.422   4.418
 9034SOL    HW128001   4.100   6.517   4.416
 9034SOL    HW228002   4.094   6.381   4.505
 9035SOL     OW28003   1.006   5.330   7.007
 9035SOL    HW128004   1.008   5.301   6.911
 9035SOL    HW228005   0.918   5.373   0.008
 9036SOL     OW28006   1.504   3.397   5.798
 9036SOL    HW128007   1.449   3.465   5.749
 9036SOL    HW228008   1.601   3.414   5.780
 9037SOL     OW28009   0.819   1.706   2.762
 9037SOL    HW128010   0.812   1.661   2.851
 9037SOL    HW228011   0.813   1.805   2.773
 9038SOL     OW28012   4.394   3.262   5.488
 9038SOL    HW128013   4.405   3.216   5.400
 9038SOL    HW228014   4.348   3.201   5.552
 9039SOL     OW28015   3.991   5.459   0.403
 9039SOL    HW128016   3.967   5.519   0.479
 9039SOL    HW228017   4.028   5.513   0.328
 9040SOL     OW28018   2.129   1.680   1.130
 9040SOL    HW128019   2.093   1.743   1.061
 9040SOL    HW228020   2.188   1.731   1.193
 9041SOL     OW28021   0.389   1.718   1.392
 9041SOL    HW128022   0.308   1.764   1.355
 9041SOL    HW228023   0.468   1.778   1.383
 9042SOL     OW28024   3.830   5.842   6.610
 9042SOL    HW128025   3.880   5.798   6.684
 9042SOL    HW228026   3.882   5.836   6.525
 9043SOL     OW28027   3.045   1.622   0.065
 9043SOL    HW128028   3.014   1.713   0.092
 9043SOL    HW228029   2.977   1.580   0.005
 9044SOL     OW28030   0.602   0.526   6.681
 9044SOL    HW128031   0.568   0.511   6.588
 9044SOL    HW228032   0.602   0.440   6.731
 9045SOL     OW28033   4.004   1.246   3.525
 9045SOL    HW128034   4.037   1.152   3.536
 9045SOL    HW228035   4.065   1.296   3.464
 9046SOL     OW28036   3.331   3.762   2.929
 9046SOL    HW128037   3.365   3.806   3.012
 9046SOL    HW228038   3.287   3.829   2.870
 9047SOL     OW28039   1.146   3.841   6.186
 9047SOL    HW128040   1.184   3.862   6.096
 9047SOL    HW228041   1.200   3.886   6.257
 9048SOL     OW28042   6.423   2.023   6.163
 9048SOL    HW128043   6.515   1.987   6.176
 9048SOL    HW228044   6.356   1.952   6.181
 9049SOL     OW28045   3.344   6.409   6.607
 9049SOL    HW128046   3.338   6.495   6.557
 9049SOL    HW228047   3.281   6.412   6.686
 9050SOL     OW28048   0.163   5.141   0.491
 9050SOL    HW128049   0.098   5.093   0.433
 9050SOL    HW228050   0.129   5.143   0.585
 9051SOL     OW28051   2.445   1.540   1.192
 9051SOL    HW128052   2.456   1.458   1.135
 9051SOL    HW228053   2.392   1.517   1.274
 9052SOL     OW28054   1.326   3.012   5.258
 9052SOL    HW128055   1.341   2.983   5.353
 9052SOL    HW228056   1.227   3.011   5.239
 9053SOL     OW28057   1.994   1.368   0.485
 9053SOL    HW128058   1.908   1.319   0.498
 9053SOL    HW228059   2.063   1.305   0.450
 9054SOL     OW28060   2.213   5.536   3.532
 9054SOL    HW128061   2.223   5.562   3.628
 9054SOL    HW228062   2.266   5.598   3.475
 9055SOL     OW28063   0.036   4.094   4.798
 9055SOL    HW128064   7.016   4.167   4.856
 9055SOL    HW228065   0.052   4.012   4.854
 9056SOL     OW28066   6.159   2.487   2.749
 9056SOL    HW128067   6.067   2.470   2.783
 9056SOL    HW228068   6.154   2.521   2.655
 9057SOL     OW28069   4.257   2.293   4.320
 9057SOL    HW128070   4.275   2.344   4.404
 9057SOL    HW228071   4.161   2.265   4.318
 9058SOL     OW28072   1.962   0.943   5.778
 9058SOL    HW128073   1.886   0.907   5.723
 9058SOL    HW228074   2.046   0.894   5.755
 9059SOL     OW28075   1.239   1.941   3.236
 9059SOL    HW128076   1.300   1.866   3.212
 9059SOL    HW228077   1.197   1.978   3.152
 9060SOL     OW28078   5.112   2.430   5.173
 9060SOL    HW128079   5.169   2.511   5.161
 9060SOL    HW228080   5.015   2.455   5.165
 9061SOL     OW28081   3.719   5.713   2.854
 9061SOL    HW128082   3.667   5.799   2.855
 9061SOL    HW228083   3.656   5.636   2.861
 9062SOL     OW28084   2.030   5.468   1.020
 9062SOL    HW128085   2.004   5.558   1.056
 9062SOL    HW228086   2.127   5.468   0.997
 9063SOL     OW28087   3.128   1.442   1.949
 9063SOL    HW128088   3.112   1.378   2.024
 9063SOL    HW228089   3.161   1.529   1.985
 9064SOL     OW28090   5.695   3.498   0.365
 9064SOL    HW128091   5.720   3.402   0.377
 9064SOL    HW228092   5.700   3.521   0.268
 9065SOL     OW28093   2.639   1.031   0.304
 9065SOL    HW128094   2.640   1.069   0.397
 9065SOL    HW228095   2.733   1.013   0.274
 9066SOL     OW28096   4.817   6.777   0.380
 9066SOL    HW128097   4.756   6.851   0.407
 9066SOL    HW228098   4.765   6.694   0.364
 9067SOL     OW28099   1.752   6.138   2.922
 9067SOL    HW128100   1.678   6.072   2.911
 9067SOL    HW228101   1.737   6.216   2.862
 9068SOL     OW28102   1.838   6.322   6.812
 9068SOL    HW128103   1.765   6.331   6.880
 9068SOL    HW228104   1.886   6.409   6.802
 9069SOL     OW28105   1.378   2.586   6.785
 9069SOL    HW128106   1.290   2.555   6.822
 9069SOL    HW228107   1.374   2.585   6.685
 9070SOL     OW28108   1.012   4.193   3.523
 9070SOL    HW128109   0.947   4.157   3.591
 9070SOL    HW228110   1.099   4.212   3.568
 9071SOL     OW28111   5.131   6.632   6.952
 9071SOL    HW128112   5.117   6.701   6.880
 9071SOL    HW228113   5.084   6.662   0.018
 9072SOL     OW28114   5.151   5.227   6.627
 9072SOL    HW128115   5.179   5.288   6.701
 9072SOL    HW228116   5.226   5.216   6.562
 9073SOL     OW28117   1.959   0.625   1.662
 9073SOL    HW128118   1.873   0.673   1.645
 9073SOL    HW228119   2.035   0.690   1.656
 9074SOL     OW28120   1.097   6.575   2.848
 9074SOL    HW128121   1.126   6.613   2.936
 9074SOL    HW228122   1.079   6.649   2.784
 9075SOL     OW28123   0.569   1.103   2.621
 9075SOL    HW128124   0.641   1.172   2.632
 9075SOL    HW228125   0.581   1.031   2.689
 9076SOL     OW28126   6.458   1.538   5.173
 9076SOL    HW128127   6.433   1.451   5.217
 9076SOL    HW228128   6.515   1.591   5.234
 9077SOL     OW28129   5.807   6.601   1.792
 9077SOL    HW128130   5.907   6.606   1.797
 9077SOL    HW228131   5.778   6.622   1.699
 9078SOL     OW28132   3.388   2.902   4.657
 9078SOL    HW128133   3.458   2.838   4.626
 9078SOL    HW228134   3.394   2.913   4.756
 9079SOL     OW28135   3.877   0.593   6.356
 9079SOL    HW128136   3.838   0.547   6.435
 9079SOL    HW228137   3.897   0.526   6.285
 9080SOL     OW28138   5.044   1.630   0.501
 9080SOL    HW128139   4.945   1.643   0.510
 9080SOL    HW228140   5.090   1.719   0.507
 9081SOL     OW28141   5.464   0.145   2.087
 9081SOL    HW128142   5.485   0.138   1.989
 9081SOL    HW228143   5.516   0.220   2.127
 9082SOL     OW28144   2.957   1.283   3.381
 9082SOL    HW128145   3.057   1.288   3.391
 9082SOL    HW228146   2.916   1.272   3.472
 9083SOL     OW28147   4.049   4.882   4.349
 9083SOL    HW128148   4.125   4.875   4.415
 9083SOL    HW228149   4.048   4.974   4.310
 9084SOL     OW28150   3.641   3.598   3.059
 9084SOL    HW128151   3.674   3.596   2.965
 9084SOL    HW228152   3.715   3.568   3.120
 9085SOL     OW28153   0.984   1.794   0.474
 9085SOL    HW128154   0.925   1.716   0.495
 9085SOL    HW228155   1.077   1.763   0.456
 9086SOL     OW28156   0.143   3.899   0.728
 9086SOL    HW128157   0.216   3.964   0.745
 9086SOL    HW228158   0.115   3.904   0.632
 9087SOL     OW28159   4.315   3.712   1.535
 9087SOL    HW128160   4.385   3.654   1.576
 9087SOL    HW228161   4.350   3.751   1.450
 9088SOL     OW28162   5.305   6.516   0.893
 9088SOL    HW128163   5.372   6.464   0.946
 9088SOL    HW228164   5.273   6.461   0.816
 9089SOL     OW28165   4.263   0.060   6.046
 9089SOL    HW128166   4.307   0.147   6.024
 9089SOL    HW228167   4.332   7.005   6.048
 9090SOL     OW28168   6.103   1.211   4.020
 9090SOL    HW128169   6.162   1.137   4.053
 9090SOL    HW228170   6.017   1.172   3.987
 9091SOL     OW28171   2.899   2.914   6.743
 9091SOL    HW128172   2.941   2.990   6.792
 9091SOL    HW228173   2.851   2.948   6.662
 9092SOL     OW28174   6.798   2.758   6.413
 9092SOL    HW128175   6.823   2.711   6.498
 9092SOL    HW228176   6.820   2.700   6.335
 9093SOL     OW28177   1.674   6.084   5.577
 9093SOL    HW128178   1.747   6.061   5.641
 9093SOL    HW228179   1.711   6.092   5.485
 9094SOL     OW28180   0.820   3.875   1.827
 9094SOL    HW128181   0.859   3.784   1.835
 9094SOL    HW228182   0.884   3.943   1.864
 9095SOL     OW28183   6.600   6.649   4.950
 9095SOL    HW128184   6.537   6.588   4.998
 9095SOL    HW228185   6.673   6.595   4.908
 9096SOL     OW28186   6.702   5.476   3.262
 9096SOL    HW128187   6.708   5.528   3.176
 9096SOL    HW228188   6.652   5.530   3.330
 9097SOL     OW28189   1.274   2.229   6.640
 9097SOL    HW128190   1.213   2.287   6.587
 9097SOL    HW228191   1.329   2.172   6.579
 9098SOL     OW28192   1.917   3.943   4.172
 9098SOL    HW128193   1.909   3.875   4.099
 9098SOL    HW228194   1.998   3.924   4.227
 9099SOL     OW28195   2.556   2.446   0.057
 9099SOL    HW128196   2.642   2.429   0.106
 9099SOL    HW228197   2.505   2.518   0.105
 9100SOL     OW28198   1.102   4.660   3.224
 9100SOL    HW128199   1.098   4.577   3.280
 9100SOL    HW228200   1.194   4.698   3.228
 9101SOL     OW28201   0.904   2.429   0.836
 9101SOL    HW128202   0.923   2.487   0.756
 9101SOL    HW228203   0.927   2.479   0.919
 9102SOL     OW28204   4.099   6.647   2.898
 9102SOL    HW128205   4.147   6.733   2.877
 9102SOL    HW228206   4.159   6.570   2.877
 9103SOL     OW28207   6.484   0.530   0.778
 9103SOL    HW128208   6.456   0.440   0.811
 9103SOL    HW228209   6.549   0.570   0.842
 9104SOL     OW28210   5.713   2.210   6.151
 9104SOL    HW128211   5.655   2.201   6.232
 9104SOL    HW228212   5.782   2.280   6.167
 9105SOL     OW28213   1.882   1.185   5.463
 9105SOL    HW128214   1.900   1.267   5.410
 9105SOL    HW228215   1.825   1.207   5.542
 9106SOL     OW28216   1.338   3.706   0.088
 9106SOL    HW128217   1.259   3.680   0.034
 9106SOL    HW228218   1.308   3.759   0.168
 9107SOL     OW28219   2.831   1.311   0.566
 9107SOL    HW128220   2.870   1.261   0.489
 9107SOL    HW228221   2.768   1.381   0.532
 9108SOL     OW28222   5.778   5.623   5.920
 9108SOL    HW128223   5.745   5.616   5.827
 9108SOL    HW228224   5.752   5.542   5.972
 9109SOL     OW28225   5.332   3.618   2.573
 9109SOL    HW128226   5.367   3.654   2.486
 9109SOL    HW228227   5.292   3.528   2.558
 9110SOL     OW28228   2.179   6.289   3.851
 9110SOL    HW128229   2.109   6.225   3.819
 9110SOL    HW228230   2.177   6.371   3.794
 9111SOL     OW28231   4.286   2.274   6.408
 9111SOL    HW128232   4.193   2.302   6.431
 9111SOL    HW228233   4.305   2.296   6.313
 9112SOL     OW28234   1.092   5.287   1.291
 9112SOL    HW128235   1.153   5.231   1.348
 9112SOL    HW228236   1.065   5.369   1.341
 9113SOL     OW28237   5.664   1.055   4.111
 9113SOL    HW128238   5.648   1.102   4.198
 9113SOL    HW228239   5.636   1.115   4.036
 9114SOL     OW28240   1.233   6.200   5.642
 9114SOL    HW128241   1.269   6.107   5.652
 9114SOL    HW228242   1.160   6.215   5.710
 9115SOL     OW28243   4.812   4.426   4.469
 9115SOL    HW128244   4.781   4.367   4.394
 9115SOL    HW228245   4.734   4.458   4.521
 9116SOL     OW28246   1.399   0.414   3.017
 9116SOL    HW128247   1.407   0.458   3.107
 9116SOL    HW228248   1.343   0.331   3.027
 9117SOL     OW28249   2.600   6.118   0.333
 9117SOL    HW128250   2.591   6.217   0.342
 9117SOL    HW228251   2.667   6.096   0.263
 9118SOL     OW28252   6.577   4.336   2.308
 9118SOL    HW128253   6.532   4.297   2.388
 9118SOL    HW228254   6.656   4.280   2.284
 9119SOL     OW28255   3.026   0.055   0.179
 9119SOL    HW128256   2.934   0.090   0.158
 9119SOL    HW228257   3.054   7.010   0.107
 9120SOL     OW28258   6.448   3.782   4.687
 9120SOL    HW128259   6.375   3.839   4.650
 9120SOL    HW228260   6.534   3.833   4.686
 9121SOL     OW28261   3.417   0.816   4.684
 9121SOL    HW128262   3.419   0.884   4.611
 9121SOL    HW228263   3.500   0.822   4.738
 9122SOL     OW28264   1.290   3.801   1.972
 9122SOL    HW128265   1.249   3.814   1.882
 9122SOL    HW228266   1.261   3.876   2.033
 9123SOL     OW28267   6.621   6.457   4.445
 9123SOL    HW128268   6.710   6.501   4.433
 9123SOL    HW228269   6.628   6.361   4.420
 9124SOL     OW28270   2.961   5.207   0.586
 9124SOL    HW128271   2.873   5.159   0.587
 9124SOL    HW228272   2.945   5.305   0.577
 9125SOL     OW28273   5.188   6.462   1.453
 9125SOL    HW128274   5.124   6.457   1.376
 9125SOL    HW228275   5.282   6.460   1.417
 9126SOL     OW28276   4.274   4.392   1.130
 9126SOL    HW128277   4.218   4.317   1.095
 9126SOL    HW228278   4.293   4.378   1.227
 9127SOL     OW28279   6.708   5.043   4.872
 9127SOL    HW128280   6.707   5.090   4.784
 9127SOL    HW228281   6.616   5.043   4.911
 9128SOL     OW28282   5.351   4.126   5.839
 9128SOL    HW128283   5.403   4.062   5.896
 9128SOL    HW228284   5.396   4.215   5.839
 9129SOL     OW28285   1.078   2.795   1.041
 9129SOL    HW128286   1.025   2.717   1.073
 9129SOL    HW228287   1.022   2.853   0.982
 9130SOL     OW28288   2.995   3.414   4.668
 9130SOL    HW128289   3.009   3.324   4.626
 9130SOL    HW228290   3.002   3.485   4.598
 9131SOL     OW28291   4.567   2.365   0.699
 9131SOL    HW128292   4.582   2.348   0.796
 9131SOL    HW228293   4.628   2.307   0.645
 9132SOL     OW28294   0.440   3.866   3.812
 9132SOL    HW128295   0.404   3.872   3.719
 9132SOL    HW228296   0.409   3.781   3.855
 9133SOL     OW28297   5.766   0.788   1.074
 9133SOL    HW128298   5.799   0.827   0.988
 9133SOL    HW228299   5.755   0.689   1.065
 9134SOL     OW28300   4.762   5.091   0.886
 9134SOL    HW128301   4.774   5.127   0.978
 9134SOL    HW228302   4.827   5.135   0.824
 9135SOL     OW28303   6.208   6.612   2.773
 9135SOL    HW128304   6.224   6.707   2.801
 9135SOL    HW228305   6.278   6.585   2.707
 9136SOL     OW28306   6.229   4.501   0.297
 9136SOL    HW128307   6.269   4.453   0.375
 9136SOL    HW228308   6.187   4.587   0.329
 9137SOL     OW28309   5.301   6.407   5.592
 9137SOL    HW128310   5.392   6.422   5.553
 9137SOL    HW228311   5.283   6.477   5.662
 9138SOL     OW28312   2.407   3.350   0.245
 9138SOL    HW128313   2.472   3.308   0.181
 9138SOL    HW228314   2.317   3.355   0.202
 9139SOL     OW28315   6.547   0.161   0.560
 9139SOL    HW128316   6.576   0.256   0.544
 9139SOL    HW228317   6.594   0.101   0.495
 9140SOL     OW28318   1.984   3.577   3.164
 9140SOL    HW128319   1.887   3.554   3.175
 9140SOL    HW228320   2.024   3.595   3.254
 9141SOL     OW28321   6.881   5.304   4.941
 9141SOL    HW128322   6.958   5.248   4.909
 9141SOL    HW228323   6.798   5.278   4.891
 9142SOL     OW28324   0.919   4.824   4.797
 9142SOL    HW128325   0.830   4.851   4.760
 9142SOL    HW228326   0.960   4.901   4.847
 9143SOL     OW28327   6.777   4.319   2.549
 9143SOL    HW128328   6.727   4.401   2.520
 9143SOL    HW228329   6.817   4.335   2.639
 9144SOL     OW28330   3.143   4.179   5.663
 9144SOL    HW128331   3.184   4.159   5.574
 9144SOL    HW228332   3.172   4.110   5.729
 9145SOL     OW28333   1.430   5.971   5.659
 9145SOL    HW128334   1.460   5.906   5.729
 9145SOL    HW228335   1.510   6.013   5.616
 9146SOL     OW28336   5.741   2.925   3.278
 9146SOL    HW128337   5.823   2.873   3.303
 9146SOL    HW228338   5.756   2.969   3.189
 9147SOL     OW28339   4.244   0.441   5.007
 9147SOL    HW128340   4.174   0.427   5.077
 9147SOL    HW228341   4.309   0.366   5.010
 9148SOL     OW28342   6.007   5.939   1.705
 9148SOL    HW128343   6.058   5.854   1.716
 9148SOL    HW228344   5.985   5.952   1.608
 9149SOL     OW28345   0.407   3.866   0.907
 9149SOL    HW128346   0.434   3.878   1.002
 9149SOL    HW228347   0.396   3.955   0.864
 9150SOL     OW28348   2.585   3.262   0.069
 9150SOL    HW128349   2.604   3.235   6.992
 9150SOL    HW228350   2.669   3.295   0.112
 9151SOL     OW28351   1.647   2.901   4.152
 9151SOL    HW128352   1.611   2.907   4.245
 9151SOL    HW228353   1.747   2.902   4.155
 9152SOL     OW28354   1.890   4.239   2.829
 9152SOL    HW128355   1.849   4.229   2.738
 9152SOL    HW228356   1.878   4.333   2.861
 9153SOL     OW28357   0.914   3.217   6.342
 9153SOL    HW128358   0.875   3.179   6.426
 9153SOL    HW228359   0.956   3.144   6.289
 9154SOL     OW28360   5.755   4.835   3.012
 9154SOL    HW128361   5.683   4.833   2.942
 9154SOL    HW228362   5.713   4.843   3.102
 9155SOL     OW28363   1.420   5.826   2.364
 9155SOL    HW128364   1.394   5.857   2.455
 9155SOL    HW228365   1.435   5.727   2.365
 9156SOL     OW28366   6.742   3.783   6.225
 9156SOL    HW128367   6.702   3.854   6.283
 9156SOL    HW228368   6.839   3.771   6.248
 9157SOL     OW28369   1.659   4.607   5.691
 9157SOL    HW128370   1.579   4.547   5.690
 9157SOL    HW228371   1.659   4.659   5.777
 9158SOL     OW28372   6.656   3.932   4.648
 9158SOL    HW128373   6.745   3.898   4.678
 9158SOL    HW228374   6.668   4.022   4.605
 9159SOL     OW28375   2.147   1.295   3.941
 9159SOL    HW128376   2.240   1.286   3.904
 9159SOL    HW228377   2.145   1.367   4.011
 9160SOL     OW28378   1.337   3.491   0.466
 9160SOL    HW128379   1.325   3.548   0.548
 9160SOL    HW228380   1.391   3.542   0.398
 9161SOL     OW28381   6.072   3.770   2.553
 9161SOL    HW128382   6.001   3.828   2.593
 9161SOL    HW228383   6.115   3.819   2.477
 9162SOL     OW28384   3.986   2.344   1.771
 9162SOL    HW128385   4.059   2.285   1.803
 9162SOL    HW228386   3.899   2.315   1.811
 9163SOL     OW28387   2.412   2.139   3.593
 9163SOL    HW128388   2.373   2.220   3.548
 9163SOL    HW228389   2.463   2.168   3.674
 9164SOL     OW28390   2.507   6.472   6.314
 9164SOL    HW128391   2.472   6.384   6.348
 9164SOL    HW228392   2.535   6.462   6.218
 9165SOL     OW28393   5.685   1.994   5.949
 9165SOL    HW128394   5.593   1.978   5.914
 9165SOL    HW228395   5.682   2.066   6.019
 9166SOL     OW28396   5.087   6.290   1.922
 9166SOL    HW128397   5.155   6.321   1.856
 9166SOL    HW228398   5.013   6.357   1.929
 9167SOL     OW28399   1.579   1.174   4.388
 9167SOL    HW128400   1.647   1.241   4.357
 9167SOL    HW228401   1.616   1.123   4.466
 9168SOL     OW28402   6.745   6.156   5.109
 9168SOL    HW128403   6.810   6.081   5.102
 9168SOL    HW228404   6.779   6.224   5.175
 9169SOL     OW28405   6.950   5.926   1.179
 9169SOL    HW128406   6.921   6.016   1.145
 9169SOL    HW228407   7.011   5.939   1.257
 9170SOL     OW28408   1.348   1.084   5.617
 9170SOL    HW128409   1.290   1.119   5.543
 9170SOL    HW228410   1.423   1.149   5.634
 9171SOL     OW28411   3.580   5.410   6.625
 9171SOL    HW128412   3.602   5.338   6.691
 9171SOL    HW228413   3.482   5.410   6.606
 9172SOL     OW28414   5.099   1.667   5.432
 9172SOL    HW128415   5.108   1.651   5.334
 9172SOL    HW228416   5.181   1.635   5.479
 9173SOL     OW28417   5.768   3.636   5.326
 9173SOL    HW128418   5.711   3.560   5.294
 9173SOL    HW228419   5.859   3.601   5.350
 9174SOL     OW28420   6.955   4.922   1.301
 9174SOL    HW128421   6.920   4.969   1.220
 9174SOL    HW228422   6.949   4.983   1.380
 9175SOL     OW28423   2.437   6.767   1.114
 9175SOL    HW128424   2.337   6.769   1.103
 9175SOL    HW228425   2.460   6.782   1.210
 9176SOL     OW28426   1.441   1.114   2.211
 9176SOL    HW128427   1.374   1.177   2.250
 9176SOL    HW228428   1.513   1.096   2.278
 9177SOL     OW28429   0.254   6.482   4.019
 9177SOL    HW128430   0.300   6.544   3.955
 9177SOL    HW228431   0.321   6.447   4.085
 9178SOL     OW28432   1.378   4.456   0.950
 9178SOL    HW128433   1.401   4.376   0.895
 9178SOL    HW228434   1.440   4.462   1.028
 9179SOL     OW28435   3.329   5.589   4.179
 9179SOL    HW128436   3.410   5.535   4.155
 9179SOL    HW228437   3.248   5.549   4.135
 9180SOL     OW28438   0.316   1.219   5.801
 9180SOL    HW128439   0.337   1.138   5.746
 9180SOL    HW228440   0.227   1.206   5.846
 9181SOL     OW28441   2.702   2.384   3.753
 9181SOL    HW128442   2.668   2.384   3.847
 9181SOL    HW228443   2.660   2.458   3.701
 9182SOL     OW28444   0.514   1.990   2.274
 9182SOL    HW128445   0.490   2.024   2.365
 9182SOL    HW228446   0.454   1.914   2.250
 9183SOL     OW28447   1.865   1.708   6.333
 9183SOL    HW128448   1.935   1.779   6.334
 9183SOL    HW228449   1.795   1.731   6.266
 9184SOL     OW28450   3.732   3.254   0.528
 9184SOL    HW128451   3.811   3.198   0.554
 9184SOL    HW228452   3.652   3.223   0.579
 9185SOL     OW28453   1.561   0.632   6.426
 9185SOL    HW128454   1.534   0.726   6.407
 9185SOL    HW228455   1.620   0.599   6.352
 9186SOL     OW28456   4.827   0.435   6.380
 9186SOL    HW128457   4.923   0.407   6.387
 9186SOL    HW228458   4.768   0.362   6.415
 9187SOL     OW28459   5.448   2.364   1.035
 9187SOL    HW128460   5.458   2.357   0.936
 9187SOL    HW228461   5.352   2.380   1.058
 9188SOL     OW28462   1.757   0.280   1.607
 9188SOL    HW128463   1.754   0.370   1.563
 9188SOL    HW228464   1.853   0.252   1.618
 9189SOL     OW28465   4.106   0.853   5.827
 9189SOL    HW128466   4.158   0.785   5.878
 9189SOL    HW228467   4.058   0.914   5.890
 9190SOL     OW28468   4.696   1.194   5.266
 9190SOL    HW128469   4.709   1.131   5.343
 9190SOL    HW228470   4.600   1.193   5.238
 9191SOL     OW28471   5.503   6.958   1.765
 9191SOL    HW128472   5.494   0.038   1.787
 9191SOL    HW228473   5.596   6.940   1.735
 9192SOL     OW28474   4.916   3.449   4.061
 9192SOL    HW128475   4.893   3.500   4.144
 9192SOL    HW228476   4.893   3.352   4.074
 9193SOL     OW28477   4.025   3.230   3.488
 9193SOL    HW128478   4.009   3.199   3.394
 9193SOL    HW228479   3.949   3.286   3.518
 9194SOL     OW28480   3.801   5.002   2.539
 9194SOL    HW128481   3.703   4.980   2.537
 9194SOL    HW228482   3.822   5.055   2.621
 9195SOL     OW28483   0.930   2.627   2.981
 9195SOL    HW128484   0.891   2.676   2.903
 9195SOL    HW228485   0.870   2.552   3.007
 9196SOL     OW28486   5.212   6.733   4.094
 9196SOL    HW128487   5.262   6.816   4.071
 9196SOL    HW228488   5.118   6.740   4.058
 9197SOL     OW28489   4.241   1.354   6.141
 9197SOL    HW128490   4.258   1.442   6.185
 9197SOL    HW228491   4.185   1.297   6.201
 9198SOL     OW28492   6.122   2.267   5.508
 9198SOL    HW128493   6.193   2.200   5.483
 9198SOL    HW228494   6.048   2.264   5.441
 9199SOL     OW28495   1.463   2.738   6.198
 9199SOL    HW128496   1.394   2.807   6.218
 9199SOL    HW228497   1.423   2.646   6.207
 9200SOL     OW28498   5.332   5.965   0.825
 9200SOL    HW128499   5.308   5.899   0.754
 9200SOL    HW228500   5.329   6.058   0.788
 9201SOL     OW28501   0.928   4.308   2.519
 9201SOL    HW128502   0.927   4.405   2.495
 9201SOL    HW228503   0.872   4.257   2.454
 9202SOL     OW28504   2.528   6.063   3.955
 9202SOL    HW128505   2.619   6.033   3.928
 9202SOL    HW228506   2.460   5.998   3.922
 9203SOL     OW28507   5.125   0.673   0.279
 9203SOL    HW128508   5.070   0.627   0.348
 9203SOL    HW228509   5.098   0.641   0.188
 9204SOL     OW28510   5.269   4.409   2.703
 9204SOL    HW128511   5.208   4.401   2.624
 9204SOL    HW228512   5.217   4.392   2.787
 9205SOL     OW28513   4.837   2.664   1.982
 9205SOL    HW128514   4.817   2.566   1.978
 9205SOL    HW228515   4.796   2.703   2.064
 9206SOL     OW28516   6.583   6.080   4.109
 9206SOL    HW128517   6.608   6.149   4.041
 9206SOL    HW228518   6.664   6.027   4.133
 9207SOL     OW28519   4.156   6.010   6.590
 9207SOL    HW128520   4.173   5.949   6.668
 9207SOL    HW228521   4.165   6.105   6.620
 9208SOL     OW28522   4.343   4.105   1.680
 9208SOL    HW128523   4.364   4.158   1.762
 9208SOL    HW228524   4.268   4.148   1.630
 9209SOL     OW28525   4.041   0.586   2.878
 9209SOL    HW128526   4.059   0.645   2.799
 9209SOL    HW228527   4.002   0.642   2.952
 9210SOL     OW28528   1.580   6.658   0.382
 9210SOL    HW128529   1.489   6.699   0.388
 9210SOL    HW228530   1.649   6.725   0.407
 9211SOL     OW28531   4.908   1.269   6.287
 9211SOL    HW128532   4.920   1.308   6.379
 9211SOL    HW228533   4.844   1.192   6.292
 9212SOL     OW28534   5.461   4.087   5.306
 9212SOL    HW128535   5.401   4.009   5.287
 9212SOL    HW228536   5.507   4.115   5.222
 9213SOL     OW28537   6.438   6.487   2.005
 9213SOL    HW128538   6.456   6.486   2.103
 9213SOL    HW228539   6.351   6.533   1.989
 9214SOL     OW28540   2.008   2.361   5.701
 9214SOL    HW128541   2.066   2.311   5.765
 9214SOL    HW228542   1.965   2.439   5.747
 9215SOL     OW28543   0.206   3.356   3.261
 9215SOL    HW128544   0.123   3.383   3.211
 9215SOL    HW228545   0.199   3.259   3.286
 9216SOL     OW28546   2.386   6.019   3.543
 9216SOL    HW128547   2.441   5.957   3.599
 9216SOL    HW228548   2.445   6.090   3.505
 9217SOL     OW28549   3.946   1.607   6.632
 9217SOL    HW128550   4.018   1.673   6.609
 9217SOL    HW228551   3.871   1.617   6.567
 9218SOL     OW28552   5.517   5.461   6.512
 9218SOL    HW128553   5.423   5.478   6.483
 9218SOL    HW228554   5.519   5.448   6.612
 9219SOL     OW28555   3.020   2.424   5.599
 9219SOL    HW128556   3.105   2.408   5.549
 9219SOL    HW228557   2.949   2.452   5.535
 9220SOL     OW28558   0.177   6.444   3.238
 9220SOL    HW128559   0.275   6.427   3.226
 9220SOL    HW228560   0.138   6.370   3.293
 9221SOL     OW28561   2.951   1.336   1.169
 9221SOL    HW128562   2.870   1.364   1.221
 9221SOL    HW228563   2.985   1.413   1.116
 9222SOL     OW28564   1.904   3.915   4.476
 9222SOL    HW128565   1.864   3.907   4.385
 9222SOL    HW228566   1.939   4.008   4.489
 9223SOL     OW28567   7.005   3.379   4.771
 9223SOL    HW128568   6.980   3.396   4.676
 9223SOL    HW228569   6.967   3.291   4.799
 9224SOL     OW28570   2.274   5.163   3.006
 9224SOL    HW128571   2.355   5.161   3.065
 9224SOL    HW228572   2.295   5.118   2.919
 9225SOL     OW28573   5.854   5.875   5.932
 9225SOL    HW128574   5.801   5.790   5.933
 9225SOL    HW228575   5.907   5.882   6.016
 9226SOL     OW28576   1.237   0.723   6.662
 9226SOL    HW128577   1.197   0.692   6.575
 9226SOL    HW228578   1.319   0.670   6.682
 9227SOL     OW28579   2.824   3.931   0.137
 9227SOL    HW128580   2.912   3.973   0.159
 9227SOL    HW228581   2.837   3.856   0.072
 9228SOL     OW28582   3.792   2.889   5.101
 9228SOL    HW128583   3.850   2.830   5.158
 9228SOL    HW228584   3.840   2.975   5.083
 9229SOL     OW28585   6.870   5.257   0.643
 9229SOL    HW128586   6.836   5.238   0.550
 9229SOL    HW228587   6.899   5.352   0.649
 9230SOL     OW28588   4.265   1.166   4.891
 9230SOL    HW128589   4.354   1.202   4.864
 9230SOL    HW228590   4.229   1.107   4.819
 9231SOL     OW28591   6.143   5.738   1.816
 9231SOL    HW128592   6.118   5.661   1.875
 9231SOL    HW228593   6.218   5.789   1.858
 9232SOL     OW28594   0.948   5.053   2.066
 9232SOL    HW128595   0.881   5.032   2.138
 9232SOL    HW228596   0.952   5.152   2.052
 9233SOL     OW28597   1.109   6.463   5.660
 9233SOL    HW128598   1.209   6.452   5.661
 9233SOL    HW228599   1.074   6.442   5.569
 9234SOL     OW28600   2.440   3.703   6.184
 9234SOL    HW128601   2.460   3.633   6.253
 9234SOL    HW228602   2.464   3.793   6.219
 9235SOL     OW28603   2.011   2.305   3.407
 9235SOL    HW128604   2.002   2.298   3.308
 9235SOL    HW228605   2.008   2.213   3.447
 9236SOL     OW28606   1.724   3.313   6.223
 9236SOL    HW128607   1.692   3.218   6.222
 9236SOL    HW228608   1.790   3.325   6.298
 9237SOL     OW28609   6.286   5.780   2.818
 9237SOL    HW128610   6.322   5.696   2.777
 9237SOL    HW228611   6.360   5.847   2.826
 9238SOL     OW28612   1.852   2.687   4.462
 9238SOL    HW128613   1.912   2.767   4.476
 9238SOL    HW228614   1.789   2.679   4.538
 9239SOL     OW28615   0.887   5.002   6.251
 9239SOL    HW128616   0.862   4.906   6.261
 9239SOL    HW228617   0.985   5.014   6.269
 9240SOL     OW28618   4.335   1.947   3.604
 9240SOL    HW128619   4.291   1.986   3.686
 9240SOL    HW228620   4.405   1.882   3.633
 9241SOL     OW28621   5.278   0.015   0.383
 9241SOL    HW128622   5.192   6.995   0.350
 9241SOL    HW228623   5.270   0.115   0.392
 9242SOL     OW28624   1.788   2.437   1.214
 9242SOL    HW128625   1.817   2.368   1.147
 9242SOL    HW228626   1.748   2.515   1.165
 9243SOL     OW28627   1.744   0.360   6.955
 9243SOL    HW128628   1.757   0.315   6.868
 9243SOL    HW228629   1.660   0.326   6.998
 9244SOL     OW28630   3.143   6.100   5.929
 9244SOL    HW128631   3.198   6.060   6.002
 9244SOL    HW228632   3.086   6.029   5.887
 9245SOL     OW28633   1.734   5.407   2.617
 9245SOL    HW128634   1.660   5.384   2.555
 9245SOL    HW228635   1.817   5.426   2.565
 9246SOL     OW28636   4.741   6.263   6.729
 9246SOL    HW128637   4.820   6.273   6.668
 9246SOL    HW228638   4.676   6.336   6.712
 9247SOL     OW28639   3.911   6.368   2.663
 9247SOL    HW128640   3.966   6.298   2.708
 9247SOL    HW228641   3.928   6.366   2.565
 9248SOL     OW28642   2.360   0.557   6.458
 9248SOL    HW128643   2.435   0.534   6.520
 9248SOL    HW228644   2.395   0.612   6.382
 9249SOL     OW28645   2.520   6.769   0.233
 9249SOL    HW128646   2.581   6.772   0.312
 9249SOL    HW228647   2.574   6.769   0.149
 9250SOL     OW28648   0.329   2.947   3.533
 9250SOL    HW128649   0.412   2.952   3.589
 9250SOL    HW228650   0.256   2.904   3.587
 9251SOL     OW28651   3.517   1.776   1.125
 9251SOL    HW128652   3.577   1.851   1.098
 9251SOL    HW228653   3.428   1.811   1.153
 9252SOL     OW28654   5.715   1.324   4.793
 9252SOL    HW128655   5.670   1.376   4.864
 9252SOL    HW228656   5.807   1.298   4.823
 9253SOL     OW28657   1.690   5.447   4.826
 9253SOL    HW128658   1.611   5.498   4.860
 9253SOL    HW228659   1.768   5.463   4.886
 9254SOL     OW28660   6.901   5.099   2.460
 9254SOL    HW128661   6.845   5.039   2.402
 9254SOL    HW228662   6.994   5.102   2.424
 9255SOL     OW28663   6.451   4.567   0.653
 9255SOL    HW128664   6.538   4.537   0.694
 9255SOL    HW228665   6.376   4.541   0.714
 9256SOL     OW28666   3.101   6.404   1.015
 9256SOL    HW128667   3.143   6.316   0.995
 9256SOL    HW228668   3.017   6.414   0.962
 9257SOL     OW28669   5.619   5.431   4.361
 9257SOL    HW128670   5.647   5.335   4.371
 9257SOL    HW228671   5.622   5.456   4.264
 9258SOL     OW28672   3.880   5.672   1.432
 9258SOL    HW128673   3.943   5.687   1.356
 9258SOL    HW228674   3.915   5.599   1.491
 9259SOL     OW28675   0.638   2.190   6.767
 9259SOL    HW128676   0.668   2.140   6.686
 9259SOL    HW228677   0.607   2.125   6.837
 9260SOL     OW28678   4.971   3.907   4.299
 9260SOL    HW128679   5.067   3.894   4.276
 9260SOL    HW228680   4.960   3.994   4.348
 9261SOL     OW28681   1.846   1.888   1.561
 9261SOL    HW128682   1.792   1.828   1.502
 9261SOL    HW228683   1.924   1.925   1.509
 9262SOL     OW28684   6.520   6.269   5.856
 9262SOL    HW128685   6.552   6.332   5.785
 9262SOL    HW228686   6.421   6.259   5.850
 9263SOL     OW28687   1.893   4.739   3.126
 9263SOL    HW128688   1.992   4.744   3.122
 9263SOL    HW228689   1.862   4.652   3.088
 9264SOL     OW28690   5.780   4.310   6.560
 9264SOL    HW128691   5.847   4.381   6.538
 9264SOL    HW228692   5.822   4.242   6.621
 9265SOL     OW28693   5.520   1.088   1.634
 9265SOL    HW128694   5.463   1.052   1.708
 9265SOL    HW228695   5.510   1.029   1.553
 9266SOL     OW28696   1.614   4.372   0.554
 9266SOL    HW128697   1.654   4.281   0.542
 9266SOL    HW228698   1.516   4.364   0.569
 9267SOL     OW28699   0.241   1.185   4.094
 9267SOL    HW128700   0.264   1.165   4.189
 9267SOL    HW228701   0.151   1.148   4.072
 9268SOL     OW28702   0.334   0.148   1.508
 9268SOL    HW128703   0.387   0.147   1.593
 9268SOL    HW228704   0.329   0.242   1.473
 9269SOL     OW28705   3.729   1.015   6.801
 9269SOL    HW128706   3.717   1.097   6.745
 9269SOL    HW228707   3.644   0.997   6.851
 9270SOL     OW28708   2.639   0.583   6.236
 9270SOL    HW128709   2.612   0.679   6.231
 9270SOL    HW228710   2.718   0.567   6.176
 9271SOL     OW28711   1.359   5.231   5.201
 9271SOL    HW128712   1.402   5.226   5.291
 9271SOL    HW228713   1.410   5.175   5.137
 9272SOL     OW28714   6.059   6.542   5.973
 9272SOL    HW128715   6.068   6.464   5.911
 9272SOL    HW228716   6.038   6.624   5.920
 9273SOL     OW28717   5.429   3.669   3.474
 9273SOL    HW128718   5.472   3.579   3.478
 9273SOL    HW228719   5.411   3.702   3.566
 9274SOL     OW28720   0.639   3.420   0.888
 9274SOL    HW128721   0.629   3.497   0.952
 9274SOL    HW228722   0.638   3.455   0.794
 9275SOL     OW28723   5.813   0.910   0.758
 9275SOL    HW128724   5.865   0.825   0.757
 9275SOL    HW228725   5.861   0.979   0.704
 9276SOL     OW28726   2.727   5.061   0.160
 9276SOL    HW128727   2.818   5.041   0.124
 9276SOL    HW228728   2.708   5.159   0.151
 9277SOL     OW28729   4.702   4.803   2.454
 9277SOL    HW128730   4.783   4.835   2.404
 9277SOL    HW228731   4.725   4.723   2.508
 9278SOL     OW28732   0.567   6.999   5.518
 9278SOL    HW128733   0.575   7.012   5.419
 9278SOL    HW228734   0.493   6.935   5.537
 9279SOL     OW28735   3.304   5.860   2.031
 9279SOL    HW128736   3.258   5.873   1.944
 9279SOL    HW228737   3.351   5.772   2.032
 9280SOL     OW28738   1.837   5.781   3.041
 9280SOL    HW128739   1.905   5.849   3.071
 9280SOL    HW228740   1.876   5.689   3.051
 9281SOL     OW28741   1.682   5.432   1.069
 9281SOL    HW128742   1.735   5.352   1.043
 9281SOL    HW228743   1.594   5.403   1.106
 9282SOL     OW28744   3.078   0.017   4.895
 9282SOL    HW128745   3.031   6.989   4.820
 9282SOL    HW228746   3.048   0.112   4.901
 9283SOL     OW28747   4.430   6.814   0.872
 9283SOL    HW128748   4.473   6.724   0.864
 9283SOL    HW228749   4.410   6.850   0.780
 9284SOL     OW28750   4.016   4.606   6.203
 9284SOL    HW128751   3.953   4.600   6.280
 9284SOL    HW228752   3.991   4.539   6.134
 9285SOL     OW28753   0.227   5.928   2.993
 9285SOL    HW128754   0.299   5.863   2.971
 9285SOL    HW228755   0.236   6.009   2.935
 9286SOL     OW28756   4.238   0.046   1.933
 9286SOL    HW128757   4.254   0.119   1.998
 9286SOL    HW228758   4.235   0.083   1.840
 9287SOL     OW28759   4.461   3.635   5.905
 9287SOL    HW128760   4.470   3.722   5.856
 9287SOL    HW228761   4.383   3.584   5.866
 9288SOL     OW28762   3.527   1.808   1.985
 9288SOL    HW128763   3.626   1.805   1.981
 9288SOL    HW228764   3.497   1.901   2.007
 9289SOL     OW28765   5.122   6.720   0.761
 9289SOL    HW128766   5.191   6.763   0.703
 9289SOL    HW228767   5.167   6.662   0.829
 9290SOL     OW28768   6.319   1.366   3.938
 9290SOL    HW128769   6.248   1.304   3.971
 9290SOL    HW228770   6.280   1.431   3.873
 9291SOL     OW28771   0.615   3.683   5.890
 9291SOL    HW128772   0.671   3.716   5.966
 9291SOL    HW228773   0.652   3.719   5.804
 9292SOL     OW28774   0.704   0.998   6.351
 9292SOL    HW128775   0.608   1.004   6.379
 9292SOL    HW228776   0.742   1.090   6.347
 9293SOL     OW28777   4.938   2.151   4.647
 9293SOL    HW128778   4.901   2.211   4.717
 9293SOL    HW228779   4.915   2.056   4.669
 9294SOL     OW28780   4.834   6.967   6.298
 9294SOL    HW128781   4.845   0.008   6.218
 9294SOL    HW228782   4.922   6.927   6.322
 9295SOL     OW28783   6.214   1.432   4.447
 9295SOL    HW128784   6.284   1.478   4.500
 9295SOL    HW228785   6.229   1.450   4.349
 9296SOL     OW28786   2.147   5.254   5.678
 9296SOL    HW128787   2.160   5.163   5.638
 9296SOL    HW228788   2.228   5.280   5.730
 9297SOL     OW28789   6.748   5.290   2.247
 9297SOL    HW128790   6.671   5.350   2.269
 9297SOL    HW228791   6.828   5.344   2.221
 9298SOL     OW28792   1.253   3.708   6.445
 9298SOL    HW128793   1.338   3.758   6.426
 9298SOL    HW228794   1.187   3.728   6.373
 9299SOL     OW28795   2.356   2.370   4.814
 9299SOL    HW128796   2.430   2.407   4.871
 9299SOL    HW228797   2.395   2.312   4.743
 9300SOL     OW28798   2.492   6.016   4.430
 9300SOL    HW128799   2.487   6.078   4.352
 9300SOL    HW228800   2.465   6.064   4.514
 9301SOL     OW28801   0.404   4.328   4.279
 9301SOL    HW128802   0.394   4.379   4.194
 9301SOL    HW228803   0.470   4.254   4.267
 9302SOL     OW28804   2.065   4.142   4.504
 9302SOL    HW128805   2.034   4.182   4.417
 9302SOL    HW228806   2.114   4.212   4.556
 9303SOL     OW28807   2.359   4.350   0.093
 9303SOL    HW128808   2.336   4.289   0.169
 9303SOL    HW228809   2.332   4.444   0.116
 9304SOL     OW28810   5.252   5.507   6.453
 9304SOL    HW128811   5.223   5.585   6.398
 9304SOL    HW228812   5.206   5.424   6.421
 9305SOL     OW28813   1.585   2.030   1.305
 9305SOL    HW128814   1.582   2.130   1.305
 9305SOL    HW228815   1.536   1.995   1.385
 9306SOL     OW28816   0.191   6.307   4.818
 9306SOL    HW128817   0.140   6.320   4.903
 9306SOL    HW228818   0.194   6.393   4.768
 9307SOL     OW28819   1.991   3.748   1.037
 9307SOL    HW128820   1.939   3.817   0.987
 9307SOL    HW228821   1.954   3.739   1.130
 9308SOL     OW28822   2.174   3.213   1.811
 9308SOL    HW128823   2.217   3.273   1.879
 9308SOL    HW228824   2.215   3.122   1.815
 9309SOL     OW28825   4.935   5.346   6.403
 9309SOL    HW128826   5.002   5.325   6.331
 9309SOL    HW228827   4.901   5.260   6.442
 9310SOL     OW28828   5.916   5.596   6.254
 9310SOL    HW128829   5.977   5.517   6.251
 9310SOL    HW228830   5.895   5.620   6.348
 9311SOL     OW28831   4.787   4.400   0.772
 9311SOL    HW128832   4.816   4.466   0.842
 9311SOL    HW228833   4.748   4.450   0.694
 9312SOL     OW28834   0.366   2.817   2.750
 9312SOL    HW128835   0.457   2.857   2.740
 9312SOL    HW228836   0.368   2.748   2.823
 9313SOL     OW28837   0.655   0.832   2.327
 9313SOL    HW128838   0.649   0.748   2.381
 9313SOL    HW228839   0.564   0.860   2.299
 9314SOL     OW28840   5.329   4.807   1.160
 9314SOL    HW128841   5.298   4.726   1.210
 9314SOL    HW228842   5.372   4.871   1.223
 9315SOL     OW28843   5.528   6.349   6.147
 9315SOL    HW128844   5.566   6.271   6.197
 9315SOL    HW228845   5.432   6.331   6.125
 9316SOL     OW28846   4.814   0.113   6.823
 9316SOL    HW128847   4.822   0.126   6.724
 9316SOL    HW228848   4.753   0.182   6.861
 9317SOL     OW28849   3.045   5.979   3.498
 9317SOL    HW128850   3.112   6.038   3.455
 9317SOL    HW228851   2.998   5.925   3.428
 9318SOL     OW28852   4.056   6.747   2.040
 9318SOL    HW128853   3.995   6.817   2.076
 9318SOL    HW228854   4.119   6.717   2.113
 9319SOL     OW28855   4.411   1.914   0.307
 9319SOL    HW128856   4.311   1.907   0.296
 9319SOL    HW228857   4.456   1.877   0.226
 9320SOL     OW28858   6.827   6.509   6.930
 9320SOL    HW128859   6.861   6.603   6.921
 9320SOL    HW228860   6.888   6.447   6.881
 9321SOL     OW28861   0.875   3.082   4.522
 9321SOL    HW128862   0.847   3.170   4.560
 9321SOL    HW228863   0.837   3.008   4.576
 9322SOL     OW28864   5.322   3.105   0.057
 9322SOL    HW128865   5.279   3.036   0.115
 9322SOL    HW228866   5.373   3.060   7.001
 9323SOL     OW28867   0.849   2.289   5.962
 9323SOL    HW128868   0.869   2.364   5.899
 9323SOL    HW228869   0.887   2.310   6.052
 9324SOL     OW28870   0.482   4.330   1.416
 9324SOL    HW128871   0.579   4.312   1.404
 9324SOL    HW228872   0.437   4.251   1.457
 9325SOL     OW28873   0.520   4.749   3.620
 9325SOL    HW128874   0.444   4.688   3.601
 9325SOL    HW228875   0.606   4.698   3.619
 9326SOL     OW28876   4.512   4.106   0.732
 9326SOL    HW128877   4.428   4.158   0.719
 9326SOL    HW228878   4.586   4.147   0.678
 9327SOL     OW28879   2.724   1.228   3.263
 9327SOL    HW128880   2.709   1.138   3.304
 9327SOL    HW228881   2.803   1.272   3.307
 9328SOL     OW28882   2.168   1.021   3.715
 9328SOL    HW128883   2.115   1.045   3.797
 9328SOL    HW228884   2.186   0.922   3.716
 9329SOL     OW28885   0.203   5.619   6.966
 9329SOL    HW128886   0.261   5.641   6.888
 9329SOL    HW228887   0.138   5.547   6.940
 9330SOL     OW28888   0.311   6.431   0.481
 9330SOL    HW128889   0.248   6.383   0.420
 9330SOL    HW228890   0.266   6.446   0.570
 9331SOL     OW28891   2.163   3.873   4.252
 9331SOL    HW128892   2.147   3.784   4.209
 9331SOL    HW228893   2.215   3.861   4.336
 9332SOL     OW28894   6.248   5.277   0.613
 9332SOL    HW128895   6.197   5.213   0.555
 9332SOL    HW228896   6.200   5.288   0.700
 9333SOL     OW28897   2.951   3.918   1.113
 9333SOL    HW128898   2.995   3.951   1.197
 9333SOL    HW228899   2.912   3.995   1.063
 9334SOL     OW28900   6.197   6.047   5.773
 9334SOL    HW128901   6.181   6.033   5.675
 9334SOL    HW228902   6.261   5.977   5.806
 9335SOL     OW28903   1.024   3.794   1.545
 9335SOL    HW128904   1.031   3.865   1.476
 9335SOL    HW228905   0.939   3.743   1.532
 9336SOL     OW28906   5.531   0.489   5.872
 9336SOL    HW128907   5.465   0.442   5.929
 9336SOL    HW228908   5.512   0.470   5.776
 9337SOL     OW28909   2.601   1.298   5.655
 9337SOL    HW128910   2.605   1.339   5.564
 9337SOL    HW228911   2.587   1.199   5.647
 9338SOL     OW28912   5.591   6.130   0.161
 9338SOL    HW128913   5.516   6.191   0.135
 9338SOL    HW228914   5.652   6.177   0.224
 9339SOL     OW28915   0.105   3.745   5.528
 9339SOL    HW128916   0.178   3.796   5.573
 9339SOL    HW228917   0.095   3.777   5.434
 9340SOL     OW28918   2.757   4.898   1.631
 9340SOL    HW128919   2.768   4.986   1.584
 9340SOL    HW228920   2.846   4.864   1.660
 9341SOL     OW28921   5.266   4.847   6.428
 9341SOL    HW128922   5.267   4.882   6.521
 9341SOL    HW228923   5.262   4.924   6.364
 9342SOL     OW28924   2.945   0.479   4.578
 9342SOL    HW128925   2.950   0.381   4.563
 9342SOL    HW228926   3.033   0.522   4.559
 9343SOL     OW28927   4.853   3.704   0.856
 9343SOL    HW128928   4.791   3.742   0.924
 9343SOL    HW228929   4.939   3.679   0.900
 9344SOL     OW28930   5.828   0.535   5.412
 9344SOL    HW128931   5.853   0.499   5.322
 9344SOL    HW228932   5.816   0.634   5.407
 9345SOL     OW28933   0.162   4.538   0.236
 9345SOL    HW128934   0.084   4.580   0.282
 9345SOL    HW228935   0.169   4.442   0.262
 9346SOL     OW28936   5.685   6.846   1.933
 9346SOL    HW128937   5.710   6.761   1.887
 9346SOL    HW228938   5.602   6.883   1.892
 9347SOL     OW28939   4.096   6.063   1.369
 9347SOL    HW128940   4.174   6.004   1.348
 9347SOL    HW228941   4.015   6.007   1.384
 9348SOL     OW28942   2.367   5.586   1.687
 9348SOL    HW128943   2.296   5.648   1.654
 9348SOL    HW228944   2.454   5.606   1.642
 9349SOL     OW28945   6.835   6.166   1.736
 9349SOL    HW128946   6.842   6.250   1.789
 9349SOL    HW228947   6.926   6.137   1.707
 9350SOL     OW28948   6.369   0.718   0.036
 9350SOL    HW128949   6.397   0.624   0.056
 9350SOL    HW228950   6.383   0.738   6.957
 9351SOL     OW28951   4.229   3.007   5.590
 9351SOL    HW128952   4.293   2.933   5.610
 9351SOL    HW228953   4.146   2.970   5.548
 9352SOL     OW28954   2.853   3.113   6.513
 9352SOL    HW128955   2.854   3.192   6.451
 9352SOL    HW228956   2.844   3.029   6.459
 9353SOL     OW28957   0.464   3.426   1.330
 9353SOL    HW128958   0.425   3.472   1.250
 9353SOL    HW228959   0.501   3.337   1.302
 9354SOL     OW28960   5.023   1.463   1.915
 9354SOL    HW128961   5.088   1.395   1.881
 9354SOL    HW228962   4.988   1.517   1.838
 9355SOL     OW28963   6.445   1.286   3.048
 9355SOL    HW128964   6.464   1.247   3.138
 9355SOL    HW228965   6.529   1.288   2.994
 9356SOL     OW28966   4.934   4.318   2.651
 9356SOL    HW128967   4.993   4.326   2.571
 9356SOL    HW228968   4.852   4.265   2.626
 9357SOL     OW28969   3.345   3.372   0.570
 9357SOL    HW128970   3.396   3.289   0.592
 9357SOL    HW228971   3.369   3.402   0.477
 9358SOL     OW28972   5.289   4.168   2.028
 9358SOL    HW128973   5.350   4.194   2.102
 9358SOL    HW228974   5.303   4.229   1.950
 9359SOL     OW28975   5.277   4.450   5.791
 9359SOL    HW128976   5.204   4.427   5.727
 9359SOL    HW228977   5.363   4.459   5.741
 9360SOL     OW28978   1.320   0.233   5.316
 9360SOL    HW128979   1.390   0.219   5.385
 9360SOL    HW228980   1.362   0.262   5.230
 9361SOL     OW28981   2.280   1.180   2.307
 9361SOL    HW128982   2.354   1.223   2.358
 9361SOL    HW228983   2.242   1.245   2.241
 9362SOL     OW28984   1.546   1.677   2.863
 9362SOL    HW128985   1.634   1.680   2.910
 9362SOL    HW228986   1.524   1.582   2.841
 9363SOL     OW28987   2.545   6.839   1.848
 9363SOL    HW128988   2.487   6.875   1.775
 9363SOL    HW228989   2.629   6.801   1.808
 9364SOL     OW28990   5.490   5.230   1.049
 9364SOL    HW128991   5.518   5.144   1.007
 9364SOL    HW228992   5.506   5.227   1.147
 9365SOL     OW28993   1.820   1.119   5.051
 9365SOL    HW128994   1.725   1.116   5.020
 9365SOL    HW228995   1.866   1.198   5.012
 9366SOL     OW28996   2.739   1.375   1.642
 9366SOL    HW128997   2.717   1.312   1.717
 9366SOL    HW228998   2.831   1.410   1.654
 9367SOL     OW28999   6.554   6.009   3.669
 9367SOL    HW129000   6.476   6.037   3.614
 9367SOL    HW229001   6.522   5.969   3.755
 9368SOL     OW29002   4.231   2.859   1.200
 9368SOL    HW129003   4.260   2.767   1.225
 9368SOL    HW229004   4.160   2.891   1.262
 9369SOL     OW29005   0.065   2.240   5.502
 9369SOL    HW129006   0.083   2.230   5.404
 9369SOL    HW229007   0.138   2.295   5.543
 9370SOL     OW29008   5.999   6.821   3.297
 9370SOL    HW129009   6.014   6.873   3.213
 9370SOL    HW229010   5.901   6.817   3.317
 9371SOL     OW29011   1.332   6.765   0.481
 9371SOL    HW129012   1.265   6.766   0.407
 9371SOL    HW229013   1.302   6.827   0.554
 9372SOL     OW29014   6.552   6.406   6.495
 9372SOL    HW129015   6.532   6.362   6.407
 9372SOL    HW229016   6.619   6.352   6.545
 9373SOL     OW29017   4.629   2.016   4.063
 9373SOL    HW129018   4.582   1.928   4.059
 9373SOL    HW229019   4.620   2.062   3.975
 9374SOL     OW29020   5.129   3.983   0.489
 9374SOL    HW129021   5.193   3.908   0.473
 9374SOL    HW229022   5.038   3.946   0.509
 9375SOL     OW29023   0.654   1.437   3.697
 9375SOL    HW129024   0.686   1.507   3.761
 9375SOL    HW229025   0.732   1.397   3.649
 9376SOL     OW29026   2.020   2.581   2.557
 9376SOL    HW129027   1.934   2.593   2.507
 9376SOL    HW229028   2.043   2.484   2.561
 9377SOL     OW29029   5.983   5.417   2.708
 9377SOL    HW129030   6.040   5.351   2.659
 9377SOL    HW229031   6.041   5.482   2.757
 9378SOL     OW29032   2.961   6.010   1.060
 9378SOL    HW129033   2.946   5.925   1.009
 9378SOL    HW229034   2.971   6.086   0.995
 9379SOL     OW29035   5.937   4.343   5.455
 9379SOL    HW129036   6.020   4.360   5.401
 9379SOL    HW229037   5.860   4.330   5.394
 9380SOL     OW29038   5.893   6.011   6.403
 9380SOL    HW129039   5.861   6.032   6.310
 9380SOL    HW229040   5.856   6.078   6.466
 9381SOL     OW29041   2.850   0.842   0.219
 9381SOL    HW129042   2.934   0.826   0.167
 9381SOL    HW229043   2.778   0.781   0.186
 9382SOL     OW29044   5.009   2.136   2.349
 9382SOL    HW129045   4.943   2.146   2.274
 9382SOL    HW229046   5.020   2.224   2.395
 9383SOL     OW29047   5.483   5.705   5.867
 9383SOL    HW129048   5.514   5.674   5.958
 9383SOL    HW229049   5.390   5.673   5.852
 9384SOL     OW29050   4.538   5.953   1.959
 9384SOL    HW129051   4.465   5.906   2.008
 9384SOL    HW229052   4.529   6.052   1.973
 9385SOL     OW29053   3.843   1.564   3.532
 9385SOL    HW129054   3.776   1.511   3.481
 9385SOL    HW229055   3.926   1.575   3.476
 9386SOL     OW29056   3.756   0.357   4.503
 9386SOL    HW129057   3.822   0.334   4.575
 9386SOL    HW229058   3.719   0.448   4.519
 9387SOL     OW29059   4.170   0.129   0.343
 9387SOL    HW129060   4.225   0.199   0.389
 9387SOL    HW229061   4.097   0.173   0.291
 9388SOL     OW29062   6.933   0.114   2.710
 9388SOL    HW129063   6.871   0.191   2.724
 9388SOL    HW229064   7.004   0.139   2.644
 9389SOL     OW29065   3.007   0.665   6.548
 9389SOL    HW129066   3.096   0.701   6.578
 9389SOL    HW229067   3.014   0.567   6.535
 9390SOL     OW29068   3.160   6.485   2.464
 9390SOL    HW129069   3.175   6.554   2.393
 9390SOL    HW229070   3.220   6.407   2.449
 9391SOL     OW29071   0.968   0.977   5.410
 9391SOL    HW129072   0.972   0.906   5.481
 9391SOL    HW229073   1.040   0.962   5.343
 9392SOL     OW29074   1.399   6.344   4.123
 9392SOL    HW129075   1.386   6.282   4.046
 9392SOL    HW229076   1.497   6.361   4.136
 9393SOL     OW29077   3.777   2.224   5.563
 9393SOL    HW129078   3.825   2.165   5.628
 9393SOL    HW229079   3.772   2.316   5.600
 9394SOL     OW29080   5.248   2.242   2.212
 9394SOL    HW129081   5.197   2.166   2.251
 9394SOL    HW229082   5.336   2.251   2.259
 9395SOL     OW29083   1.915   2.545   6.877
 9395SOL    HW129084   1.816   2.542   6.861
 9395SOL    HW229085   1.962   2.557   6.789
 9396SOL     OW29086   6.675   0.292   6.846
 9396SOL    HW129087   6.726   0.344   6.915
 9396SOL    HW229088   6.713   0.200   6.838
 9397SOL     OW29089   3.263   0.759   0.866
 9397SOL    HW129090   3.255   0.685   0.933
 9397SOL    HW229091   3.212   0.734   0.784
 9398SOL     OW29092   2.640   1.997   6.942
 9398SOL    HW129093   2.674   2.055   7.016
 9398SOL    HW229094   2.551   2.033   6.911
 9399SOL     OW29095   6.840   0.776   5.357
 9399SOL    HW129096   6.876   0.813   5.271
 9399SOL    HW229097   6.908   0.716   5.398
 9400SOL     OW29098   5.287   2.186   3.371
 9400SOL    HW129099   5.284   2.224   3.464
 9400SOL    HW229100   5.223   2.111   3.364
 9401SOL     OW29101   3.005   0.396   2.954
 9401SOL    HW129102   2.973   0.312   2.909
 9401SOL    HW229103   3.031   0.462   2.884
 9402SOL     OW29104   2.224   5.533   6.708
 9402SOL    HW129105   2.182   5.510   6.796
 9402SOL    HW229106   2.312   5.577   6.724
 9403SOL     OW29107   5.336   1.477   4.157
 9403SOL    HW129108   5.310   1.562   4.204
 9403SOL    HW229109   5.332   1.401   4.222
 9404SOL     OW29110   0.285   4.447   5.984
 9404SOL    HW129111   0.296   4.393   6.067
 9404SOL    HW229112   0.187   4.454   5.962
 9405SOL     OW29113   6.233   7.009   1.120
 9405SOL    HW129114   6.247   6.979   1.026
 9405SOL    HW229115   6.199   0.085   1.121
 9406SOL     OW29116   6.934   1.128   5.746
 9406SOL    HW129117   6.878   1.065   5.693
 9406SOL    HW229118   6.984   1.188   5.684
 9407SOL     OW29119   3.305   6.479   3.270
 9407SOL    HW129120   3.334   6.399   3.218
 9407SOL    HW229121   3.339   6.562   3.226
 9408SOL     OW29122   3.779   1.653   6.428
 9408SOL    HW129123   3.684   1.629   6.408
 9408SOL    HW229124   3.834   1.643   6.345
 9409SOL     OW29125   5.472   4.024   3.123
 9409SOL    HW129126   5.506   4.020   3.217
 9409SOL    HW229127   5.475   4.119   3.091
 9410SOL     OW29128   4.868   6.246   2.812
 9410SOL    HW129129   4.877   6.329   2.868
 9410SOL    HW229130   4.933   6.251   2.735
 9411SOL     OW29131   4.854   5.499   1.076
 9411SOL    HW129132   4.796   5.564   1.027
 9411SOL    HW229133   4.882   5.538   1.164
 9412SOL     OW29134   6.414   2.549   1.136
 9412SOL    HW129135   6.482   2.570   1.206
 9412SOL    HW229136   6.460   2.525   1.051
 9413SOL     OW29137   3.629   6.277   5.205
 9413SOL    HW129138   3.583   6.199   5.248
 9413SOL    HW229139   3.726   6.278   5.232
 9414SOL     OW29140   2.574   1.582   1.595
 9414SOL    HW129141   2.484   1.567   1.637
 9414SOL    HW229142   2.630   1.500   1.608
 9415SOL     OW29143   2.892   0.639   2.459
 9415SOL    HW129144   2.867   0.731   2.489
 9415SOL    HW229145   2.915   0.641   2.362
 9416SOL     OW29146   0.618   2.306   1.395
 9416SOL    HW129147   0.568   2.373   1.340
 9416SOL    HW229148   0.649   2.350   1.480
 9417SOL     OW29149   1.857   6.609   4.779
 9417SOL    HW129150   1.781   6.570   4.833
 9417SOL    HW229151   1.885   6.543   4.709
 9418SOL     OW29152   3.679   4.650   0.726
 9418SOL    HW129153   3.693   4.625   0.631
 9418SOL    HW229154   3.636   4.740   0.732
 9419SOL     OW29155   3.477   6.239   5.547
 9419SOL    HW129156   3.572   6.216   5.530
 9419SOL    HW229157   3.455   6.325   5.502
 9420SOL     OW29158   0.734   1.587   3.924
 9420SOL    HW129159   0.754   1.497   3.962
 9420SOL    HW229160   0.817   1.624   3.882
 9421SOL     OW29161   1.646   4.757   5.209
 9421SOL    HW129162   1.601   4.790   5.292
 9421SOL    HW229163   1.661   4.658   5.217
 9422SOL     OW29164   4.239   1.877   2.036
 9422SOL    HW129165   4.336   1.897   2.030
 9422SOL    HW229166   4.216   1.845   2.128
 9423SOL     OW29167   4.777   1.165   4.985
 9423SOL    HW129168   4.796   1.227   4.908
 9423SOL    HW229169   4.714   1.210   5.049
 9424SOL     OW29170   3.087   6.439   4.329
 9424SOL    HW129171   3.046   6.529   4.344
 9424SOL    HW229172   3.156   6.422   4.399
 9425SOL     OW29173   1.164   4.095   3.868
 9425SOL    HW129174   1.129   4.157   3.938
 9425SOL    HW229175   1.097   4.088   3.793
 9426SOL     OW29176   3.449   6.580   0.288
 9426SOL    HW129177   3.521   6.642   0.256
 9426SOL    HW229178   3.415   6.525   0.211
 9427SOL     OW29179   3.108   5.014   4.207
 9427SOL    HW129180   3.030   5.069   4.176
 9427SOL    HW229181   3.073   4.932   4.254
 9428SOL     OW29182   5.138   6.533   2.772
 9428SOL    HW129183   5.158   6.502   2.865
 9428SOL    HW229184   5.158   6.460   2.708
 9429SOL     OW29185   0.341   3.607   2.264
 9429SOL    HW129186   0.335   3.695   2.218
 9429SOL    HW229187   0.249   3.576   2.289
 9430SOL     OW29188   6.079   6.903   2.044
 9430SOL    HW129189   6.041   6.816   2.076
 9430SOL    HW229190   6.160   6.886   1.988
 9431SOL     OW29191   6.968   4.559   1.882
 9431SOL    HW129192   6.891   4.604   1.928
 9431SOL    HW229193   6.997   4.480   1.936
 9432SOL     OW29194   6.463   6.836   4.625
 9432SOL    HW129195   6.397   6.910   4.614
 9432SOL    HW229196   6.492   6.804   4.535
 9433SOL     OW29197   2.714   4.672   4.771
 9433SOL    HW129198   2.659   4.749   4.803
 9433SOL    HW229199   2.800   4.668   4.823
 9434SOL     OW29200   5.266   5.594   2.856
 9434SOL    HW129201   5.278   5.525   2.926
 9434SOL    HW229202   5.234   5.551   2.771
 9435SOL     OW29203   1.270   0.684   4.529
 9435SOL    HW129204   1.183   0.687   4.579
 9435SOL    HW229205   1.253   0.699   4.432
 9436SOL     OW29206   2.209   2.614   6.944
 9436SOL    HW129207   2.113   2.617   6.919
 9436SOL    HW229208   2.223   2.545   7.015
 9437SOL     OW29209   0.702   5.111   4.002
 9437SOL    HW129210   0.645   5.165   4.064
 9437SOL    HW229211   0.728   5.025   4.047
 9438SOL     OW29212   1.522   6.373   2.024
 9438SOL    HW129213   1.476   6.297   1.978
 9438SOL    HW229214   1.612   6.343   2.056
 9439SOL     OW29215   0.410   2.680   1.495
 9439SOL    HW129216   0.460   2.646   1.415
 9439SOL    HW229217   0.344   2.750   1.467
 9440SOL     OW29218   4.765   6.264   5.748
 9440SOL    HW129219   4.665   6.267   5.746
 9440SOL    HW229220   4.799   6.243   5.656
 9441SOL     OW29221   1.445   4.868   5.073
 9441SOL    HW129222   1.531   4.830   5.107
 9441SOL    HW229223   1.457   4.966   5.057
 9442SOL     OW29224   0.650   3.956   1.619
 9442SOL    HW129225   0.698   3.921   1.699
 9442SOL    HW229226   0.645   3.885   1.549
 9443SOL     OW29227   1.762   3.526   1.816
 9443SOL    HW129228   1.662   3.522   1.826
 9443SOL    HW229229   1.796   3.436   1.790
 9444SOL     OW29230   6.984   3.285   6.697
 9444SOL    HW129231   7.017   3.327   6.782
 9444SOL    HW229232   6.946   3.195   6.717
 9445SOL     OW29233   5.732   3.388   1.393
 9445SOL    HW129234   5.671   3.463   1.419
 9445SOL    HW229235   5.793   3.368   1.470
 9446SOL     OW29236   6.310   5.334   1.341
 9446SOL    HW129237   6.374   5.291   1.405
 9446SOL    HW229238   6.316   5.433   1.349
 9447SOL     OW29239   5.869   2.465   1.591
 9447SOL    HW129240   5.928   2.406   1.535
 9447SOL    HW229241   5.892   2.452   1.687
 9448SOL     OW29242   6.420   6.379   0.320
 9448SOL    HW129243   6.435   6.320   0.241
 9448SOL    HW229244   6.495   6.366   0.386
 9449SOL     OW29245   6.905   5.371   5.796
 9449SOL    HW129246   6.902   5.432   5.875
 9449SOL    HW229247   6.812   5.343   5.772
 9450SOL     OW29248   3.021   4.816   4.387
 9450SOL    HW129249   2.939   4.763   4.366
 9450SOL    HW229250   3.005   4.872   4.468
 9451SOL     OW29251   4.286   4.618   6.112
 9451SOL    HW129252   4.201   4.599   6.161
 9451SOL    HW229253   4.360   4.561   6.150
 9452SOL     OW29254   2.531   4.192   1.330
 9452SOL    HW129255   2.431   4.198   1.333
 9452SOL    HW229256   2.569   4.230   1.414
 9453SOL     OW29257   3.323   5.133   1.854
 9453SOL    HW129258   3.247   5.099   1.909
 9453SOL    HW229259   3.409   5.106   1.897
 9454SOL     OW29260   2.382   2.738   5.087
 9454SOL    HW129261   2.367   2.829   5.047
 9454SOL    HW229262   2.446   2.745   5.164
 9455SOL     OW29263   3.188   1.667   2.162
 9455SOL    HW129264   3.213   1.745   2.219
 9455SOL    HW229265   3.092   1.643   2.179
 9456SOL     OW29266   1.467   3.014   1.339
 9456SOL    HW129267   1.514   3.096   1.308
 9456SOL    HW229268   1.531   2.954   1.386
 9457SOL     OW29269   6.974   3.744   0.838
 9457SOL    HW129270   0.033   3.784   0.788
 9457SOL    HW229271   7.001   3.654   0.873
 9458SOL     OW29272   6.979   5.695   5.062
 9458SOL    HW129273   7.004   5.635   4.986
 9458SOL    HW229274   6.958   5.639   5.143
 9459SOL     OW29275   5.636   5.629   1.508
 9459SOL    HW129276   5.669   5.681   1.587
 9459SOL    HW229277   5.694   5.549   1.494
 9460SOL     OW29278   0.711   2.314   5.498
 9460SOL    HW129279   0.620   2.351   5.479
 9460SOL    HW229280   0.780   2.380   5.469
 9461SOL     OW29281   1.431   0.898   3.233
 9461SOL    HW129282   1.365   0.842   3.183
 9461SOL    HW229283   1.388   0.934   3.316
 9462SOL     OW29284   0.618   3.035   2.951
 9462SOL    HW129285   0.599   3.133   2.953
 9462SOL    HW229286   0.543   2.986   2.996
 9463SOL     OW29287   5.084   1.512   0.768
 9463SOL    HW129288   5.104   1.500   0.670
 9463SOL    HW229289   5.090   1.424   0.814
 9464SOL     OW29290   5.135   0.195   6.197
 9464SOL    HW129291   5.110   0.219   6.291
 9464SOL    HW229292   5.167   0.101   6.194
 9465SOL     OW29293   5.954   0.728   4.037
 9465SOL    HW129294   5.950   0.710   3.939
 9465SOL    HW229295   6.041   0.695   4.073
 9466SOL     OW29296   2.849   2.662   6.787
 9466SOL    HW129297   2.792   2.638   6.709
 9466SOL    HW229298   2.868   2.760   6.785
 9467SOL     OW29299   2.011   3.355   1.993
 9467SOL    HW129300   2.090   3.416   1.991
 9467SOL    HW229301   2.003   3.308   1.905
 9468SOL     OW29302   7.012   2.726   5.488
 9468SOL    HW129303   0.082   2.704   5.446
 9468SOL    HW229304   0.001   2.714   5.587
 9469SOL     OW29305   6.508   5.009   1.958
 9469SOL    HW129306   6.553   4.971   1.877
 9469SOL    HW229307   6.565   5.082   1.997
 9470SOL     OW29308   5.195   4.167   1.179
 9470SOL    HW129309   5.280   4.219   1.171
 9470SOL    HW229310   5.201   4.085   1.123
 9471SOL     OW29311   6.646   1.901   6.201
 9471SOL    HW129312   6.669   1.917   6.297
 9471SOL    HW229313   6.690   1.817   6.169
 9472SOL     OW29314   6.772   3.896   4.181
 9472SOL    HW129315   6.806   3.934   4.095
 9472SOL    HW229316   6.707   3.823   4.162
 9473SOL     OW29317   3.469   5.517   5.248
 9473SOL    HW129318   3.429   5.552   5.332
 9473SOL    HW229319   3.477   5.590   5.181
 9474SOL     OW29320   4.112   5.084   2.368
 9474SOL    HW129321   4.061   5.061   2.450
 9474SOL    HW229322   4.048   5.099   2.292
 9475SOL     OW29323   2.203   3.275   1.068
 9475SOL    HW129324   2.164   3.346   1.126
 9475SOL    HW229325   2.213   3.310   0.974
 9476SOL     OW29326   3.658   3.907   5.512
 9476SOL    HW129327   3.697   3.989   5.471
 9476SOL    HW229328   3.649   3.920   5.611
 9477SOL     OW29329   1.550   2.777   1.022
 9477SOL    HW129330   1.524   2.734   1.108
 9477SOL    HW229331   1.483   2.755   0.952
 9478SOL     OW29332   5.412   4.484   5.276
 9478SOL    HW129333   5.413   4.584   5.287
 9478SOL    HW229334   5.495   4.455   5.229
 9479SOL     OW29335   6.381   5.849   6.044
 9479SOL    HW129336   6.311   5.903   6.091
 9479SOL    HW229337   6.468   5.857   6.093
 9480SOL     OW29338   5.958   4.810   0.108
 9480SOL    HW129339   6.002   4.800   0.019
 9480SOL    HW229340   5.905   4.728   0.129
 9481SOL     OW29341   0.072   3.447   2.059
 9481SOL    HW129342   7.005   3.427   2.010
 9481SOL    HW229343   0.141   3.379   2.036
 9482SOL     OW29344   4.338   0.676   3.052
 9482SOL    HW129345   4.397   0.610   3.005
 9482SOL    HW229346   4.385   0.763   3.063
 9483SOL     OW29347   1.676   2.055   6.773
 9483SOL    HW129348   1.601   2.066   6.838
 9483SOL    HW229349   1.737   2.134   6.780
 9484SOL     OW29350   6.563   1.435   3.328
 9484SOL    HW129351   6.515   1.454   3.414
 9484SOL    HW229352   6.567   1.337   3.313
 9485SOL     OW29353   0.873   0.290   3.010
 9485SOL    HW129354   0.917   0.380   3.011
 9485SOL    HW229355   0.900   0.239   3.092
 9486SOL     OW29356   2.956   5.768   2.129
 9486SOL    HW129357   3.007   5.693   2.088
 9486SOL    HW229358   3.004   5.800   2.211
 9487SOL     OW29359   3.179   2.953   3.831
 9487SOL    HW129360   3.171   3.000   3.742
 9487SOL    HW229361   3.211   2.859   3.816
 9488SOL     OW29362   1.751   7.017   1.021
 9488SOL    HW129363   1.706   6.928   1.017
 9488SOL    HW229364   1.691   0.065   1.065
 9489SOL     OW29365   3.592   4.207   0.614
 9489SOL    HW129366   3.569   4.304   0.617
 9489SOL    HW229367   3.526   4.155   0.669
 9490SOL     OW29368   5.363   1.404   0.830
 9490SOL    HW129369   5.316   1.372   0.912
 9490SOL    HW229370   5.362   1.504   0.827
 9491SOL     OW29371   5.778   5.355   6.518
 9491SOL    HW129372   5.692   5.353   6.467
 9491SOL    HW229373   5.791   5.445   6.560
 9492SOL     OW29374   3.031   3.919   1.861
 9492SOL    HW129375   2.991   4.007   1.837
 9492SOL    HW229376   2.995   3.889   1.950
 9493SOL     OW29377   5.009   6.156   3.203
 9493SOL    HW129378   4.982   6.244   3.165
 9493SOL    HW229379   5.057   6.170   3.290
 9494SOL     OW29380   4.008   3.313   5.522
 9494SOL    HW129381   3.917   3.335   5.557
 9494SOL    HW229382   4.068   3.286   5.598
 9495SOL     OW29383   5.695   2.396   5.429
 9495SOL    HW129384   5.712   2.398   5.527
 9495SOL    HW229385   5.704   2.488   5.391
 9496SOL     OW29386   5.510   4.136   6.824
 9496SOL    HW129387   5.438   4.139   6.893
 9496SOL    HW229388   5.597   4.111   6.867
 9497SOL     OW29389   6.259   6.042   6.194
 9497SOL    HW129390   6.305   6.049   6.283
 9497SOL    HW229391   6.243   6.134   6.158
 9498SOL     OW29392   4.592   0.160   5.884
 9498SOL    HW129393   4.612   0.213   5.802
 9498SOL    HW229394   4.525   0.209   5.940
 9499SOL     OW29395   4.377   4.173   5.812
 9499SOL    HW129396   4.306   4.194   5.745
 9499SOL    HW229397   4.430   4.255   5.832
 9500SOL     OW29398   5.607   6.066   1.804
 9500SOL    HW129399   5.562   6.147   1.840
 9500SOL    HW229400   5.556   5.984   1.831
 9501SOL     OW29401   3.510   2.095   4.622
 9501SOL    HW129402   3.459   2.107   4.707
 9501SOL    HW229403   3.447   2.081   4.546
 9502SOL     OW29404   5.884   3.275   5.668
 9502SOL    HW129405   5.972   3.228   5.679
 9502SOL    HW229406   5.861   3.281   5.571
 9503SOL     OW29407   2.027   6.770   1.233
 9503SOL    HW129408   1.934   6.794   1.260
 9503SOL    HW229409   2.060   6.695   1.290
 9504SOL     OW29410   0.920   2.767   6.792
 9504SOL    HW129411   0.824   2.753   6.819
 9504SOL    HW229412   0.978   2.698   6.836
 9505SOL     OW29413   5.826   3.236   2.901
 9505SOL    HW129414   5.776   3.254   2.815
 9505SOL    HW229415   5.919   3.272   2.893
 9506SOL     OW29416   6.158   4.000   0.410
 9506SOL    HW129417   6.108   3.971   0.329
 9506SOL    HW229418   6.095   4.004   0.488
 9507SOL     OW29419   1.260   2.104   3.748
 9507SOL    HW129420   1.243   2.087   3.651
 9507SOL    HW229421   1.343   2.056   3.776
 9508SOL     OW29422   5.585   2.233   0.368
 9508SOL    HW129423   5.609   2.178   0.448
 9508SOL    HW229424   5.540   2.317   0.397
 9509SOL     OW29425   2.515   6.778   5.363
 9509SOL    HW129426   2.610   6.802   5.385
 9509SOL    HW229427   2.455   6.855   5.387
 9510SOL     OW29428   6.078   4.528   3.006
 9510SOL    HW129429   6.004   4.461   3.009
 9510SOL    HW229430   6.157   4.488   2.959
 9511SOL     OW29431   0.712   1.367   0.922
 9511SOL    HW129432   0.781   1.308   0.965
 9511SOL    HW229433   0.660   1.315   0.855
 9512SOL     OW29434   1.316   2.352   3.848
 9512SOL    HW129435   1.282   2.262   3.821
 9512SOL    HW229436   1.249   2.422   3.824
 9513SOL     OW29437   2.344   4.296   3.983
 9513SOL    HW129438   2.401   4.277   3.903
 9513SOL    HW229439   2.340   4.214   4.041
 9514SOL     OW29440   2.025   3.301   6.236
 9514SOL    HW129441   1.969   3.373   6.194
 9514SOL    HW229442   2.112   3.294   6.187
 9515SOL     OW29443   2.039   5.566   6.493
 9515SOL    HW129444   2.047   5.655   6.449
 9515SOL    HW229445   2.100   5.563   6.572
 9516SOL     OW29446   5.158   3.601   3.997
 9516SOL    HW129447   5.152   3.697   3.972
 9516SOL    HW229448   5.067   3.561   4.000
 9517SOL     OW29449   0.249   5.579   2.182
 9517SOL    HW129450   0.238   5.523   2.100
 9517SOL    HW229451   0.267   5.520   2.261
 9518SOL     OW29452   0.886   2.630   6.038
 9518SOL    HW129453   0.924   2.629   6.131
 9518SOL    HW229454   0.831   2.712   6.025
 9519SOL     OW29455   3.458   3.361   2.784
 9519SOL    HW129456   3.538   3.416   2.809
 9519SOL    HW229457   3.474   3.317   2.695
 9520SOL     OW29458   5.892   0.752   5.716
 9520SOL    HW129459   5.850   0.781   5.630
 9520SOL    HW229460   5.884   0.825   5.784
 9521SOL     OW29461   3.880   0.379   1.072
 9521SOL    HW129462   3.889   0.469   1.116
 9521SOL    HW229463   3.839   0.315   1.136
 9522SOL     OW29464   3.605   6.554   2.615
 9522SOL    HW129465   3.695   6.565   2.657
 9522SOL    HW229466   3.544   6.507   2.678
 9523SOL     OW29467   2.904   4.966   3.956
 9523SOL    HW129468   2.898   5.023   4.038
 9523SOL    HW229469   2.814   4.926   3.937
 9524SOL     OW29470   2.508   3.953   0.964
 9524SOL    HW129471   2.570   3.881   0.996
 9524SOL    HW229472   2.535   4.041   1.004
 9525SOL     OW29473   2.027   3.271   5.336
 9525SOL    HW129474   2.085   3.191   5.323
 9525SOL    HW229475   2.025   3.325   5.252
 9526SOL     OW29476   5.074   5.159   6.996
 9526SOL    HW129477   5.013   5.152   6.917
 9526SOL    HW229478   5.041   5.098   0.051
 9527SOL     OW29479   4.310   0.354   3.227
 9527SOL    HW129480   4.319   0.263   3.186
 9527SOL    HW229481   4.215   0.385   3.216
 9528SOL     OW29482   5.788   2.117   1.231
 9528SOL    HW129483   5.824   2.087   1.143
 9528SOL    HW229484   5.716   2.054   1.261
 9529SOL     OW29485   6.395   0.877   1.334
 9529SOL    HW129486   6.472   0.828   1.374
 9529SOL    HW229487   6.340   0.919   1.406
 9530SOL     OW29488   0.944   5.380   4.222
 9530SOL    HW129489   0.884   5.359   4.145
 9530SOL    HW229490   0.975   5.294   4.264
 9531SOL     OW29491   3.644   5.407   2.522
 9531SOL    HW129492   3.594   5.435   2.604
 9531SOL    HW229493   3.733   5.370   2.549
 9532SOL     OW29494   6.551   5.370   2.705
 9532SOL    HW129495   6.555   5.418   2.793
 9532SOL    HW229496   6.640   5.374   2.660
 9533SOL     OW29497   2.172   4.009   3.211
 9533SOL    HW129498   2.161   4.057   3.124
 9533SOL    HW229499   2.167   3.910   3.196
 9534SOL     OW29500   5.278   4.620   4.586
 9534SOL    HW129501   5.236   4.692   4.641
 9534SOL    HW229502   5.294   4.540   4.643
 9535SOL     OW29503   0.952   1.257   5.507
 9535SOL    HW129504   0.894   1.186   5.548
 9535SOL    HW229505   1.031   1.214   5.464
 9536SOL     OW29506   3.930   3.808   5.108
 9536SOL    HW129507   3.862   3.743   5.141
 9536SOL    HW229508   4.021   3.781   5.141
 9537SOL     OW29509   0.745   0.993   3.563
 9537SOL    HW129510   0.660   1.037   3.535
 9537SOL    HW229511   0.733   0.894   3.561
 9538SOL     OW29512   4.345   0.665   5.263
 9538SOL    HW129513   4.349   0.686   5.165
 9538SOL    HW229514   4.266   0.711   5.304
 9539SOL     OW29515   3.500   3.272   2.523
 9539SOL    HW129516   3.426   3.332   2.493
 9539SOL    HW229517   3.532   3.216   2.447
 9540SOL     OW29518   4.755   4.723   3.587
 9540SOL    HW129519   4.732   4.819   3.574
 9540SOL    HW229520   4.842   4.703   3.539
 9541SOL     OW29521   1.997   5.488   5.276
 9541SOL    HW129522   2.060   5.423   5.233
 9541SOL    HW229523   1.978   5.459   5.369
 9542SOL     OW29524   6.165   4.188   4.245
 9542SOL    HW129525   6.102   4.110   4.249
 9542SOL    HW229526   6.252   4.159   4.206
 9543SOL     OW29527   2.433   0.361   5.725
 9543SOL    HW129528   2.461   0.442   5.673
 9543SOL    HW229529   2.503   0.340   5.793
 9544SOL     OW29530   5.433   3.498   4.078
 9544SOL    HW129531   5.348   3.481   4.128
 9544SOL    HW229532   5.416   3.491   3.980
 9545SOL     OW29533   1.441   4.291   1.381
 9545SOL    HW129534   1.409   4.198   1.364
 9545SOL    HW229535   1.528   4.305   1.333
 9546SOL     OW29536   2.508   2.451   6.780
 9546SOL    HW129537   2.488   2.440   6.877
 9546SOL    HW229538   2.591   2.400   6.757
 9547SOL     OW29539   4.158   6.089   4.351
 9547SOL    HW129540   4.120   6.051   4.435
 9547SOL    HW229541   4.171   6.188   4.361
 9548SOL     OW29542   1.091   4.798   0.044
 9548SOL    HW129543   1.023   4.756   7.001
 9548SOL    HW229544   1.055   4.883   0.081
 9549SOL     OW29545   4.848   3.096   1.307
 9549SOL    HW129546   4.906   3.152   1.248
 9549SOL    HW229547   4.807   3.153   1.378
 9550SOL     OW29548   5.586   3.104   1.417
 9550SOL    HW129549   5.640   3.170   1.469
 9550SOL    HW229550   5.494   3.098   1.456
 9551SOL     OW29551   6.547   2.575   6.573
 9551SOL    HW129552   6.477   2.628   6.525
 9551SOL    HW229553   6.576   2.625   6.655
 9552SOL     OW29554   2.893   2.108   6.867
 9552SOL    HW129555   2.871   2.061   6.781
 9552SOL    HW229556   2.976   2.068   6.906
 9553SOL     OW29557   5.432   1.614   6.757
 9553SOL    HW129558   5.472   1.703   6.778
 9553SOL    HW229559   5.506   1.546   6.749
 9554SOL     OW29560   2.452   6.618   3.539
 9554SOL    HW129561   2.384   6.659   3.601
 9554SOL    HW229562   2.509   6.554   3.591
 9555SOL     OW29563   6.408   0.644   3.955
 9555SOL    HW129564   6.320   0.678   3.987
 9555SOL    HW229565   6.409   0.544   3.958
 9556SOL     OW29566   2.012   4.599   0.268
 9556SOL    HW129567   2.013   4.504   0.236
 9556SOL    HW229568   1.967   4.657   0.201
 9557SOL     OW29569   4.947   0.128   1.534
 9557SOL    HW129570   5.015   0.171   1.474
 9557SOL    HW229571   4.877   0.195   1.558
 9558SOL     OW29572   4.901   6.355   6.399
 9558SOL    HW129573   4.910   6.448   6.436
 9558SOL    HW229574   4.934   6.289   6.466
 9559SOL     OW29575   1.406   4.247   0.237
 9559SOL    HW129576   1.471   4.180   0.272
 9559SOL    HW229577   1.454   4.312   0.179
 9560SOL     OW29578   3.586   0.097   2.006
 9560SOL    HW129579   3.504   0.053   2.040
 9560SOL    HW229580   3.633   0.143   2.081
 9561SOL     OW29581   0.603   1.237   0.703
 9561SOL    HW129582   0.534   1.308   0.718
 9561SOL    HW229583   0.559   1.153   0.672
 9562SOL     OW29584   3.191   5.889   3.701
 9562SOL    HW129585   3.128   5.914   3.627
 9562SOL    HW229586   3.141   5.840   3.772
 9563SOL     OW29587   0.688   6.019   1.207
 9563SOL    HW129588   0.686   6.066   1.118
 9563SOL    HW229589   0.652   5.927   1.196
 9564SOL     OW29590   1.199   0.281   0.016
 9564SOL    HW129591   1.181   0.377   0.039
 9564SOL    HW229592   1.243   0.276   6.944
 9565SOL     OW29593   2.801   1.518   3.845
 9565SOL    HW129594   2.837   1.589   3.784
 9565SOL    HW229595   2.813   1.428   3.802
 9566SOL     OW29596   2.661   0.302   0.483
 9566SOL    HW129597   2.601   0.273   0.558
 9566SOL    HW229598   2.607   0.320   0.401
 9567SOL     OW29599   6.590   4.115   1.137
 9567SOL    HW129600   6.548   4.125   1.227
 9567SOL    HW229601   6.594   4.204   1.092
 9568SOL     OW29602   4.863   1.326   6.875
 9568SOL    HW129603   4.884   1.363   6.785
 9568SOL    HW229604   4.867   1.400   6.943
 9569SOL     OW29605   5.167   0.958   2.184
 9569SOL    HW129606   5.227   1.038   2.190
 9569SOL    HW229607   5.134   0.934   2.275
 9570SOL     OW29608   0.240   3.100   1.286
 9570SOL    HW129609   0.190   3.104   1.200
 9570SOL    HW229610   0.336   3.122   1.270
 9571SOL     OW29611   3.036   1.807   6.707
 9571SOL    HW129612   2.958   1.870   6.717
 9571SOL    HW229613   3.003   1.717   6.679
 9572SOL     OW29614   2.190   4.057   3.867
 9572SOL    HW129615   2.098   4.021   3.876
 9572SOL    HW229616   2.244   4.032   3.948
 9573SOL     OW29617   6.246   1.199   4.604
 9573SOL    HW129618   6.265   1.112   4.558
 9573SOL    HW229619   6.245   1.273   4.537
 9574SOL     OW29620   3.438   3.315   1.398
 9574SOL    HW129621   3.537   3.325   1.398
 9574SOL    HW229622   3.396   3.403   1.378
 9575SOL     OW29623   6.306   6.434   1.419
 9575SOL    HW129624   6.374   6.392   1.479
 9575SOL    HW229625   6.216   6.429   1.462
 9576SOL     OW29626   0.917   6.663   6.986
 9576SOL    HW129627   1.004   6.711   6.975
 9576SOL    HW229628   0.881   6.680   0.060
 9577SOL     OW29629   6.301   5.315   1.918
 9577SOL    HW129630   6.265   5.331   1.826
 9577SOL    HW229631   6.275   5.391   1.977
 9578SOL     OW29632   1.970   2.587   3.075
 9578SOL    HW129633   1.930   2.670   3.037
 9578SOL    HW229634   2.069   2.586   3.058
 9579SOL     OW29635   5.848   6.149   2.166
 9579SOL    HW129636   5.890   6.123   2.079
 9579SOL    HW229637   5.912   6.133   2.241
 9580SOL     OW29638   4.992   4.862   2.725
 9580SOL    HW129639   4.944   4.786   2.768
 9580SOL    HW229640   5.045   4.828   2.648
 9581SOL     OW29641   6.322   1.376   6.967
 9581SOL    HW129642   6.319   1.417   6.876
 9581SOL    HW229643   6.318   1.276   6.958
 9582SOL     OW29644   4.920   6.249   4.079
 9582SOL    HW129645   4.900   6.165   4.130
 9582SOL    HW229646   4.857   6.255   4.000
 9583SOL     OW29647   3.458   4.563   1.620
 9583SOL    HW129648   3.500   4.603   1.702
 9583SOL    HW229649   3.361   4.589   1.618
 9584SOL     OW29650   2.287   5.008   4.631
 9584SOL    HW129651   2.357   5.055   4.576
 9584SOL    HW229652   2.249   5.071   4.698
 9585SOL     OW29653   4.510   5.601   1.884
 9585SOL    HW129654   4.503   5.676   1.950
 9585SOL    HW229655   4.581   5.621   1.817
 9586SOL     OW29656   4.850   4.754   2.080
 9586SOL    HW129657   4.758   4.723   2.057
 9586SOL    HW229658   4.915   4.723   2.011
 9587SOL     OW29659   2.577   6.125   1.893
 9587SOL    HW129660   2.589   6.155   1.988
 9587SOL    HW229661   2.659   6.077   1.862
 9588SOL     OW29662   6.529   5.599   0.501
 9588SOL    HW129663   6.481   5.685   0.482
 9588SOL    HW229664   6.609   5.592   0.441
 9589SOL     OW29665   1.804   3.746   6.262
 9589SOL    HW129666   1.878   3.710   6.319
 9589SOL    HW229667   1.826   3.838   6.233
 9590SOL     OW29668   5.370   1.572   2.110
 9590SOL    HW129669   5.310   1.633   2.163
 9590SOL    HW229670   5.422   1.514   2.172
 9591SOL     OW29671   3.563   0.391   6.426
 9591SOL    HW129672   3.558   0.307   6.373
 9591SOL    HW229673   3.557   0.470   6.365
 9592SOL     OW29674   2.371   5.121   6.021
 9592SOL    HW129675   2.351   5.192   5.953
 9592SOL    HW229676   2.452   5.147   6.074
 9593SOL     OW29677   1.744   1.796   4.635
 9593SOL    HW129678   1.786   1.847   4.559
 9593SOL    HW229679   1.810   1.787   4.709
 9594SOL     OW29680   0.394   6.226   4.113
 9594SOL    HW129681   0.467   6.290   4.089
 9594SOL    HW229682   0.340   6.205   4.032
 9595SOL     OW29683   0.290   3.528   3.731
 9595SOL    HW129684   0.211   3.515   3.791
 9595SOL    HW229685   0.364   3.571   3.783
 9596SOL     OW29686   0.514   6.509   0.771
 9596SOL    HW129687   0.566   6.544   0.694
 9596SOL    HW229688   0.502   6.410   0.761
 9597SOL     OW29689   0.695   4.014   2.597
 9597SOL    HW129690   0.711   4.035   2.501
 9597SOL    HW229691   0.764   3.949   2.630
 9598SOL     OW29692   1.119   3.982   3.142
 9598SOL    HW129693   1.155   3.965   3.234
 9598SOL    HW229694   1.068   3.901   3.111
 9599SOL     OW29695   3.387   6.871   3.592
 9599SOL    HW129696   3.416   6.779   3.564
 9599SOL    HW229697   3.465   6.920   3.631
 9600SOL     OW29698   3.217   0.441   1.294
 9600SOL    HW129699   3.136   0.383   1.303
 9600SOL    HW229700   3.293   0.400   1.344
 9601SOL     OW29701   6.525   4.307   1.538
 9601SOL    HW129702   6.593   4.373   1.505
 9601SOL    HW229703   6.506   4.325   1.635
 9602SOL     OW29704   4.621   4.149   5.516
 9602SOL    HW129705   4.593   4.119   5.425
 9602SOL    HW229706   4.652   4.071   5.570
 9603SOL     OW29707   5.797   5.697   5.261
 9603SOL    HW129708   5.840   5.697   5.171
 9603SOL    HW229709   5.746   5.782   5.274
 9604SOL     OW29710   5.265   0.121   0.767
 9604SOL    HW129711   5.189   0.178   0.737
 9604SOL    HW229712   5.257   0.030   0.726
 9605SOL     OW29713   6.489   6.465   3.375
 9605SOL    HW129714   6.489   6.485   3.473
 9605SOL    HW229715   6.551   6.388   3.357
 9606SOL     OW29716   1.550   1.576   6.289
 9606SOL    HW129717   1.609   1.514   6.341
 9606SOL    HW229718   1.455   1.547   6.296
 9607SOL     OW29719   3.218   3.049   6.060
 9607SOL    HW129720   3.148   3.089   6.000
 9607SOL    HW229721   3.177   3.030   6.150
 9608SOL     OW29722   6.504   3.928   3.333
 9608SOL    HW129723   6.456   3.870   3.267
 9608SOL    HW229724   6.502   4.023   3.302
 9609SOL     OW29725   3.927   2.382   6.202
 9609SOL    HW129726   3.955   2.311   6.267
 9609SOL    HW229727   3.969   2.469   6.227
 9610SOL     OW29728   1.624   4.064   2.607
 9610SOL    HW129729   1.650   4.160   2.619
 9610SOL    HW229730   1.706   4.008   2.599
 9611SOL     OW29731   1.450   0.593   0.570
 9611SOL    HW129732   1.406   0.682   0.583
 9611SOL    HW229733   1.540   0.606   0.528
 9612SOL     OW29734   0.884   2.944   2.970
 9612SOL    HW129735   0.956   3.010   2.992
 9612SOL    HW229736   0.795   2.982   2.996
 9613SOL     OW29737   5.736   5.363   3.245
 9613SOL    HW129738   5.826   5.371   3.286
 9613SOL    HW229739   5.722   5.269   3.212
 9614SOL     OW29740   5.265   1.980   2.953
 9614SOL    HW129741   5.345   1.950   2.901
 9614SOL    HW229742   5.278   2.075   2.982
 9615SOL     OW29743   2.184   2.769   1.278
 9615SOL    HW129744   2.217   2.693   1.221
 9615SOL    HW229745   2.165   2.848   1.220
 9616SOL     OW29746   3.234   2.871   6.788
 9616SOL    HW129747   3.208   2.938   6.719
 9616SOL    HW229748   3.187   2.891   6.873
 9617SOL     OW29749   2.442   2.490   4.164
 9617SOL    HW129750   2.411   2.396   4.177
 9617SOL    HW229751   2.368   2.553   4.187
 9618SOL     OW29752   3.196   1.037   0.777
 9618SOL    HW129753   3.266   1.100   0.809
 9618SOL    HW229754   3.220   0.943   0.803
 9619SOL     OW29755   2.412   1.220   4.764
 9619SOL    HW129756   2.321   1.223   4.721
 9619SOL    HW229757   2.450   1.129   4.754
 9620SOL     OW29758   5.984   6.915   5.206
 9620SOL    HW129759   5.986   7.001   5.154
 9620SOL    HW229760   6.077   6.891   5.233
 9621SOL     OW29761   1.847   2.496   2.798
 9621SOL    HW129762   1.929   2.549   2.823
 9621SOL    HW229763   1.792   2.480   2.880
 9622SOL     OW29764   5.795   0.837   1.352
 9622SOL    HW129765   5.885   0.811   1.387
 9622SOL    HW229766   5.787   0.808   1.256
 9623SOL     OW29767   3.472   3.384   6.424
 9623SOL    HW129768   3.460   3.285   6.419
 9623SOL    HW229769   3.456   3.424   6.334
 9624SOL     OW29770   6.084   3.164   3.428
 9624SOL    HW129771   6.111   3.069   3.414
 9624SOL    HW229772   5.992   3.179   3.389
 9625SOL     OW29773   6.569   6.122   0.400
 9625SOL    HW129774   6.644   6.058   0.419
 9625SOL    HW229775   6.559   6.185   0.477
 9626SOL     OW29776   3.889   6.076   6.794
 9626SOL    HW129777   3.852   6.130   6.718
 9626SOL    HW229778   3.901   5.981   6.765
 9627SOL     OW29779   1.404   6.662   6.543
 9627SOL    HW129780   1.378   6.713   6.462
 9627SOL    HW229781   1.452   6.722   6.606
 9628SOL     OW29782   4.490   5.854   1.611
 9628SOL    HW129783   4.566   5.913   1.640
 9628SOL    HW229784   4.421   5.850   1.683
 9629SOL     OW29785   2.917   6.503   1.628
 9629SOL    HW129786   2.964   6.557   1.558
 9629SOL    HW229787   2.955   6.411   1.630
 9630SOL     OW29788   6.398   0.855   5.609
 9630SOL    HW129789   6.339   0.804   5.671
 9630SOL    HW229790   6.478   0.799   5.586
 9631SOL     OW29791   6.338   6.243   6.738
 9631SOL    HW129792   6.256   6.245   6.680
 9631SOL    HW229793   6.336   6.321   6.801
 9632SOL     OW29794   1.529   6.575   1.561
 9632SOL    HW129795   1.473   6.657   1.550
 9632SOL    HW229796   1.601   6.592   1.628
 9633SOL     OW29797   6.481   5.407   6.216
 9633SOL    HW129798   6.387   5.440   6.209
 9633SOL    HW229799   6.496   5.367   6.307
 9634SOL     OW29800   1.008   6.416   4.744
 9634SOL    HW129801   1.060   6.495   4.711
 9634SOL    HW229802   1.045   6.387   4.832
 9635SOL     OW29803   2.545   5.201   5.257
 9635SOL    HW129804   2.497   5.286   5.279
 9635SOL    HW229805   2.480   5.125   5.253
 9636SOL     OW29806   4.190   0.958   5.587
 9636SOL    HW129807   4.263   1.019   5.555
 9636SOL    HW229808   4.188   0.959   5.687
 9637SOL     OW29809   2.118   1.568   6.779
 9637SOL    HW129810   2.040   1.546   6.836
 9637SOL    HW229811   2.198   1.518   6.811
 9638SOL     OW29812   6.329   2.250   5.092
 9638SOL    HW129813   6.339   2.187   5.014
 9638SOL    HW229814   6.404   2.316   5.091
 9639SOL     OW29815   4.203   1.336   2.490
 9639SOL    HW129816   4.279   1.378   2.440
 9639SOL    HW229817   4.139   1.407   2.519
 9640SOL     OW29818   2.328   2.276   2.765
 9640SOL    HW129819   2.234   2.296   2.736
 9640SOL    HW229820   2.387   2.353   2.742
 9641SOL     OW29821   6.622   5.962   0.100
 9641SOL    HW129822   6.558   6.006   0.036
 9641SOL    HW229823   6.612   6.002   0.191
 9642SOL     OW29824   3.192   0.535   4.505
 9642SOL    HW129825   3.243   0.458   4.545
 9642SOL    HW229826   3.187   0.523   4.406
 9643SOL     OW29827   4.595   4.400   3.785
 9643SOL    HW129828   4.522   4.440   3.840
 9643SOL    HW229829   4.681   4.444   3.806
 9644SOL     OW29830   1.936   2.207   6.208
 9644SOL    HW129831   1.854   2.151   6.194
 9644SOL    HW229832   1.934   2.245   6.301
 9645SOL     OW29833   3.107   5.191   4.692
 9645SOL    HW129834   3.071   5.193   4.598
 9645SOL    HW229835   3.188   5.132   4.695
 9646SOL     OW29836   4.147   4.708   2.542
 9646SOL    HW129837   4.062   4.737   2.499
 9646SOL    HW229838   4.174   4.619   2.506
 9647SOL     OW29839   6.559   3.135   0.594
 9647SOL    HW129840   6.515   3.178   0.673
 9647SOL    HW229841   6.537   3.038   0.592
 9648SOL     OW29842   4.748   2.882   0.912
 9648SOL    HW129843   4.741   2.891   1.011
 9648SOL    HW229844   4.832   2.833   0.889
 9649SOL     OW29845   2.233   6.006   0.837
 9649SOL    HW129846   2.174   5.928   0.860
 9649SOL    HW229847   2.185   6.091   0.859
 9650SOL     OW29848   6.868   6.395   1.887
 9650SOL    HW129849   6.962   6.392   1.853
 9650SOL    HW229850   6.859   6.471   1.952
 9651SOL     OW29851   0.475   1.359   6.009
 9651SOL    HW129852   0.416   1.326   5.936
 9651SOL    HW229853   0.507   1.451   5.987
 9652SOL     OW29854   0.559   5.526   2.974
 9652SOL    HW129855   0.523   5.484   2.890
 9652SOL    HW229856   0.659   5.519   2.974
 9653SOL     OW29857   5.659   5.163   4.430
 9653SOL    HW129858   5.709   5.175   4.516
 9653SOL    HW229859   5.564   5.140   4.449
 9654SOL     OW29860   2.211   2.674   2.026
 9654SOL    HW129861   2.171   2.766   2.032
 9654SOL    HW229862   2.140   2.607   2.006
 9655SOL     OW29863   6.532   2.224   7.001
 9655SOL    HW129864   6.437   2.196   6.998
 9655SOL    HW229865   6.573   2.211   6.910
 9656SOL     OW29866   3.597   0.808   2.729
 9656SOL    HW129867   3.660   0.864   2.782
 9656SOL    HW229868   3.638   0.786   2.641
 9657SOL     OW29869   6.771   0.248   4.566
 9657SOL    HW129870   6.832   0.218   4.638
 9657SOL    HW229871   6.676   0.233   4.594
 9658SOL     OW29872   6.323   2.632   2.323
 9658SOL    HW129873   6.290   2.556   2.378
 9658SOL    HW229874   6.266   2.643   2.242
 9659SOL     OW29875   0.470   4.570   7.016
 9659SOL    HW129876   0.544   4.532   0.054
 9659SOL    HW229877   0.393   4.593   0.058
 9660SOL     OW29878   0.505   5.391   0.004
 9660SOL    HW129879   0.500   5.296   0.036
 9660SOL    HW229880   0.517   5.392   6.923
 9661SOL     OW29881   4.191   6.551   1.176
 9661SOL    HW129882   4.130   6.561   1.097
 9661SOL    HW229883   4.273   6.605   1.161
 9662SOL     OW29884   6.125   0.771   4.577
 9662SOL    HW129885   6.172   0.724   4.651
 9662SOL    HW229886   6.033   0.798   4.608
 9663SOL     OW29887   2.305   5.386   2.241
 9663SOL    HW129888   2.304   5.287   2.228
 9663SOL    HW229889   2.399   5.417   2.254
 9664SOL     OW29890   3.124   6.409   2.159
 9664SOL    HW129891   3.054   6.375   2.222
 9664SOL    HW229892   3.143   6.505   2.180
 9665SOL     OW29893   5.514   4.213   4.498
 9665SOL    HW129894   5.485   4.243   4.407
 9665SOL    HW229895   5.572   4.132   4.489
 9666SOL     OW29896   5.525   4.521   4.012
 9666SOL    HW129897   5.425   4.522   4.006
 9666SOL    HW229898   5.554   4.447   4.073
 9667SOL     OW29899   4.039   3.082   4.047
 9667SOL    HW129900   4.032   3.104   3.950
 9667SOL    HW229901   4.082   3.158   4.095
 9668SOL     OW29902   0.594   0.726   5.644
 9668SOL    HW129903   0.656   0.687   5.576
 9668SOL    HW229904   0.624   0.819   5.668
 9669SOL     OW29905   1.547   5.907   0.708
 9669SOL    HW129906   1.536   5.868   0.799
 9669SOL    HW229907   1.473   5.876   0.648
 9670SOL     OW29908   5.524   5.331   0.127
 9670SOL    HW129909   5.484   5.345   0.217
 9670SOL    HW229910   5.484   5.249   0.086
 9671SOL     OW29911   6.668   6.529   5.961
 9671SOL    HW129912   6.613   6.573   6.032
 9671SOL    HW229913   6.619   6.449   5.926
 9672SOL     OW29914   0.532   6.540   4.736
 9672SOL    HW129915   0.500   6.492   4.818
 9672SOL    HW229916   0.460   6.603   4.705
 9673SOL     OW29917   2.917   3.567   6.373
 9673SOL    HW129918   2.922   3.647   6.314
 9673SOL    HW229919   2.908   3.597   6.468
 9674SOL     OW29920   3.274   6.646   2.644
 9674SOL    HW129921   3.331   6.586   2.700
 9674SOL    HW229922   3.228   6.592   2.574
 9675SOL     OW29923   6.600   2.710   2.214
 9675SOL    HW129924   6.533   2.716   2.288
 9675SOL    HW229925   6.687   2.748   2.244
 9676SOL     OW29926   6.951   3.411   4.511
 9676SOL    HW129927   6.989   3.503   4.501
 9676SOL    HW229928   7.014   3.344   4.473
 9677SOL     OW29929   1.748   3.457   5.663
 9677SOL    HW129930   1.712   3.528   5.603
 9677SOL    HW229931   1.788   3.384   5.609
 9678SOL     OW29932   3.158   3.507   3.247
 9678SOL    HW129933   3.157   3.450   3.329
 9678SOL    HW229934   3.248   3.500   3.203
 9679SOL     OW29935   1.059   3.393   1.972
 9679SOL    HW129936   1.156   3.388   1.950
 9679SOL    HW229937   1.026   3.302   1.999
 9680SOL     OW29938   5.815   5.751   3.455
 9680SOL    HW129939   5.848   5.695   3.531
 9680SOL    HW229940   5.762   5.693   3.392
 9681SOL     OW29941   1.823   0.596   2.830
 9681SOL    HW129942   1.737   0.643   2.849
 9681SOL    HW229943   1.807   0.498   2.821
 9682SOL     OW29944   6.100   4.058   2.961
 9682SOL    HW129945   6.054   4.133   2.914
 9682SOL    HW229946   6.126   3.987   2.895
 9683SOL     OW29947   4.831   5.769   6.924
 9683SOL    HW129948   4.900   5.712   6.879
 9683SOL    HW229949   4.857   5.865   6.917
 9684SOL     OW29950   1.577   3.643   4.128
 9684SOL    HW129951   1.479   3.660   4.131
 9684SOL    HW229952   1.594   3.544   4.125
 9685SOL     OW29953   2.045   2.446   0.098
 9685SOL    HW129954   2.077   2.532   0.139
 9685SOL    HW229955   2.012   2.464   0.005
 9686SOL     OW29956   5.981   0.994   1.623
 9686SOL    HW129957   5.957   1.062   1.554
 9686SOL    HW229958   5.913   0.996   1.697
 9687SOL     OW29959   3.338   0.330   3.702
 9687SOL    HW129960   3.336   0.250   3.761
 9687SOL    HW229961   3.363   0.302   3.609
 9688SOL     OW29962   0.307   1.363   2.986
 9688SOL    HW129963   0.402   1.342   3.010
 9688SOL    HW229964   0.295   1.462   2.979
 9689SOL     OW29965   2.356   5.991   6.020
 9689SOL    HW129966   2.379   5.912   6.077
 9689SOL    HW229967   2.258   6.008   6.024
 9690SOL     OW29968   6.163   4.506   1.310
 9690SOL    HW129969   6.198   4.484   1.401
 9690SOL    HW229970   6.171   4.426   1.251
 9691SOL     OW29971   1.920   4.176   1.936
 9691SOL    HW129972   1.924   4.167   2.036
 9691SOL    HW229973   1.837   4.225   1.910
 9692SOL     OW29974   2.658   5.579   1.271
 9692SOL    HW129975   2.696   5.670   1.257
 9692SOL    HW229976   2.700   5.515   1.207
 9693SOL     OW29977   6.287   5.913   1.604
 9693SOL    HW129978   6.228   5.868   1.536
 9693SOL    HW229979   6.271   5.871   1.693
 9694SOL     OW29980   1.982   2.161   0.032
 9694SOL    HW129981   2.061   2.102   0.020
 9694SOL    HW229982   2.013   2.254   0.055
 9695SOL     OW29983   6.192   4.155   1.459
 9695SOL    HW129984   6.099   4.171   1.428
 9695SOL    HW229985   6.229   4.238   1.502
 9696SOL     OW29986   4.009   3.238   1.329
 9696SOL    HW129987   4.000   3.250   1.231
 9696SOL    HW229988   4.061   3.314   1.368
 9697SOL     OW29989   0.979   5.823   0.552
 9697SOL    HW129990   0.912   5.760   0.591
 9697SOL    HW229991   0.946   5.917   0.561
 9698SOL     OW29992   6.028   1.952   4.926
 9698SOL    HW129993   6.043   2.050   4.908
 9698SOL    HW229994   6.007   1.906   4.840
 9699SOL     OW29995   1.908   3.387   7.002
 9699SOL    HW129996   1.902   3.288   6.992
 9699SOL    HW229997   1.846   3.417   0.057
 9700SOL     OW29998   3.321   4.022   4.664
 9700SOL    HW129999   3.375   4.069   4.733
 9700SOL    HW230000   3.344   3.925   4.664
 9701SOL     OW30001   5.701   4.503   5.025
 9701SOL    HW130002   5.637   4.568   4.985
 9701SOL    HW230003   5.735   4.441   4.953
 9702SOL     OW30004   4.606   0.799   0.949
 9702SOL    HW130005   4.590   0.886   0.997
 9702SOL    HW230006   4.555   0.798   0.863
 9703SOL     OW30007   2.930   6.592   3.833
 9703SOL    HW130008   2.954   6.650   3.755
 9703SOL    HW230009   2.900   6.503   3.800
 9704SOL     OW30010   2.816   0.606   3.300
 9704SOL    HW130011   2.814   0.701   3.331
 9704SOL    HW230012   2.900   0.562   3.333
 9705SOL     OW30013   3.645   3.720   0.629
 9705SOL    HW130014   3.562   3.755   0.585
 9705SOL    HW230015   3.725   3.766   0.591
 9706SOL     OW30016   5.263   2.983   2.829
 9706SOL    HW130017   5.236   2.970   2.734
 9706SOL    HW230018   5.185   2.966   2.889
 9707SOL     OW30019   2.454   5.325   2.601
 9707SOL    HW130020   2.358   5.324   2.627
 9707SOL    HW230021   2.463   5.365   2.510
 9708SOL     OW30022   2.630   1.880   2.737
 9708SOL    HW130023   2.633   1.781   2.745
 9708SOL    HW230024   2.651   1.907   2.643
 9709SOL     OW30025   1.874   5.503   2.841
 9709SOL    HW130026   1.822   5.459   2.767
 9709SOL    HW230027   1.853   5.457   2.927
 9710SOL     OW30028   0.523   0.589   3.133
 9710SOL    HW130029   0.542   0.492   3.149
 9710SOL    HW230030   0.456   0.622   3.199
 9711SOL     OW30031   0.881   4.225   5.269
 9711SOL    HW130032   0.866   4.314   5.226
 9711SOL    HW230033   0.814   4.159   5.234
 9712SOL     OW30034   4.904   2.020   4.101
 9712SOL    HW130035   4.808   2.002   4.121
 9712SOL    HW230036   4.919   2.015   4.002
 9713SOL     OW30037   6.804   5.338   2.535
 9713SOL    HW130038   6.832   5.272   2.465
 9713SOL    HW230039   6.831   5.303   2.625
 9714SOL     OW30040   1.523   2.271   1.625
 9714SOL    HW130041   1.471   2.345   1.581
 9714SOL    HW230042   1.487   2.183   1.593
 9715SOL     OW30043   4.805   5.426   5.206
 9715SOL    HW130044   4.805   5.526   5.198
 9715SOL    HW230045   4.799   5.401   5.303
 9716SOL     OW30046   3.957   1.943   6.381
 9716SOL    HW130047   3.978   1.965   6.285
 9716SOL    HW230048   4.012   1.865   6.410
 9717SOL     OW30049   5.630   5.158   3.734
 9717SOL    HW130050   5.674   5.158   3.824
 9717SOL    HW230051   5.699   5.172   3.663
 9718SOL     OW30052   4.900   2.979   1.567
 9718SOL    HW130053   4.800   2.981   1.566
 9718SOL    HW230054   4.934   2.998   1.475
 9719SOL     OW30055   0.515   1.440   0.020
 9719SOL    HW130056   0.424   1.450   0.059
 9719SOL    HW230057   0.580   1.414   0.091
 9720SOL     OW30058   0.065   6.999   2.066
 9720SOL    HW130059   0.048   0.079   2.055
 9720SOL    HW230060   0.159   6.978   2.040
 9721SOL     OW30061   6.779   3.799   2.520
 9721SOL    HW130062   6.860   3.778   2.465
 9721SOL    HW230063   6.774   3.898   2.535
 9722SOL     OW30064   0.912   0.101   4.007
 9722SOL    HW130065   0.939   0.023   3.952
 9722SOL    HW230066   0.893   0.072   4.101
 9723SOL     OW30067   0.062   1.015   3.461
 9723SOL    HW130068   6.983   1.035   3.444
 9723SOL    HW230069   0.093   1.067   3.541
 9724SOL     OW30070   3.450   2.734   1.590
 9724SOL    HW130071   3.466   2.830   1.615
 9724SOL    HW230072   3.497   2.675   1.656
 9725SOL     OW30073   4.145   3.218   5.743
 9725SOL    HW130074   4.152   3.126   5.705
 9725SOL    HW230075   4.213   3.229   5.816
 9726SOL     OW30076   5.258   6.770   5.071
 9726SOL    HW130077   5.251   6.773   5.171
 9726SOL    HW230078   5.253   6.675   5.040
 9727SOL     OW30079   1.622   2.364   5.702
 9727SOL    HW130080   1.693   2.433   5.707
 9727SOL    HW230081   1.612   2.320   5.792
 9728SOL     OW30082   3.172   5.148   0.046
 9728SOL    HW130083   3.252   5.208   0.049
 9728SOL    HW230084   3.160   5.112   6.972
 9729SOL     OW30085   2.896   5.218   2.533
 9729SOL    HW130086   2.841   5.229   2.451
 9729SOL    HW230087   2.974   5.159   2.514
 9730SOL     OW30088   6.714   3.459   3.000
 9730SOL    HW130089   6.746   3.436   3.092
 9730SOL    HW230090   6.793   3.473   2.940
 9731SOL     OW30091   4.471   4.953   0.987
 9731SOL    HW130092   4.430   4.879   1.041
 9731SOL    HW230093   4.562   4.925   0.956
 9732SOL     OW30094   6.386   6.470   2.613
 9732SOL    HW130095   6.421   6.489   2.521
 9732SOL    HW230096   6.346   6.378   2.615
 9733SOL     OW30097   5.473   4.546   6.350
 9733SOL    HW130098   5.380   4.557   6.386
 9733SOL    HW230099   5.504   4.453   6.366
 9734SOL     OW30100   5.190   2.610   4.857
 9734SOL    HW130101   5.212   2.624   4.954
 9734SOL    HW230102   5.273   2.617   4.803
 9735SOL     OW30103   1.411   4.214   0.822
 9735SOL    HW130104   1.460   4.127   0.825
 9735SOL    HW230105   1.364   4.223   0.734
 9736SOL     OW30106   3.314   1.440   0.658
 9736SOL    HW130107   3.401   1.480   0.689
 9736SOL    HW230108   3.313   1.342   0.678
 9737SOL     OW30109   3.983   2.318   5.321
 9737SOL    HW130110   4.031   2.294   5.405
 9737SOL    HW230111   4.009   2.410   5.292
 9738SOL     OW30112   1.566   0.270   2.328
 9738SOL    HW130113   1.521   0.338   2.269
 9738SOL    HW230114   1.611   0.317   2.403
 9739SOL     OW30115   5.229   4.653   1.601
 9739SOL    HW130116   5.316   4.651   1.651
 9739SOL    HW230117   5.184   4.564   1.609
 9740SOL     OW30118   6.958   4.385   3.110
 9740SOL    HW130119   6.992   4.364   3.201
 9740SOL    HW230120   0.001   4.451   3.066
 9741SOL     OW30121   4.489   2.167   1.871
 9741SOL    HW130122   4.426   2.244   1.864
 9741SOL    HW230123   4.480   2.125   1.962
 9742SOL     OW30124   5.076   1.860   4.390
 9742SOL    HW130125   5.081   1.959   4.404
 9742SOL    HW230126   5.002   1.822   4.446
 9743SOL     OW30127   1.586   2.694   5.754
 9743SOL    HW130128   1.612   2.613   5.806
 9743SOL    HW230129   1.586   2.774   5.814
 9744SOL     OW30130   1.562   0.678   1.758
 9744SOL    HW130131   1.470   0.711   1.736
 9744SOL    HW230132   1.619   0.681   1.677
 9745SOL     OW30133   0.044   2.314   5.013
 9745SOL    HW130134   0.085   2.285   5.100
 9745SOL    HW230135   0.070   2.408   4.994
 9746SOL     OW30136   5.998   1.102   4.715
 9746SOL    HW130137   5.957   1.147   4.795
 9746SOL    HW230138   6.096   1.120   4.714
 9747SOL     OW30139   0.690   6.709   6.604
 9747SOL    HW130140   0.719   6.776   6.672
 9747SOL    HW230141   0.615   6.654   6.640
 9748SOL     OW30142   6.810   5.932   4.109
 9748SOL    HW130143   6.897   5.903   4.151
 9748SOL    HW230144   6.812   5.911   4.011
 9749SOL     OW30145   0.775   4.668   4.292
 9749SOL    HW130146   0.680   4.701   4.288
 9749SOL    HW230147   0.814   4.689   4.381
 9750SOL     OW30148   4.219   4.678   3.547
 9750SOL    HW130149   4.230   4.744   3.473
 9750SOL    HW230150   4.302   4.624   3.556
 9751SOL     OW30151   2.009   2.299   0.545
 9751SOL    HW130152   1.972   2.331   0.632
 9751SOL    HW230153   2.089   2.241   0.561
 9752SOL     OW30154   3.773   1.298   5.598
 9752SOL    HW130155   3.798   1.330   5.689
 9752SOL    HW230156   3.855   1.278   5.545
 9753SOL     OW30157   6.896   5.733   5.414
 9753SOL    HW130158   6.874   5.703   5.507
 9753SOL    HW230159   6.828   5.801   5.384
 9754SOL     OW30160   0.563   2.031   6.316
 9754SOL    HW130161   0.609   2.014   6.228
 9754SOL    HW230162   0.474   2.072   6.299
 9755SOL     OW30163   3.882   4.964   5.250
 9755SOL    HW130164   3.806   4.960   5.186
 9755SOL    HW230165   3.939   4.883   5.240
 9756SOL     OW30166   6.035   2.662   6.199
 9756SOL    HW130167   6.103   2.604   6.245
 9756SOL    HW230168   5.944   2.627   6.217
 9757SOL     OW30169   6.099   2.354   3.922
 9757SOL    HW130170   6.126   2.421   3.853
 9757SOL    HW230171   6.001   2.334   3.913
 9758SOL     OW30172   2.855   0.419   6.930
 9758SOL    HW130173   2.775   0.376   6.888
 9758SOL    HW230174   2.936   0.365   6.908
 9759SOL     OW30175   3.604   5.870   1.282
 9759SOL    HW130176   3.600   5.869   1.382
 9759SOL    HW230177   3.511   5.862   1.245
 9760SOL     OW30178   5.668   4.362   6.124
 9760SOL    HW130179   5.630   4.320   6.207
 9760SOL    HW230180   5.600   4.357   6.050
 9761SOL     OW30181   5.662   5.704   2.251
 9761SOL    HW130182   5.733   5.768   2.224
 9761SOL    HW230183   5.578   5.754   2.273
 9762SOL     OW30184   2.481   1.474   4.666
 9762SOL    HW130185   2.463   1.387   4.713
 9762SOL    HW230186   2.405   1.536   4.681
 9763SOL     OW30187   2.328   1.466   1.454
 9763SOL    HW130188   2.243   1.514   1.432
 9763SOL    HW230189   2.365   1.503   1.539
 9764SOL     OW30190   1.470   2.306   2.146
 9764SOL    HW130191   1.495   2.214   2.177
 9764SOL    HW230192   1.550   2.365   2.147
 9765SOL     OW30193   0.036   1.332   5.608
 9765SOL    HW130194   0.135   1.326   5.596
 9765SOL    HW230195   0.002   1.409   5.555
 9766SOL     OW30196   2.878   1.014   2.340
 9766SOL    HW130197   2.807   0.974   2.397
 9766SOL    HW230198   2.881   1.113   2.355
 9767SOL     OW30199   4.772   0.556   5.517
 9767SOL    HW130200   4.830   0.553   5.435
 9767SOL    HW230201   4.825   0.592   5.594
 9768SOL     OW30202   4.425   2.424   2.582
 9768SOL    HW130203   4.355   2.481   2.625
 9768SOL    HW230204   4.509   2.428   2.637
 9769SOL     OW30205   0.619   1.927   1.445
 9769SOL    HW130206   0.595   1.922   1.348
 9769SOL    HW230207   0.558   1.991   1.491
 9770SOL     OW30208   6.044   4.488   6.090
 9770SOL    HW130209   6.093   4.438   6.161
 9770SOL    HW230210   5.964   4.533   6.129
 9771SOL     OW30211   3.784   5.909   5.872
 9771SOL    HW130212   3.843   5.987   5.852
 9771SOL    HW230213   3.726   5.890   5.792
 9772SOL     OW30214   6.636   0.415   1.629
 9772SOL    HW130215   6.580   0.332   1.627
 9772SOL    HW230216   6.645   0.446   1.724
 9773SOL     OW30217   5.711   5.638   3.219
 9773SOL    HW130218   5.673   5.546   3.226
 9773SOL    HW230219   5.641   5.700   3.182
 9774SOL     OW30220   0.232   5.199   3.300
 9774SOL    HW130221   0.207   5.246   3.216
 9774SOL    HW230222   0.300   5.254   3.350
 9775SOL     OW30223   2.684   2.447   4.777
 9775SOL    HW130224   2.651   2.483   4.864
 9775SOL    HW230225   2.616   2.466   4.706
 9776SOL     OW30226   0.239   5.301   4.595
 9776SOL    HW130227   0.296   5.364   4.649
 9776SOL    HW230228   0.256   5.315   4.498
 9777SOL     OW30229   5.757   4.836   6.667
 9777SOL    HW130230   5.744   4.820   6.569
 9777SOL    HW230231   5.757   4.935   6.684
 9778SOL     OW30232   3.932   1.091   3.163
 9778SOL    HW130233   3.993   1.013   3.149
 9778SOL    HW230234   3.873   1.073   3.241
 9779SOL     OW30235   3.004   1.725   6.085
 9779SOL    HW130236   2.943   1.656   6.123
 9779SOL    HW230237   2.968   1.816   6.105
 9780SOL     OW30238   3.665   4.496   0.303
 9780SOL    HW130239   3.640   4.592   0.319
 9780SOL    HW230240   3.610   4.437   0.361
 9781SOL     OW30241   1.738   4.920   4.229
 9781SOL    HW130242   1.695   4.995   4.178
 9781SOL    HW230243   1.834   4.913   4.202
 9782SOL     OW30244   6.512   0.454   1.327
 9782SOL    HW130245   6.605   0.490   1.323
 9782SOL    HW230246   6.514   0.364   1.372
 9783SOL     OW30247   5.117   1.380   2.741
 9783SOL    HW130248   5.074   1.338   2.661
 9783SOL    HW230249   5.134   1.477   2.722
 9784SOL     OW30250   5.011   0.798   4.288
 9784SOL    HW130251   5.023   0.842   4.200
 9784SOL    HW230252   5.032   0.863   4.361
 9785SOL     OW30253   0.755   2.916   1.506
 9785SOL    HW130254   0.714   2.991   1.559
 9785SOL    HW230255   0.757   2.941   1.409
 9786SOL     OW30256   2.681   6.960   4.619
 9786SOL    HW130257   2.772   6.960   4.660
 9786SOL    HW230258   2.615   6.999   4.683
 9787SOL     OW30259   5.519   4.412   1.963
 9787SOL    HW130260   5.619   4.424   1.956
 9787SOL    HW230261   5.498   4.323   2.003
 9788SOL     OW30262   0.513   1.067   5.403
 9788SOL    HW130263   0.595   1.043   5.352
 9788SOL    HW230264   0.442   0.999   5.385
 9789SOL     OW30265   1.784   5.843   4.457
 9789SOL    HW130266   1.737   5.792   4.385
 9789SOL    HW230267   1.750   5.815   4.546
 9790SOL     OW30268   6.347   1.750   4.324
 9790SOL    HW130269   6.359   1.792   4.414
 9790SOL    HW230270   6.432   1.758   4.272
 9791SOL     OW30271   1.112   2.269   1.032
 9791SOL    HW130272   1.036   2.215   1.066
 9791SOL    HW230273   1.197   2.240   1.077
 9792SOL     OW30274   4.484   5.530   2.272
 9792SOL    HW130275   4.484   5.451   2.212
 9792SOL    HW230276   4.573   5.540   2.316
 9793SOL     OW30277   4.768   5.788   2.705
 9793SOL    HW130278   4.792   5.803   2.609
 9793SOL    HW230279   4.796   5.868   2.759
 9794SOL     OW30280   3.550   2.942   6.592
 9794SOL    HW130281   3.640   2.959   6.552
 9794SOL    HW230282   3.562   2.905   6.685
 9795SOL     OW30283   2.154   3.803   4.519
 9795SOL    HW130284   2.164   3.843   4.610
 9795SOL    HW230285   2.067   3.832   4.480
 9796SOL     OW30286   3.566   5.202   0.113
 9796SOL    HW130287   3.506   5.237   0.185
 9796SOL    HW230288   3.653   5.251   0.114
 9797SOL     OW30289   4.906   2.992   4.956
 9797SOL    HW130290   4.859   2.921   5.008
 9797SOL    HW230291   4.913   2.964   4.860
 9798SOL     OW30292   1.640   2.243   1.882
 9798SOL    HW130293   1.559   2.251   1.940
 9798SOL    HW230294   1.615   2.261   1.787
 9799SOL     OW30295   2.972   3.785   2.132
 9799SOL    HW130296   2.904   3.766   2.202
 9799SOL    HW230297   3.035   3.856   2.165
 9800SOL     OW30298   3.644   5.246   6.840
 9800SOL    HW130299   3.604   5.174   6.896
 9800SOL    HW230300   3.718   5.290   6.890
 9801SOL     OW30301   4.532   5.115   0.138
 9801SOL    HW130302   4.583   5.195   0.107
 9801SOL    HW230303   4.446   5.108   0.087
 9802SOL     OW30304   0.194   4.180   1.429
 9802SOL    HW130305   0.202   4.238   1.347
 9802SOL    HW230306   0.113   4.122   1.422
 9803SOL     OW30307   5.810   0.948   6.366
 9803SOL    HW130308   5.784   1.043   6.347
 9803SOL    HW230309   5.771   0.920   6.454
 9804SOL     OW30310   5.368   5.208   4.468
 9804SOL    HW130311   5.319   5.248   4.545
 9804SOL    HW230312   5.332   5.244   4.382
 9805SOL     OW30313   3.235   4.308   0.558
 9805SOL    HW130314   3.285   4.390   0.586
 9805SOL    HW230315   3.267   4.229   0.610
 9806SOL     OW30316   6.106   2.098   2.812
 9806SOL    HW130317   6.164   2.175   2.838
 9806SOL    HW230318   6.158   2.013   2.824
 9807SOL     OW30319   3.643   2.530   0.690
 9807SOL    HW130320   3.565   2.508   0.630
 9807SOL    HW230321   3.681   2.618   0.663
 9808SOL     OW30322   1.005   1.600   5.228
 9808SOL    HW130323   1.020   1.698   5.212
 9808SOL    HW230324   0.931   1.589   5.295
 9809SOL     OW30325   1.221   0.747   4.871
 9809SOL    HW130326   1.168   0.679   4.922
 9809SOL    HW230327   1.278   0.798   4.934
 9810SOL     OW30328   4.024   0.960   3.758
 9810SOL    HW130329   3.977   0.908   3.829
 9810SOL    HW230330   4.101   1.009   3.798
 9811SOL     OW30331   1.449   6.584   2.723
 9811SOL    HW130332   1.375   6.624   2.778
 9811SOL    HW230333   1.412   6.548   2.638
 9812SOL     OW30334   4.973   2.997   5.358
 9812SOL    HW130335   4.927   3.043   5.434
 9812SOL    HW230336   5.026   2.920   5.393
 9813SOL     OW30337   6.429   4.924   0.454
 9813SOL    HW130338   6.489   4.894   0.528
 9813SOL    HW230339   6.437   5.023   0.444
 9814SOL     OW30340   6.866   0.336   5.522
 9814SOL    HW130341   6.896   0.355   5.428
 9814SOL    HW230342   6.911   0.400   5.584
 9815SOL     OW30343   6.666   3.837   2.985
 9815SOL    HW130344   6.749   3.849   3.040
 9815SOL    HW230345   6.588   3.875   3.035
 9816SOL     OW30346   6.730   0.330   5.981
 9816SOL    HW130347   6.669   0.317   5.903
 9816SOL    HW230348   6.811   0.381   5.951
 9817SOL     OW30349   2.801   6.998   6.858
 9817SOL    HW130350   2.729   6.962   6.799
 9817SOL    HW230351   2.858   0.044   6.805
 9818SOL     OW30352   0.762   6.833   3.420
 9818SOL    HW130353   0.732   6.898   3.351
 9818SOL    HW230354   0.699   6.756   3.424
 9819SOL     OW30355   6.699   2.810   4.567
 9819SOL    HW130356   6.650   2.757   4.499
 9819SOL    HW230357   6.660   2.902   4.572
 9820SOL     OW30358   3.882   2.211   5.978
 9820SOL    HW130359   3.789   2.177   5.990
 9820SOL    HW230360   3.900   2.284   6.044
 9821SOL     OW30361   3.529   2.987   1.695
 9821SOL    HW130362   3.622   2.996   1.660
 9821SOL    HW230363   3.527   3.017   1.791
 9822SOL     OW30364   3.583   6.496   4.842
 9822SOL    HW130365   3.612   6.556   4.917
 9822SOL    HW230366   3.616   6.403   4.859
 9823SOL     OW30367   2.765   7.004   3.032
 9823SOL    HW130368   2.708   6.974   2.956
 9823SOL    HW230369   2.810   6.925   3.073
 9824SOL     OW30370   0.789   6.193   5.412
 9824SOL    HW130371   0.831   6.235   5.332
 9824SOL    HW230372   0.792   6.258   5.489
 9825SOL     OW30373   6.445   6.423   5.055
 9825SOL    HW130374   6.406   6.388   5.140
 9825SOL    HW230375   6.410   6.370   4.978
 9826SOL     OW30376   2.466   5.543   5.091
 9826SOL    HW130377   2.438   5.611   5.024
 9826SOL    HW230378   2.565   5.549   5.106
 9827SOL     OW30379   2.054   4.723   1.986
 9827SOL    HW130380   2.055   4.634   1.940
 9827SOL    HW230381   2.144   4.740   2.027
 9828SOL     OW30382   4.849   1.893   4.672
 9828SOL    HW130383   4.817   1.908   4.766
 9828SOL    HW230384   4.854   1.795   4.654
 9829SOL     OW30385   4.734   5.347   5.804
 9829SOL    HW130386   4.648   5.374   5.762
 9829SOL    HW230387   4.790   5.298   5.737
 9830SOL     OW30388   5.661   1.625   3.732
 9830SOL    HW130389   5.645   1.580   3.820
 9830SOL    HW230390   5.624   1.718   3.735
 9831SOL     OW30391   0.596   4.366   2.785
 9831SOL    HW130392   0.626   4.440   2.845
 9831SOL    HW230393   0.515   4.395   2.734
 9832SOL     OW30394   4.705   5.642   4.628
 9832SOL    HW130395   4.759   5.687   4.557
 9832SOL    HW230396   4.629   5.593   4.586
 9833SOL     OW30397   4.079   3.646   4.003
 9833SOL    HW130398   3.990   3.604   3.986
 9833SOL    HW230399   4.070   3.716   4.073
 9834SOL     OW30400   2.706   6.481   5.447
 9834SOL    HW130401   2.701   6.524   5.537
 9834SOL    HW230402   2.740   6.387   5.457
 9835SOL     OW30403   4.106   3.764   4.475
 9835SOL    HW130404   4.052   3.780   4.557
 9835SOL    HW230405   4.192   3.720   4.500
 9836SOL     OW30406   0.036   3.746   6.226
 9836SOL    HW130407   0.059   3.839   6.199
 9836SOL    HW230408   0.013   3.692   6.144
 9837SOL     OW30409   5.565   1.901   3.359
 9837SOL    HW130410   5.640   1.952   3.400
 9837SOL    HW230411   5.543   1.939   3.269
 9838SOL     OW30412   1.761   6.828   1.349
 9838SOL    HW130413   1.741   6.882   1.430
 9838SOL    HW230414   1.720   6.738   1.358
 9839SOL     OW30415   4.608   6.685   3.935
 9839SOL    HW130416   4.586   6.709   3.841
 9839SOL    HW230417   4.541   6.619   3.969
 9840SOL     OW30418   6.409   1.525   6.508
 9840SOL    HW130419   6.340   1.454   6.493
 9840SOL    HW230420   6.384   1.606   6.456
 9841SOL     OW30421   6.689   6.587   2.887
 9841SOL    HW130422   6.674   6.635   2.974
 9841SOL    HW230423   6.678   6.489   2.900
 9842SOL     OW30424   3.830   0.556   6.682
 9842SOL    HW130425   3.859   0.652   6.676
 9842SOL    HW230426   3.907   0.498   6.656
 9843SOL     OW30427   0.329   0.390   1.367
 9843SOL    HW130428   0.384   0.465   1.403
 9843SOL    HW230429   0.249   0.427   1.319
 9844SOL     OW30430   4.548   0.351   4.368
 9844SOL    HW130431   4.448   0.344   4.370
 9844SOL    HW230432   4.574   0.448   4.369
 9845SOL     OW30433   1.636   3.433   2.445
 9845SOL    HW130434   1.680   3.411   2.532
 9845SOL    HW230435   1.631   3.532   2.433
 9846SOL     OW30436   6.225   2.276   1.351
 9846SOL    HW130437   6.291   2.291   1.277
 9846SOL    HW230438   6.232   2.350   1.417
 9847SOL     OW30439   4.183   3.721   6.928
 9847SOL    HW130440   4.132   3.796   6.970
 9847SOL    HW230441   4.133   3.635   6.940
 9848SOL     OW30442   3.622   3.893   5.783
 9848SOL    HW130443   3.549   3.824   5.793
 9848SOL    HW230444   3.664   3.910   5.872
 9849SOL     OW30445   0.796   2.233   4.356
 9849SOL    HW130446   0.708   2.260   4.396
 9849SOL    HW230447   0.779   2.167   4.282
 9850SOL     OW30448   1.751   6.996   3.981
 9850SOL    HW130449   1.815   0.035   4.033
 9850SOL    HW230450   1.789   6.905   3.970
 9851SOL     OW30451   3.593   5.509   4.190
 9851SOL    HW130452   3.630   5.579   4.128
 9851SOL    HW230453   3.647   5.425   4.182
 9852SOL     OW30454   2.054   6.911   0.382
 9852SOL    HW130455   2.140   6.861   0.373
 9852SOL    HW230456   2.045   6.945   0.476
 9853SOL     OW30457   0.249   4.312   3.515
 9853SOL    HW130458   0.196   4.295   3.599
 9853SOL    HW230459   0.309   4.234   3.498
 9854SOL     OW30460   0.749   4.311   6.426
 9854SOL    HW130461   0.781   4.222   6.458
 9854SOL    HW230462   0.794   4.334   6.340
 9855SOL     OW30463   0.769   5.173   0.350
 9855SOL    HW130464   0.822   5.163   0.434
 9855SOL    HW230465   0.766   5.269   0.323
 9856SOL     OW30466   5.541   3.215   3.270
 9856SOL    HW130467   5.444   3.192   3.270
 9856SOL    HW230468   5.573   3.226   3.176
 9857SOL     OW30469   4.737   0.330   5.709
 9857SOL    HW130470   4.733   0.403   5.641
 9857SOL    HW230471   4.769   0.367   5.796
 9858SOL     OW30472   6.355   5.865   1.909
 9858SOL    HW130473   6.450   5.896   1.904
 9858SOL    HW230474   6.315   5.893   1.996
 9859SOL     OW30475   7.000   5.711   3.312
 9859SOL    HW130476   6.906   5.745   3.312
 9859SOL    HW230477   7.012   5.645   3.237
 9860SOL     OW30478   1.401   2.925   4.747
 9860SOL    HW130479   1.306   2.909   4.720
 9860SOL    HW230480   1.462   2.862   4.698
 9861SOL     OW30481   3.559   2.106   2.962
 9861SOL    HW130482   3.649   2.147   2.945
 9861SOL    HW230483   3.556   2.073   3.057
 9862SOL     OW30484   1.144   4.037   6.575
 9862SOL    HW130485   1.212   4.043   6.502
 9862SOL    HW230486   1.185   3.992   6.654
 9863SOL     OW30487   4.342   6.656   1.697
 9863SOL    HW130488   4.247   6.640   1.723
 9863SOL    HW230489   4.347   6.676   1.599
 9864SOL     OW30490   2.362   5.637   5.528
 9864SOL    HW130491   2.400   5.651   5.619
 9864SOL    HW230492   2.328   5.723   5.491
 9865SOL     OW30493   1.454   5.362   5.725
 9865SOL    HW130494   1.453   5.457   5.695
 9865SOL    HW230495   1.547   5.337   5.754
 9866SOL     OW30496   6.637   5.715   5.647
 9866SOL    HW130497   6.722   5.766   5.660
 9866SOL    HW230498   6.627   5.647   5.719
 9867SOL     OW30499   3.820   1.868   2.256
 9867SOL    HW130500   3.909   1.911   2.271
 9867SOL    HW230501   3.833   1.774   2.224
 9868SOL     OW30502   2.456   4.349   3.586
 9868SOL    HW130503   2.361   4.329   3.611
 9868SOL    HW230504   2.458   4.400   3.500
 9869SOL     OW30505   6.872   2.726   1.007
 9869SOL    HW130506   6.909   2.708   0.916
 9869SOL    HW230507   6.947   2.740   1.072
 9870SOL     OW30508   2.509   2.453   2.648
 9870SOL    HW130509   2.483   2.549   2.644
 9870SOL    HW230510   2.598   2.444   2.692
 9871SOL     OW30511   5.573   5.551   3.474
 9871SOL    HW130512   5.525   5.472   3.437
 9871SOL    HW230513   5.511   5.630   3.474
 9872SOL     OW30514   0.835   4.860   5.729
 9872SOL    HW130515   0.919   4.821   5.767
 9872SOL    HW230516   0.834   4.959   5.743
 9873SOL     OW30517   1.214   1.154   5.396
 9873SOL    HW130518   1.222   1.096   5.315
 9873SOL    HW230519   1.221   1.250   5.369
 9874SOL     OW30520   0.214   2.429   4.735
 9874SOL    HW130521   0.238   2.525   4.724
 9874SOL    HW230522   0.267   2.390   4.810
 9875SOL     OW30523   6.393   6.104   0.674
 9875SOL    HW130524   6.315   6.164   0.695
 9875SOL    HW230525   6.466   6.157   0.632
 9876SOL     OW30526   0.308   6.670   3.585
 9876SOL    HW130527   0.290   6.572   3.586
 9876SOL    HW230528   0.232   6.718   3.543
 9877SOL     OW30529   0.978   5.638   5.511
 9877SOL    HW130530   0.884   5.667   5.497
 9877SOL    HW230531   1.012   5.676   5.597
 9878SOL     OW30532   3.178   2.645   6.638
 9878SOL    HW130533   3.115   2.584   6.686
 9878SOL    HW230534   3.212   2.714   6.702
 9879SOL     OW30535   6.694   5.657   6.121
 9879SOL    HW130536   6.708   5.756   6.127
 9879SOL    HW230537   6.630   5.628   6.192
 9880SOL     OW30538   3.191   1.181   1.205
 9880SOL    HW130539   3.276   1.208   1.160
 9880SOL    HW230540   3.114   1.230   1.165
 9881SOL     OW30541   6.001   1.467   3.677
 9881SOL    HW130542   5.977   1.475   3.581
 9881SOL    HW230543   6.056   1.545   3.705
 9882SOL     OW30544   3.514   3.257   4.782
 9882SOL    HW130545   3.511   3.158   4.798
 9882SOL    HW230546   3.524   3.304   4.870
 9883SOL     OW30547   1.849   6.971   2.210
 9883SOL    HW130548   1.821   0.049   2.199
 9883SOL    HW230549   1.930   6.966   2.268
 9884SOL     OW30550   2.667   2.621   5.850
 9884SOL    HW130551   2.580   2.667   5.870
 9884SOL    HW230552   2.736   2.648   5.917
 9885SOL     OW30553   4.842   2.795   5.638
 9885SOL    HW130554   4.886   2.714   5.599
 9885SOL    HW230555   4.796   2.770   5.723
 9886SOL     OW30556   3.445   5.595   1.410
 9886SOL    HW130557   3.535   5.626   1.441
 9886SOL    HW230558   3.418   5.648   1.330
 9887SOL     OW30559   3.451   2.035   6.878
 9887SOL    HW130560   3.463   1.977   6.959
 9887SOL    HW230561   3.356   2.066   6.873
 9888SOL     OW30562   6.437   6.707   3.661
 9888SOL    HW130563   6.390   6.720   3.749
 9888SOL    HW230564   6.371   6.713   3.587
 9889SOL     OW30565   6.456   5.962   2.871
 9889SOL    HW130566   6.428   6.043   2.923
 9889SOL    HW230567   6.540   5.924   2.910
 9890SOL     OW30568   0.578   3.528   2.439
 9890SOL    HW130569   0.626   3.441   2.448
 9890SOL    HW230570   0.509   3.521   2.367
 9891SOL     OW30571   5.427   5.855   1.821
 9891SOL    HW130572   5.338   5.853   1.866
 9891SOL    HW230573   5.417   5.884   1.727
 9892SOL     OW30574   1.335   5.428   3.854
 9892SOL    HW130575   1.242   5.449   3.881
 9892SOL    HW230576   1.384   5.387   3.932
 9893SOL     OW30577   5.540   5.064   4.827
 9893SOL    HW130578   5.608   5.015   4.881
 9893SOL    HW230579   5.583   5.144   4.785
 9894SOL     OW30580   4.627   3.090   5.560
 9894SOL    HW130581   4.592   3.081   5.467
 9894SOL    HW230582   4.702   3.156   5.562
 9895SOL     OW30583   5.798   2.015   0.283
 9895SOL    HW130584   5.778   1.940   0.346
 9895SOL    HW230585   5.736   2.091   0.302
 9896SOL     OW30586   4.164   3.071   0.334
 9896SOL    HW130587   4.137   2.998   0.397
 9896SOL    HW230588   4.083   3.114   0.295
 9897SOL     OW30589   6.412   1.514   3.542
 9897SOL    HW130590   6.454   1.537   3.630
 9897SOL    HW230591   6.357   1.591   3.511
 9898SOL     OW30592   1.531   4.845   6.340
 9898SOL    HW130593   1.610   4.799   6.381
 9898SOL    HW230594   1.531   4.829   6.241
 9899SOL     OW30595   5.037   4.672   2.498
 9899SOL    HW130596   4.965   4.620   2.544
 9899SOL    HW230597   4.995   4.743   2.441
 9900SOL     OW30598   1.269   4.264   3.638
 9900SOL    HW130599   1.332   4.219   3.702
 9900SOL    HW230600   1.218   4.335   3.686
 9901SOL     OW30601   2.615   1.986   6.058
 9901SOL    HW130602   2.575   2.019   5.973
 9901SOL    HW230603   2.641   1.890   6.047
 9902SOL     OW30604   4.654   3.906   0.423
 9902SOL    HW130605   4.670   3.933   0.328
 9902SOL    HW230606   4.655   3.806   0.430
 9903SOL     OW30607   3.692   0.925   1.470
 9903SOL    HW130608   3.696   0.998   1.537
 9903SOL    HW230609   3.597   0.904   1.448
 9904SOL     OW30610   0.355   6.941   2.008
 9904SOL    HW130611   0.360   7.015   1.941
 9904SOL    HW230612   0.377   6.855   1.964
 9905SOL     OW30613   1.711   6.227   5.820
 9905SOL    HW130614   1.709   6.227   5.920
 9905SOL    HW230615   1.667   6.144   5.786
 9906SOL     OW30616   4.012   3.947   6.011
 9906SOL    HW130617   3.976   3.956   5.918
 9906SOL    HW230618   4.058   4.032   6.037
 9907SOL     OW30619   1.103   6.312   2.779
 9907SOL    HW130620   1.116   6.410   2.798
 9907SOL    HW230621   1.192   6.268   2.771
 9908SOL     OW30622   0.444   3.335   4.750
 9908SOL    HW130623   0.515   3.281   4.795
 9908SOL    HW230624   0.398   3.279   4.680
 9909SOL     OW30625   3.247   0.522   2.822
 9909SOL    HW130626   3.168   0.564   2.777
 9909SOL    HW230627   3.247   0.423   2.804
 9910SOL     OW30628   1.053   4.550   1.170
 9910SOL    HW130629   0.979   4.555   1.238
 9910SOL    HW230630   1.141   4.540   1.217
 9911SOL     OW30631   3.910   4.968   2.921
 9911SOL    HW130632   3.955   5.002   3.004
 9911SOL    HW230633   3.825   4.922   2.946
 9912SOL     OW30634   4.036   6.877   1.148
 9912SOL    HW130635   4.132   6.850   1.144
 9912SOL    HW230636   4.000   6.889   1.056
 9913SOL     OW30637   4.280   2.188   2.590
 9913SOL    HW130638   4.237   2.138   2.666
 9913SOL    HW230639   4.326   2.269   2.626
 9914SOL     OW30640   2.358   5.444   5.312
 9914SOL    HW130641   2.401   5.485   5.231
 9914SOL    HW230642   2.352   5.513   5.384
 9915SOL     OW30643   5.862   3.629   3.955
 9915SOL    HW130644   5.927   3.700   3.981
 9915SOL    HW230645   5.911   3.543   3.942
 9916SOL     OW30646   2.687   2.903   0.678
 9916SOL    HW130647   2.760   2.965   0.646
 9916SOL    HW230648   2.728   2.817   0.709
 9917SOL     OW30649   2.076   2.722   4.831
 9917SOL    HW130650   2.096   2.652   4.761
 9917SOL    HW230651   2.098   2.686   4.921
 9918SOL     OW30652   2.263   0.767   4.535
 9918SOL    HW130653   2.363   0.769   4.524
 9918SOL    HW230654   2.224   0.704   4.468
 9919SOL     OW30655   0.159   5.673   2.617
 9919SOL    HW130656   0.230   5.740   2.638
 9919SOL    HW230657   0.070   5.710   2.642
 9920SOL     OW30658   4.389   6.554   2.791
 9920SOL    HW130659   4.473   6.536   2.738
 9920SOL    HW230660   4.412   6.558   2.888
 9921SOL     OW30661   4.917   0.018   3.325
 9921SOL    HW130662   4.935   0.073   3.407
 9921SOL    HW230663   4.909   0.078   3.246
 9922SOL     OW30664   5.008   3.251   1.519
 9922SOL    HW130665   4.945   3.271   1.594
 9922SOL    HW230666   5.008   3.328   1.454
 9923SOL     OW30667   6.335   0.850   6.017
 9923SOL    HW130668   6.244   0.891   6.012
 9923SOL    HW230669   6.330   0.762   6.064
 9924SOL     OW30670   5.189   1.067   3.452
 9924SOL    HW130671   5.237   1.127   3.387
 9924SOL    HW230672   5.252   1.041   3.525
 9925SOL     OW30673   3.395   2.135   4.869
 9925SOL    HW130674   3.334   2.190   4.926
 9925SOL    HW230675   3.449   2.074   4.926
 9926SOL     OW30676   1.777   1.022   6.430
 9926SOL    HW130677   1.857   1.060   6.475
 9926SOL    HW230678   1.768   1.061   6.338
 9927SOL     OW30679   1.012   2.454   2.156
 9927SOL    HW130680   1.047   2.375   2.207
 9927SOL    HW230681   0.916   2.438   2.133
 9928SOL     OW30682   6.961   3.363   2.586
 9928SOL    HW130683   6.947   3.268   2.615
 9928SOL    HW230684   6.875   3.400   2.550
 9929SOL     OW30685   1.465   4.375   5.624
 9929SOL    HW130686   1.443   4.406   5.531
 9929SOL    HW230687   1.542   4.312   5.619
 9930SOL     OW30688   0.284   5.479   0.151
 9930SOL    HW130689   0.372   5.442   0.121
 9930SOL    HW230690   0.243   5.533   0.077
 9931SOL     OW30691   3.067   4.926   6.811
 9931SOL    HW130692   3.150   4.871   6.803
 9931SOL    HW230693   3.069   5.001   6.745
 9932SOL     OW30694   1.869   2.227   1.061
 9932SOL    HW130695   1.832   2.168   1.133
 9932SOL    HW230696   1.959   2.194   1.033
 9933SOL     OW30697   0.719   1.470   1.984
 9933SOL    HW130698   0.787   1.539   2.009
 9933SOL    HW230699   0.678   1.431   2.067
 9934SOL     OW30700   4.925   1.095   0.013
 9934SOL    HW130701   5.005   1.064   6.979
 9934SOL    HW230702   4.872   1.159   6.975
 9935SOL     OW30703   2.653   1.973   1.274
 9935SOL    HW130704   2.575   1.944   1.330
 9935SOL    HW230705   2.640   2.067   1.244
 9936SOL     OW30706   5.548   6.462   5.896
 9936SOL    HW130707   5.468   6.513   5.864
 9936SOL    HW230708   5.532   6.430   5.990
 9937SOL     OW30709   1.659   6.650   3.142
 9937SOL    HW130710   1.632   6.738   3.102
 9937SOL    HW230711   1.697   6.591   3.070
 9938SOL     OW30712   6.641   0.917   3.694
 9938SOL    HW130713   6.611   0.937   3.788
 9938SOL    HW230714   6.637   1.002   3.640
 9939SOL     OW30715   2.786   4.205   1.239
 9939SOL    HW130716   2.702   4.253   1.265
 9939SOL    HW230717   2.800   4.127   1.300
 9940SOL     OW30718   0.007   0.734   3.474
 9940SOL    HW130719   0.022   0.833   3.479
 9940SOL    HW230720   6.956   0.714   3.405
 9941SOL     OW30721   5.660   4.789   0.539
 9941SOL    HW130722   5.565   4.820   0.549
 9941SOL    HW230723   5.699   4.830   0.457
 9942SOL     OW30724   5.542   6.035   2.855
 9942SOL    HW130725   5.461   6.075   2.897
 9942SOL    HW230726   5.533   5.935   2.853
 9943SOL     OW30727   1.180   3.980   5.595
 9943SOL    HW130728   1.261   3.993   5.652
 9943SOL    HW230729   1.098   3.984   5.652
 9944SOL     OW30730   1.756   5.767   5.721
 9944SOL    HW130731   1.668   5.792   5.761
 9944SOL    HW230732   1.776   5.671   5.743
 9945SOL     OW30733   6.755   3.858   6.985
 9945SOL    HW130734   6.719   3.843   6.892
 9945SOL    HW230735   6.679   3.858   0.032
 9946SOL     OW30736   4.853   2.281   1.435
 9946SOL    HW130737   4.929   2.330   1.477
 9946SOL    HW230738   4.817   2.213   1.499
 9947SOL     OW30739   0.740   1.324   2.924
 9947SOL    HW130740   0.765   1.419   2.944
 9947SOL    HW230741   0.783   1.295   2.839
 9948SOL     OW30742   5.603   0.823   4.656
 9948SOL    HW130743   5.663   0.786   4.727
 9948SOL    HW230744   5.618   0.921   4.646
 9949SOL     OW30745   6.680   4.393   3.242
 9949SOL    HW130746   6.680   4.469   3.307
 9949SOL    HW230747   6.774   4.369   3.219
 9950SOL     OW30748   4.450   4.086   5.274
 9950SOL    HW130749   4.431   3.991   5.300
 9950SOL    HW230750   4.537   4.090   5.225
 9951SOL     OW30751   0.008   1.900   2.931
 9951SOL    HW130752   0.098   1.869   2.959
 9951SOL    HW230753   7.011   1.994   2.962
 9952SOL     OW30754   1.615   4.686   1.868
 9952SOL    HW130755   1.617   4.675   1.769
 9952SOL    HW230756   1.684   4.627   1.909
 9953SOL     OW30757   6.177   3.687   3.781
 9953SOL    HW130758   6.261   3.708   3.830
 9953SOL    HW230759   6.116   3.635   3.840
 9954SOL     OW30760   3.566   0.646   1.369
 9954SOL    HW130761   3.513   0.721   1.408
 9954SOL    HW230762   3.647   0.629   1.426
 9955SOL     OW30763   5.509   4.856   1.533
 9955SOL    HW130764   5.444   4.912   1.583
 9955SOL    HW230765   5.514   4.765   1.575
 9956SOL     OW30766   2.112   2.996   3.724
 9956SOL    HW130767   2.127   3.086   3.765
 9956SOL    HW230768   2.109   2.926   3.796
 9957SOL     OW30769   5.350   0.784   0.539
 9957SOL    HW130770   5.408   0.764   0.617
 9957SOL    HW230771   5.396   0.756   0.455
 9958SOL     OW30772   5.927   5.452   6.922
 9958SOL    HW130773   5.903   5.367   6.968
 9958SOL    HW230774   5.845   5.508   6.911
 9959SOL     OW30775   5.557   5.623   0.810
 9959SOL    HW130776   5.621   5.573   0.868
 9959SOL    HW230777   5.539   5.571   0.727
 9960SOL     OW30778   6.510   0.179   0.031
 9960SOL    HW130779   6.469   0.244   6.984
 9960SOL    HW230780   6.456   0.177   0.115
 9961SOL     OW30781   3.366   6.013   0.781
 9961SOL    HW130782   3.294   5.965   0.731
 9961SOL    HW230783   3.394   5.959   0.860
 9962SOL     OW30784   3.286   0.301   1.567
 9962SOL    HW130785   3.301   0.273   1.662
 9962SOL    HW230786   3.266   0.221   1.511
 9963SOL     OW30787   0.910   0.464   6.061
 9963SOL    HW130788   0.915   0.498   5.967
 9963SOL    HW230789   0.818   0.429   6.079
 9964SOL     OW30790   4.517   4.457   6.214
 9964SOL    HW130791   4.541   4.364   6.239
 9964SOL    HW230792   4.565   4.521   6.274
 9965SOL     OW30793   3.039   5.462   4.066
 9965SOL    HW130794   2.978   5.538   4.089
 9965SOL    HW230795   2.996   5.376   4.093
 9966SOL     OW30796   3.646   4.949   3.046
 9966SOL    HW130797   3.557   4.903   3.045
 9966SOL    HW230798   3.666   4.979   3.139
 9967SOL     OW30799   0.004   0.326   3.098
 9967SOL    HW130800   6.976   0.412   3.079
 9967SOL    HW230801   6.954   0.255   3.117
 9968SOL     OW30802   4.155   6.540   0.329
 9968SOL    HW130803   4.113   6.623   0.292
 9968SOL    HW230804   4.231   6.565   0.388
 9969SOL     OW30805   6.992   6.084   3.818
 9969SOL    HW130806   6.965   5.993   3.787
 9969SOL    HW230807   7.009   6.143   3.739
 9970SOL     OW30808   6.788   3.339   2.324
 9970SOL    HW130809   6.729   3.261   2.346
 9970SOL    HW230810   6.777   3.409   2.394
 9971SOL     OW30811   6.981   5.204   4.590
 9971SOL    HW130812   6.969   5.152   4.674
 9971SOL    HW230813   0.061   5.213   4.570
 9972SOL     OW30814   3.284   4.287   5.983
 9972SOL    HW130815   3.283   4.217   5.911
 9972SOL    HW230816   3.223   4.258   6.058
 9973SOL     OW30817   2.269   1.920   3.650
 9973SOL    HW130818   2.321   1.847   3.606
 9973SOL    HW230819   2.304   2.009   3.620
 9974SOL     OW30820   1.344   2.363   3.175
 9974SOL    HW130821   1.255   2.353   3.218
 9974SOL    HW230822   1.400   2.428   3.228
 9975SOL     OW30823   2.425   4.688   6.817
 9975SOL    HW130824   2.389   4.722   6.730
 9975SOL    HW230825   2.485   4.610   6.800
 9976SOL     OW30826   4.041   5.185   5.991
 9976SOL    HW130827   4.056   5.086   5.988
 9976SOL    HW230828   3.944   5.205   5.984
 9977SOL     OW30829   4.235   0.347   5.596
 9977SOL    HW130830   4.226   0.443   5.625
 9977SOL    HW230831   4.298   0.341   5.519
 9978SOL     OW30832   1.051   2.916   0.026
 9978SOL    HW130833   1.058   2.828   6.998
 9978SOL    HW230834   0.955   2.936   0.044
 9979SOL     OW30835   3.311   3.699   5.211
 9979SOL    HW130836   3.290   3.768   5.141
 9979SOL    HW230837   3.251   3.620   5.199
 9980SOL     OW30838   1.386   1.582   1.472
 9980SOL    HW130839   1.436   1.528   1.541
 9980SOL    HW230840   1.442   1.588   1.389
 9981SOL     OW30841   6.326   1.814   0.061
 9981SOL    HW130842   6.341   1.899   0.111
 9981SOL    HW230843   6.235   1.816   0.019
 9982SOL     OW30844   1.737   2.092   4.434
 9982SOL    HW130845   1.777   2.165   4.379
 9982SOL    HW230846   1.785   2.006   4.415
 9983SOL     OW30847   1.133   3.929   2.445
 9983SOL    HW130848   1.068   3.946   2.371
 9983SOL    HW230849   1.204   3.999   2.443
 9984SOL     OW30850   0.487   5.032   0.810
 9984SOL    HW130851   0.545   4.958   0.777
 9984SOL    HW230852   0.539   5.090   0.872
 9985SOL     OW30853   5.012   4.408   0.050
 9985SOL    HW130854   5.018   4.404   6.968
 9985SOL    HW230855   4.951   4.482   0.076
 9986SOL     OW30856   5.713   5.633   6.873
 9986SOL    HW130857   5.655   5.659   6.796
 9986SOL    HW230858   5.655   5.606   6.950
 9987SOL     OW30859   5.833   2.733   1.552
 9987SOL    HW130860   5.901   2.749   1.480
 9987SOL    HW230861   5.853   2.645   1.596
 9988SOL     OW30862   5.945   6.945   3.597
 9988SOL    HW130863   5.883   6.944   3.518
 9988SOL    HW230864   5.914   7.013   3.662
 9989SOL     OW30865   0.237   6.197   2.856
 9989SOL    HW130866   0.151   6.247   2.867
 9989SOL    HW230867   0.264   6.198   2.760
 9990SOL     OW30868   0.182   0.111   3.020
 9990SOL    HW130869   0.171   0.203   3.056
 9990SOL    HW230870   0.093   0.072   2.997
 9991SOL     OW30871   1.915   4.562   2.777
 9991SOL    HW130872   1.850   4.586   2.849
 9991SOL    HW230873   1.869   4.566   2.688
 9992SOL     OW30874   2.323   5.157   0.458
 9992SOL    HW130875   2.268   5.220   0.403
 9992SOL    HW230876   2.307   5.175   0.555
 9993SOL     OW30877   3.959   0.251   4.700
 9993SOL    HW130878   4.038   0.206   4.658
 9993SOL    HW230879   3.982   0.346   4.719
 9994SOL     OW30880   5.712   5.262   4.769
 9994SOL    HW130881   5.748   5.291   4.858
 9994SOL    HW230882   5.690   5.342   4.714
 9995SOL     OW30883   3.542   1.564   6.287
 9995SOL    HW130884   3.501   1.653   6.267
 9995SOL    HW230885   3.542   1.509   6.204
 9996SOL     OW30886   3.088   3.852   0.351
 9996SOL    HW130887   3.090   3.943   0.311
 9996SOL    HW230888   3.015   3.846   0.419
 9997SOL     OW30889   6.464   2.451   3.825
 9997SOL    HW130890   6.479   2.375   3.761
 9997SOL    HW230891   6.442   2.533   3.773
 9998SOL     OW30892   4.899   3.890   2.349
 9998SOL    HW130893   4.898   3.983   2.312
 9998SOL    HW230894   4.926   3.826   2.278
 9999SOL     OW30895   0.534   6.441   4.044
 9999SOL    HW130896   0.579   6.465   4.130
 9999SOL    HW230897   0.601   6.403   3.981
10000SOL     OW30898   4.435   2.536   1.049
10000SOL    HW130899   4.423   2.625   1.007
10000SOL    HW230900   4.479   2.474   0.984
10001SOL     OW30901   3.514   6.213   1.916
10001SOL    HW130902   3.571   6.295   1.908
10001SOL    HW230903   3.471   6.193   1.828
10002SOL     OW30904   2.249   0.609   1.958
10002SOL    HW130905   2.294   0.676   2.018
10002SOL    HW230906   2.268   0.517   1.991
10003SOL     OW30907   1.247   0.752   3.097
10003SOL    HW130908   1.234   0.655   3.116
10003SOL    HW230909   1.212   0.773   3.005
10004SOL     OW30910   6.557   4.849   4.297
10004SOL    HW130911   6.473   4.826   4.248
10004SOL    HW230912   6.636   4.813   4.247
10005SOL     OW30913   2.720   5.133   3.659
10005SOL    HW130914   2.812   5.130   3.700
10005SOL    HW230915   2.677   5.044   3.668
10006SOL     OW30916   5.841   0.815   5.380
10006SOL    HW130917   5.799   0.898   5.342
10006SOL    HW230918   5.925   0.840   5.429
10007SOL     OW30919   1.146   4.897   4.389
10007SOL    HW130920   1.185   4.875   4.300
10007SOL    HW230921   1.201   4.854   4.461
10008SOL     OW30922   3.378   1.799   5.878
10008SOL    HW130923   3.280   1.813   5.862
10008SOL    HW230924   3.396   1.702   5.892
10009SOL     OW30925   1.249   4.030   2.153
10009SOL    HW130926   1.314   4.036   2.229
10009SOL    HW230927   1.262   4.109   2.093
10010SOL     OW30928   2.467   3.833   0.361
10010SOL    HW130929   2.379   3.880   0.368
10010SOL    HW230930   2.534   3.878   0.420
10011SOL     OW30931   2.082   3.151   0.161
10011SOL    HW130932   2.161   3.094   0.138
10011SOL    HW230933   1.999   3.108   0.127
10012SOL     OW30934   6.090   2.661   3.109
10012SOL    HW130935   6.028   2.692   3.037
10012SOL    HW230936   6.050   2.683   3.199
10013SOL     OW30937   0.356   6.030   5.069
10013SOL    HW130938   0.354   5.931   5.059
10013SOL    HW230939   0.445   6.058   5.104
10014SOL     OW30940   0.714   1.056   2.911
10014SOL    HW130941   0.712   1.156   2.901
10014SOL    HW230942   0.621   1.021   2.920
10015SOL     OW30943   4.030   5.731   5.993
10015SOL    HW130944   4.077   5.666   5.934
10015SOL    HW230945   4.096   5.790   6.038
10016SOL     OW30946   2.078   0.483   4.022
10016SOL    HW130947   2.156   0.429   4.054
10016SOL    HW230948   2.105   0.579   4.012
10017SOL     OW30949   2.899   2.201   3.125
10017SOL    HW130950   2.931   2.197   3.220
10017SOL    HW230951   2.849   2.287   3.111
10018SOL     OW30952   6.516   3.292   5.377
10018SOL    HW130953   6.542   3.361   5.445
10018SOL    HW230954   6.581   3.216   5.382
10019SOL     OW30955   0.383   2.283   1.973
10019SOL    HW130956   0.418   2.366   1.929
10019SOL    HW230957   0.408   2.203   1.919
10020SOL     OW30958   6.068   1.209   1.780
10020SOL    HW130959   6.114   1.124   1.804
10020SOL    HW230960   6.097   1.238   1.689
10021SOL     OW30961   0.986   3.177   2.502
10021SOL    HW130962   0.962   3.083   2.527
10021SOL    HW230963   1.061   3.176   2.436
10022SOL     OW30964   2.154   4.981   6.119
10022SOL    HW130965   2.230   5.046   6.114
10022SOL    HW230966   2.128   4.953   6.026
10023SOL     OW30967   0.891   0.867   6.213
10023SOL    HW130968   0.974   0.875   6.268
10023SOL    HW230969   0.812   0.896   6.266
10024SOL     OW30970   1.680   4.815   2.724
10024SOL    HW130971   1.761   4.849   2.772
10024SOL    HW230972   1.699   4.724   2.687
10025SOL     OW30973   0.944   4.347   0.694
10025SOL    HW130974   0.983   4.358   0.785
10025SOL    HW230975   0.844   4.356   0.699
10026SOL     OW30976   5.172   1.564   4.593
10026SOL    HW130977   5.187   1.621   4.674
10026SOL    HW230978   5.222   1.603   4.515
10027SOL     OW30979   2.984   1.799   5.246
10027SOL    HW130980   3.014   1.866   5.178
10027SOL    HW230981   3.064   1.761   5.293
10028SOL     OW30982   4.327   6.979   1.435
10028SOL    HW130983   4.329   0.011   1.348
10028SOL    HW230984   4.407   7.003   1.490
10029SOL     OW30985   0.254   4.378   4.524
10029SOL    HW130986   0.199   4.298   4.548
10029SOL    HW230987   0.278   4.374   4.427
10030SOL     OW30988   2.295   0.032   4.051
10030SOL    HW130989   2.342   0.023   4.138
10030SOL    HW230990   2.362   0.026   3.976
10031SOL     OW30991   2.614   4.898   3.431
10031SOL    HW130992   2.642   4.992   3.411
10031SOL    HW230993   2.664   4.835   3.372
10032SOL     OW30994   3.100   6.651   4.740
10032SOL    HW130995   3.089   6.553   4.725
10032SOL    HW230996   3.192   6.679   4.711
10033SOL     OW30997   2.943   0.576   4.124
10033SOL    HW130998   2.991   0.644   4.070
10033SOL    HW230999   2.865   0.541   4.071
10034SOL     OW31000   2.297   1.037   4.110
10034SOL    HW131001   2.308   1.097   4.030
10034SOL    HW231002   2.264   0.947   4.080
10035SOL     OW31003   6.166   2.683   2.105
10035SOL    HW131004   6.077   2.667   2.064
10035SOL    HW231005   6.237   2.638   2.050
10036SOL     OW31006   0.270   0.576   6.684
10036SOL    HW131007   0.342   0.510   6.663
10036SOL    HW231008   0.296   0.631   6.763
10037SOL     OW31009   6.034   6.642   6.795
10037SOL    HW131010   6.067   6.703   6.867
10037SOL    HW231011   6.082   6.662   6.710
10038SOL     OW31012   4.290   6.437   6.578
10038SOL    HW131013   4.308   6.376   6.655
10038SOL    HW231014   4.364   6.429   6.512
10039SOL     OW31015   0.016   5.549   2.403
10039SOL    HW131016   6.992   5.471   2.449
10039SOL    HW231017   0.074   5.599   2.467
10040SOL     OW31018   3.420   6.784   1.237
10040SOL    HW131019   3.342   6.734   1.199
10040SOL    HW231020   3.429   6.873   1.190
10041SOL     OW31021   6.444   5.333   5.050
10041SOL    HW131022   6.504   5.402   5.009
10041SOL    HW231023   6.457   5.246   5.003
10042SOL     OW31024   0.416   0.373   4.845
10042SOL    HW131025   0.329   0.406   4.807
10042SOL    HW231026   0.438   0.426   4.926
10043SOL     OW31027   0.452   0.721   4.144
10043SOL    HW131028   0.447   0.788   4.218
10043SOL    HW231029   0.443   0.769   4.056
10044SOL     OW31030   2.986   1.514   6.694
10044SOL    HW131031   3.058   1.460   6.652
10044SOL    HW231032   2.920   1.453   6.739
10045SOL     OW31033   3.687   7.008   5.139
10045SOL    HW131034   3.775   6.961   5.137
10045SOL    HW231035   3.669   0.033   5.050
10046SOL     OW31036   0.470   2.534   1.922
10046SOL    HW131037   0.557   2.582   1.932
10046SOL    HW231038   0.394   2.599   1.935
10047SOL     OW31039   0.045   1.902   3.259
10047SOL    HW131040   6.986   1.966   3.253
10047SOL    HW231041   0.116   1.940   3.318
10048SOL     OW31042   3.599   2.420   1.415
10048SOL    HW131043   3.634   2.509   1.386
10048SOL    HW231044   3.543   2.432   1.497
10049SOL     OW31045   1.395   6.926   5.012
10049SOL    HW131046   1.464   6.859   5.040
10049SOL    HW231047   1.312   6.878   4.982
10050SOL     OW31048   4.984   2.618   3.931
10050SOL    HW131049   5.029   2.703   3.904
10050SOL    HW231050   4.896   2.610   3.885
10051SOL     OW31051   5.632   2.779   5.617
10051SOL    HW131052   5.727   2.746   5.613
10051SOL    HW231053   5.570   2.702   5.628
10052SOL     OW31054   0.791   3.660   1.598
10052SOL    HW131055   0.783   3.671   1.697
10052SOL    HW231056   0.702   3.635   1.560
10053SOL     OW31057   3.450   5.647   3.543
10053SOL    HW131058   3.361   5.608   3.567
10053SOL    HW231059   3.441   5.747   3.535
10054SOL     OW31060   3.708   5.664   4.533
10054SOL    HW131061   3.757   5.717   4.464
10054SOL    HW231062   3.733   5.568   4.526
10055SOL     OW31063   6.122   2.978   5.731
10055SOL    HW131064   6.113   2.998   5.829
10055SOL    HW231065   6.143   2.882   5.718
10056SOL     OW31066   6.931   5.080   1.521
10056SOL    HW131067   0.006   5.075   1.558
10056SOL    HW231068   6.868   5.104   1.594
10057SOL     OW31069   3.246   1.909   3.723
10057SOL    HW131070   3.236   2.001   3.685
10057SOL    HW231071   3.212   1.907   3.817
10058SOL     OW31072   1.075   5.450   3.892
10058SOL    HW131073   1.017   5.510   3.837
10058SOL    HW231074   1.032   5.361   3.901
10059SOL     OW31075   5.892   0.195   0.647
10059SOL    HW131076   5.819   0.257   0.674
10059SOL    HW231077   5.852   0.107   0.620
10060SOL     OW31078   2.284   2.957   1.846
10060SOL    HW131079   2.376   2.956   1.806
10060SOL    HW231080   2.240   2.868   1.830
10061SOL     OW31081   6.170   1.942   4.570
10061SOL    HW131082   6.140   2.032   4.538
10061SOL    HW231083   6.095   1.897   4.618
10062SOL     OW31084   6.055   6.143   2.951
10062SOL    HW131085   6.028   6.109   2.861
10062SOL    HW231086   5.974   6.175   3.000
10063SOL     OW31087   1.581   2.828   2.908
10063SOL    HW131088   1.543   2.748   2.862
10063SOL    HW231089   1.599   2.806   3.004
10064SOL     OW31090   5.478   6.947   4.666
10064SOL    HW131091   5.416   6.940   4.588
10064SOL    HW231092   5.545   0.001   4.650
10065SOL     OW31093   1.022   6.325   3.231
10065SOL    HW131094   1.122   6.315   3.234
10065SOL    HW231095   0.999   6.422   3.243
10066SOL     OW31096   0.702   0.233   3.433
10066SOL    HW131097   0.672   0.157   3.491
10066SOL    HW231098   0.669   0.319   3.473
10067SOL     OW31099   3.771   5.014   3.926
10067SOL    HW131100   3.671   5.015   3.918
10067SOL    HW231101   3.798   4.941   3.988
10068SOL     OW31102   4.925   3.837   5.010
10068SOL    HW131103   4.867   3.898   4.957
10068SOL    HW231104   4.883   3.746   5.014
10069SOL     OW31105   3.418   0.884   3.252
10069SOL    HW131106   3.418   0.958   3.184
10069SOL    HW231107   3.340   0.824   3.236
10070SOL     OW31108   0.450   6.929   4.513
10070SOL    HW131109   0.362   6.934   4.466
10070SOL    HW231110   0.452   6.996   4.588
10071SOL     OW31111   5.156   5.833   5.104
10071SOL    HW131112   5.249   5.842   5.141
10071SOL    HW231113   5.102   5.775   5.165
10072SOL     OW31114   0.801   6.829   3.037
10072SOL    HW131115   0.847   6.867   3.117
10072SOL    HW231116   0.744   6.752   3.064
10073SOL     OW31117   0.046   4.798   6.401
10073SOL    HW131118   0.114   4.851   6.452
10073SOL    HW231119   0.062   4.808   6.303
10074SOL     OW31120   2.573   0.290   5.940
10074SOL    HW131121   2.672   0.280   5.950
10074SOL    HW231122   2.531   0.200   5.933
10075SOL     OW31123   1.199   2.605   3.737
10075SOL    HW131124   1.114   2.622   3.788
10075SOL    HW231125   1.251   2.689   3.730
10076SOL     OW31126   5.383   6.976   4.926
10076SOL    HW131127   5.377   6.968   4.826
10076SOL    HW231128   5.356   6.890   4.969
10077SOL     OW31129   3.940   1.517   6.248
10077SOL    HW131130   3.873   1.452   6.212
10077SOL    HW231131   4.009   1.469   6.301
10078SOL     OW31132   5.723   6.674   5.919
10078SOL    HW131133   5.658   6.598   5.923
10078SOL    HW231134   5.725   6.712   5.826
10079SOL     OW31135   0.138   3.504   0.756
10079SOL    HW131136   0.204   3.573   0.729
10079SOL    HW231137   0.104   3.456   0.675
10080SOL     OW31138   1.760   3.265   6.671
10080SOL    HW131139   1.855   3.277   6.700
10080SOL    HW231140   1.746   3.308   6.582
10081SOL     OW31141   0.040   0.577   6.475
10081SOL    HW131142   7.008   0.630   6.544
10081SOL    HW231143   0.104   0.515   6.520
10082SOL     OW31144   6.496   1.202   1.532
10082SOL    HW131145   6.423   1.270   1.529
10082SOL    HW231146   6.463   1.120   1.579
10083SOL     OW31147   4.601   0.607   4.357
10083SOL    HW131148   4.602   0.649   4.266
10083SOL    HW231149   4.678   0.642   4.410
10084SOL     OW31150   2.266   1.441   5.894
10084SOL    HW131151   2.347   1.462   5.949
10084SOL    HW231152   2.281   1.473   5.800
10085SOL     OW31153   0.606   5.424   2.683
10085SOL    HW131154   0.633   5.351   2.620
10085SOL    HW231155   0.648   5.510   2.655
10086SOL     OW31156   6.334   3.707   1.982
10086SOL    HW131157   6.270   3.774   2.019
10086SOL    HW231158   6.421   3.715   2.030
10087SOL     OW31159   1.469   0.272   4.167
10087SOL    HW131160   1.434   0.299   4.077
10087SOL    HW231161   1.475   0.173   4.172
10088SOL     OW31162   0.279   0.130   4.383
10088SOL    HW131163   0.180   0.143   4.387
10088SOL    HW231164   0.324   0.217   4.364
10089SOL     OW31165   1.401   3.346   2.251
10089SOL    HW131166   1.372   3.442   2.244
10089SOL    HW231167   1.500   3.342   2.264
10090SOL     OW31168   0.838   4.862   0.401
10090SOL    HW131169   0.932   4.897   0.400
10090SOL    HW231170   0.779   4.925   0.349
10091SOL     OW31171   0.557   2.592   4.567
10091SOL    HW131172   0.551   2.500   4.530
10091SOL    HW231173   0.477   2.610   4.624
10092SOL     OW31174   1.820   4.395   5.636
10092SOL    HW131175   1.762   4.317   5.615
10092SOL    HW231176   1.762   4.475   5.656
10093SOL     OW31177   6.176   4.749   6.364
10093SOL    HW131178   6.159   4.842   6.331
10093SOL    HW231179   6.260   4.714   6.323
10094SOL     OW31180   1.445   1.524   1.947
10094SOL    HW131181   1.454   1.458   1.873
10094SOL    HW231182   1.471   1.481   2.033
10095SOL     OW31183   6.882   0.853   5.908
10095SOL    HW131184   6.943   0.868   5.830
10095SOL    HW231185   6.890   0.759   5.939
10096SOL     OW31186   0.709   5.655   2.616
10096SOL    HW131187   0.700   5.755   2.611
10096SOL    HW231188   0.798   5.631   2.654
10097SOL     OW31189   1.264   0.833   6.909
10097SOL    HW131190   1.336   0.843   6.840
10097SOL    HW231191   1.273   0.743   6.952
10098SOL     OW31192   2.347   4.794   6.586
10098SOL    HW131193   2.310   4.764   6.498
10098SOL    HW231194   2.290   4.866   6.624
10099SOL     OW31195   6.848   4.316   4.798
10099SOL    HW131196   6.877   4.390   4.737
10099SOL    HW231197   6.905   4.317   4.880
10100SOL     OW31198   5.148   1.020   4.733
10100SOL    HW131199   5.177   0.967   4.653
10100SOL    HW231200   5.227   1.040   4.791
10101SOL     OW31201   0.084   4.752   2.417
10101SOL    HW131202   0.124   4.745   2.508
10101SOL    HW231203   0.102   4.668   2.366
10102SOL     OW31204   2.501   1.649   2.390
10102SOL    HW131205   2.451   1.718   2.442
10102SOL    HW231206   2.438   1.602   2.329
10103SOL     OW31207   2.718   2.269   6.750
10103SOL    HW131208   2.768   2.229   6.826
10103SOL    HW231209   2.756   2.236   6.664
10104SOL     OW31210   1.401   6.008   5.127
10104SOL    HW131211   1.393   5.987   5.224
10104SOL    HW231212   1.339   5.950   5.075
10105SOL     OW31213   2.168   0.384   6.403
10105SOL    HW131214   2.202   0.320   6.335
10105SOL    HW231215   2.239   0.450   6.426
10106SOL     OW31216   5.198   5.824   0.184
10106SOL    HW131217   5.275   5.874   0.223
10106SOL    HW231218   5.112   5.864   0.217
10107SOL     OW31219   5.654   1.471   6.088
10107SOL    HW131220   5.677   1.466   6.185
10107SOL    HW231221   5.558   1.445   6.076
10108SOL     OW31222   6.352   6.839   0.655
10108SOL    HW131223   6.422   6.811   0.590
10108SOL    HW231224   6.389   6.837   0.748
10109SOL     OW31225   4.635   4.974   3.633
10109SOL    HW131226   4.545   4.938   3.656
10109SOL    HW231227   4.631   5.074   3.628
10110SOL     OW31228   3.719   0.441   5.996
10110SOL    HW131229   3.657   0.441   6.074
10110SOL    HW231230   3.667   0.438   5.911
10111SOL     OW31231   0.616   2.567   2.640
10111SOL    HW131232   0.565   2.489   2.603
10111SOL    HW231233   0.629   2.635   2.568
10112SOL     OW31234   4.499   4.492   5.513
10112SOL    HW131235   4.455   4.413   5.468
10112SOL    HW231236   4.442   4.522   5.589
10113SOL     OW31237   3.891   6.715   0.016
10113SOL    HW131238   3.889   6.629   6.983
10113SOL    HW231239   3.986   6.747   0.024
10114SOL     OW31240   4.648   0.618   1.389
10114SOL    HW131241   4.584   0.646   1.461
10114SOL    HW231242   4.598   0.571   1.317
10115SOL     OW31243   1.932   2.182   3.893
10115SOL    HW131244   1.897   2.223   3.809
10115SOL    HW231245   2.032   2.192   3.895
10116SOL     OW31246   1.109   1.104   1.284
10116SOL    HW131247   1.140   1.125   1.377
10116SOL    HW231248   1.012   1.078   1.287
10117SOL     OW31249   5.544   0.815   5.686
10117SOL    HW131250   5.611   0.889   5.684
10117SOL    HW231251   5.461   0.846   5.732
10118SOL     OW31252   6.954   5.578   1.799
10118SOL    HW131253   6.982   5.484   1.778
10118SOL    HW231254   6.913   5.619   1.717
10119SOL     OW31255   2.457   1.038   5.293
10119SOL    HW131256   2.543   1.027   5.243
10119SOL    HW231257   2.476   1.034   5.392
10120SOL     OW31258   0.156   2.878   3.718
10120SOL    HW131259   0.119   2.788   3.737
10120SOL    HW231260   0.101   2.948   3.763
10121SOL     OW31261   6.478   4.661   5.093
10121SOL    HW131262   6.417   4.617   5.160
10121SOL    HW231263   6.523   4.590   5.038
10122SOL     OW31264   5.408   3.486   0.391
10122SOL    HW131265   5.361   3.569   0.420
10122SOL    HW231266   5.506   3.504   0.382
10123SOL     OW31267   0.188   6.271   0.303
10123SOL    HW131268   0.246   6.280   0.222
10123SOL    HW231269   0.092   6.264   0.275
10124SOL     OW31270   3.440   4.301   0.324
10124SOL    HW131271   3.366   4.305   0.391
10124SOL    HW231272   3.435   4.214   0.275
10125SOL     OW31273   1.206   0.704   1.649
10125SOL    HW131274   1.257   0.643   1.709
10125SOL    HW231275   1.202   0.795   1.690
10126SOL     OW31276   6.591   5.160   0.722
10126SOL    HW131277   6.540   5.234   0.765
10126SOL    HW231278   6.609   5.183   0.626
10127SOL     OW31279   3.934   5.451   5.284
10127SOL    HW131280   3.999   5.509   5.234
10127SOL    HW231281   3.856   5.506   5.312
10128SOL     OW31282   0.169   2.449   1.119
10128SOL    HW131283   0.181   2.400   1.032
10128SOL    HW231284   0.227   2.530   1.120
10129SOL     OW31285   6.207   2.573   3.424
10129SOL    HW131286   6.168   2.638   3.489
10129SOL    HW231287   6.304   2.592   3.413
10130SOL     OW31288   6.626   5.351   1.399
10130SOL    HW131289   6.617   5.367   1.498
10130SOL    HW231290   6.715   5.382   1.368
10131SOL     OW31291   0.138   0.808   1.225
10131SOL    HW131292   0.092   0.895   1.205
10131SOL    HW231293   0.137   0.750   1.144
10132SOL     OW31294   3.118   6.852   2.780
10132SOL    HW131295   3.041   6.889   2.728
10132SOL    HW231296   3.166   6.784   2.725
10133SOL     OW31297   4.917   5.641   3.326
10133SOL    HW131298   5.009   5.645   3.286
10133SOL    HW231299   4.850   5.625   3.254
10134SOL     OW31300   7.012   1.436   3.019
10134SOL    HW131301   0.069   1.494   3.049
10134SOL    HW231302   6.931   1.455   3.073
10135SOL     OW31303   4.250   4.901   3.090
10135SOL    HW131304   4.321   4.965   3.062
10135SOL    HW231305   4.212   4.855   3.009
10136SOL     OW31306   5.883   6.663   3.658
10136SOL    HW131307   5.903   6.761   3.654
10136SOL    HW231308   5.840   6.641   3.745
10137SOL     OW31309   6.462   5.014   3.910
10137SOL    HW131310   6.547   4.970   3.940
10137SOL    HW231311   6.390   4.946   3.903
10138SOL     OW31312   5.675   2.394   6.656
10138SOL    HW131313   5.761   2.429   6.693
10138SOL    HW231314   5.606   2.466   6.657
10139SOL     OW31315   3.847   2.956   3.231
10139SOL    HW131316   3.913   3.031   3.225
10139SOL    HW231317   3.893   2.869   3.214
10140SOL     OW31318   0.161   5.114   6.488
10140SOL    HW131319   0.193   5.031   6.533
10140SOL    HW231320   0.064   5.129   6.510
10141SOL     OW31321   1.401   0.695   4.085
10141SOL    HW131322   1.466   0.619   4.080
10141SOL    HW231323   1.440   0.775   4.038
10142SOL     OW31324   4.452   6.117   4.719
10142SOL    HW131325   4.497   6.040   4.674
10142SOL    HW231326   4.504   6.144   4.800
10143SOL     OW31327   4.702   0.187   1.286
10143SOL    HW131328   4.747   0.097   1.285
10143SOL    HW231329   4.707   0.226   1.377
10144SOL     OW31330   3.084   5.803   4.628
10144SOL    HW131331   3.135   5.720   4.648
10144SOL    HW231332   3.148   5.880   4.621
10145SOL     OW31333   3.111   6.215   5.554
10145SOL    HW131334   3.180   6.147   5.580
10145SOL    HW231335   3.088   6.204   5.457
10146SOL     OW31336   4.048   5.580   4.199
10146SOL    HW131337   4.124   5.628   4.156
10146SOL    HW231338   3.986   5.646   4.242
10147SOL     OW31339   4.555   4.750   4.731
10147SOL    HW131340   4.583   4.759   4.827
10147SOL    HW231341   4.456   4.753   4.725
10148SOL     OW31342   5.664   5.915   0.724
10148SOL    HW131343   5.650   5.821   0.754
10148SOL    HW231344   5.676   5.974   0.803
10149SOL     OW31345   4.042   2.386   1.045
10149SOL    HW131346   3.994   2.382   1.133
10149SOL    HW231347   4.021   2.304   0.992
10150SOL     OW31348   4.820   4.338   1.333
10150SOL    HW131349   4.836   4.324   1.235
10150SOL    HW231350   4.764   4.420   1.346
10151SOL     OW31351   2.087   0.005   5.666
10151SOL    HW131352   2.025   6.944   5.672
10151SOL    HW231353   2.122   0.027   5.757
10152SOL     OW31354   0.097   5.580   3.516
10152SOL    HW131355   0.045   5.620   3.440
10152SOL    HW231356   0.078   5.482   3.520
10153SOL     OW31357   5.251   6.300   4.695
10153SOL    HW131358   5.208   6.248   4.621
10153SOL    HW231359   5.341   6.332   4.666
10154SOL     OW31360   6.293   5.422   5.725
10154SOL    HW131361   6.253   5.357   5.790
10154SOL    HW231362   6.309   5.509   5.770
10155SOL     OW31363   3.919   0.777   6.156
10155SOL    HW131364   3.907   0.727   6.241
10155SOL    HW231365   4.010   0.818   6.153
10156SOL     OW31366   5.636   0.786   2.319
10156SOL    HW131367   5.556   0.759   2.266
10156SOL    HW231368   5.700   0.710   2.324
10157SOL     OW31369   5.781   1.461   6.356
10157SOL    HW131370   5.717   1.525   6.398
10157SOL    HW231371   5.869   1.463   6.404
10158SOL     OW31372   4.561   3.307   0.051
10158SOL    HW131373   4.607   3.233   0.100
10158SOL    HW231374   4.480   3.336   0.101
10159SOL     OW31375   1.416   2.109   6.413
10159SOL    HW131376   1.443   2.051   6.336
10159SOL    HW231377   1.497   2.156   6.449
10160SOL     OW31378   0.441   5.444   3.974
10160SOL    HW131379   0.422   5.498   3.892
10160SOL    HW231380   0.363   5.450   4.036
10161SOL     OW31381   3.452   5.444   6.286
10161SOL    HW131382   3.405   5.503   6.220
10161SOL    HW231383   3.504   5.500   6.351
10162SOL     OW31384   3.000   2.380   6.774
10162SOL    HW131385   2.933   2.450   6.748
10162SOL    HW231386   2.954   2.306   6.821
10163SOL     OW31387   6.237   3.465   6.014
10163SOL    HW131388   6.270   3.374   5.986
10163SOL    HW231389   6.243   3.528   5.936
10164SOL     OW31390   6.567   2.698   5.180
10164SOL    HW131391   6.505   2.771   5.152
10164SOL    HW231392   6.613   2.724   5.265
10165SOL     OW31393   0.577   1.718   4.577
10165SOL    HW131394   0.607   1.657   4.650
10165SOL    HW231395   0.645   1.790   4.562
10166SOL     OW31396   2.327   1.365   1.894
10166SOL    HW131397   2.268   1.318   1.828
10166SOL    HW231398   2.344   1.459   1.862
10167SOL     OW31399   4.812   0.357   0.074
10167SOL    HW131400   4.809   0.271   0.125
10167SOL    HW231401   4.743   0.356   0.002
10168SOL     OW31402   6.903   4.463   3.869
10168SOL    HW131403   6.819   4.431   3.912
10168SOL    HW231404   6.921   4.557   3.897
10169SOL     OW31405   6.717   4.050   3.558
10169SOL    HW131406   6.671   3.970   3.599
10169SOL    HW231407   6.664   4.132   3.579
10170SOL     OW31408   1.681   4.259   4.995
10170SOL    HW131409   1.638   4.296   4.912
10170SOL    HW231410   1.776   4.236   4.976
10171SOL     OW31411   6.792   4.272   6.146
10171SOL    HW131412   6.696   4.243   6.153
10171SOL    HW231413   6.800   4.339   6.072
10172SOL     OW31414   4.837   0.722   2.752
10172SOL    HW131415   4.862   0.646   2.811
10172SOL    HW231416   4.776   0.784   2.802
10173SOL     OW31417   1.925   1.831   2.080
10173SOL    HW131418   1.944   1.770   2.003
10173SOL    HW231419   2.011   1.860   2.121
10174SOL     OW31420   6.719   4.833   2.712
10174SOL    HW131421   6.784   4.787   2.652
10174SOL    HW231422   6.766   4.906   2.762
10175SOL     OW31423   6.250   2.405   5.722
10175SOL    HW131424   6.206   2.419   5.810
10175SOL    HW231425   6.201   2.334   5.671
10176SOL     OW31426   1.809   3.748   0.039
10176SOL    HW131427   1.760   3.814   7.000
10176SOL    HW231428   1.903   3.739   0.005
10177SOL     OW31429   2.880   6.309   0.356
10177SOL    HW131430   2.919   6.397   0.328
10177SOL    HW231431   2.815   6.324   0.431
10178SOL     OW31432   6.193   2.858   4.729
10178SOL    HW131433   6.098   2.873   4.702
10178SOL    HW231434   6.198   2.840   4.828
10179SOL     OW31435   1.245   2.551   6.144
10179SOL    HW131436   1.151   2.573   6.171
10179SOL    HW231437   1.269   2.460   6.179
10180SOL     OW31438   2.880   5.736   5.712
10180SOL    HW131439   2.808   5.673   5.741
10180SOL    HW231440   2.898   5.724   5.614
10181SOL     OW31441   6.078   3.204   1.143
10181SOL    HW131442   6.137   3.254   1.206
10181SOL    HW231443   6.026   3.268   1.086
10182SOL     OW31444   5.534   1.233   1.289
10182SOL    HW131445   5.560   1.284   1.371
10182SOL    HW231446   5.523   1.297   1.213
10183SOL     OW31447   1.674   1.728   6.103
10183SOL    HW131448   1.758   1.680   6.075
10183SOL    HW231449   1.612   1.664   6.148
10184SOL     OW31450   4.377   1.065   6.225
10184SOL    HW131451   4.420   1.145   6.267
10184SOL    HW231452   4.439   0.987   6.230
10185SOL     OW31453   4.699   6.892   0.897
10185SOL    HW131454   4.711   6.796   0.871
10185SOL    HW231455   4.602   6.913   0.905
10186SOL     OW31456   4.746   2.741   2.752
10186SOL    HW131457   4.732   2.761   2.655
10186SOL    HW231458   4.837   2.703   2.765
10187SOL     OW31459   0.727   2.494   1.609
10187SOL    HW131460   0.703   2.580   1.655
10187SOL    HW231461   0.761   2.429   1.677
10188SOL     OW31462   4.431   6.306   0.487
10188SOL    HW131463   4.417   6.404   0.502
10188SOL    HW231464   4.397   6.281   0.397
10189SOL     OW31465   2.022   6.338   5.275
10189SOL    HW131466   2.015   6.372   5.181
10189SOL    HW231467   2.007   6.239   5.276
10190SOL     OW31468   4.594   2.629   0.097
10190SOL    HW131469   4.597   2.688   0.178
10190SOL    HW231470   4.505   2.639   0.052
10191SOL     OW31471   5.471   5.005   0.213
10191SOL    HW131472   5.570   4.990   0.213
10191SOL    HW231473   5.443   5.042   0.124
10192SOL     OW31474   3.661   1.062   5.885
10192SOL    HW131475   3.582   1.122   5.895
10192SOL    HW231476   3.658   1.017   5.795
10193SOL     OW31477   4.843   4.134   0.840
10193SOL    HW131478   4.844   4.227   0.805
10193SOL    HW231479   4.755   4.092   0.822
10194SOL     OW31480   5.793   4.005   5.702
10194SOL    HW131481   5.871   4.042   5.651
10194SOL    HW231482   5.728   3.964   5.638
10195SOL     OW31483   6.718   4.520   1.502
10195SOL    HW131484   6.798   4.466   1.528
10195SOL    HW231485   6.740   4.617   1.512
10196SOL     OW31486   0.252   1.522   4.776
10196SOL    HW131487   0.220   1.607   4.817
10196SOL    HW231488   0.306   1.471   4.843
10197SOL     OW31489   6.245   0.641   5.658
10197SOL    HW131490   6.176   0.593   5.603
10197SOL    HW231491   6.267   0.586   5.739
10198SOL     OW31492   3.959   0.076   2.820
10198SOL    HW131493   3.940   0.082   2.722
10198SOL    HW231494   3.998   7.004   2.840
10199SOL     OW31495   1.301   2.744   5.904
10199SOL    HW131496   1.273   2.682   5.978
10199SOL    HW231497   1.318   2.691   5.821
10200SOL     OW31498   6.239   3.042   1.004
10200SOL    HW131499   6.290   2.963   1.039
10200SOL    HW231500   6.187   3.084   1.078
10201SOL     OW31501   1.081   3.794   0.905
10201SOL    HW131502   1.148   3.834   0.967
10201SOL    HW231503   0.997   3.773   0.955
10202SOL     OW31504   3.886   0.766   5.705
10202SOL    HW131505   3.844   0.838   5.650
10202SOL    HW231506   3.970   0.801   5.747
10203SOL     OW31507   6.204   2.772   5.014
10203SOL    HW131508   6.124   2.737   5.063
10203SOL    HW231509   6.274   2.700   5.010
10204SOL     OW31510   5.359   6.591   6.458
10204SOL    HW131511   5.427   6.609   6.387
10204SOL    HW231512   5.399   6.609   6.548
10205SOL     OW31513   1.456   0.896   6.367
10205SOL    HW131514   1.501   0.967   6.313
10205SOL    HW231515   1.421   0.935   6.452
10206SOL     OW31516   1.241   0.535   5.720
10206SOL    HW131517   1.281   0.619   5.756
10206SOL    HW231518   1.206   0.480   5.796
10207SOL     OW31519   1.286   1.568   5.557
10207SOL    HW131520   1.219   1.578   5.630
10207SOL    HW231521   1.244   1.522   5.479
10208SOL     OW31522   6.450   4.890   5.235
10208SOL    HW131523   6.457   4.819   5.165
10208SOL    HW231524   6.465   4.849   5.325
10209SOL     OW31525   6.935   6.704   6.608
10209SOL    HW131526   6.956   6.606   6.614
10209SOL    HW231527   6.838   6.719   6.626
10210SOL     OW31528   4.151   5.818   2.026
10210SOL    HW131529   4.105   5.868   2.099
10210SOL    HW231530   4.087   5.755   1.983
10211SOL     OW31531   4.424   5.713   5.417
10211SOL    HW131532   4.379   5.761   5.493
10211SOL    HW231533   4.514   5.752   5.401
10212SOL     OW31534   0.639   0.349   6.111
10212SOL    HW131535   0.572   0.279   6.135
10212SOL    HW231536   0.662   0.340   6.014
10213SOL     OW31537   5.360   1.675   0.874
10213SOL    HW131538   5.350   1.672   0.775
10213SOL    HW231539   5.271   1.691   0.916
10214SOL     OW31540   0.553   2.617   0.885
10214SOL    HW131541   0.571   2.716   0.893
10214SOL    HW231542   0.587   2.571   0.967
10215SOL     OW31543   3.312   3.474   2.472
10215SOL    HW131544   3.214   3.478   2.492
10215SOL    HW231545   3.347   3.567   2.457
10216SOL     OW31546   6.579   6.739   2.274
10216SOL    HW131547   6.557   6.817   2.333
10216SOL    HW231548   6.580   6.769   2.179
10217SOL     OW31549   3.243   1.198   3.341
10217SOL    HW131550   3.209   1.155   3.258
10217SOL    HW231551   3.339   1.173   3.355
10218SOL     OW31552   1.300   2.343   2.364
10218SOL    HW131553   1.342   2.324   2.275
10218SOL    HW231554   1.325   2.435   2.394
10219SOL     OW31555   0.231   0.922   2.263
10219SOL    HW131556   0.302   0.983   2.228
10219SOL    HW231557   0.162   0.975   2.313
10220SOL     OW31558   3.357   2.782   1.922
10220SOL    HW131559   3.337   2.772   1.825
10220SOL    HW231560   3.449   2.747   1.941
10221SOL     OW31561   0.891   6.157   3.377
10221SOL    HW131562   0.945   6.167   3.461
10221SOL    HW231563   0.924   6.221   3.308
10222SOL     OW31564   2.925   3.835   4.557
10222SOL    HW131565   2.917   3.828   4.656
10222SOL    HW231566   2.966   3.752   4.520
10223SOL     OW31567   0.837   5.856   1.554
10223SOL    HW131568   0.857   5.849   1.456
10223SOL    HW231569   0.872   5.775   1.601
10224SOL     OW31570   5.846   3.806   3.350
10224SOL    HW131571   5.829   3.732   3.415
10224SOL    HW231572   5.931   3.788   3.301
10225SOL     OW31573   2.297   3.611   5.977
10225SOL    HW131574   2.303   3.663   5.892
10225SOL    HW231575   2.364   3.645   6.043
10226SOL     OW31576   4.832   2.497   0.018
10226SOL    HW131577   4.770   2.566   0.056
10226SOL    HW231578   4.796   2.465   6.948
10227SOL     OW31579   5.115   3.626   0.996
10227SOL    HW131580   5.066   3.544   1.025
10227SOL    HW231581   5.152   3.672   1.077
10228SOL     OW31582   5.413   0.738   0.820
10228SOL    HW131583   5.422   0.640   0.800
10228SOL    HW231584   5.339   0.752   0.886
10229SOL     OW31585   6.856   3.715   4.412
10229SOL    HW131586   6.903   3.752   4.492
10229SOL    HW231587   6.835   3.789   4.348
10230SOL     OW31588   0.249   6.237   2.290
10230SOL    HW131589   0.222   6.316   2.344
10230SOL    HW231590   0.198   6.156   2.320
10231SOL     OW31591   1.421   5.439   3.278
10231SOL    HW131592   1.446   5.518   3.334
10231SOL    HW231593   1.367   5.469   3.200
10232SOL     OW31594   5.021   5.342   3.810
10232SOL    HW131595   5.120   5.358   3.813
10232SOL    HW231596   4.973   5.430   3.816
10233SOL     OW31597   3.766   4.353   6.220
10233SOL    HW131598   3.683   4.348   6.164
10233SOL    HW231599   3.774   4.268   6.273
10234SOL     OW31600   7.008   1.198   1.825
10234SOL    HW131601   6.995   1.207   1.726
10234SOL    HW231602   6.966   1.113   1.856
10235SOL     OW31603   1.451   0.921   2.800
10235SOL    HW131604   1.489   0.837   2.840
10235SOL    HW231605   1.415   0.979   2.873
10236SOL     OW31606   2.562   6.957   1.387
10236SOL    HW131607   2.634   6.948   1.317
10236SOL    HW231608   2.586   0.013   1.450
10237SOL     OW31609   0.344   3.731   5.938
10237SOL    HW131610   0.331   3.773   5.848
10237SOL    HW231611   0.420   3.666   5.934
10238SOL     OW31612   3.360   6.397   1.245
10238SOL    HW131613   3.320   6.478   1.202
10238SOL    HW231614   3.451   6.420   1.280
10239SOL     OW31615   1.593   2.713   4.625
10239SOL    HW131616   1.648   2.662   4.691
10239SOL    HW231617   1.536   2.649   4.573
10240SOL     OW31618   2.479   6.470   1.112
10240SOL    HW131619   2.501   6.567   1.118
10240SOL    HW231620   2.552   6.417   1.156
10241SOL     OW31621   3.858   2.526   1.587
10241SOL    HW131622   3.769   2.559   1.617
10241SOL    HW231623   3.896   2.465   1.656
10242SOL     OW31624   0.180   2.841   0.055
10242SOL    HW131625   0.226   2.755   0.035
10242SOL    HW231626   0.163   2.848   0.153
10243SOL     OW31627   2.561   5.322   0.731
10243SOL    HW131628   2.631   5.390   0.750
10243SOL    HW231629   2.474   5.368   0.714
10244SOL     OW31630   2.679   4.697   1.210
10244SOL    HW131631   2.638   4.662   1.126
10244SOL    HW231632   2.706   4.621   1.269
10245SOL     OW31633   4.133   3.952   0.681
10245SOL    HW131634   4.065   4.020   0.708
10245SOL    HW231635   4.095   3.860   0.697
10246SOL     OW31636   2.921   3.841   4.145
10246SOL    HW131637   2.936   3.748   4.179
10246SOL    HW231638   2.829   3.871   4.168
10247SOL     OW31639   0.567   2.452   4.933
10247SOL    HW131640   0.627   2.440   5.012
10247SOL    HW231641   0.496   2.382   4.933
10248SOL     OW31642   0.941   0.165   3.306
10248SOL    HW131643   1.024   0.219   3.322
10248SOL    HW231644   0.867   0.200   3.363
10249SOL     OW31645   2.752   5.234   6.667
10249SOL    HW131646   2.829   5.224   6.605
10249SOL    HW231647   2.784   5.276   6.752
10250SOL     OW31648   4.295   2.465   0.724
10250SOL    HW131649   4.250   2.518   0.652
10250SOL    HW231650   4.394   2.464   0.708
10251SOL     OW31651   1.875   0.178   4.111
10251SOL    HW131652   1.814   0.219   4.178
10251SOL    HW231653   1.960   0.150   4.155
10252SOL     OW31654   5.496   4.087   6.099
10252SOL    HW131655   5.492   3.997   6.143
10252SOL    HW231656   5.414   4.139   6.123
10253SOL     OW31657   4.042   6.348   6.548
10253SOL    HW131658   4.051   6.312   6.455
10253SOL    HW231659   4.125   6.398   6.573
10254SOL     OW31660   5.384   1.078   4.934
10254SOL    HW131661   5.422   1.039   5.017
10254SOL    HW231662   5.358   1.173   4.950
10255SOL     OW31663   3.703   5.260   2.079
10255SOL    HW131664   3.660   5.325   2.142
10255SOL    HW231665   3.746   5.310   2.004
10256SOL     OW31666   4.437   1.175   2.928
10256SOL    HW131667   4.525   1.198   2.967
10256SOL    HW231668   4.408   1.247   2.865
10257SOL     OW31669   3.208   5.353   2.606
10257SOL    HW131670   3.185   5.257   2.589
10257SOL    HW231671   3.129   5.398   2.650
10258SOL     OW31672   1.496   1.403   1.694
10258SOL    HW131673   1.402   1.375   1.674
10258SOL    HW231674   1.558   1.325   1.679
10259SOL     OW31675   1.357   4.142   3.415
10259SOL    HW131676   1.287   4.074   3.400
10259SOL    HW231677   1.329   4.205   3.488
10260SOL     OW31678   0.971   0.603   3.527
10260SOL    HW131679   0.897   0.589   3.593
10260SOL    HW231680   1.058   0.583   3.571
10261SOL     OW31681   6.558   3.638   0.958
10261SOL    HW131682   6.489   3.626   0.887
10261SOL    HW231683   6.648   3.647   0.915
10262SOL     OW31684   4.009   1.036   0.407
10262SOL    HW131685   3.988   0.983   0.326
10262SOL    HW231686   4.075   1.107   0.385
10263SOL     OW31687   6.060   0.770   1.406
10263SOL    HW131688   6.105   0.850   1.446
10263SOL    HW231689   6.109   0.742   1.324
10264SOL     OW31690   6.952   5.854   6.303
10264SOL    HW131691   6.988   5.908   6.227
10264SOL    HW231692   6.985   5.760   6.296
10265SOL     OW31693   2.130   1.871   0.388
10265SOL    HW131694   2.053   1.875   0.325
10265SOL    HW231695   2.129   1.784   0.437
10266SOL     OW31696   2.837   3.450   2.114
10266SOL    HW131697   2.840   3.483   2.019
10266SOL    HW231698   2.775   3.372   2.120
10267SOL     OW31699   5.700   1.103   1.009
10267SOL    HW131700   5.635   1.075   1.081
10267SOL    HW231701   5.715   1.026   0.947
10268SOL     OW31702   4.172   0.217   1.131
10268SOL    HW131703   4.205   0.292   1.074
10268SOL    HW231704   4.076   0.199   1.108
10269SOL     OW31705   2.914   2.373   0.511
10269SOL    HW131706   2.818   2.347   0.519
10269SOL    HW231707   2.961   2.310   0.450
10270SOL     OW31708   2.600   0.097   2.094
10270SOL    HW131709   2.538   0.018   2.091
10270SOL    HW231710   2.638   0.105   2.186
10271SOL     OW31711   1.443   2.098   6.941
10271SOL    HW131712   1.358   2.065   6.900
10271SOL    HW231713   1.422   2.152   0.005
10272SOL     OW31714   6.365   0.328   5.168
10272SOL    HW131715   6.349   0.229   5.158
10272SOL    HW231716   6.278   0.376   5.158
10273SOL     OW31717   2.355   4.877   3.277
10273SOL    HW131718   2.432   4.836   3.326
10273SOL    HW231719   2.385   4.962   3.233
10274SOL     OW31720   7.006   5.425   5.400
10274SOL    HW131721   6.936   5.444   5.331
10274SOL    HW231722   7.017   5.506   5.458
10275SOL     OW31723   0.177   0.525   2.801
10275SOL    HW131724   0.110   0.557   2.734
10275SOL    HW231725   0.210   0.434   2.774
10276SOL     OW31726   3.495   6.077   6.022
10276SOL    HW131727   3.508   6.140   5.945
10276SOL    HW231728   3.494   6.129   6.107
10277SOL     OW31729   0.191   6.626   4.419
10277SOL    HW131730   0.188   6.533   4.381
10277SOL    HW231731   0.165   6.692   4.349
10278SOL     OW31732   6.619   0.409   5.208
10278SOL    HW131733   6.651   0.395   5.302
10278SOL    HW231734   6.519   0.398   5.205
10279SOL     OW31735   2.091   5.804   4.069
10279SOL    HW131736   2.035   5.802   3.986
10279SOL    HW231737   2.043   5.854   4.141
10280SOL     OW31738   5.255   4.178   0.644
10280SOL    HW131739   5.209   4.120   0.577
10280SOL    HW231740   5.353   4.158   0.645
10281SOL     OW31741   6.906   1.991   3.707
10281SOL    HW131742   6.835   2.008   3.639
10281SOL    HW231743   6.872   2.018   3.797
10282SOL     OW31744   5.271   3.103   3.294
10282SOL    HW131745   5.244   3.166   3.367
10282SOL    HW231746   5.323   3.028   3.333
10283SOL     OW31747   0.529   3.168   1.233
10283SOL    HW131748   0.591   3.202   1.163
10283SOL    HW231749   0.516   3.069   1.221
10284SOL     OW31750   0.292   3.176   3.770
10284SOL    HW131751   0.226   3.158   3.843
10284SOL    HW231752   0.243   3.205   3.688
10285SOL     OW31753   5.471   6.314   4.970
10285SOL    HW131754   5.438   6.221   4.987
10285SOL    HW231755   5.504   6.321   4.876
10286SOL     OW31756   2.924   1.249   3.798
10286SOL    HW131757   2.987   1.327   3.798
10286SOL    HW231758   2.934   1.199   3.885
10287SOL     OW31759   2.535   5.677   2.647
10287SOL    HW131760   2.539   5.730   2.732
10287SOL    HW231761   2.441   5.645   2.632
10288SOL     OW31762   3.558   0.010   5.470
10288SOL    HW131763   3.546   6.997   5.564
10288SOL    HW231764   3.473   7.011   5.419
10289SOL     OW31765   3.046   6.163   6.686
10289SOL    HW131766   3.088   6.112   6.761
10289SOL    HW231767   2.948   6.144   6.683
10290SOL     OW31768   3.039   3.322   2.433
10290SOL    HW131769   2.986   3.254   2.484
10290SOL    HW231770   3.125   3.280   2.403
10291SOL     OW31771   2.106   1.729   2.418
10291SOL    HW131772   2.179   1.789   2.451
10291SOL    HW231773   2.033   1.725   2.486
10292SOL     OW31774   6.297   6.443   6.921
10292SOL    HW131775   6.342   6.490   6.844
10292SOL    HW231776   6.204   6.417   6.895
10293SOL     OW31777   1.309   4.322   4.322
10293SOL    HW131778   1.404   4.294   4.329
10293SOL    HW231779   1.304   4.422   4.325
10294SOL     OW31780   3.809   1.743   1.965
10294SOL    HW131781   3.857   1.693   2.037
10294SOL    HW231782   3.840   1.838   1.963
10295SOL     OW31783   1.177   2.003   6.896
10295SOL    HW131784   1.134   1.919   6.931
10295SOL    HW231785   1.161   2.078   6.961
10296SOL     OW31786   5.783   1.334   5.867
10296SOL    HW131787   5.730   1.350   5.784
10296SOL    HW231788   5.739   1.378   5.945
10297SOL     OW31789   3.242   1.427   0.003
10297SOL    HW131790   3.278   1.462   6.934
10297SOL    HW231791   3.171   1.489   0.037
10298SOL     OW31792   0.690   2.282   2.745
10298SOL    HW131793   0.710   2.286   2.843
10298SOL    HW231794   0.687   2.375   2.707
10299SOL     OW31795   4.056   6.193   2.853
10299SOL    HW131796   4.029   6.143   2.936
10299SOL    HW231797   4.155   6.185   2.841
10300SOL     OW31798   0.891   3.622   1.873
10300SOL    HW131799   0.961   3.554   1.894
10300SOL    HW231800   0.802   3.590   1.908
10301SOL     OW31801   4.200   0.451   6.248
10301SOL    HW131802   4.112   0.436   6.202
10301SOL    HW231803   4.188   0.435   6.346
10302SOL     OW31804   2.654   6.140   4.785
10302SOL    HW131805   2.740   6.088   4.781
10302SOL    HW231806   2.653   6.208   4.713
10303SOL     OW31807   1.042   6.235   5.222
10303SOL    HW131808   1.000   6.150   5.189
10303SOL    HW231809   1.113   6.212   5.289
10304SOL     OW31810   6.208   6.494   0.176
10304SOL    HW131811   6.235   6.472   0.082
10304SOL    HW231812   6.280   6.465   0.238
10305SOL     OW31813   2.276   4.122   5.822
10305SOL    HW131814   2.355   4.184   5.813
10305SOL    HW231815   2.269   4.065   5.741
10306SOL     OW31816   4.707   0.174   0.996
10306SOL    HW131817   4.742   0.087   0.960
10306SOL    HW231818   4.629   0.157   1.056
10307SOL     OW31819   2.328   7.003   4.866
10307SOL    HW131820   2.344   6.993   4.768
10307SOL    HW231821   2.395   0.048   4.905
10308SOL     OW31822   2.691   4.844   2.739
10308SOL    HW131823   2.685   4.921   2.675
10308SOL    HW231824   2.617   4.780   2.720
10309SOL     OW31825   5.953   1.255   4.938
10309SOL    HW131826   6.040   1.213   4.966
10309SOL    HW231827   5.943   1.344   4.981
10310SOL     OW31828   3.044   3.097   5.729
10310SOL    HW131829   3.106   3.170   5.756
10310SOL    HW231830   3.002   3.057   5.810
10311SOL     OW31831   4.983   6.182   0.411
10311SOL    HW131832   4.982   6.158   0.508
10311SOL    HW231833   5.067   6.231   0.389
10312SOL     OW31834   4.483   0.346   2.196
10312SOL    HW131835   4.497   0.247   2.192
10312SOL    HW231836   4.385   0.365   2.210
10313SOL     OW31837   4.910   6.381   3.053
10313SOL    HW131838   4.818   6.380   3.094
10313SOL    HW231839   4.956   6.467   3.076
10314SOL     OW31840   0.607   0.365   1.214
10314SOL    HW131841   0.653   0.362   1.303
10314SOL    HW231842   0.519   0.412   1.224
10315SOL     OW31843   5.674   6.309   3.810
10315SOL    HW131844   5.600   6.277   3.868
10315SOL    HW231845   5.637   6.338   3.721
10316SOL     OW31846   0.816   2.154   0.114
10316SOL    HW131847   0.827   2.057   0.137
10316SOL    HW231848   0.829   2.209   0.196
10317SOL     OW31849   3.740   5.963   6.141
10317SOL    HW131850   3.717   5.893   6.210
10317SOL    HW231851   3.709   5.933   6.051
10318SOL     OW31852   5.990   6.651   0.279
10318SOL    HW131853   5.995   6.733   0.336
10318SOL    HW231854   6.082   6.613   0.268
10319SOL     OW31855   0.504   4.687   4.302
10319SOL    HW131856   0.478   4.600   4.344
10319SOL    HW231857   0.440   4.708   4.228
10320SOL     OW31858   0.611   6.779   3.885
10320SOL    HW131859   0.660   6.728   3.956
10320SOL    HW231860   0.513   6.767   3.896
10321SOL     OW31861   5.267   2.333   1.954
10321SOL    HW131862   5.318   2.419   1.955
10321SOL    HW231863   5.245   2.306   2.047
10322SOL     OW31864   4.582   4.420   4.849
10322SOL    HW131865   4.563   4.430   4.751
10322SOL    HW231866   4.509   4.464   4.901
10323SOL     OW31867   0.511   4.328   5.242
10323SOL    HW131868   0.466   4.402   5.293
10323SOL    HW231869   0.610   4.346   5.238
10324SOL     OW31870   3.223   3.124   2.332
10324SOL    HW131871   3.201   3.042   2.279
10324SOL    HW231872   3.287   3.181   2.280
10325SOL     OW31873   0.110   5.933   3.259
10325SOL    HW131874   0.067   5.846   3.284
10325SOL    HW231875   0.151   5.926   3.168
10326SOL     OW31876   5.569   3.210   6.648
10326SOL    HW131877   5.554   3.258   6.561
10326SOL    HW231878   5.562   3.111   6.633
10327SOL     OW31879   2.462   3.953   0.697
10327SOL    HW131880   2.550   3.905   0.697
10327SOL    HW231881   2.432   3.967   0.791
10328SOL     OW31882   6.675   3.047   1.616
10328SOL    HW131883   6.753   3.000   1.576
10328SOL    HW231884   6.618   2.981   1.666
10329SOL     OW31885   3.443   1.232   2.767
10329SOL    HW131886   3.535   1.200   2.744
10329SOL    HW231887   3.415   1.193   2.855
10330SOL     OW31888   4.542   0.637   1.843
10330SOL    HW131889   4.580   0.560   1.894
10330SOL    HW231890   4.542   0.719   1.901
10331SOL     OW31891   6.695   5.692   0.238
10331SOL    HW131892   6.735   5.600   0.247
10331SOL    HW231893   6.692   5.718   0.142
10332SOL     OW31894   1.147   0.993   6.672
10332SOL    HW131895   1.054   1.004   6.707
10332SOL    HW231896   1.176   0.898   6.684
10333SOL     OW31897   0.863   5.769   4.597
10333SOL    HW131898   0.772   5.797   4.627
10333SOL    HW231899   0.912   5.728   4.673
10334SOL     OW31900   3.207   0.178   3.895
10334SOL    HW131901   3.180   0.154   3.801
10334SOL    HW231902   3.176   0.106   3.957
10335SOL     OW31903   0.718   2.842   6.009
10335SOL    HW131904   0.622   2.834   6.034
10335SOL    HW231905   0.737   2.935   5.978
10336SOL     OW31906   5.115   0.280   2.942
10336SOL    HW131907   5.102   0.336   2.860
10336SOL    HW231908   5.206   0.238   2.939
10337SOL     OW31909   6.204   5.330   6.815
10337SOL    HW131910   6.167   5.423   6.814
10337SOL    HW231911   6.204   5.295   6.908
10338SOL     OW31912   2.275   6.460   1.986
10338SOL    HW131913   2.267   6.560   1.977
10338SOL    HW231914   2.335   6.438   2.063
10339SOL     OW31915   6.479   2.442   5.583
10339SOL    HW131916   6.510   2.374   5.517
10339SOL    HW231917   6.391   2.414   5.622
10340SOL     OW31918   1.982   3.974   6.531
10340SOL    HW131919   2.048   4.013   6.466
10340SOL    HW231920   1.956   3.882   6.501
10341SOL     OW31921   2.267   2.500   2.915
10341SOL    HW131922   2.360   2.530   2.933
10341SOL    HW231923   2.267   2.402   2.892
10342SOL     OW31924   0.934   0.932   2.975
10342SOL    HW131925   1.002   0.931   2.903
10342SOL    HW231926   0.849   0.973   2.941
10343SOL     OW31927   2.419   5.665   1.128
10343SOL    HW131928   2.501   5.647   1.182
10343SOL    HW231929   2.423   5.759   1.093
10344SOL     OW31930   4.185   4.390   6.423
10344SOL    HW131931   4.263   4.443   6.455
10344SOL    HW231932   4.113   4.392   6.492
10345SOL     OW31933   1.218   3.318   4.945
10345SOL    HW131934   1.273   3.401   4.957
10345SOL    HW231935   1.262   3.259   4.878
10346SOL     OW31936   0.152   5.545   1.185
10346SOL    HW131937   0.064   5.524   1.143
10346SOL    HW231938   0.180   5.638   1.161
10347SOL     OW31939   4.260   1.454   3.603
10347SOL    HW131940   4.206   1.461   3.519
10347SOL    HW231941   4.328   1.527   3.606
10348SOL     OW31942   6.002   4.152   0.596
10348SOL    HW131943   5.977   4.211   0.520
10348SOL    HW231944   6.077   4.194   0.647
10349SOL     OW31945   0.385   6.156   6.723
10349SOL    HW131946   0.369   6.074   6.779
10349SOL    HW231947   0.468   6.143   6.669
10350SOL     OW31948   2.884   0.334   5.887
10350SOL    HW131949   2.828   0.386   5.823
10350SOL    HW231950   2.980   0.340   5.860
10351SOL     OW31951   4.877   5.466   5.476
10351SOL    HW131952   4.934   5.543   5.506
10351SOL    HW231953   4.889   5.389   5.538
10352SOL     OW31954   3.596   2.874   6.114
10352SOL    HW131955   3.682   2.827   6.135
10352SOL    HW231956   3.564   2.847   6.023
10353SOL     OW31957   6.809   2.314   4.934
10353SOL    HW131958   6.899   2.311   4.978
10353SOL    HW231959   6.800   2.400   4.884
10354SOL     OW31960   5.602   1.679   1.963
10354SOL    HW131961   5.641   1.597   1.919
10354SOL    HW231962   5.510   1.658   1.996
10355SOL     OW31963   2.161   5.821   1.759
10355SOL    HW131964   2.137   5.838   1.855
10355SOL    HW231965   2.079   5.790   1.710
10356SOL     OW31966   0.009   3.536   5.255
10356SOL    HW131967   6.930   3.514   5.264
10356SOL    HW231968   0.064   3.464   5.298
10357SOL     OW31969   2.428   1.564   0.029
10357SOL    HW131970   2.348   1.613   0.065
10357SOL    HW231971   2.503   1.570   0.094
10358SOL     OW31972   0.019   1.805   1.504
10358SOL    HW131973   0.040   1.711   1.531
10358SOL    HW231974   6.957   1.837   1.556
10359SOL     OW31975   0.014   0.880   1.532
10359SOL    HW131976   0.059   0.928   1.608
10359SOL    HW231977   7.000   0.947   1.464
10360SOL     OW31978   5.591   6.385   3.564
10360SOL    HW131979   5.653   6.441   3.508
10360SOL    HW231980   5.564   6.303   3.513
10361SOL     OW31981   2.272   4.709   1.263
10361SOL    HW131982   2.191   4.731   1.318
10361SOL    HW231983   2.315   4.793   1.233
10362SOL     OW31984   1.886   4.443   4.746
10362SOL    HW131985   1.933   4.355   4.736
10362SOL    HW231986   1.935   4.499   4.813
10363SOL     OW31987   4.899   0.974   3.983
10363SOL    HW131988   4.839   1.012   4.053
10363SOL    HW231989   4.978   1.034   3.971
10364SOL     OW31990   1.823   4.002   1.267
10364SOL    HW131991   1.847   4.050   1.351
10364SOL    HW231992   1.811   3.905   1.286
10365SOL     OW31993   4.620   5.792   0.094
10365SOL    HW131994   4.608   5.694   0.109
10365SOL    HW231995   4.709   5.809   0.050
10366SOL     OW31996   3.270   6.549   3.578
10366SOL    HW131997   3.361   6.571   3.543
10366SOL    HW231998   3.263   6.451   3.596
10367SOL     OW31999   6.718   2.380   3.528
10367SOL    HW132000   6.773   2.358   3.608
10367SOL    HW232001   6.770   2.362   3.445
10368SOL     OW32002   2.204   0.487   1.537
10368SOL    HW132003   2.121   0.440   1.568
10368SOL    HW232004   2.226   0.562   1.600
10369SOL     OW32005   3.812   2.886   0.054
10369SOL    HW132006   3.802   2.904   6.974
10369SOL    HW232007   3.780   2.965   0.106
10370SOL     OW32008   3.256   0.745   5.181
10370SOL    HW132009   3.158   0.740   5.160
10370SOL    HW232010   3.302   0.799   5.111
10371SOL     OW32011   5.018   6.453   5.878
10371SOL    HW132012   5.055   6.370   5.837
10371SOL    HW232013   5.013   6.442   5.978
10372SOL     OW32014   1.053   0.494   2.973
10372SOL    HW132015   1.084   0.576   2.925
10372SOL    HW232016   1.116   0.419   2.954
10373SOL     OW32017   1.087   6.120   4.814
10373SOL    HW132018   1.157   6.190   4.803
10373SOL    HW232019   1.007   6.159   4.858
10374SOL     OW32020   3.209   2.182   3.351
10374SOL    HW132021   3.119   2.145   3.376
10374SOL    HW232022   3.243   2.136   3.270
10375SOL     OW32023   6.001   2.202   0.668
10375SOL    HW132024   5.943   2.180   0.747
10375SOL    HW232025   5.969   2.287   0.626
10376SOL     OW32026   0.406   0.896   3.901
10376SOL    HW132027   0.406   0.879   3.802
10376SOL    HW232028   0.313   0.910   3.932
10377SOL     OW32029   1.085   6.654   4.595
10377SOL    HW132030   1.116   6.624   4.505
10377SOL    HW232031   0.998   6.702   4.585
10378SOL     OW32032   0.315   6.906   6.644
10378SOL    HW132033   0.376   6.931   6.569
10378SOL    HW232034   0.274   6.817   6.624
10379SOL     OW32035   5.261   1.685   4.314
10379SOL    HW132036   5.338   1.714   4.372
10379SOL    HW232037   5.182   1.744   4.331
10380SOL     OW32038   5.550   0.429   2.285
10380SOL    HW132039   5.609   0.361   2.243
10380SOL    HW232040   5.526   0.499   2.217
10381SOL     OW32041   4.740   5.152   5.174
10381SOL    HW132042   4.808   5.093   5.130
10381SOL    HW232043   4.771   5.248   5.169
10382SOL     OW32044   1.945   5.709   0.498
10382SOL    HW132045   2.038   5.734   0.523
10382SOL    HW232046   1.883   5.785   0.520
10383SOL     OW32047   0.041   2.401   6.992
10383SOL    HW132048   0.050   2.306   6.963
10383SOL    HW232049   0.063   2.409   0.072
10384SOL     OW32050   6.192   0.007   0.337
10384SOL    HW132051   6.227   6.934   0.312
10384SOL    HW232052   6.244   0.042   0.414
10385SOL     OW32053   5.906   1.820   0.100
10385SOL    HW132054   5.820   1.861   0.129
10385SOL    HW232055   5.894   1.721   0.088
10386SOL     OW32056   5.765   3.092   6.048
10386SOL    HW132057   5.740   2.995   6.043
10386SOL    HW232058   5.711   3.137   6.119
10387SOL     OW32059   2.365   2.673   3.269
10387SOL    HW132060   2.426   2.682   3.348
10387SOL    HW232061   2.272   2.657   3.300
10388SOL     OW32062   1.450   4.679   3.017
10388SOL    HW132063   1.479   4.656   3.110
10388SOL    HW232064   1.432   4.595   2.966
10389SOL     OW32065   0.775   5.451   3.316
10389SOL    HW132066   0.758   5.353   3.315
10389SOL    HW232067   0.871   5.469   3.291
10390SOL     OW32068   1.481   3.321   3.509
10390SOL    HW132069   1.540   3.241   3.517
10390SOL    HW232070   1.407   3.316   3.577
10391SOL     OW32071   3.132   6.742   5.747
10391SOL    HW132072   3.131   6.768   5.651
10391SOL    HW232073   3.199   6.799   5.796
10392SOL     OW32074   6.845   5.145   6.467
10392SOL    HW132075   6.833   5.211   6.393
10392SOL    HW232076   6.758   5.129   6.512
10393SOL     OW32077   1.231   1.456   4.008
10393SOL    HW132078   1.284   1.382   3.966
10393SOL    HW232079   1.233   1.445   4.108
10394SOL     OW32080   2.334   6.697   6.677
10394SOL    HW132081   2.354   6.723   6.582
10394SOL    HW232082   2.259   6.630   6.677
10395SOL     OW32083   1.106   1.252   4.386
10395SOL    HW132084   1.192   1.213   4.419
10395SOL    HW232085   1.109   1.351   4.396
10396SOL     OW32086   0.187   0.241   5.015
10396SOL    HW132087   0.281   0.275   5.009
10396SOL    HW232088   0.184   0.145   4.990
10397SOL     OW32089   4.246   1.809   2.540
10397SOL    HW132090   4.171   1.837   2.601
10397SOL    HW232091   4.332   1.809   2.591
10398SOL     OW32092   6.767   2.868   2.589
10398SOL    HW132093   6.842   2.805   2.570
10398SOL    HW232094   6.681   2.828   2.556
10399SOL     OW32095   5.928   1.868   5.383
10399SOL    HW132096   6.024   1.842   5.381
10399SOL    HW232097   5.896   1.871   5.478
10400SOL     OW32098   2.278   4.237   1.217
10400SOL    HW132099   2.271   4.238   1.118
10400SOL    HW232100   2.214   4.170   1.255
10401SOL     OW32101   0.755   6.377   1.142
10401SOL    HW132102   0.696   6.346   1.217
10401SOL    HW232103   0.848   6.389   1.175
10402SOL     OW32104   0.384   3.130   4.128
10402SOL    HW132105   0.302   3.170   4.088
10402SOL    HW232106   0.431   3.075   4.059
10403SOL     OW32107   4.960   1.530   2.180
10403SOL    HW132108   5.002   1.459   2.236
10403SOL    HW232109   4.998   1.527   2.087
10404SOL     OW32110   0.064   6.766   3.485
10404SOL    HW132111   7.008   6.776   3.551
10404SOL    HW232112   0.040   6.694   3.420
10405SOL     OW32113   1.873   6.815   6.283
10405SOL    HW132114   1.862   6.768   6.195
10405SOL    HW232115   1.966   6.803   6.316
10406SOL     OW32116   2.629   5.176   6.166
10406SOL    HW132117   2.606   5.256   6.222
10406SOL    HW232118   2.681   5.111   6.222
10407SOL     OW32119   1.238   1.234   6.762
10407SOL    HW132120   1.172   1.265   6.830
10407SOL    HW232121   1.211   1.144   6.728
10408SOL     OW32122   4.225   5.211   3.207
10408SOL    HW132123   4.309   5.257   3.237
10408SOL    HW232124   4.248   5.121   3.170
10409SOL     OW32125   6.164   4.516   2.356
10409SOL    HW132126   6.081   4.561   2.389
10409SOL    HW232127   6.241   4.544   2.412
10410SOL     OW32128   5.971   6.953   0.936
10410SOL    HW132129   5.918   6.897   0.872
10410SOL    HW232130   6.044   6.999   0.886
10411SOL     OW32131   1.805   4.626   2.539
10411SOL    HW132132   1.820   4.725   2.534
10411SOL    HW232133   1.863   4.580   2.471
10412SOL     OW32134   0.539   2.084   0.024
10412SOL    HW132135   0.502   2.033   0.101
10412SOL    HW232136   0.634   2.109   0.043
10413SOL     OW32137   0.030   2.167   6.264
10413SOL    HW132138   6.977   2.236   6.281
10413SOL    HW232139   0.031   2.143   6.167
10414SOL     OW32140   5.665   0.127   5.348
10414SOL    HW132141   5.709   0.175   5.424
10414SOL    HW232142   5.567   0.149   5.347
10415SOL     OW32143   0.658   6.052   3.507
10415SOL    HW132144   0.684   6.062   3.603
10415SOL    HW232145   0.718   6.109   3.450
10416SOL     OW32146   5.029   0.361   6.771
10416SOL    HW132147   4.952   0.403   6.723
10416SOL    HW232148   5.025   0.384   6.868
10417SOL     OW32149   3.829   4.986   4.591
10417SOL    HW132150   3.893   4.913   4.567
10417SOL    HW232151   3.816   5.046   4.512
10418SOL     OW32152   6.448   3.725   6.732
10418SOL    HW132153   6.363   3.709   6.783
10418SOL    HW232154   6.509   3.646   6.744
10419SOL     OW32155   2.639   1.506   4.376
10419SOL    HW132156   2.597   1.482   4.463
10419SOL    HW232157   2.674   1.599   4.380
10420SOL     OW32158   5.475   2.934   3.406
10420SOL    HW132159   5.558   2.984   3.385
10420SOL    HW232160   5.461   2.862   3.338
10421SOL     OW32161   0.704   5.036   3.685
10421SOL    HW132162   0.669   4.971   3.617
10421SOL    HW232163   0.659   5.019   3.773
10422SOL     OW32164   5.957   3.674   5.106
10422SOL    HW132165   6.046   3.635   5.131
10422SOL    HW232166   5.905   3.607   5.053
10423SOL     OW32167   2.578   4.957   3.891
10423SOL    HW132168   2.524   4.889   3.941
10423SOL    HW232169   2.617   4.915   3.809
10424SOL     OW32170   3.228   1.474   0.337
10424SOL    HW132171   3.192   1.509   0.424
10424SOL    HW232172   3.175   1.511   0.261
10425SOL     OW32173   1.837   3.151   1.130
10425SOL    HW132174   1.856   3.201   1.045
10425SOL    HW232175   1.746   3.110   1.125
10426SOL     OW32176   6.247   2.205   6.284
10426SOL    HW132177   6.212   2.155   6.363
10426SOL    HW232178   6.291   2.140   6.221
10427SOL     OW32179   5.354   1.265   4.324
10427SOL    HW132180   5.351   1.284   4.423
10427SOL    HW232181   5.413   1.185   4.308
10428SOL     OW32182   1.733   0.026   4.812
10428SOL    HW132183   1.694   6.954   4.793
10428SOL    HW232184   1.690   0.065   4.893
10429SOL     OW32185   1.276   3.004   1.145
10429SOL    HW132186   1.211   2.929   1.138
10429SOL    HW232187   1.348   2.981   1.211
10430SOL     OW32188   3.335   0.404   4.013
10430SOL    HW132189   3.282   0.335   3.965
10430SOL    HW232190   3.325   0.492   3.967
10431SOL     OW32191   3.868   0.800   3.059
10431SOL    HW132192   3.780   0.756   3.072
10431SOL    HW232193   3.941   0.742   3.096
10432SOL     OW32194   1.043   5.809   6.260
10432SOL    HW132195   1.004   5.726   6.219
10432SOL    HW232196   0.993   5.889   6.226
10433SOL     OW32197   3.219   6.879   3.257
10433SOL    HW132198   3.301   6.846   3.210
10433SOL    HW232199   3.246   6.929   3.339
10434SOL     OW32200   5.159   0.845   6.046
10434SOL    HW132201   5.093   0.779   6.082
10434SOL    HW232202   5.226   0.867   6.117
10435SOL     OW32203   2.670   1.762   0.459
10435SOL    HW132204   2.682   1.842   0.519
10435SOL    HW232205   2.637   1.792   0.370
10436SOL     OW32206   0.094   3.809   5.252
10436SOL    HW132207   0.110   3.845   5.160
10436SOL    HW232208   0.081   3.710   5.247
10437SOL     OW32209   5.928   6.429   4.559
10437SOL    HW132210   5.905   6.344   4.512
10437SOL    HW232211   5.877   6.435   4.645
10438SOL     OW32212   0.085   5.960   6.811
10438SOL    HW132213   0.107   5.979   6.715
10438SOL    HW232214   0.012   5.891   6.815
10439SOL     OW32215   6.055   5.314   4.553
10439SOL    HW132216   6.041   5.394   4.612
10439SOL    HW232217   5.980   5.250   4.566
10440SOL     OW32218   5.998   2.684   0.918
10440SOL    HW132219   6.041   2.613   0.863
10440SOL    HW232220   5.938   2.740   0.860
10441SOL     OW32221   4.790   1.512   0.250
10441SOL    HW132222   4.799   1.609   0.271
10441SOL    HW232223   4.811   1.496   0.154
10442SOL     OW32224   1.697   1.660   4.927
10442SOL    HW132225   1.623   1.728   4.928
10442SOL    HW232226   1.685   1.598   4.849
10443SOL     OW32227   1.251   0.982   1.080
10443SOL    HW132228   1.187   1.022   1.146
10443SOL    HW232229   1.341   0.975   1.123
10444SOL     OW32230   3.726   5.025   4.321
10444SOL    HW132231   3.783   4.967   4.263
10444SOL    HW232232   3.631   5.018   4.292
10445SOL     OW32233   1.083   3.428   3.538
10445SOL    HW132234   1.064   3.360   3.467
10445SOL    HW232235   1.004   3.437   3.598
10446SOL     OW32236   2.413   4.920   5.797
10446SOL    HW132237   2.366   4.991   5.849
10446SOL    HW232238   2.510   4.944   5.788
10447SOL     OW32239   0.410   2.385   2.544
10447SOL    HW132240   0.407   2.287   2.522
10447SOL    HW232241   0.318   2.416   2.569
10448SOL     OW32242   2.651   6.565   2.121
10448SOL    HW132243   2.640   6.552   2.219
10448SOL    HW232244   2.617   6.656   2.095
10449SOL     OW32245   3.756   5.165   4.777
10449SOL    HW132246   3.660   5.138   4.781
10449SOL    HW232247   3.798   5.130   4.693
10450SOL     OW32248   6.827   0.771   4.952
10450SOL    HW132249   6.751   0.830   4.928
10450SOL    HW232250   6.793   0.679   4.972
10451SOL     OW32251   3.491   1.787   3.726
10451SOL    HW132252   3.400   1.827   3.735
10451SOL    HW232253   3.482   1.689   3.707
10452SOL     OW32254   6.368   3.037   4.614
10452SOL    HW132255   6.335   3.124   4.650
10452SOL    HW232256   6.319   2.962   4.660
10453SOL     OW32257   4.489   5.877   4.006
10453SOL    HW132258   4.442   5.890   4.093
10453SOL    HW232259   4.587   5.893   4.018
10454SOL     OW32260   6.513   1.190   6.663
10454SOL    HW132261   6.552   1.282   6.670
10454SOL    HW232262   6.528   1.154   6.571
10455SOL     OW32263   0.449   6.419   3.265
10455SOL    HW132264   0.436   6.347   3.333
10455SOL    HW232265   0.496   6.497   3.307
10456SOL     OW32266   1.449   5.753   6.547
10456SOL    HW132267   1.393   5.745   6.630
10456SOL    HW232268   1.459   5.663   6.504
10457SOL     OW32269   4.034   2.069   6.624
10457SOL    HW132270   4.019   2.038   6.530
10457SOL    HW232271   4.031   1.991   6.686
10458SOL     OW32272   1.060   5.941   0.011
10458SOL    HW132273   1.082   5.975   0.102
10458SOL    HW232274   0.996   5.865   0.019
10459SOL     OW32275   6.185   5.096   1.713
10459SOL    HW132276   6.274   5.075   1.673
10459SOL    HW232277   6.169   5.195   1.710
10460SOL     OW32278   6.812   0.440   0.632
10460SOL    HW132279   6.856   0.355   0.660
10460SOL    HW232280   6.713   0.427   0.625
10461SOL     OW32281   6.963   4.563   6.462
10461SOL    HW132282   7.013   4.520   6.537
10461SOL    HW232283   6.993   4.658   6.452
10462SOL     OW32284   4.159   3.114   6.157
10462SOL    HW132285   4.076   3.059   6.147
10462SOL    HW232286   4.139   3.193   6.215
10463SOL     OW32287   5.005   2.237   6.367
10463SOL    HW132288   5.100   2.231   6.338
10463SOL    HW232289   4.947   2.189   6.301
10464SOL     OW32290   6.440   4.292   2.548
10464SOL    HW132291   6.475   4.375   2.591
10464SOL    HW232292   6.376   4.247   2.611
10465SOL     OW32293   5.272   4.612   1.342
10465SOL    HW132294   5.261   4.650   1.433
10465SOL    HW232295   5.291   4.514   1.348
10466SOL     OW32296   6.634   4.411   5.962
10466SOL    HW132297   6.650   4.354   5.881
10466SOL    HW232298   6.676   4.501   5.948
10467SOL     OW32299   0.793   2.949   0.114
10467SOL    HW132300   0.698   2.917   0.116
10467SOL    HW232301   0.814   2.995   0.200
10468SOL     OW32302   1.478   4.457   3.542
10468SOL    HW132303   1.520   4.379   3.589
10468SOL    HW232304   1.423   4.510   3.607
10469SOL     OW32305   0.440   1.271   3.947
10469SOL    HW132306   0.410   1.251   3.854
10469SOL    HW232307   0.380   1.225   4.013
10470SOL     OW32308   2.147   3.241   3.202
10470SOL    HW132309   2.172   3.146   3.219
10470SOL    HW232310   2.145   3.292   3.288
10471SOL     OW32311   2.748   6.431   6.736
10471SOL    HW132312   2.736   6.353   6.798
10471SOL    HW232313   2.841   6.432   6.701
10472SOL     OW32314   3.564   4.674   6.784
10472SOL    HW132315   3.521   4.598   6.734
10472SOL    HW232316   3.613   4.732   6.719
10473SOL     OW32317   5.802   4.871   1.161
10473SOL    HW132318   5.860   4.804   1.114
10473SOL    HW232319   5.750   4.825   1.233
10474SOL     OW32320   5.728   0.678   4.856
10474SOL    HW132321   5.706   0.666   4.953
10474SOL    HW232322   5.743   0.588   4.814
10475SOL     OW32323   1.094   5.264   1.028
10475SOL    HW132324   1.107   5.243   1.125
10475SOL    HW232325   1.171   5.228   0.975
10476SOL     OW32326   4.668   6.604   1.302
10476SOL    HW132327   4.744   6.584   1.240
10476SOL    HW232328   4.692   6.577   1.395
10477SOL     OW32329   0.401   5.818   3.297
10477SOL    HW132330   0.321   5.871   3.327
10477SOL    HW232331   0.475   5.830   3.364
10478SOL     OW32332   6.718   0.844   6.811
10478SOL    HW132333   6.635   0.806   6.852
10478SOL    HW232334   6.724   0.941   6.831
10479SOL     OW32335   0.714   3.063   1.809
10479SOL    HW132336   0.756   2.999   1.873
10479SOL    HW232337   0.785   3.107   1.754
10480SOL     OW32338   2.274   0.769   3.701
10480SOL    HW132339   2.299   0.755   3.798
10480SOL    HW232340   2.205   0.702   3.674
10481SOL     OW32341   7.003   1.164   1.532
10481SOL    HW132342   6.917   1.113   1.538
10481SOL    HW232343   7.008   1.211   1.444
10482SOL     OW32344   5.563   2.958   4.077
10482SOL    HW132345   5.555   3.056   4.096
10482SOL    HW232346   5.651   2.925   4.113
10483SOL     OW32347   6.779   6.415   0.392
10483SOL    HW132348   6.707   6.444   0.455
10483SOL    HW232349   6.744   6.417   0.298
10484SOL     OW32350   6.549   1.187   2.521
10484SOL    HW132351   6.495   1.106   2.544
10484SOL    HW232352   6.514   1.266   2.572
10485SOL     OW32353   5.169   3.425   5.556
10485SOL    HW132354   5.166   3.424   5.457
10485SOL    HW232355   5.081   3.459   5.592
10486SOL     OW32356   5.668   3.146   2.104
10486SOL    HW132357   5.692   3.064   2.156
10486SOL    HW232358   5.647   3.121   2.009
10487SOL     OW32359   5.721   6.792   1.559
10487SOL    HW132360   5.748   6.765   1.467
10487SOL    HW232361   5.803   6.823   1.609
10488SOL     OW32362   2.274   2.936   0.144
10488SOL    HW132363   2.359   2.918   0.094
10488SOL    HW232364   2.296   2.958   0.239
10489SOL     OW32365   1.491   5.633   4.883
10489SOL    HW132366   1.474   5.723   4.844
10489SOL    HW232367   1.413   5.606   4.940
10490SOL     OW32368   6.990   0.229   4.026
10490SOL    HW132369   6.983   0.278   3.939
10490SOL    HW232370   6.968   0.132   4.012
10491SOL     OW32371   0.604   4.447   5.568
10491SOL    HW132372   0.531   4.379   5.560
10491SOL    HW232373   0.575   4.519   5.632
10492SOL     OW32374   3.958   4.023   5.754
10492SOL    HW132375   3.927   4.111   5.719
10492SOL    HW232376   3.959   3.956   5.680
10493SOL     OW32377   3.524   0.956   0.820
10493SOL    HW132378   3.591   0.926   0.887
10493SOL    HW232379   3.492   0.877   0.767
10494SOL     OW32380   5.918   2.514   4.551
10494SOL    HW132381   5.942   2.513   4.648
10494SOL    HW232382   5.857   2.437   4.530
10495SOL     OW32383   1.757   6.863   0.145
10495SOL    HW132384   1.754   6.829   0.239
10495SOL    HW232385   1.777   6.961   0.145
10496SOL     OW32386   6.518   0.308   5.471
10496SOL    HW132387   6.427   0.276   5.446
10496SOL    HW232388   6.577   0.230   5.492
10497SOL     OW32389   1.360   1.195   0.698
10497SOL    HW132390   1.382   1.114   0.643
10497SOL    HW232391   1.261   1.212   0.693
10498SOL     OW32392   2.816   5.447   6.280
10498SOL    HW132393   2.855   5.382   6.214
10498SOL    HW232394   2.717   5.438   6.282
10499SOL     OW32395   3.337   5.140   3.129
10499SOL    HW132396   3.424   5.163   3.174
10499SOL    HW232397   3.289   5.225   3.106
10500SOL     OW32398   1.157   2.398   6.854
10500SOL    HW132399   1.080   2.360   6.905
10500SOL    HW232400   1.208   2.325   6.809
10501SOL     OW32401   1.691   2.447   3.066
10501SOL    HW132402   1.740   2.425   3.150
10501SOL    HW232403   1.628   2.373   3.043
10502SOL     OW32404   3.062   6.517   5.827
10502SOL    HW132405   3.143   6.468   5.858
10502SOL    HW232406   3.087   6.612   5.805
10503SOL     OW32407   2.581   3.320   5.781
10503SOL    HW132408   2.603   3.416   5.800
10503SOL    HW232409   2.649   3.283   5.717
10504SOL     OW32410   2.996   2.787   1.118
10504SOL    HW132411   3.015   2.832   1.205
10504SOL    HW232412   3.042   2.699   1.115
10505SOL     OW32413   0.355   6.858   1.378
10505SOL    HW132414   0.413   6.939   1.386
10505SOL    HW232415   0.285   6.872   1.308
10506SOL     OW32416   0.297   3.924   5.635
10506SOL    HW132417   0.249   3.967   5.559
10506SOL    HW232418   0.292   3.983   5.715
10507SOL     OW32419   0.633   0.092   4.846
10507SOL    HW132420   0.695   0.083   4.769
10507SOL    HW232421   0.539   0.075   4.815
10508SOL     OW32422   5.275   4.399   3.062
10508SOL    HW132423   5.192   4.370   3.013
10508SOL    HW232424   5.354   4.353   3.023
10509SOL     OW32425   1.830   0.486   5.553
10509SOL    HW132426   1.811   0.536   5.638
10509SOL    HW232427   1.750   0.432   5.528
10510SOL     OW32428   6.860   5.850   0.010
10510SOL    HW132429   6.779   5.889   0.054
10510SOL    HW232430   6.933   5.838   0.078
10511SOL     OW32431   5.729   2.384   0.165
10511SOL    HW132432   5.698   2.307   0.221
10511SOL    HW232433   5.695   2.469   0.204
10512SOL     OW32434   3.745   6.376   6.899
10512SOL    HW132435   3.704   6.355   6.987
10512SOL    HW232436   3.708   6.314   6.829
10513SOL     OW32437   6.642   2.455   0.092
10513SOL    HW132438   6.593   2.377   0.054
10513SOL    HW232439   6.679   2.431   0.182
10514SOL     OW32440   6.694   3.801   1.400
10514SOL    HW132441   6.717   3.887   1.447
10514SOL    HW232442   6.678   3.820   1.303
10515SOL     OW32443   6.452   2.200   4.246
10515SOL    HW132444   6.501   2.151   4.319
10515SOL    HW232445   6.420   2.288   4.281
10516SOL     OW32446   3.985   0.059   6.454
10516SOL    HW132447   4.082   0.045   6.433
10516SOL    HW232448   3.953   7.003   6.513
10517SOL     OW32449   0.760   1.591   3.007
10517SOL    HW132450   0.680   1.616   3.062
10517SOL    HW232451   0.843   1.609   3.060
10518SOL     OW32452   0.553   0.045   1.071
10518SOL    HW132453   0.532   6.968   1.049
10518SOL    HW232454   0.568   0.053   1.170
10519SOL     OW32455   3.218   3.625   5.796
10519SOL    HW132456   3.317   3.634   5.784
10519SOL    HW232457   3.171   3.693   5.739
10520SOL     OW32458   4.107   3.521   6.510
10520SOL    HW132459   4.206   3.519   6.518
10520SOL    HW232460   4.067   3.551   6.597
10521SOL     OW32461   6.625   5.390   1.656
10521SOL    HW132462   6.564   5.442   1.716
10521SOL    HW232463   6.664   5.313   1.706
10522SOL     OW32464   6.224   0.419   1.877
10522SOL    HW132465   6.147   0.396   1.936
10522SOL    HW232466   6.247   0.341   1.819
10523SOL     OW32467   0.243   5.735   6.470
10523SOL    HW132468   0.326   5.770   6.426
10523SOL    HW232469   0.175   5.809   6.477
10524SOL     OW32470   3.726   0.971   4.137
10524SOL    HW132471   3.792   0.938   4.070
10524SOL    HW232472   3.769   0.975   4.227
10525SOL     OW32473   2.673   6.340   4.589
10525SOL    HW132474   2.663   6.353   4.491
10525SOL    HW232475   2.683   6.429   4.634
10526SOL     OW32476   5.795   6.740   2.252
10526SOL    HW132477   5.739   6.813   2.216
10526SOL    HW232478   5.755   6.704   2.336
10527SOL     OW32479   1.747   2.467   4.702
10527SOL    HW132480   1.709   2.374   4.700
10527SOL    HW232481   1.749   2.499   4.797
10528SOL     OW32482   6.778   4.879   5.419
10528SOL    HW132483   6.843   4.953   5.405
10528SOL    HW232484   6.741   4.885   5.512
10529SOL     OW32485   6.017   6.239   3.568
10529SOL    HW132486   5.948   6.277   3.506
10529SOL    HW232487   6.082   6.311   3.593
10530SOL     OW32488   2.063   1.946   5.700
10530SOL    HW132489   1.966   1.959   5.717
10530SOL    HW232490   2.099   1.877   5.763
10531SOL     OW32491   1.936   2.653   5.469
10531SOL    HW132492   1.920   2.736   5.416
10531SOL    HW232493   2.001   2.672   5.543
10532SOL     OW32494   3.267   2.862   5.284
10532SOL    HW132495   3.341   2.853   5.350
10532SOL    HW232496   3.184   2.820   5.321
10533SOL     OW32497   2.523   1.206   6.191
10533SOL    HW132498   2.510   1.140   6.117
10533SOL    HW232499   2.610   1.188   6.237
10534SOL     OW32500   6.058   5.568   1.176
10534SOL    HW132501   6.002   5.549   1.257
10534SOL    HW232502   6.060   5.666   1.160
10535SOL     OW32503   0.250   1.077   2.532
10535SOL    HW132504   0.343   1.075   2.570
10535SOL    HW232505   0.226   1.172   2.510
10536SOL     OW32506   4.550   0.236   3.344
10536SOL    HW132507   4.470   0.287   3.312
10536SOL    HW232508   4.559   0.151   3.293
10537SOL     OW32509   0.566   4.687   1.196
10537SOL    HW132510   0.598   4.766   1.145
10537SOL    HW232511   0.624   4.673   1.277
10538SOL     OW32512   5.173   3.554   0.252
10538SOL    HW132513   5.161   3.630   0.189
10538SOL    HW232514   5.252   3.500   0.224
10539SOL     OW32515   1.043   2.879   5.857
10539SOL    HW132516   0.987   2.801   5.827
10539SOL    HW232517   1.138   2.849   5.869
10540SOL     OW32518   2.756   0.623   6.811
10540SOL    HW132519   2.733   0.607   6.715
10540SOL    HW232520   2.791   0.539   6.852
10541SOL     OW32521   3.733   2.764   0.605
10541SOL    HW132522   3.675   2.816   0.542
10541SOL    HW232523   3.771   2.827   0.673
10542SOL     OW32524   0.869   2.625   0.332
10542SOL    HW132525   0.956   2.585   0.304
10542SOL    HW232526   0.862   2.718   0.296
10543SOL     OW32527   2.203   1.347   5.334
10543SOL    HW132528   2.222   1.257   5.374
10543SOL    HW232529   2.208   1.417   5.405
10544SOL     OW32530   0.668   2.367   2.073
10544SOL    HW132531   0.569   2.376   2.076
10544SOL    HW232532   0.693   2.270   2.079
10545SOL     OW32533   5.745   0.272   2.156
10545SOL    HW132534   5.787   0.310   2.073
10545SOL    HW232535   5.817   0.248   2.221
10546SOL     OW32536   3.233   0.840   4.185
10546SOL    HW132537   3.220   0.843   4.284
10546SOL    HW232538   3.310   0.899   4.159
10547SOL     OW32539   4.222   1.291   0.760
10547SOL    HW132540   4.219   1.377   0.708
10547SOL    HW232541   4.173   1.220   0.710
10548SOL     OW32542   4.731   4.288   5.048
10548SOL    HW132543   4.734   4.346   5.130
10548SOL    HW232544   4.666   4.327   4.983
10549SOL     OW32545   1.208   0.936   1.802
10549SOL    HW132546   1.304   0.954   1.825
10549SOL    HW232547   1.150   0.965   1.878
10550SOL     OW32548   4.927   6.911   5.141
10550SOL    HW132549   4.877   6.987   5.098
10550SOL    HW232550   4.862   6.852   5.189
10551SOL     OW32551   1.298   2.534   5.682
10551SOL    HW132552   1.387   2.513   5.643
10551SOL    HW232553   1.252   2.448   5.708
10552SOL     OW32554   3.043   2.127   5.310
10552SOL    HW132555   2.963   2.123   5.250
10552SOL    HW232556   3.092   2.213   5.294
10553SOL     OW32557   2.842   4.602   6.900
10553SOL    HW132558   2.827   4.543   6.821
10553SOL    HW232559   2.803   4.692   6.883
10554SOL     OW32560   6.501   4.500   5.483
10554SOL    HW132561   6.454   4.515   5.569
10554SOL    HW232562   6.589   4.549   5.483
10555SOL     OW32563   3.048   2.196   1.056
10555SOL    HW132564   3.136   2.178   1.011
10555SOL    HW232565   3.060   2.191   1.155
10556SOL     OW32566   2.126   3.251   4.502
10556SOL    HW132567   2.104   3.348   4.493
10556SOL    HW232568   2.107   3.222   4.596
10557SOL     OW32569   6.266   2.072   3.689
10557SOL    HW132570   6.269   2.084   3.788
10557SOL    HW232571   6.346   2.020   3.659
10558SOL     OW32572   5.151   6.371   5.129
10558SOL    HW132573   5.166   6.428   5.048
10558SOL    HW232574   5.185   6.418   5.210
10559SOL     OW32575   4.111   2.456   0.463
10559SOL    HW132576   4.080   2.550   0.458
10559SOL    HW232577   4.196   2.446   0.411
10560SOL     OW32578   0.401   2.740   4.383
10560SOL    HW132579   0.471   2.706   4.447
10560SOL    HW232580   0.354   2.663   4.341
10561SOL     OW32581   3.105   4.219   6.954
10561SOL    HW132582   3.080   4.143   6.894
10561SOL    HW232583   3.110   4.303   6.901
10562SOL     OW32584   3.365   1.160   0.489
10562SOL    HW132585   3.275   1.123   0.465
10562SOL    HW232586   3.432   1.086   0.493
10563SOL     OW32587   1.871   1.523   4.301
10563SOL    HW132588   1.837   1.591   4.235
10563SOL    HW232589   1.846   1.431   4.269
10564SOL     OW32590   6.495   2.225   2.002
10564SOL    HW132591   6.414   2.264   2.047
10564SOL    HW232592   6.572   2.288   2.011
10565SOL     OW32593   5.372   1.683   4.870
10565SOL    HW132594   5.394   1.717   4.961
10565SOL    HW232595   5.292   1.731   4.834
10566SOL     OW32596   3.844   4.576   0.074
10566SOL    HW132597   3.847   4.487   0.121
10566SOL    HW232598   3.754   4.618   0.087
10567SOL     OW32599   1.463   4.893   4.080
10567SOL    HW132600   1.494   4.968   4.139
10567SOL    HW232601   1.506   4.808   4.110
10568SOL     OW32602   4.207   1.603   3.162
10568SOL    HW132603   4.139   1.563   3.099
10568SOL    HW232604   4.172   1.688   3.200
10569SOL     OW32605   6.119   3.075   3.912
10569SOL    HW132606   6.166   3.145   3.966
10569SOL    HW232607   6.042   3.039   3.963
10570SOL     OW32608   1.435   4.393   2.619
10570SOL    HW132609   1.514   4.382   2.559
10570SOL    HW232610   1.391   4.305   2.632
10571SOL     OW32611   5.853   0.307   4.318
10571SOL    HW132612   5.770   0.251   4.325
10571SOL    HW232613   5.907   0.298   4.402
10572SOL     OW32614   6.446   3.446   1.887
10572SOL    HW132615   6.440   3.406   1.978
10572SOL    HW232616   6.391   3.529   1.883
10573SOL     OW32617   6.171   4.434   5.841
10573SOL    HW132618   6.147   4.402   5.932
10573SOL    HW232619   6.102   4.500   5.809
10574SOL     OW32620   0.358   1.699   2.663
10574SOL    HW132621   0.447   1.744   2.651
10574SOL    HW232622   0.326   1.664   2.575
10575SOL     OW32623   1.063   0.376   5.560
10575SOL    HW132624   0.990   0.443   5.572
10575SOL    HW232625   1.151   0.420   5.576
10576SOL     OW32626   1.722   4.899   3.264
10576SOL    HW132627   1.686   4.835   3.332
10576SOL    HW232628   1.804   4.860   3.222
10577SOL     OW32629   0.732   2.710   5.144
10577SOL    HW132630   0.810   2.737   5.200
10577SOL    HW232631   0.737   2.612   5.124
10578SOL     OW32632   6.027   0.977   5.810
10578SOL    HW132633   6.100   1.041   5.835
10578SOL    HW232634   6.067   0.888   5.787
10579SOL     OW32635   4.598   0.934   0.500
10579SOL    HW132636   4.530   1.006   0.511
10579SOL    HW232637   4.690   0.971   0.516
10580SOL     OW32638   6.906   6.120   0.316
10580SOL    HW132639   6.894   6.212   0.354
10580SOL    HW232640   6.868   6.052   0.379
10581SOL     OW32641   4.668   1.453   4.121
10581SOL    HW132642   4.691   1.451   4.024
10581SOL    HW232643   4.751   1.439   4.175
10582SOL     OW32644   3.471   4.421   6.973
10582SOL    HW132645   3.456   4.412   6.875
10582SOL    HW232646   3.383   4.417   0.003
10583SOL     OW32647   4.539   1.737   0.797
10583SOL    HW132648   4.481   1.754   0.876
10583SOL    HW232649   4.593   1.818   0.775
10584SOL     OW32650   6.176   0.166   1.722
10584SOL    HW132651   6.134   0.174   1.631
10584SOL    HW232652   6.117   0.111   1.781
10585SOL     OW32653   1.541   4.184   6.442
10585SOL    HW132654   1.543   4.280   6.415
10585SOL    HW232655   1.541   4.177   6.542
10586SOL     OW32656   3.683   0.855   0.235
10586SOL    HW132657   3.688   0.762   0.271
10586SOL    HW232658   3.637   0.914   0.301
10587SOL     OW32659   6.118   3.807   1.308
10587SOL    HW132660   6.066   3.724   1.287
10587SOL    HW232661   6.209   3.800   1.267
10588SOL     OW32662   0.507   5.074   3.059
10588SOL    HW132663   0.544   5.007   3.124
10588SOL    HW232664   0.511   5.165   3.100
10589SOL     OW32665   6.380   1.944   3.968
10589SOL    HW132666   6.282   1.922   3.974
10589SOL    HW232667   6.433   1.872   4.012
10590SOL     OW32668   1.219   0.712   4.272
10590SOL    HW132669   1.293   0.713   4.204
10590SOL    HW232670   1.157   0.788   4.254
10591SOL     OW32671   1.258   2.763   0.838
10591SOL    HW132672   1.256   2.664   0.847
10591SOL    HW232673   1.190   2.803   0.901
10592SOL     OW32674   6.524   1.699   6.918
10592SOL    HW132675   6.453   1.755   6.961
10592SOL    HW232676   6.614   1.725   6.954
10593SOL     OW32677   2.160   4.529   0.627
10593SOL    HW132678   2.070   4.570   0.613
10593SOL    HW232679   2.228   4.601   0.636
10594SOL     OW32680   0.974   2.118   4.523
10594SOL    HW132681   1.030   2.052   4.472
10594SOL    HW232682   0.921   2.173   4.459
10595SOL     OW32683   2.864   6.177   5.712
10595SOL    HW132684   2.921   6.160   5.793
10595SOL    HW232685   2.923   6.203   5.635
10596SOL     OW32686   3.302   1.316   1.587
10596SOL    HW132687   3.330   1.397   1.534
10596SOL    HW232688   3.363   1.305   1.665
10597SOL     OW32689   1.658   6.845   4.449
10597SOL    HW132690   1.751   6.881   4.443
10597SOL    HW232691   1.634   6.830   4.545
10598SOL     OW32692   1.783   1.774   0.004
10598SOL    HW132693   1.822   1.798   6.933
10598SOL    HW232694   1.706   1.835   0.025
10599SOL     OW32695   4.907   0.767   6.933
10599SOL    HW132696   4.861   0.793   6.848
10599SOL    HW232697   4.976   0.836   6.956
10600SOL     OW32698   1.717   2.815   6.105
10600SOL    HW132699   1.627   2.799   6.147
10600SOL    HW232700   1.709   2.889   6.039
10601SOL     OW32701   3.418   6.570   5.766
10601SOL    HW132702   3.357   6.498   5.799
10601SOL    HW232703   3.435   6.636   5.840
10602SOL     OW32704   4.622   1.158   2.057
10602SOL    HW132705   4.628   1.212   1.973
10602SOL    HW232706   4.709   1.163   2.106
10603SOL     OW32707   1.597   5.473   4.557
10603SOL    HW132708   1.631   5.453   4.649
10603SOL    HW232709   1.505   5.435   4.547
10604SOL     OW32710   0.104   4.473   5.256
10604SOL    HW132711   0.041   4.529   5.202
10604SOL    HW232712   0.167   4.425   5.195
10605SOL     OW32713   2.006   4.794   6.523
10605SOL    HW132714   2.002   4.725   6.595
10605SOL    HW232715   2.069   4.867   6.551
10606SOL     OW32716   0.701   0.818   2.716
10606SOL    HW132717   0.681   0.782   2.807
10606SOL    HW232718   0.647   0.767   2.648
10607SOL     OW32719   5.778   5.188   0.211
10607SOL    HW132720   5.693   5.228   0.179
10607SOL    HW232721   5.813   5.241   0.289
10608SOL     OW32722   6.069   1.404   3.202
10608SOL    HW132723   6.144   1.456   3.161
10608SOL    HW232724   6.020   1.355   3.131
10609SOL     OW32725   4.263   6.458   1.981
10609SOL    HW132726   4.206   6.516   1.921
10609SOL    HW232727   4.351   6.442   1.937
10610SOL     OW32728   1.199   3.406   5.377
10610SOL    HW132729   1.194   3.483   5.442
10610SOL    HW232730   1.288   3.363   5.384
10611SOL     OW32731   4.839   2.303   6.582
10611SOL    HW132732   4.751   2.267   6.550
10611SOL    HW232733   4.909   2.285   6.512
10612SOL     OW32734   1.484   6.896   0.850
10612SOL    HW132735   1.403   6.838   0.842
10612SOL    HW232736   1.522   6.888   0.943
10613SOL     OW32737   0.668   6.754   6.038
10613SOL    HW132738   0.655   6.839   5.987
10613SOL    HW232739   0.657   6.771   6.136
10614SOL     OW32740   6.702   1.229   4.698
10614SOL    HW132741   6.669   1.189   4.613
10614SOL    HW232742   6.717   1.157   4.765
10615SOL     OW32743   6.203   5.728   5.035
10615SOL    HW132744   6.186   5.669   5.114
10615SOL    HW232745   6.297   5.762   5.037
10616SOL     OW32746   3.112   6.162   0.384
10616SOL    HW132747   3.029   6.215   0.404
10616SOL    HW232748   3.192   6.221   0.390
10617SOL     OW32749   0.897   2.460   6.638
10617SOL    HW132750   0.891   2.404   6.720
10617SOL    HW232751   0.804   2.483   6.606
10618SOL     OW32752   5.966   3.575   1.318
10618SOL    HW132753   5.995   3.572   1.414
10618SOL    HW232754   5.887   3.515   1.304
10619SOL     OW32755   1.087   4.558   4.065
10619SOL    HW132756   1.137   4.588   4.146
10619SOL    HW232757   1.062   4.638   4.010
10620SOL     OW32758   1.553   5.720   4.348
10620SOL    HW132759   1.578   5.639   4.401
10620SOL    HW232760   1.487   5.775   4.400
10621SOL     OW32761   2.758   6.386   1.410
10621SOL    HW132762   2.687   6.370   1.479
10621SOL    HW232763   2.845   6.405   1.455
10622SOL     OW32764   4.328   1.339   1.300
10622SOL    HW132765   4.425   1.323   1.317
10622SOL    HW232766   4.309   1.332   1.202
10623SOL     OW32767   6.865   1.370   3.645
10623SOL    HW132768   6.895   1.360   3.550
10623SOL    HW232769   6.940   1.346   3.706
10624SOL     OW32770   2.436   1.084   4.363
10624SOL    HW132771   2.504   1.149   4.397
10624SOL    HW232772   2.386   1.126   4.287
10625SOL     OW32773   0.096   3.456   6.909
10625SOL    HW132774   0.082   3.422   7.002
10625SOL    HW232775   0.060   3.549   6.903
10626SOL     OW32776   6.813   2.309   1.467
10626SOL    HW132777   6.894   2.251   1.454
10626SOL    HW232778   6.750   2.293   1.391
10627SOL     OW32779   5.960   5.392   4.239
10627SOL    HW132780   6.021   5.315   4.222
10627SOL    HW232781   6.012   5.468   4.278
10628SOL     OW32782   6.048   5.845   6.162
10628SOL    HW132783   6.089   5.936   6.174
10628SOL    HW232784   6.032   5.805   6.252
10629SOL     OW32785   2.886   5.704   6.344
10629SOL    HW132786   2.862   5.610   6.317
10629SOL    HW232787   2.975   5.727   6.305
10630SOL     OW32788   6.686   1.357   2.922
10630SOL    HW132789   6.749   1.354   2.845
10630SOL    HW232790   6.719   1.422   2.990
10631SOL     OW32791   0.891   6.824   4.560
10631SOL    HW132792   0.795   6.811   4.587
10631SOL    HW232793   0.896   6.893   4.487
10632SOL     OW32794   0.483   2.854   5.052
10632SOL    HW132795   0.414   2.781   5.058
10632SOL    HW232796   0.574   2.813   5.042
10633SOL     OW32797   1.218   4.915   0.665
10633SOL    HW132798   1.254   4.833   0.708
10633SOL    HW232799   1.293   4.975   0.638
10634SOL     OW32800   3.667   6.965   1.793
10634SOL    HW132801   3.763   6.961   1.764
10634SOL    HW232802   3.658   0.013   1.867
10635SOL     OW32803   2.056   0.873   1.002
10635SOL    HW132804   2.142   0.834   1.034
10635SOL    HW232805   2.074   0.959   0.954
10636SOL     OW32806   0.120   2.014   1.629
10636SOL    HW132807   0.046   2.002   1.695
10636SOL    HW232808   0.103   1.956   1.549
10637SOL     OW32809   3.990   4.817   5.492
10637SOL    HW132810   3.952   4.906   5.467
10637SOL    HW232811   3.923   4.745   5.474
10638SOL     OW32812   6.604   6.988   5.337
10638SOL    HW132813   6.640   0.021   5.415
10638SOL    HW232814   6.627   0.019   5.252
10639SOL     OW32815   3.050   1.188   4.835
10639SOL    HW132816   2.979   1.207   4.768
10639SOL    HW232817   3.008   1.166   4.923
10640SOL     OW32818   3.700   6.991   0.322
10640SOL    HW132819   3.748   6.905   0.336
10640SOL    HW232820   3.731   0.041   0.389
10641SOL     OW32821   4.284   0.728   6.525
10641SOL    HW132822   4.277   0.673   6.608
10641SOL    HW232823   4.362   0.790   6.532
10642SOL     OW32824   6.939   3.812   1.143
10642SOL    HW132825   6.952   3.758   1.227
10642SOL    HW232826   6.973   3.761   1.065
10643SOL     OW32827   3.956   3.833   5.549
10643SOL    HW132828   3.968   3.744   5.506
10643SOL    HW232829   3.863   3.866   5.532
10644SOL     OW32830   3.799   1.155   4.734
10644SOL    HW132831   3.783   1.253   4.730
10644SOL    HW232832   3.874   1.131   4.671
10645SOL     OW32833   2.272   0.340   5.102
10645SOL    HW132834   2.350   0.373   5.048
10645SOL    HW232835   2.272   0.385   5.191
10646SOL     OW32836   0.482   3.897   6.810
10646SOL    HW132837   0.404   3.908   6.872
10646SOL    HW232838   0.462   3.825   6.744
10647SOL     OW32839   6.994   4.993   0.377
10647SOL    HW132840   6.978   4.972   0.280
10647SOL    HW232841   0.018   4.913   0.422
10648SOL     OW32842   4.769   3.985   6.602
10648SOL    HW132843   4.836   4.057   6.586
10648SOL    HW232844   4.701   4.017   6.669
10649SOL     OW32845   0.493   4.636   5.986
10649SOL    HW132846   0.556   4.643   5.909
10649SOL    HW232847   0.427   4.562   5.968
10650SOL     OW32848   2.737   0.175   3.802
10650SOL    HW132849   2.730   0.078   3.778
10650SOL    HW232850   2.774   0.225   3.724
10651SOL     OW32851   3.456   6.746   5.966
10651SOL    HW132852   3.454   6.843   5.992
10651SOL    HW232853   3.548   6.709   5.983
10652SOL     OW32854   3.501   0.635   0.001
10652SOL    HW132855   3.420   0.584   6.987
10652SOL    HW232856   3.516   0.615   0.098
10653SOL     OW32857   5.859   3.049   4.039
10653SOL    HW132858   5.852   2.980   3.966
10653SOL    HW232859   5.850   3.140   3.999
10654SOL     OW32860   4.543   0.946   1.243
10654SOL    HW132861   4.500   0.995   1.168
10654SOL    HW232862   4.481   0.876   1.279
10655SOL     OW32863   3.150   5.878   1.784
10655SOL    HW132864   3.051   5.875   1.778
10655SOL    HW232865   3.189   5.803   1.731
10656SOL     OW32866   6.197   3.229   6.219
10656SOL    HW132867   6.145   3.290   6.159
10656SOL    HW232868   6.259   3.173   6.164
10657SOL     OW32869   5.914   0.679   1.646
10657SOL    HW132870   5.962   0.724   1.571
10657SOL    HW232871   5.915   0.580   1.633
10658SOL     OW32872   0.798   6.129   4.938
10658SOL    HW132873   0.771   6.128   4.842
10658SOL    HW232874   0.717   6.139   4.995
10659SOL     OW32875   5.554   0.973   0.781
10659SOL    HW132876   5.645   0.948   0.750
10659SOL    HW232877   5.501   0.890   0.800
10660SOL     OW32878   5.179   5.183   5.680
10660SOL    HW132879   5.214   5.097   5.717
10660SOL    HW232880   5.251   5.252   5.682
10661SOL     OW32881   0.305   0.443   2.484
10661SOL    HW132882   0.254   0.529   2.483
10661SOL    HW232883   0.362   0.439   2.566
10662SOL     OW32884   5.921   1.701   0.567
10662SOL    HW132885   5.972   1.620   0.538
10662SOL    HW232886   5.985   1.769   0.603
10663SOL     OW32887   0.222   0.798   0.291
10663SOL    HW132888   0.156   0.812   0.217
10663SOL    HW232889   0.291   0.732   0.262
10664SOL     OW32890   2.015   4.614   6.750
10664SOL    HW132891   2.044   4.519   6.746
10664SOL    HW232892   1.925   4.620   6.792
10665SOL     OW32893   6.141   0.876   0.060
10665SOL    HW132894   6.232   0.835   0.056
10665SOL    HW232895   6.105   0.890   6.986
10666SOL     OW32896   1.095   0.040   0.116
10666SOL    HW132897   0.998   0.032   0.138
10666SOL    HW232898   1.111   0.126   0.069
10667SOL     OW32899   3.409   2.202   5.206
10667SOL    HW132900   3.417   2.102   5.210
10667SOL    HW232901   3.334   2.227   5.146
10668SOL     OW32902   2.201   1.214   6.143
10668SOL    HW132903   2.211   1.313   6.151
10668SOL    HW232904   2.261   1.181   6.070
10669SOL     OW32905   1.136   6.878   6.669
10669SOL    HW132906   1.186   6.867   6.755
10669SOL    HW232907   1.199   6.863   6.592
10670SOL     OW32908   6.989   5.130   5.393
10670SOL    HW132909   0.017   5.099   5.310
10670SOL    HW232910   6.959   5.225   5.381
10671SOL     OW32911   1.371   1.720   3.091
10671SOL    HW132912   1.446   1.688   3.033
10671SOL    HW232913   1.386   1.689   3.185
10672SOL     OW32914   0.287   2.869   0.982
10672SOL    HW132915   0.242   2.951   1.018
10672SOL    HW232916   0.270   2.862   0.884
10673SOL     OW32917   3.346   3.617   4.915
10673SOL    HW132918   3.426   3.567   4.949
10673SOL    HW232919   3.376   3.703   4.873
10674SOL     OW32920   4.131   1.927   2.301
10674SOL    HW132921   4.174   1.866   2.367
10674SOL    HW232922   4.137   2.021   2.333
10675SOL     OW32923   0.138   1.055   6.411
10675SOL    HW132924   0.139   0.967   6.458
10675SOL    HW232925   0.228   1.073   6.372
10676SOL     OW32926   0.130   0.460   6.900
10676SOL    HW132927   0.180   0.499   6.822
10676SOL    HW232928   0.061   0.396   6.866
10677SOL     OW32929   6.955   1.078   0.201
10677SOL    HW132930   6.933   1.159   0.148
10677SOL    HW232931   6.873   1.045   0.248
10678SOL     OW32932   2.226   5.840   3.322
10678SOL    HW132933   2.242   5.897   3.403
10678SOL    HW232934   2.277   5.755   3.330
10679SOL     OW32935   5.492   4.901   3.518
10679SOL    HW132936   5.457   4.808   3.527
10679SOL    HW232937   5.454   4.958   3.591
10680SOL     OW32938   1.765   2.334   3.734
10680SOL    HW132939   1.699   2.343   3.808
10680SOL    HW232940   1.719   2.343   3.646
10681SOL     OW32941   0.666   1.965   6.074
10681SOL    HW132942   0.737   1.949   6.006
10681SOL    HW232943   0.640   1.878   6.116
10682SOL     OW32944   6.581   1.823   3.221
10682SOL    HW132945   6.568   1.922   3.235
10682SOL    HW232946   6.667   1.807   3.172
10683SOL     OW32947   1.752   1.074   3.773
10683SOL    HW132948   1.706   1.043   3.690
10683SOL    HW232949   1.788   0.995   3.823
10684SOL     OW32950   6.204   6.176   0.326
10684SOL    HW132951   6.170   6.089   0.363
10684SOL    HW232952   6.279   6.209   0.383
10685SOL     OW32953   6.576   1.985   1.935
10685SOL    HW132954   6.494   1.937   1.903
10685SOL    HW232955   6.550   2.072   1.977
10686SOL     OW32956   3.878   4.327   1.250
10686SOL    HW132957   3.934   4.250   1.280
10686SOL    HW232958   3.796   4.293   1.204
10687SOL     OW32959   0.578   4.789   1.718
10687SOL    HW132960   0.603   4.777   1.622
10687SOL    HW232961   0.647   4.846   1.763
10688SOL     OW32962   6.595   6.081   1.826
10688SOL    HW132963   6.682   6.091   1.777
10688SOL    HW232964   6.557   6.171   1.846
10689SOL     OW32965   0.811   0.427   1.717
10689SOL    HW132966   0.728   0.465   1.758
10689SOL    HW232967   0.877   0.501   1.701
10690SOL     OW32968   4.517   5.968   2.325
10690SOL    HW132969   4.427   5.965   2.282
10690SOL    HW232970   4.580   5.911   2.273
10691SOL     OW32971   6.448   1.373   1.227
10691SOL    HW132972   6.484   1.350   1.317
10691SOL    HW232973   6.499   1.451   1.190
10692SOL     OW32974   5.066   6.088   5.010
10692SOL    HW132975   5.080   5.997   5.048
10692SOL    HW232976   5.132   6.152   5.049
10693SOL     OW32977   4.993   2.294   3.231
10693SOL    HW132978   4.939   2.219   3.270
10693SOL    HW232979   5.069   2.315   3.292
10694SOL     OW32980   3.855   5.797   1.004
10694SOL    HW132981   3.938   5.814   0.950
10694SOL    HW232982   3.818   5.883   1.037
10695SOL     OW32983   6.460   3.168   4.994
10695SOL    HW132984   6.405   3.161   4.911
10695SOL    HW232985   6.418   3.233   5.057
10696SOL     OW32986   5.970   6.870   1.685
10696SOL    HW132987   6.048   6.913   1.640
10696SOL    HW232988   5.937   6.930   1.759
10697SOL     OW32989   2.405   5.642   3.325
10697SOL    HW132990   2.465   5.703   3.274
10697SOL    HW232991   2.373   5.569   3.265
10698SOL     OW32992   2.627   0.975   3.325
10698SOL    HW132993   2.571   0.953   3.405
10698SOL    HW232994   2.606   0.911   3.251
10699SOL     OW32995   1.994   2.314   3.124
10699SOL    HW132996   1.945   2.247   3.068
10699SOL    HW232997   1.977   2.406   3.087
10700SOL     OW32998   6.488   0.738   1.772
10700SOL    HW132999   6.532   0.682   1.842
10700SOL    HW233000   6.397   0.701   1.753
10701SOL     OW33001   3.601   6.405   1.374
10701SOL    HW133002   3.626   6.501   1.389
10701SOL    HW233003   3.555   6.369   1.455
10702SOL     OW33004   5.440   3.636   0.945
10702SOL    HW133005   5.515   3.694   0.912
10702SOL    HW233006   5.355   3.662   0.900
10703SOL     OW33007   3.828   2.988   4.189
10703SOL    HW133008   3.766   2.929   4.137
10703SOL    HW233009   3.908   3.009   4.133
10704SOL     OW33010   5.585   6.490   2.264
10704SOL    HW133011   5.491   6.457   2.258
10704SOL    HW233012   5.632   6.471   2.178
10705SOL     OW33013   1.525   3.585   6.620
10705SOL    HW133014   1.463   3.517   6.579
10705SOL    HW233015   1.619   3.553   6.612
10706SOL     OW33016   3.559   1.995   1.506
10706SOL    HW133017   3.485   2.010   1.571
10706SOL    HW233018   3.597   1.903   1.519
10707SOL     OW33019   6.334   6.958   6.189
10707SOL    HW133020   6.287   0.027   6.171
10707SOL    HW233021   6.424   6.959   6.146
10708SOL     OW33022   4.821   0.935   1.666
10708SOL    HW133023   4.754   0.945   1.592
10708SOL    HW233024   4.847   1.026   1.700
10709SOL     OW33025   0.907   6.870   5.777
10709SOL    HW133026   0.948   6.961   5.785
10709SOL    HW233027   0.926   6.818   5.860
10710SOL     OW33028   6.443   5.536   3.522
10710SOL    HW133029   6.407   5.491   3.440
10710SOL    HW233030   6.437   5.473   3.600
10711SOL     OW33031   2.449   5.953   4.879
10711SOL    HW133032   2.529   6.011   4.867
10711SOL    HW233033   2.382   5.973   4.808
10712SOL     OW33034   4.273   1.393   5.316
10712SOL    HW133035   4.329   1.476   5.307
10712SOL    HW233036   4.229   1.372   5.229
10713SOL     OW33037   1.718   6.029   1.054
10713SOL    HW133038   1.683   6.119   1.082
10713SOL    HW233039   1.649   5.982   1.000
10714SOL     OW33040   6.307   5.635   5.903
10714SOL    HW133041   6.208   5.621   5.906
10714SOL    HW233042   6.332   5.710   5.964
10715SOL     OW33043   6.004   0.981   3.865
10715SOL    HW133044   6.016   0.889   3.830
10715SOL    HW233045   5.974   0.978   3.960
10716SOL     OW33046   6.801   1.029   2.729
10716SOL    HW133047   6.888   1.079   2.723
10716SOL    HW233048   6.726   1.095   2.727
10717SOL     OW33049   6.440   6.535   2.331
10717SOL    HW133050   6.508   6.606   2.316
10717SOL    HW233051   6.351   6.577   2.352
10718SOL     OW33052   0.980   3.966   5.764
10718SOL    HW133053   0.928   4.015   5.834
10718SOL    HW233054   0.924   3.960   5.680
10719SOL     OW33055   3.811   6.988   2.380
10719SOL    HW133056   3.747   6.941   2.442
10719SOL    HW233057   3.856   0.045   2.429
10720SOL     OW33058   0.230   3.052   6.795
10720SOL    HW133059   0.145   3.024   6.840
10720SOL    HW233060   0.306   2.997   6.831
10721SOL     OW33061   4.902   2.922   4.691
10721SOL    HW133062   4.883   2.868   4.609
10721SOL    HW233063   4.977   2.985   4.674
10722SOL     OW33064   0.381   4.289   0.579
10722SOL    HW133065   0.343   4.292   0.487
10722SOL    HW233066   0.460   4.350   0.584
10723SOL     OW33067   6.024   5.089   0.480
10723SOL    HW133068   6.045   5.013   0.418
10723SOL    HW233069   6.039   5.059   0.575
10724SOL     OW33070   3.550   6.921   5.723
10724SOL    HW133071   3.551   7.009   5.771
10724SOL    HW233072   3.561   6.847   5.790
10725SOL     OW33073   6.710   0.134   5.135
10725SOL    HW133074   6.726   0.138   5.037
10725SOL    HW233075   6.686   0.225   5.169
10726SOL     OW33076   5.735   1.557   4.342
10726SOL    HW133077   5.825   1.564   4.385
10726SOL    HW233078   5.675   1.501   4.400
10727SOL     OW33079   2.892   6.520   0.005
10727SOL    HW133080   2.804   6.474   0.001
10727SOL    HW233081   2.906   6.557   0.097
10728SOL     OW33082   5.473   6.012   3.735
10728SOL    HW133083   5.551   5.949   3.733
10728SOL    HW233084   5.491   6.086   3.801
10729SOL     OW33085   5.937   2.890   4.696
10729SOL    HW133086   5.898   2.983   4.693
10729SOL    HW233087   5.914   2.847   4.783
10730SOL     OW33088   1.652   5.435   3.796
10730SOL    HW133089   1.599   5.434   3.711
10730SOL    HW233090   1.666   5.530   3.824
10731SOL     OW33091   4.831   5.817   6.554
10731SOL    HW133092   4.914   5.853   6.597
10731SOL    HW233093   4.831   5.717   6.561
10732SOL     OW33094   6.049   5.880   2.724
10732SOL    HW133095   6.138   5.850   2.759
10732SOL    HW233096   6.059   5.968   2.678
10733SOL     OW33097   0.517   1.621   5.970
10733SOL    HW133098   0.464   1.697   6.008
10733SOL    HW233099   0.614   1.644   5.975
10734SOL     OW33100   1.444   0.174   4.713
10734SOL    HW133101   1.389   0.158   4.795
10734SOL    HW233102   1.423   0.104   4.644
10735SOL     OW33103   6.735   6.741   1.836
10735SOL    HW133104   6.786   6.778   1.914
10735SOL    HW233105   6.638   6.735   1.861
10736SOL     OW33106   5.147   5.821   3.462
10736SOL    HW133107   5.073   5.790   3.402
10736SOL    HW233108   5.124   5.799   3.557
10737SOL     OW33109   6.247   0.969   1.527
10737SOL    HW133110   6.317   0.982   1.597
10737SOL    HW233111   6.156   0.980   1.568
10738SOL     OW33112   3.106   0.146   0.777
10738SOL    HW133113   3.078   0.239   0.800
10738SOL    HW233114   3.154   0.147   0.689
10739SOL     OW33115   5.500   3.224   4.172
10739SOL    HW133116   5.561   3.302   4.172
10739SOL    HW233117   5.410   3.252   4.208
10740SOL     OW33118   2.870   0.518   6.096
10740SOL    HW133119   2.881   0.449   6.025
10740SOL    HW233120   2.955   0.571   6.104
10741SOL     OW33121   1.485   2.437   3.630
10741SOL    HW133122   1.408   2.404   3.683
10741SOL    HW233123   1.490   2.386   3.543
10742SOL     OW33124   6.532   6.842   2.039
10742SOL    HW133125   6.439   6.828   2.004
10742SOL    HW233126   6.577   6.915   1.987
10743SOL     OW33127   3.170   1.683   5.523
10743SOL    HW133128   3.197   1.752   5.455
10743SOL    HW233129   3.111   1.615   5.480
10744SOL     OW33130   2.784   1.086   1.032
10744SOL    HW133131   2.784   1.106   0.934
10744SOL    HW233132   2.872   1.113   1.072
10745SOL     OW33133   2.372   4.486   1.350
10745SOL    HW133134   2.336   4.418   1.286
10745SOL    HW233135   2.339   4.577   1.324
10746SOL     OW33136   2.404   5.802   6.504
10746SOL    HW133137   2.417   5.719   6.557
10746SOL    HW233138   2.356   5.870   6.559
10747SOL     OW33139   7.011   1.518   4.642
10747SOL    HW133140   0.011   1.467   4.727
10747SOL    HW233141   0.078   1.560   4.611
10748SOL     OW33142   3.355   6.991   2.074
10748SOL    HW133143   3.352   6.906   2.126
10748SOL    HW233144   3.342   6.971   1.977
10749SOL     OW33145   6.042   4.465   1.717
10749SOL    HW133146   6.055   4.384   1.774
10749SOL    HW233147   6.084   4.544   1.761
10750SOL     OW33148   4.379   2.120   4.688
10750SOL    HW133149   4.324   2.047   4.648
10750SOL    HW233150   4.319   2.192   4.721
10751SOL     OW33151   6.969   5.625   4.089
10751SOL    HW133152   6.999   5.565   4.016
10751SOL    HW233153   0.029   5.676   4.125
10752SOL     OW33154   6.789   6.230   0.756
10752SOL    HW133155   6.721   6.188   0.816
10752SOL    HW233156   6.846   6.159   0.715
10753SOL     OW33157   4.785   0.277   4.820
10753SOL    HW133158   4.879   0.310   4.808
10753SOL    HW233159   4.750   0.246   4.732
10754SOL     OW33160   0.944   4.793   2.270
10754SOL    HW133161   0.924   4.708   2.319
10754SOL    HW233162   0.924   4.780   2.173
10755SOL     OW33163   0.303   2.367   1.401
10755SOL    HW133164   0.333   2.451   1.355
10755SOL    HW233165   0.235   2.320   1.345
10756SOL     OW33166   1.521   0.761   0.247
10756SOL    HW133167   1.567   0.822   0.183
10756SOL    HW233168   1.514   0.804   0.337
10757SOL     OW33169   0.702   2.632   2.182
10757SOL    HW133170   0.669   2.537   2.180
10757SOL    HW233171   0.720   2.663   2.089
10758SOL     OW33172   0.780   0.689   6.933
10758SOL    HW133173   0.874   0.687   6.968
10758SOL    HW233174   0.782   0.697   6.834
10759SOL     OW33175   2.846   3.284   5.214
10759SOL    HW133176   2.922   3.233   5.171
10759SOL    HW233177   2.850   3.379   5.185
10760SOL     OW33178   1.004   4.399   6.711
10760SOL    HW133179   1.028   4.487   6.671
10760SOL    HW233180   1.043   4.392   6.803
10761SOL     OW33181   1.146   1.560   5.825
10761SOL    HW133182   1.155   1.657   5.849
10761SOL    HW233183   1.175   1.504   5.902
10762SOL     OW33184   2.471   6.264   6.445
10762SOL    HW133185   2.416   6.266   6.529
10762SOL    HW233186   2.524   6.179   6.443
10763SOL     OW33187   5.000   0.608   3.160
10763SOL    HW133188   4.911   0.643   3.131
10763SOL    HW233189   5.069   0.680   3.152
10764SOL     OW33190   5.285   6.626   4.686
10764SOL    HW133191   5.230   6.607   4.605
10764SOL    HW233192   5.379   6.648   4.657
10765SOL     OW33193   0.754   1.501   1.313
10765SOL    HW133194   0.845   1.465   1.333
10765SOL    HW233195   0.693   1.480   1.389
10766SOL     OW33196   2.574   5.161   6.890
10766SOL    HW133197   2.566   5.254   6.925
10766SOL    HW233198   2.610   5.163   6.797
10767SOL     OW33199   1.827   5.145   6.846
10767SOL    HW133200   1.791   5.054   6.825
10767SOL    HW233201   1.751   5.209   6.857
10768SOL     OW33202   5.347   6.319   6.791
10768SOL    HW133203   5.282   6.309   6.866
10768SOL    HW233204   5.307   6.281   6.707
10769SOL     OW33205   3.001   3.188   4.525
10769SOL    HW133206   3.072   3.118   4.519
10769SOL    HW233207   2.911   3.143   4.528
10770SOL     OW33208   5.750   6.897   3.395
10770SOL    HW133209   5.709   6.918   3.306
10770SOL    HW233210   5.680   6.902   3.466
10771SOL     OW33211   4.816   5.909   5.891
10771SOL    HW133212   4.877   5.983   5.918
10771SOL    HW233213   4.778   5.865   5.972
10772SOL     OW33214   6.182   4.833   2.268
10772SOL    HW133215   6.089   4.859   2.295
10772SOL    HW233216   6.192   4.841   2.169
10773SOL     OW33217   0.440   4.103   1.646
10773SOL    HW133218   0.518   4.044   1.625
10773SOL    HW233219   0.472   4.197   1.659
10774SOL     OW33220   1.103   3.399   0.740
10774SOL    HW133221   1.129   3.346   0.821
10774SOL    HW233222   1.173   3.468   0.722
10775SOL     OW33223   1.690   4.106   0.560
10775SOL    HW133224   1.624   4.033   0.579
10775SOL    HW233225   1.783   4.070   0.565
10776SOL     OW33226   0.589   2.748   3.670
10776SOL    HW133227   0.654   2.679   3.639
10776SOL    HW233228   0.631   2.839   3.663
10777SOL     OW33229   1.966   0.127   0.929
10777SOL    HW133230   1.984   0.215   0.973
10777SOL    HW233231   1.892   0.080   0.976
10778SOL     OW33232   4.888   0.503   3.404
10778SOL    HW133233   4.971   0.524   3.456
10778SOL    HW233234   4.903   0.522   3.307
10779SOL     OW33235   5.519   3.260   5.814
10779SOL    HW133236   5.541   3.303   5.726
10779SOL    HW233237   5.521   3.330   5.886
10780SOL     OW33238   2.201   5.058   4.083
10780SOL    HW133239   2.221   5.054   3.985
10780SOL    HW233240   2.155   5.145   4.103
10781SOL     OW33241   5.763   2.205   4.739
10781SOL    HW133242   5.705   2.233   4.816
10781SOL    HW233243   5.724   2.241   4.654
10782SOL     OW33244   0.907   1.832   5.756
10782SOL    HW133245   0.990   1.796   5.713
10782SOL    HW233246   0.933   1.891   5.833
10783SOL     OW33247   1.064   2.391   3.597
10783SOL    HW133248   0.995   2.394   3.670
10783SOL    HW233249   1.127   2.467   3.608
10784SOL     OW33250   4.221   5.871   3.300
10784SOL    HW133251   4.148   5.802   3.295
10784SOL    HW233252   4.205   5.940   3.230
10785SOL     OW33253   1.742   5.359   1.723
10785SOL    HW133254   1.781   5.441   1.765
10785SOL    HW233255   1.796   5.279   1.748
10786SOL     OW33256   4.478   2.079   2.145
10786SOL    HW133257   4.478   1.999   2.084
10786SOL    HW233258   4.503   2.051   2.237
10787SOL     OW33259   3.887   2.170   3.640
10787SOL    HW133260   3.798   2.150   3.681
10787SOL    HW233261   3.953   2.191   3.712
10788SOL     OW33262   1.298   3.990   0.650
10788SOL    HW133263   1.248   4.047   0.584
10788SOL    HW233264   1.378   3.950   0.606
10789SOL     OW33265   6.411   1.492   2.440
10789SOL    HW133266   6.330   1.539   2.473
10789SOL    HW233267   6.387   1.432   2.364
10790SOL     OW33268   0.133   1.741   5.673
10790SOL    HW133269   0.082   1.787   5.746
10790SOL    HW233270   0.181   1.809   5.617
10791SOL     OW33271   2.017   2.465   3.620
10791SOL    HW133272   1.930   2.437   3.659
10791SOL    HW233273   2.037   2.409   3.539
10792SOL     OW33274   3.456   1.601   2.133
10792SOL    HW133275   3.358   1.621   2.131
10792SOL    HW233276   3.506   1.680   2.097
10793SOL     OW33277   3.796   1.779   4.695
10793SOL    HW133278   3.853   1.724   4.757
10793SOL    HW233279   3.788   1.872   4.730
10794SOL     OW33280   5.514   2.358   0.720
10794SOL    HW133281   5.419   2.356   0.687
10794SOL    HW233282   5.568   2.293   0.667
10795SOL     OW33283   0.030   3.389   3.062
10795SOL    HW133284   6.980   3.322   3.034
10795SOL    HW233285   0.097   3.403   2.989
10796SOL     OW33286   0.072   0.225   6.165
10796SOL    HW133287   7.016   0.281   6.204
10796SOL    HW233288   0.032   0.149   6.114
10797SOL     OW33289   4.292   4.695   0.408
10797SOL    HW133290   4.379   4.645   0.416
10797SOL    HW233291   4.221   4.647   0.459
10798SOL     OW33292   2.077   6.224   6.676
10798SOL    HW133293   1.997   6.242   6.733
10798SOL    HW233294   2.056   6.249   6.581
10799SOL     OW33295   2.526   1.440   2.716
10799SOL    HW133296   2.604   1.499   2.691
10799SOL    HW233297   2.541   1.348   2.681
10800SOL     OW33298   2.434   0.130   5.289
10800SOL    HW133299   2.386   0.106   5.374
10800SOL    HW233300   2.367   0.147   5.217
10801SOL     OW33301   2.808   6.420   5.862
10801SOL    HW133302   2.808   6.334   5.812
10801SOL    HW233303   2.898   6.463   5.854
10802SOL     OW33304   0.351   5.368   4.339
10802SOL    HW133305   0.304   5.328   4.260
10802SOL    HW233306   0.439   5.405   4.310
10803SOL     OW33307   0.159   4.640   4.448
10803SOL    HW133308   0.090   4.663   4.517
10803SOL    HW233309   0.198   4.550   4.470
10804SOL     OW33310   5.022   4.678   0.809
10804SOL    HW133311   4.949   4.670   0.877
10804SOL    HW233312   5.087   4.604   0.820
10805SOL     OW33313   3.872   6.530   0.492
10805SOL    HW133314   3.971   6.524   0.507
10805SOL    HW233315   3.842   6.450   0.439
10806SOL     OW33316   6.018   4.426   6.498
10806SOL    HW133317   6.105   4.403   6.455
10806SOL    HW233318   6.004   4.525   6.495
10807SOL     OW33319   4.142   1.557   4.418
10807SOL    HW133320   4.073   1.537   4.349
10807SOL    HW233321   4.120   1.507   4.502
10808SOL     OW33322   6.892   2.199   0.198
10808SOL    HW133323   6.824   2.160   0.137
10808SOL    HW233324   6.967   2.133   0.211
10809SOL     OW33325   2.714   1.544   1.972
10809SOL    HW133326   2.763   1.594   1.900
10809SOL    HW233327   2.648   1.605   2.015
10810SOL     OW33328   1.842   1.441   6.398
10810SOL    HW133329   1.914   1.374   6.380
10810SOL    HW233330   1.863   1.526   6.348
10811SOL     OW33331   4.944   4.820   6.446
10811SOL    HW133332   5.039   4.812   6.414
10811SOL    HW233333   4.884   4.767   6.385
10812SOL     OW33334   6.688   2.710   1.932
10812SOL    HW133335   6.709   2.743   2.023
10812SOL    HW233336   6.773   2.693   1.881
10813SOL     OW33337   3.283   6.149   2.730
10813SOL    HW133338   3.371   6.127   2.773
10813SOL    HW233339   3.298   6.171   2.634
10814SOL     OW33340   2.097   5.415   4.542
10814SOL    HW133341   2.069   5.326   4.505
10814SOL    HW233342   2.096   5.411   4.642
10815SOL     OW33343   4.582   2.232   4.229
10815SOL    HW133344   4.564   2.199   4.321
10815SOL    HW233345   4.572   2.158   4.163
10816SOL     OW33346   2.070   2.375   1.760
10816SOL    HW133347   2.089   2.442   1.688
10816SOL    HW233348   2.156   2.344   1.800
10817SOL     OW33349   4.293   0.571   2.040
10817SOL    HW133350   4.287   0.523   2.127
10817SOL    HW233351   4.353   0.521   1.977
10818SOL     OW33352   4.539   2.880   6.849
10818SOL    HW133353   4.538   2.780   6.851
10818SOL    HW233354   4.608   2.915   6.912
10819SOL     OW33355   0.707   3.777   5.657
10819SOL    HW133356   0.759   3.830   5.590
10819SOL    HW233357   0.715   3.680   5.637
10820SOL     OW33358   6.980   0.099   4.367
10820SOL    HW133359   6.907   0.049   4.321
10820SOL    HW233360   6.941   0.171   4.424
10821SOL     OW33361   0.215   6.946   0.870
10821SOL    HW133362   0.162   6.866   0.842
10821SOL    HW233363   0.294   6.956   0.809
10822SOL     OW33364   0.191   4.254   0.276
10822SOL    HW133365   0.267   4.200   0.313
10822SOL    HW233366   0.104   4.208   0.296
10823SOL     OW33367   2.096   2.044   1.476
10823SOL    HW133368   2.033   2.115   1.508
10823SOL    HW233369   2.182   2.051   1.525
10824SOL     OW33370   5.435   0.772   3.355
10824SOL    HW133371   5.390   0.797   3.441
10824SOL    HW233372   5.495   0.694   3.371
10825SOL     OW33373   3.592   1.048   1.945
10825SOL    HW133374   3.689   1.028   1.958
10825SOL    HW233375   3.540   1.018   2.026
10826SOL     OW33376   6.416   2.858   1.125
10826SOL    HW133377   6.376   2.768   1.143
10826SOL    HW233378   6.439   2.903   1.212
10827SOL     OW33379   1.073   3.213   4.090
10827SOL    HW133380   1.015   3.169   4.158
10827SOL    HW233381   1.150   3.257   4.136
10828SOL     OW33382   1.165   5.656   0.252
10828SOL    HW133383   1.066   5.663   0.241
10828SOL    HW233384   1.188   5.661   0.350
10829SOL     OW33385   2.122   3.481   1.711
10829SOL    HW133386   2.065   3.543   1.764
10829SOL    HW233387   2.205   3.459   1.763
10830SOL     OW33388   4.744   1.404   3.469
10830SOL    HW133389   4.788   1.470   3.408
10830SOL    HW233390   4.728   1.319   3.419
10831SOL     OW33391   5.547   3.298   2.285
10831SOL    HW133392   5.594   3.238   2.221
10831SOL    HW233393   5.613   3.338   2.348
10832SOL     OW33394   0.342   3.249   2.748
10832SOL    HW133395   0.405   3.262   2.825
10832SOL    HW233396   0.254   3.215   2.783
10833SOL     OW33397   2.443   0.247   3.366
10833SOL    HW133398   2.405   0.270   3.455
10833SOL    HW233399   2.522   0.305   3.347
10834SOL     OW33400   6.771   0.979   5.564
10834SOL    HW133401   6.787   0.919   5.486
10834SOL    HW233402   6.722   1.061   5.533
10835SOL     OW33403   6.879   2.884   1.546
10835SOL    HW133404   6.930   2.798   1.555
10835SOL    HW233405   6.938   2.953   1.505
10836SOL     OW33406   2.143   2.989   0.633
10836SOL    HW133407   2.230   3.012   0.676
10836SOL    HW233408   2.086   3.070   0.628
10837SOL     OW33409   1.349   5.793   1.151
10837SOL    HW133410   1.322   5.880   1.110
10837SOL    HW233411   1.267   5.741   1.175
10838SOL     OW33412   6.277   6.771   0.280
10838SOL    HW133413   6.266   6.675   0.306
10838SOL    HW233414   6.370   6.802   0.303
10839SOL     OW33415   1.690   1.581   0.165
10839SOL    HW133416   1.727   1.660   0.116
10839SOL    HW233417   1.643   1.521   0.101
10840SOL     OW33418   3.311   6.286   2.413
10840SOL    HW133419   3.408   6.296   2.434
10840SOL    HW233420   3.298   6.214   2.344
10841SOL     OW33421   5.014   2.736   0.075
10841SOL    HW133422   5.003   2.654   0.130
10841SOL    HW233423   5.056   2.712   7.004
10842SOL     OW33424   6.249   2.949   1.478
10842SOL    HW133425   6.312   2.872   1.469
10842SOL    HW233426   6.156   2.919   1.456
10843SOL     OW33427   0.020   1.524   1.628
10843SOL    HW133428   6.975   1.456   1.591
10843SOL    HW233429   0.104   1.478   1.657
10844SOL     OW33430   3.819   0.369   3.345
10844SOL    HW133431   3.746   0.434   3.368
10844SOL    HW233432   3.779   0.291   3.296
10845SOL     OW33433   2.348   3.057   0.788
10845SOL    HW133434   2.381   3.138   0.740
10845SOL    HW233435   2.396   3.049   0.876
10846SOL     OW33436   3.996   1.662   1.557
10846SOL    HW133437   3.923   1.729   1.569
10846SOL    HW233438   4.085   1.708   1.563
10847SOL     OW33439   4.549   2.716   5.464
10847SOL    HW133440   4.616   2.776   5.420
10847SOL    HW233441   4.467   2.710   5.408
10848SOL     OW33442   1.563   0.920   6.796
10848SOL    HW133443   1.494   0.969   6.742
10848SOL    HW233444   1.642   0.900   6.740
10849SOL     OW33445   2.004   5.356   3.757
10849SOL    HW133446   2.062   5.417   3.810
10849SOL    HW233447   1.935   5.409   3.709
10850SOL     OW33448   5.722   0.580   2.056
10850SOL    HW133449   5.779   0.603   1.977
10850SOL    HW233450   5.774   0.596   2.140
10851SOL     OW33451   4.397   1.988   6.645
10851SOL    HW133452   4.451   2.066   6.675
10851SOL    HW233453   4.402   1.980   6.546
10852SOL     OW33454   6.866   0.568   5.688
10852SOL    HW133455   6.926   0.645   5.667
10852SOL    HW233456   6.841   0.571   5.785
10853SOL     OW33457   2.565   0.660   4.411
10853SOL    HW133458   2.550   0.734   4.346
10853SOL    HW233459   2.663   0.645   4.423
10854SOL     OW33460   0.187   6.465   0.732
10854SOL    HW133461   0.107   6.436   0.785
10854SOL    HW233462   0.243   6.526   0.789
10855SOL     OW33463   0.753   5.360   1.355
10855SOL    HW133464   0.806   5.333   1.435
10855SOL    HW233465   0.738   5.280   1.297
10856SOL     OW33466   6.159   0.429   6.719
10856SOL    HW133467   6.092   0.409   6.647
10856SOL    HW233468   6.118   0.409   6.808
10857SOL     OW33469   6.526   0.459   4.851
10857SOL    HW133470   6.445   0.493   4.897
10857SOL    HW233471   6.606   0.468   4.911
10858SOL     OW33472   2.257   2.242   0.259
10858SOL    HW133473   2.177   2.291   0.222
10858SOL    HW233474   2.326   2.309   0.287
10859SOL     OW33475   1.423   5.803   1.938
10859SOL    HW133476   1.512   5.763   1.962
10859SOL    HW233477   1.427   5.838   1.845
10860SOL     OW33478   6.532   2.835   1.732
10860SOL    HW133479   6.439   2.856   1.763
10860SOL    HW233480   6.588   2.808   1.810
10861SOL     OW33481   2.560   3.898   1.319
10861SOL    HW133482   2.557   3.861   1.226
10861SOL    HW233483   2.564   3.998   1.315
10862SOL     OW33484   3.583   4.364   5.229
10862SOL    HW133485   3.511   4.298   5.210
10862SOL    HW233486   3.543   4.449   5.263
10863SOL     OW33487   2.110   0.460   3.381
10863SOL    HW133488   2.026   0.424   3.342
10863SOL    HW233489   2.089   0.519   3.458
10864SOL     OW33490   3.023   4.220   1.766
10864SOL    HW133491   2.977   4.307   1.787
10864SOL    HW233492   3.114   4.238   1.730
10865SOL     OW33493   3.873   1.595   2.175
10865SOL    HW133494   3.948   1.540   2.138
10865SOL    HW233495   3.829   1.544   2.249
10866SOL     OW33496   0.779   3.518   3.400
10866SOL    HW133497   0.723   3.561   3.472
10866SOL    HW233498   0.861   3.572   3.385
10867SOL     OW33499   4.195   2.566   0.141
10867SOL    HW133500   4.178   2.658   0.177
10867SOL    HW233501   4.244   2.512   0.210
10868SOL     OW33502   1.337   0.189   4.990
10868SOL    HW133503   1.357   0.093   5.009
10868SOL    HW233504   1.238   0.203   4.987
10869NA      NA33505   6.781   0.998   6.064
10870NA      NA33506   4.358   4.700   5.145
10871NA      NA33507   1.481   4.863   2.871
10872NA      NA33508   5.434   3.826   3.016
10873NA      NA33509   3.494   2.489   5.579
10874NA      NA33510   2.457   5.040   0.065
10875NA      NA33511   1.853   5.415   6.509
10876NA      NA33512   4.046   4.655   1.457
10877NA      NA33513   5.132   4.797   0.343
10878NA      NA33514   3.429   1.379   0.428
10879NA      NA33515   5.293   6.801   1.688
10880NA      NA33516   2.509   6.689   5.139
10881NA      NA33517   4.315   4.950   2.341
10882NA      NA33518   4.393   3.722   6.803
   7.01768   7.01768   7.01768
