Generated by trjconv : CNT in water t= 511.00000
33518
    1C        C    1   2.849   2.770   4.749
    1C        C    2   2.900   2.714   4.869
    1C        C    3   2.844   2.769   4.985
    1C        C    4   2.852   2.776   4.261
    1C        C    5   2.900   2.726   4.384
    1C        C    6   2.844   2.768   4.507
    1C        C    7   3.016   2.639   4.626
    1C        C    8   2.901   2.721   4.627
    1C        C    9   3.079   2.600   4.746
    1C        C   10   3.014   2.631   4.867
    1C        C   11   3.187   2.497   4.981
    1C        C   12   3.062   2.561   4.978
    1C        C   13   2.852   2.771   3.774
    1C        C   14   2.903   2.721   3.896
    1C        C   15   2.852   2.774   4.017
    1C        C   16   3.020   2.645   4.140
    1C        C   17   2.906   2.728   4.139
    1C        C   18   3.078   2.609   4.264
    1C        C   19   3.012   2.640   4.385
    1C        C   20   3.212   2.556   4.507
    1C        C   21   3.078   2.603   4.505
    1C        C   22   3.282   2.537   4.628
    1C        C   23   3.212   2.549   4.749
    1C        C   24   3.415   2.477   4.868
    1C        C   25   3.273   2.496   4.866
    1C        C   26   3.491   2.476   4.986
    1C        C   27   2.848   2.763   3.282
    1C        C   28   2.902   2.722   3.406
    1C        C   29   2.856   2.774   3.529
    1C        C   30   3.017   2.639   3.650
    1C        C   31   2.905   2.725   3.652
    1C        C   32   3.079   2.602   3.772
    1C        C   33   3.018   2.639   3.893
    1C        C   34   3.206   2.550   4.018
    1C        C   35   3.075   2.602   4.017
    1C        C   36   3.275   2.535   4.141
    1C        C   37   3.209   2.556   4.264
    1C        C   38   3.418   2.510   4.381
    1C        C   39   3.279   2.534   4.385
    1C        C   40   3.489   2.502   4.503
    1C        C   41   3.419   2.501   4.625
    1C        C   42   3.630   2.484   4.745
    1C        C   43   3.488   2.477   4.746
    1C        C   44   3.708   2.482   4.863
    1C        C   45   3.630   2.482   4.979
    1C        C   46   2.837   2.751   2.795
    1C        C   47   2.896   2.708   2.916
    1C        C   48   2.846   2.760   3.038
    1C        C   49   3.020   2.639   3.162
    1C        C   50   2.902   2.717   3.160
    1C        C   51   3.082   2.604   3.284
    1C        C   52   3.018   2.641   3.405
    1C        C   53   3.208   2.551   3.528
    1C        C   54   3.077   2.604   3.528
    1C        C   55   3.276   2.530   3.650
    1C        C   56   3.210   2.547   3.774
    1C        C   57   3.416   2.510   3.896
    1C        C   58   3.277   2.531   3.897
    1C        C   59   3.488   2.507   4.018
    1C        C   60   3.414   2.510   4.138
    1C        C   61   3.628   2.500   4.260
    1C        C   62   3.487   2.500   4.258
    1C        C   63   3.701   2.503   4.381
    1C        C   64   3.630   2.495   4.503
    1C        C   65   3.836   2.545   4.622
    1C        C   66   3.701   2.503   4.625
    1C        C   67   3.908   2.563   4.742
    1C        C   68   3.843   2.521   4.860
    1C        C   69   4.052   2.586   4.979
    1C        C   70   3.923   2.531   4.975
    1C        C   71   2.828   2.737   2.308
    1C        C   72   2.884   2.694   2.430
    1C        C   73   2.833   2.746   2.551
    1C        C   74   3.007   2.623   2.674
    1C        C   75   2.889   2.701   2.673
    1C        C   76   3.072   2.590   2.795
    1C        C   77   3.011   2.627   2.917
    1C        C   78   3.206   2.543   3.040
    1C        C   79   3.076   2.598   3.039
    1C        C   80   3.275   2.521   3.161
    1C        C   81   3.208   2.541   3.284
    1C        C   82   3.415   2.501   3.404
    1C        C   83   3.276   2.524   3.406
    1C        C   84   3.484   2.499   3.527
    1C        C   85   3.415   2.503   3.650
    1C        C   86   3.626   2.507   3.771
    1C        C   87   3.485   2.502   3.773
    1C        C   88   3.698   2.512   3.893
    1C        C   89   3.629   2.508   4.017
    1C        C   90   3.836   2.549   4.137
    1C        C   91   3.700   2.513   4.139
    1C        C   92   3.902   2.574   4.260
    1C        C   93   3.836   2.544   4.381
    1C        C   94   4.032   2.634   4.500
    1C        C   95   3.904   2.574   4.501
    1C        C   96   4.095   2.670   4.622
    1C        C   97   4.037   2.624   4.742
    1C        C   98   4.188   2.770   4.862
    1C        C   99   4.099   2.658   4.865
    1C        C  100   4.216   2.845   4.977
    1C        C  101   2.819   2.732   2.068
    1C        C  102   2.989   2.594   2.190
    1C        C  103   2.878   2.684   2.186
    1C        C  104   3.060   2.572   2.312
    1C        C  105   2.998   2.611   2.432
    1C        C  106   3.200   2.537   2.551
    1C        C  107   3.069   2.587   2.552
    1C        C  108   3.269   2.517   2.673
    1C        C  109   3.202   2.536   2.796
    1C        C  110   3.412   2.497   2.915
    1C        C  111   3.272   2.516   2.917
    1C        C  112   3.483   2.494   3.037
    1C        C  113   3.415   2.502   3.161
    1C        C  114   3.627   2.502   3.283
    1C        C  115   3.486   2.490   3.282
    1C        C  116   3.696   2.512   3.405
    1C        C  117   3.625   2.505   3.527
    1C        C  118   3.832   2.554   3.649
    1C        C  119   3.696   2.518   3.649
    1C        C  120   3.900   2.573   3.771
    1C        C  121   3.834   2.548   3.893
    1C        C  122   4.029   2.635   4.015
    1C        C  123   3.902   2.574   4.015
    1C        C  124   4.089   2.677   4.136
    1C        C  125   4.027   2.640   4.258
    1C        C  126   4.201   2.765   4.377
    1C        C  127   4.091   2.676   4.378
    1C        C  128   4.250   2.817   4.499
    1C        C  129   4.198   2.766   4.620
    1C        C  130   4.323   2.940   4.739
    1C        C  131   4.241   2.824   4.741
    1C        C  132   4.355   3.007   4.859
    1C        C  133   4.286   2.965   4.973
    1C        C  134   3.171   2.470   2.083
    1C        C  135   3.036   2.509   2.085
    1C        C  136   3.260   2.482   2.190
    1C        C  137   3.194   2.523   2.308
    1C        C  138   3.404   2.487   2.428
    1C        C  139   3.265   2.509   2.429
    1C        C  140   3.480   2.494   2.547
    1C        C  141   3.410   2.502   2.670
    1C        C  142   3.622   2.499   2.792
    1C        C  143   3.481   2.497   2.792
    1C        C  144   3.693   2.506   2.914
    1C        C  145   3.625   2.498   3.037
    1C        C  146   3.832   2.543   3.159
    1C        C  147   3.696   2.506   3.159
    1C        C  148   3.900   2.564   3.281
    1C        C  149   3.835   2.541   3.404
    1C        C  150   4.028   2.629   3.523
    1C        C  151   3.901   2.568   3.526
    1C        C  152   4.088   2.667   3.645
    1C        C  153   4.027   2.636   3.769
    1C        C  154   4.196   2.763   3.888
    1C        C  155   4.086   2.674   3.891
    1C        C  156   4.246   2.815   4.010
    1C        C  157   4.201   2.763   4.133
    1C        C  158   4.342   2.921   4.254
    1C        C  159   4.256   2.810   4.255
    1C        C  160   4.383   2.982   4.375
    1C        C  161   4.342   2.924   4.497
    1C        C  162   4.439   3.116   4.617
    1C        C  163   4.375   2.990   4.617
    1C        C  164   4.463   3.188   4.736
    1C        C  165   4.430   3.127   4.859
    1C        C  166   4.511   3.324   4.972
    1C        C  167   4.483   3.188   4.974
    1C        C  168   3.473   2.435   2.074
    1C        C  169   3.399   2.455   2.191
    1C        C  170   3.618   2.471   2.308
    1C        C  171   3.476   2.466   2.308
    1C        C  172   3.694   2.488   2.426
    1C        C  173   3.621   2.496   2.546
    1C        C  174   3.826   2.548   2.668
    1C        C  175   3.690   2.509   2.669
    1C        C  176   3.895   2.564   2.790
    1C        C  177   3.829   2.541   2.913
    1C        C  178   4.024   2.628   3.034
    1C        C  179   3.895   2.570   3.035
    1C        C  180   4.088   2.662   3.155
    1C        C  181   4.026   2.628   3.278
    1C        C  182   4.203   2.746   3.399
    1C        C  183   4.089   2.662   3.400
    1C        C  184   4.248   2.801   3.520
    1C        C  185   4.199   2.755   3.645
    1C        C  186   4.343   2.913   3.766
    1C        C  187   4.251   2.806   3.766
    1C        C  188   4.382   2.975   3.887
    1C        C  189   4.339   2.922   4.010
    1C        C  190   4.445   3.106   4.131
    1C        C  191   4.383   2.979   4.132
    1C        C  192   4.471   3.173   4.252
    1C        C  193   4.442   3.111   4.376
    1C        C  194   4.504   3.319   4.492
    1C        C  195   4.465   3.183   4.495
    1C        C  196   4.516   3.391   4.613
    1C        C  197   4.504   3.324   4.737
    1C        C  198   4.549   3.541   4.851
    1C        C  199   4.527   3.400   4.855
    1C        C  200   4.578   3.621   4.966
    1C        C  201   3.613   2.423   2.073
    1C        C  202   3.826   2.510   2.187
    1C        C  203   3.692   2.461   2.186
    1C        C  204   3.902   2.533   2.304
    1C        C  205   3.833   2.516   2.426
    1C        C  206   4.025   2.614   2.546
    1C        C  207   3.897   2.553   2.546
    1C        C  208   4.087   2.655   2.666
    1C        C  209   4.024   2.623   2.789
    1C        C  210   4.197   2.747   2.910
    1C        C  211   4.082   2.664   2.910
    1C        C  212   4.253   2.793   3.031
    1C        C  213   4.202   2.744   3.154
    1C        C  214   4.341   2.904   3.274
    1C        C  215   4.257   2.791   3.276
    1C        C  216   4.371   2.970   3.395
    1C        C  217   4.334   2.913   3.519
    1C        C  218   4.431   3.101   3.640
    1C        C  219   4.378   2.970   3.641
    1C        C  220   4.460   3.168   3.760
    1C        C  221   4.441   3.104   3.885
    1C        C  222   4.498   3.308   4.004
    1C        C  223   4.463   3.171   4.007
    1C        C  224   4.513   3.381   4.124
    1C        C  225   4.503   3.310   4.246
    1C        C  226   4.508   3.525   4.367
    1C        C  227   4.505   3.384   4.367
    1C        C  228   4.510   3.600   4.487
    1C        C  229   4.521   3.532   4.610
    1C        C  230   4.500   3.748   4.728
    1C        C  231   4.532   3.609   4.727
    1C        C  232   4.494   3.822   4.848
    1C        C  233   4.547   3.758   4.961
    1C        C  234   4.013   2.610   2.064
    1C        C  235   3.890   2.546   2.067
    1C        C  236   4.085   2.643   2.180
    1C        C  237   4.027   2.602   2.302
    1C        C  238   4.198   2.734   2.423
    1C        C  239   4.087   2.645   2.423
    1C        C  240   4.255   2.781   2.544
    1C        C  241   4.204   2.734   2.667
    1C        C  242   4.335   2.905   2.785
    1C        C  243   4.248   2.794   2.787
    1C        C  244   4.383   2.958   2.907
    1C        C  245   4.341   2.903   3.030
    1C        C  246   4.440   3.091   3.149
    1C        C  247   4.380   2.964   3.152
    1C        C  248   4.460   3.159   3.272
    1C        C  249   4.435   3.096   3.395
    1C        C  250   4.491   3.302   3.515
    1C        C  251   4.457   3.165   3.517
    1C        C  252   4.507   3.373   3.636
    1C        C  253   4.494   3.306   3.759
    1C        C  254   4.510   3.518   3.879
    1C        C  255   4.505   3.377   3.881
    1C        C  256   4.506   3.589   4.001
    1C        C  257   4.514   3.522   4.125
    1C        C  258   4.486   3.735   4.241
    1C        C  259   4.510   3.596   4.245
    1C        C  260   4.467   3.805   4.362
    1C        C  261   4.488   3.739   4.486
    1C        C  262   4.429   3.946   4.604
    1C        C  263   4.481   3.815   4.605
    1C        C  264   4.402   4.014   4.724
    1C        C  265   4.437   3.951   4.845
    1C        C  266   4.318   4.132   4.959
    1C        C  267   4.399   4.019   4.961
    1C        C  268   4.263   2.772   2.064
    1C        C  269   4.197   2.728   2.180
    1C        C  270   4.345   2.886   2.302
    1C        C  271   4.251   2.779   2.300
    1C        C  272   4.383   2.951   2.421
    1C        C  273   4.345   2.890   2.543
    1C        C  274   4.447   3.082   2.661
    1C        C  275   4.379   2.958   2.662
    1C        C  276   4.469   3.152   2.782
    1C        C  277   4.447   3.084   2.904
    1C        C  278   4.500   3.290   3.025
    1C        C  279   4.471   3.152   3.026
    1C        C  280   4.509   3.363   3.146
    1C        C  281   4.495   3.296   3.270
    1C        C  282   4.512   3.510   3.389
    1C        C  283   4.504   3.369   3.391
    1C        C  284   4.506   3.583   3.510
    1C        C  285   4.506   3.514   3.633
    1C        C  286   4.487   3.725   3.753
    1C        C  287   4.507   3.585   3.755
    1C        C  288   4.470   3.795   3.874
    1C        C  289   4.484   3.729   3.998
    1C        C  290   4.425   3.936   4.119
    1C        C  291   4.471   3.803   4.118
    1C        C  292   4.397   4.006   4.238
    1C        C  293   4.426   3.940   4.360
    1C        C  294   4.330   4.132   4.479
    1C        C  295   4.397   4.008   4.481
    1C        C  296   4.288   4.195   4.598
    1C        C  297   4.330   4.137   4.720
    1C        C  298   4.199   4.314   4.837
    1C        C  299   4.282   4.197   4.840
    1C        C  300   4.163   4.398   4.946
    1C        C  301   4.343   2.886   2.062
    1C        C  302   4.468   3.064   2.180
    1C        C  303   4.394   2.941   2.180
    1C        C  304   4.482   3.141   2.298
    1C        C  305   4.446   3.078   2.419
    1C        C  306   4.510   3.283   2.539
    1C        C  307   4.479   3.145   2.539
    1C        C  308   4.514   3.359   2.658
    1C        C  309   4.500   3.289   2.780
    1C        C  310   4.517   3.500   2.900
    1C        C  311   4.514   3.359   2.902
    1C        C  312   4.511   3.574   3.020
    1C        C  313   4.519   3.504   3.143
    1C        C  314   4.487   3.714   3.263
    1C        C  315   4.517   3.576   3.264
    1C        C  316   4.472   3.787   3.383
    1C        C  317   4.489   3.724   3.508
    1C        C  318   4.422   3.925   3.626
    1C        C  319   4.473   3.793   3.630
    1C        C  320   4.390   3.989   3.748
    1C        C  321   4.420   3.928   3.872
    1C        C  322   4.321   4.115   3.990
    1C        C  323   4.395   3.995   3.994
    1C        C  324   4.283   4.179   4.110
    1C        C  325   4.329   4.129   4.234
    1C        C  326   4.194   4.293   4.354
    1C        C  327   4.288   4.188   4.356
    1C        C  328   4.140   4.347   4.474
    1C        C  329   4.193   4.299   4.596
    1C        C  330   4.026   4.440   4.714
    1C        C  331   4.142   4.357   4.714
    1C        C  332   3.969   4.494   4.831
    1C        C  333   4.049   4.480   4.945
    1C        C  334   4.554   3.267   2.064
    1C        C  335   4.526   3.129   2.066
    1C        C  336   4.538   3.348   2.177
    1C        C  337   4.512   3.280   2.297
    1C        C  338   4.522   3.495   2.414
    1C        C  339   4.523   3.354   2.417
    1C        C  340   4.522   3.571   2.533
    1C        C  341   4.520   3.500   2.655
    1C        C  342   4.499   3.711   2.775
    1C        C  343   4.518   3.571   2.777
    1C        C  344   4.477   3.780   2.896
    1C        C  345   4.487   3.713   3.020
    1C        C  346   4.423   3.916   3.139
    1C        C  347   4.466   3.782   3.141
    1C        C  348   4.394   3.983   3.260
    1C        C  349   4.428   3.922   3.383
    1C        C  350   4.322   4.109   3.503
    1C        C  351   4.395   3.988   3.503
    1C        C  352   4.276   4.166   3.624
    1C        C  353   4.316   4.109   3.747
    1C        C  354   4.182   4.276   3.865
    1C        C  355   4.276   4.171   3.868
    1C        C  356   4.133   4.328   3.986
    1C        C  357   4.186   4.282   4.109
    1C        C  358   4.021   4.412   4.230
    1C        C  359   4.140   4.336   4.231
    1C        C  360   3.959   4.455   4.349
    1C        C  361   4.024   4.426   4.471
    1C        C  362   3.831   4.521   4.592
    1C        C  363   3.960   4.465   4.591
    1C        C  364   3.765   4.554   4.712
    1C        C  365   3.837   4.545   4.833
    1C        C  366   3.629   4.589   4.950
    1C        C  367   3.767   4.569   4.952
    1C        C  368   4.515   3.562   2.053
    1C        C  369   4.531   3.489   2.172
    1C        C  370   4.503   3.705   2.287
    1C        C  371   4.523   3.565   2.291
    1C        C  372   4.482   3.777   2.407
    1C        C  373   4.504   3.711   2.531
    1C        C  374   4.425   3.909   2.649
    1C        C  375   4.480   3.779   2.652
    1C        C  376   4.395   3.976   2.770
    1C        C  377   4.425   3.912   2.892
    1C        C  378   4.323   4.097   3.012
    1C        C  379   4.397   3.977   3.014
    1C        C  380   4.278   4.156   3.132
    1C        C  381   4.312   4.098   3.256
    1C        C  382   4.183   4.264   3.377
    1C        C  383   4.278   4.160   3.378
    1C        C  384   4.129   4.316   3.497
    1C        C  385   4.180   4.269   3.621
    1C        C  386   4.011   4.399   3.741
    1C        C  387   4.128   4.319   3.742
    1C        C  388   3.951   4.437   3.863
    1C        C  389   4.015   4.406   3.985
    1C        C  390   3.822   4.487   4.106
    1C        C  391   3.956   4.441   4.109
    1C        C  392   3.752   4.506   4.227
    1C        C  393   3.824   4.498   4.348
    1C        C  394   3.621   4.552   4.475
    1C        C  395   3.760   4.527   4.470
    1C        C  396   3.548   4.562   4.596
    1C        C  397   3.624   4.562   4.714
    1C        C  398   3.412   4.544   4.836
    1C        C  399   3.552   4.565   4.835
    1C        C  400   3.339   4.520   4.953
    1C        C  401   4.503   3.700   2.051
    1C        C  402   4.453   3.913   2.167
    1C        C  403   4.493   3.778   2.167
    1C        C  404   4.413   3.977   2.287
    1C        C  405   4.440   3.911   2.409
    1C        C  406   4.328   4.098   2.527
    1C        C  407   4.402   3.977   2.528
    1C        C  408   4.281   4.155   2.647
    1C        C  409   4.322   4.097   2.769
    1C        C  410   4.175   4.251   2.888
    1C        C  411   4.278   4.155   2.890
    1C        C  412   4.122   4.298   3.011
    1C        C  413   4.178   4.256   3.134
    1C        C  414   4.007   4.383   3.251
    1C        C  415   4.126   4.307   3.255
    1C        C  416   3.948   4.419   3.374
    1C        C  417   4.010   4.391   3.497
    1C        C  418   3.816   4.480   3.621
    1C        C  419   3.947   4.426   3.618
    1C        C  420   3.748   4.503   3.743
    1C        C  421   3.819   4.485   3.864
    1C        C  422   3.611   4.530   3.986
    1C        C  423   3.751   4.508   3.986
    1C        C  424   3.544   4.534   4.111
    1C        C  425   3.613   4.532   4.233
    1C        C  426   3.404   4.543   4.355
    1C        C  427   3.545   4.553   4.355
    1C        C  428   3.335   4.539   4.478
    1C        C  429   3.407   4.553   4.599
    1C        C  430   3.194   4.518   4.722
    1C        C  431   3.333   4.545   4.719
    1C        C  432   3.124   4.493   4.843
    1C        C  433   3.203   4.492   4.959
    1C        C  434   4.387   4.120   2.050
    1C        C  435   4.458   4.000   2.057
    1C        C  436   4.310   4.165   2.162
    1C        C  437   4.341   4.099   2.285
    1C        C  438   4.183   4.249   2.401
    1C        C  439   4.285   4.151   2.403
    1C        C  440   4.129   4.301   2.521
    1C        C  441   4.183   4.257   2.643
    1C        C  442   4.007   4.377   2.764
    1C        C  443   4.124   4.298   2.765
    1C        C  444   3.945   4.413   2.885
    1C        C  445   4.006   4.378   3.008
    1C        C  446   3.814   4.473   3.130
    1C        C  447   3.942   4.413   3.129
    1C        C  448   3.750   4.497   3.254
    1C        C  449   3.818   4.475   3.376
    1C        C  450   3.611   4.523   3.496
    1C        C  451   3.751   4.500   3.497
    1C        C  452   3.541   4.534   3.618
    1C        C  453   3.610   4.533   3.741
    1C        C  454   3.400   4.538   3.864
    1C        C  455   3.541   4.541   3.864
    1C        C  456   3.333   4.526   3.988
    1C        C  457   3.403   4.533   4.111
    1C        C  458   3.195   4.499   4.237
    1C        C  459   3.333   4.528   4.234
    1C        C  460   3.128   4.481   4.360
    1C        C  461   3.197   4.510   4.480
    1C        C  462   2.999   4.430   4.604
    1C        C  463   3.127   4.491   4.601
    1C        C  464   2.932   4.393   4.722
    1C        C  465   2.992   4.437   4.842
    1C        C  466   2.804   4.332   4.963
    1C        C  467   2.908   4.426   4.958
    1C        C  468   4.128   4.288   2.042
    1C        C  469   4.192   4.246   2.160
    1C        C  470   4.008   4.369   2.278
    1C        C  471   4.128   4.293   2.278
    1C        C  472   3.944   4.404   2.399
    1C        C  473   4.010   4.378   2.521
    1C        C  474   3.818   4.472   2.642
    1C        C  475   3.945   4.413   2.641
    1C        C  476   3.747   4.489   2.764
    1C        C  477   3.815   4.468   2.886
    1C        C  478   3.608   4.518   3.009
    1C        C  479   3.748   4.495   3.008
    1C        C  480   3.539   4.523   3.132
    1C        C  481   3.610   4.518   3.254
    1C        C  482   3.397   4.530   3.378
    1C        C  483   3.538   4.524   3.375
    1C        C  484   3.326   4.530   3.500
    1C        C  485   3.399   4.539   3.621
    1C        C  486   3.192   4.495   3.746
    1C        C  487   3.329   4.530   3.742
    1C        C  488   3.130   4.470   3.870
    1C        C  489   3.196   4.491   3.993
    1C        C  490   2.998   4.420   4.116
    1C        C  491   3.128   4.477   4.115
    1C        C  492   2.941   4.380   4.239
    1C        C  493   3.003   4.415   4.361
    1C        C  494   2.826   4.301   4.483
    1C        C  495   2.940   4.385   4.484
    1C        C  496   2.769   4.256   4.604
    1C        C  497   2.817   4.308   4.725
    1C        C  498   2.660   4.168   4.845
    1C        C  499   2.753   4.274   4.846
    1C        C  500   2.596   4.120   4.961
    1C        C  501   4.006   4.354   2.039
    1C        C  502   3.816   4.459   2.156
    1C        C  503   3.943   4.398   2.156
    1C        C  504   3.748   4.482   2.277
    1C        C  505   3.812   4.453   2.400
    1C        C  506   3.607   4.506   2.518
    1C        C  507   3.746   4.483   2.521
    1C        C  508   3.538   4.512   2.641
    1C        C  509   3.608   4.516   2.763
    1C        C  510   3.398   4.520   2.888
    1C        C  511   3.539   4.526   2.886
    1C        C  512   3.326   4.520   3.009
    1C        C  513   3.398   4.527   3.131
    1C        C  514   3.193   4.486   3.254
    1C        C  515   3.330   4.521   3.255
    1C        C  516   3.125   4.469   3.376
    1C        C  517   3.189   4.496   3.499
    1C        C  518   3.000   4.406   3.625
    1C        C  519   3.125   4.472   3.623
    1C        C  520   2.942   4.370   3.748
    1C        C  521   3.005   4.403   3.870
    1C        C  522   2.838   4.279   3.997
    1C        C  523   2.948   4.368   3.995
    1C        C  524   2.782   4.237   4.120
    1C        C  525   2.831   4.292   4.241
    1C        C  526   2.693   4.133   4.366
    1C        C  527   2.777   4.246   4.363
    1C        C  528   2.644   4.079   4.487
    1C        C  529   2.683   4.144   4.606
    1C        C  530   2.579   3.962   4.733
    1C        C  531   2.637   4.091   4.729
    1C        C  532   2.541   3.902   4.857
    1C        C  533   2.530   3.997   4.963
    1C        C  534   3.622   4.562   2.042
    1C        C  535   3.753   4.511   2.042
    1C        C  536   3.538   4.534   2.155
    1C        C  537   3.609   4.512   2.276
    1C        C  538   3.394   4.512   2.399
    1C        C  539   3.535   4.519   2.397
    1C        C  540   3.324   4.506   2.522
    1C        C  541   3.396   4.509   2.644
    1C        C  542   3.188   4.479   2.766
    1C        C  543   3.327   4.505   2.767
    1C        C  544   3.121   4.464   2.890
    1C        C  545   3.188   4.488   3.011
    1C        C  546   2.996   4.401   3.133
    1C        C  547   3.122   4.465   3.133
    1C        C  548   2.941   4.364   3.257
    1C        C  549   3.000   4.404   3.379
    1C        C  550   2.832   4.277   3.503
    1C        C  551   2.942   4.366   3.502
    1C        C  552   2.781   4.234   3.628
    1C        C  553   2.830   4.284   3.750
    1C        C  554   2.699   4.122   3.875
    1C        C  555   2.784   4.235   3.874
    1C        C  556   2.659   4.066   3.998
    1C        C  557   2.694   4.127   4.120
    1C        C  558   2.595   3.943   4.246
    1C        C  559   2.655   4.071   4.244
    1C        C  560   2.566   3.881   4.369
    1C        C  561   2.586   3.950   4.491
    1C        C  562   2.528   3.750   4.616
    1C        C  563   2.561   3.887   4.615
    1C        C  564   2.521   3.681   4.739
    1C        C  565   2.526   3.759   4.857
    1C        C  566   2.544   3.548   4.980
    1C        C  567   2.532   3.687   4.977
    1C        C  568   3.328   4.481   2.040
    1C        C  569   3.398   4.514   2.157
    1C        C  570   3.185   4.476   2.282
    1C        C  571   3.323   4.509   2.278
    1C        C  572   3.116   4.457   2.403
    1C        C  573   3.186   4.479   2.524
    1C        C  574   2.990   4.400   2.648
    1C        C  575   3.116   4.462   2.646
    1C        C  576   2.933   4.360   2.771
    1C        C  577   2.994   4.401   2.892
    1C        C  578   2.823   4.273   3.014
    1C        C  579   2.933   4.361   3.013
    1C        C  580   2.776   4.225   3.138
    1C        C  581   2.831   4.274   3.259
    1C        C  582   2.694   4.114   3.386
    1C        C  583   2.781   4.225   3.382
    1C        C  584   2.655   4.060   3.511
    1C        C  585   2.695   4.122   3.631
    1C        C  586   2.596   3.936   3.756
    1C        C  587   2.659   4.062   3.754
    1C        C  588   2.568   3.874   3.880
    1C        C  589   2.596   3.939   4.002
    1C        C  590   2.535   3.738   4.127
    1C        C  591   2.572   3.874   4.125
    1C        C  592   2.527   3.672   4.252
    1C        C  593   2.535   3.743   4.373
    1C        C  594   2.516   3.535   4.501
    1C        C  595   2.516   3.676   4.496
    1C        C  596   2.525   3.464   4.623
    1C        C  597   2.518   3.539   4.742
    1C        C  598   2.547   3.329   4.867
    1C        C  599   2.536   3.470   4.864
    1C        C  600   2.542   3.251   4.982
    1C        C  601   3.198   4.433   2.044
    1C        C  602   2.984   4.396   2.161
    1C        C  603   3.120   4.441   2.160
    1C        C  604   2.927   4.357   2.285
    1C        C  605   2.988   4.397   2.407
    1C        C  606   2.811   4.280   2.530
    1C        C  607   2.924   4.364   2.528
    1C        C  608   2.768   4.223   2.652
    1C        C  609   2.825   4.269   2.773
    1C        C  610   2.681   4.111   2.897
    1C        C  611   2.769   4.221   2.893
    1C        C  612   2.649   4.053   3.022
    1C        C  613   2.691   4.113   3.142
    1C        C  614   2.586   3.930   3.266
    1C        C  615   2.651   4.055   3.265
    1C        C  616   2.562   3.868   3.390
    1C        C  617   2.594   3.932   3.512
    1C        C  618   2.531   3.732   3.639
    1C        C  619   2.568   3.868   3.635
    1C        C  620   2.519   3.664   3.763
    1C        C  621   2.531   3.738   3.883
    1C        C  622   2.518   3.526   4.010
    1C        C  623   2.525   3.667   4.005
    1C        C  624   2.522   3.458   4.134
    1C        C  625   2.520   3.531   4.255
    1C        C  626   2.537   3.322   4.381
    1C        C  627   2.520   3.463   4.379
    1C        C  628   2.556   3.253   4.503
    1C        C  629   2.544   3.324   4.624
    1C        C  630   2.602   3.119   4.745
    1C        C  631   2.562   3.256   4.747
    1C        C  632   2.617   3.047   4.866
    1C        C  633   2.570   3.113   4.983
    1C        C  634   2.778   4.315   2.058
    1C        C  635   2.893   4.394   2.050
    1C        C  636   2.745   4.236   2.170
    1C        C  637   2.808   4.280   2.288
    1C        C  638   2.672   4.115   2.410
    1C        C  639   2.761   4.225   2.409
    1C        C  640   2.639   4.051   2.531
    1C        C  641   2.683   4.110   2.652
    1C        C  642   2.582   3.923   2.777
    1C        C  643   2.645   4.050   2.774
    1C        C  644   2.558   3.859   2.900
    1C        C  645   2.587   3.926   3.021
    1C        C  646   2.526   3.725   3.149
    1C        C  647   2.562   3.862   3.144
    1C        C  648   2.518   3.658   3.273
    1C        C  649   2.534   3.730   3.393
    1C        C  650   2.515   3.521   3.518
    1C        C  651   2.524   3.662   3.517
    1C        C  652   2.512   3.452   3.642
    1C        C  653   2.511   3.523   3.764
    1C        C  654   2.537   3.316   3.890
    1C        C  655   2.518   3.456   3.888
    1C        C  656   2.561   3.252   4.014
    1C        C  657   2.548   3.319   4.137
    1C        C  658   2.610   3.120   4.261
    1C        C  659   2.562   3.252   4.261
    1C        C  660   2.643   3.057   4.383
    1C        C  661   2.609   3.122   4.504
    1C        C  662   2.715   2.936   4.629
    1C        C  663   2.638   3.054   4.625
    1C        C  664   2.756   2.877   4.751
    1C        C  665   2.700   2.930   4.870
    1C        C  666   2.745   2.867   4.987
    1C        C  667   2.677   4.026   2.058
    1C        C  668   2.679   4.111   2.169
    1C        C  669   2.586   3.917   2.292
    1C        C  670   2.638   4.049   2.289
    1C        C  671   2.556   3.851   2.413
    1C        C  672   2.583   3.922   2.532
    1C        C  673   2.511   3.724   2.659
    1C        C  674   2.553   3.859   2.655
    1C        C  675   2.503   3.653   2.781
    1C        C  676   2.520   3.722   2.903
    1C        C  677   2.507   3.514   3.032
    1C        C  678   2.515   3.655   3.027
    1C        C  679   2.508   3.444   3.154
    1C        C  680   2.505   3.517   3.275
    1C        C  681   2.536   3.308   3.400
    1C        C  682   2.513   3.447   3.398
    1C        C  683   2.555   3.244   3.524
    1C        C  684   2.532   3.312   3.646
    1C        C  685   2.605   3.114   3.771
    1C        C  686   2.551   3.245   3.768
    1C        C  687   2.638   3.053   3.894
    1C        C  688   2.611   3.120   4.015
    1C        C  689   2.716   2.938   4.140
    1C        C  690   2.639   3.056   4.138
    1C        C  691   2.757   2.880   4.262
    1C        C  692   2.712   2.934   4.385
    1C        C  693   2.755   2.878   4.507
    1C        C  694   2.631   3.894   2.057
    1C        C  695   2.528   3.707   2.177
    1C        C  696   2.577   3.839   2.174
    1C        C  697   2.505   3.639   2.299
    1C        C  698   2.516   3.716   2.417
    1C        C  699   2.490   3.508   2.545
    1C        C  700   2.497   3.649   2.540
    1C        C  701   2.503   3.439   2.667
    1C        C  702   2.503   3.512   2.788
    1C        C  703   2.529   3.302   2.911
    1C        C  704   2.507   3.441   2.911
    1C        C  705   2.548   3.235   3.034
    1C        C  706   2.534   3.305   3.156
    1C        C  707   2.604   3.106   3.279
    1C        C  708   2.553   3.237   3.278
    1C        C  709   2.639   3.048   3.403
    1C        C  710   2.612   3.114   3.525
    1C        C  711   2.715   2.932   3.651
    1C        C  712   2.641   3.053   3.649
    1C        C  713   2.759   2.878   3.774
    1C        C  714   2.720   2.938   3.896
    1C        C  715   2.759   2.880   4.019
    1C        C  716   2.445   3.500   2.063
    1C        C  717   2.488   3.634   2.064
    1C        C  718   2.462   3.425   2.183
    1C        C  719   2.484   3.499   2.302
    1C        C  720   2.518   3.294   2.426
    1C        C  721   2.488   3.432   2.426
    1C        C  722   2.537   3.225   2.548
    1C        C  723   2.524   3.299   2.668
    1C        C  724   2.599   3.100   2.790
    1C        C  725   2.547   3.231   2.790
    1C        C  726   2.629   3.039   2.913
    1C        C  727   2.598   3.103   3.035
    1C        C  728   2.712   2.923   3.159
    1C        C  729   2.631   3.039   3.157
    1C        C  730   2.759   2.873   3.283
    1C        C  731   2.720   2.933   3.405
    1C        C  732   2.761   2.879   3.529
    1C        C  733   2.493   3.202   2.072
    1C        C  734   2.492   3.285   2.185
    1C        C  735   2.587   3.091   2.308
    1C        C  736   2.530   3.221   2.306
    1C        C  737   2.621   3.024   2.428
    1C        C  738   2.592   3.095   2.547
    1C        C  739   2.700   2.912   2.672
    1C        C  740   2.627   3.033   2.669
    1C        C  741   2.744   2.856   2.795
    1C        C  742   2.707   2.921   2.915
    1C        C  743   2.755   2.868   3.036
    1C        C  744   2.546   3.073   2.074
    1C        C  745   2.682   2.899   2.187
    1C        C  746   2.609   3.020   2.188
    1C        C  747   2.730   2.841   2.306
    1C        C  748   2.694   2.904   2.427
    1C        C  749   2.740   2.852   2.550
    1C        C  750   2.734   2.843   2.070
    1C        C  751   3.653   2.329   1.966
    1C        O  752   3.731   2.235   1.999
    1C        O  753   3.649   2.359   1.829
    1C        C  754   4.628   3.057   1.988
    1C        O  755   4.632   3.037   1.864
    1C        O  756   4.706   2.959   2.051
    1C        C  757   4.424   4.212   1.940
    1C        O  758   4.473   4.327   1.957
    1C        O  759   4.435   4.167   1.808
    1C        C  760   3.609   4.693   1.975
    1C        O  761   3.562   4.794   2.034
    1C        O  762   3.582   4.705   1.838
    1C        C  763   2.884   4.496   1.943
    1C        O  764   2.900   4.469   1.821
    1C        O  765   2.849   4.629   1.972
    1C        C  766   2.352   3.465   1.953
    1C        O  767   2.415   3.429   1.850
    1C        O  768   2.213   3.459   1.955
    1C        C  769   4.667   3.585   5.079
    1C        O  770   4.636   3.585   5.202
    1C        O  771   4.806   3.596   5.074
    1C        C  772   4.268   4.450   5.037
    1C        O  773   4.257   4.421   5.159
    1C        O  774   4.316   4.581   5.028
    1C        C  775   4.136   2.525   5.085
    1C        O  776   4.192   2.416   5.056
    1C        O  777   4.094   2.525   5.219
    1C        C  778   2.883   4.551   5.034
    1C        O  779   2.795   4.634   4.998
    1C        O  780   2.900   4.545   5.173
    1C        C  781   2.490   3.038   5.082
    1C        O  782   2.365   3.051   5.093
    1C        O  783   2.546   3.038   5.210
    1C        C  784   2.428   3.991   5.070
    1C        O  785   2.303   4.006   5.060
    1C        O  786   2.457   3.923   5.189
    1C        C  787   2.946   2.463   1.977
    1C        O  788   2.976   2.489   1.857
    1C        O  789   2.872   2.346   1.990
    1C        C  790   3.195   2.392   5.084
    1C        O  791   3.124   2.288   5.087
    1C        O  792   3.262   2.420   5.204
    1C        H  793   4.316   2.997   5.070
    1C        H  794   4.154   2.826   5.062
    1C        H  795   4.530   3.129   5.050
    1C        H  796   4.492   3.374   5.065
    1C        H  797   4.537   3.806   5.055
    1C        H  798   4.468   4.021   5.044
    1C        H  799   4.252   4.141   5.043
    1C        H  800   4.058   4.575   4.995
    1C        H  801   3.816   4.601   5.041
    1C        H  802   3.580   4.623   5.039
    1C        H  803   3.393   4.514   5.045
    1C        H  804   3.161   4.449   5.047
    1C        H  805   3.906   2.449   5.043
    1C        H  806   3.674   2.492   5.076
    1C        H  807   2.993   2.532   5.054
    1C        H  808   3.450   2.427   5.072
    1C        H  809   2.882   2.739   5.080
    1C        H  810   2.692   2.885   5.078
    1C        H  811   2.521   3.297   5.077
    1C        H  812   2.554   3.508   5.078
    1C        H  813   2.476   3.729   5.058
    1C        H  814   2.586   4.184   5.046
    1C        H  815   2.742   4.334   5.050
    1C        H  816   2.666   2.850   1.988
    1C        H  817   2.826   2.679   1.976
    1C        H  818   3.190   2.382   2.025
    1C        H  819   3.438   2.472   1.980
    1C        H  820   3.854   2.508   1.974
    1C        H  821   4.028   2.664   1.973
    1C        H  822   4.279   2.702   1.985
    1C        H  823   4.347   2.937   1.968
    1C        H  824   4.607   3.306   1.979
    1C        H  825   4.529   3.516   1.957
    1C        H  826   4.468   3.746   1.961
    1C        H  827   3.801   4.507   1.946
    1C        H  828   3.945   4.335   1.953
    1C        H  829   4.172   4.272   1.946
    1C        H  830   4.526   3.974   1.978
    1C        H  831   2.700   3.828   2.007
    1C        H  832   2.749   4.046   1.982
    1C        H  833   2.703   4.338   1.986
    1C        H  834   3.356   4.523   1.946
    1C        H  835   3.183   4.342   1.990
    1C        H  836   2.483   3.006   2.019
    1C        H  837   2.419   3.215   1.996
    1C        H  838   2.492   3.689   1.973
    2V3OU   H29  839   2.805   3.552   5.631
    2V3OU   C27  840   2.786   3.505   5.730
    2V3OU   H27  841   2.731   3.574   5.799
    2V3OU   H28  842   2.725   3.412   5.713
    2V3OU   O11  843   2.908   3.479   5.799
    2V3OU   C15  844   2.926   3.397   5.909
    2V3OU   C13  845   3.058   3.373   5.953
    2V3OU   C14  846   3.080   3.265   6.039
    2V3OU   C16  847   2.970   3.192   6.084
    2V3OU    H6  848   2.992   3.099   6.137
    2V3OU   C12  849   3.218   3.229   6.075
    2V3OU    O2  850   3.237   3.128   6.147
    2V3OU   C10  851   3.329   3.310   6.022
    2V3OU    C8  852   3.461   3.273   6.043
    2V3OU   O10  853   3.492   3.157   6.107
    2V3OU   H26  854   3.407   3.118   6.132
    2V3OU    C6  855   3.570   3.356   6.000
    2V3OU    C5  856   3.542   3.474   5.931
    2V3OU    C4  857   3.705   3.294   5.988
    2V3OU    H4  858   3.723   3.226   6.076
    2V3OU    H5  859   3.714   3.229   5.896
    2V3OU    C2  860   3.817   3.397   5.988
    2V3OU    O6  861   3.808   3.473   6.109
    2V3OU   H21  862   3.764   3.558   6.093
    2V3OU    C3  863   3.785   3.498   5.877
    2V3OU    H2  864   3.865   3.576   5.880
    2V3OU    H3  865   3.780   3.445   5.778
    2V3OU   C25  866   3.951   3.325   5.972
    2V3OU    O7  867   4.004   3.284   5.869
    2V3OU   C26  868   4.030   3.292   6.097
    2V3OU   H22  869   4.065   3.387   6.147
    2V3OU   H23  870   4.114   3.222   6.073
    2V3OU    O8  871   3.956   3.210   6.184
    2V3OU   H24  872   3.922   3.270   6.252
    2V3OU    C1  873   3.654   3.570   5.903
    2V3OU    H1  874   3.626   3.623   5.807
    2V3OU    O3  875   3.662   3.657   6.016
    2V3OU   C19  876   3.620   3.793   6.007
    2V3OU    H9  877   3.520   3.802   5.954
    2V3OU    O4  878   3.711   3.853   5.917
    2V3OU   C20  879   3.840   3.875   5.973
    2V3OU   H10  880   3.893   3.778   5.997
    2V3OU   C24  881   3.607   3.852   6.147
    2V3OU   H16  882   3.544   3.785   6.211
    2V3OU   H17  883   3.559   3.952   6.130
    2V3OU   C23  884   3.746   3.876   6.206
    2V3OU   H15  885   3.787   3.772   6.228
    2V3OU    N1  886   3.733   3.955   6.327
    2V3OU   H19  887   3.808   3.937   6.390
    2V3OU   H20  888   3.642   3.943   6.366
    2V3OU   C21  889   3.844   3.947   6.108
    2V3OU   H11  890   3.952   3.928   6.134
    2V3OU    O5  891   3.826   4.088   6.108
    2V3OU   H18  892   3.780   4.109   6.191
    2V3OU   C22  893   3.915   3.950   5.864
    2V3OU   H12  894   3.864   4.048   5.845
    2V3OU   H13  895   3.913   3.891   5.769
    2V3OU   H14  896   4.023   3.961   5.891
    2V3OU   C11  897   3.163   3.474   5.931
    2V3OU    O1  898   3.133   3.590   5.895
    2V3OU    C9  899   3.303   3.432   5.953
    2V3OU    C7  900   3.407   3.511   5.905
    2V3OU    O9  901   3.387   3.620   5.823
    2V3OU   H25  902   3.293   3.630   5.800
    2V3OU   C17  903   2.819   3.317   5.954
    2V3OU    H7  904   2.715   3.343   5.929
    2V3OU   C18  905   2.839   3.211   6.041
    2V3OU    H8  906   2.759   3.139   6.067
    3SOL     OW  907   3.963   3.357   3.978
    3SOL    HW1  908   4.013   3.333   3.895
    3SOL    HW2  909   3.955   3.276   4.036
    4SOL     OW  910   0.034   5.810   0.889
    4SOL    HW1  911   6.993   5.835   0.961
    4SOL    HW2  912   0.001   5.729   0.841
    5SOL     OW  913   5.074   2.203   1.056
    5SOL    HW1  914   5.097   2.294   1.088
    5SOL    HW2  915   5.126   2.135   1.107
    6SOL     OW  916   4.514   1.357   2.351
    6SOL    HW1  917   4.554   1.440   2.310
    6SOL    HW2  918   4.471   1.302   2.279
    7SOL     OW  919   2.166   3.555   4.704
    7SOL    HW1  920   2.258   3.583   4.680
    7SOL    HW2  921   2.149   3.462   4.671
    8SOL     OW  922   0.981   2.188   5.284
    8SOL    HW1  923   1.014   2.249   5.211
    8SOL    HW2  924   0.982   2.094   5.252
    9SOL     OW  925   0.254   1.310   6.028
    9SOL    HW1  926   0.231   1.315   5.931
    9SOL    HW2  927   0.241   1.400   6.070
   10SOL     OW  928   5.254   4.910   1.787
   10SOL    HW1  929   5.287   5.003   1.775
   10SOL    HW2  930   5.157   4.912   1.813
   11SOL     OW  931   2.340   2.495   1.001
   11SOL    HW1  932   2.407   2.475   0.929
   11SOL    HW2  933   2.277   2.565   0.969
   12SOL     OW  934   4.217   5.329   2.425
   12SOL    HW1  935   4.314   5.351   2.424
   12SOL    HW2  936   4.204   5.234   2.397
   13SOL     OW  937   6.162   5.916   1.491
   13SOL    HW1  938   6.181   5.819   1.479
   13SOL    HW2  939   6.243   5.969   1.465
   14SOL     OW  940   4.704   6.850   6.394
   14SOL    HW1  941   4.690   6.936   6.345
   14SOL    HW2  942   4.755   6.867   6.478
   15SOL     OW  943   1.091   5.910   6.218
   15SOL    HW1  944   1.090   5.915   6.318
   15SOL    HW2  945   1.002   5.936   6.182
   16SOL     OW  946   2.091   4.879   5.356
   16SOL    HW1  947   2.153   4.919   5.289
   16SOL    HW2  948   2.049   4.797   5.317
   17SOL     OW  949   6.513   1.079   5.051
   17SOL    HW1  950   6.498   1.100   5.148
   17SOL    HW2  951   6.549   0.986   5.043
   18SOL     OW  952   3.326   0.929   5.675
   18SOL    HW1  953   3.319   0.984   5.758
   18SOL    HW2  954   3.274   0.845   5.686
   19SOL     OW  955   3.403   6.844   2.743
   19SOL    HW1  956   3.415   6.846   2.644
   19SOL    HW2  957   3.312   6.806   2.764
   20SOL     OW  958   6.463   1.546   5.705
   20SOL    HW1  959   6.554   1.572   5.739
   20SOL    HW2  960   6.395   1.559   5.777
   21SOL     OW  961   2.159   4.053   2.567
   21SOL    HW1  962   2.132   3.959   2.545
   21SOL    HW2  963   2.168   4.063   2.666
   22SOL     OW  964   0.900   1.181   0.134
   22SOL    HW1  965   0.823   1.142   0.183
   22SOL    HW2  966   0.982   1.177   0.191
   23SOL     OW  967   6.335   4.656   0.585
   23SOL    HW1  968   6.317   4.753   0.572
   23SOL    HW2  969   6.342   4.636   0.683
   24SOL     OW  970   5.280   1.584   0.349
   24SOL    HW1  971   5.323   1.514   0.406
   24SOL    HW2  972   5.311   1.572   0.254
   25SOL     OW  973   1.802   0.527   4.466
   25SOL    HW1  974   1.734   0.455   4.452
   25SOL    HW2  975   1.757   0.613   4.488
   26SOL     OW  976   1.667   1.724   5.961
   26SOL    HW1  977   1.750   1.760   5.918
   26SOL    HW2  978   1.648   1.776   6.044
   27SOL     OW  979   6.969   6.838   2.526
   27SOL    HW1  980   7.014   6.860   2.439
   27SOL    HW2  981   6.886   6.892   2.536
   28SOL     OW  982   2.245   0.330   5.613
   28SOL    HW1  983   2.306   0.376   5.548
   28SOL    HW2  984   2.165   0.295   5.564
   29SOL     OW  985   5.599   6.855   1.234
   29SOL    HW1  986   5.556   6.861   1.144
   29SOL    HW2  987   5.690   6.898   1.230
   30SOL     OW  988   4.727   0.217   5.216
   30SOL    HW1  989   4.798   0.234   5.148
   30SOL    HW2  990   4.769   0.194   5.304
   31SOL     OW  991   0.086   4.577   4.655
   31SOL    HW1  992   0.173   4.555   4.611
   31SOL    HW2  993   0.093   4.561   4.753
   32SOL     OW  994   3.428   0.557   0.987
   32SOL    HW1  995   3.487   0.483   1.020
   32SOL    HW2  996   3.457   0.644   1.027
   33SOL     OW  997   2.225   5.340   6.069
   33SOL    HW1  998   2.301   5.405   6.066
   33SOL    HW2  999   2.162   5.360   5.994
   34SOL     OW 1000   2.689   5.938   5.599
   34SOL    HW1 1001   2.714   6.035   5.595
   34SOL    HW2 1002   2.767   5.882   5.572
   35SOL     OW 1003   0.877   3.109   6.119
   35SOL    HW1 1004   0.801   3.056   6.083
   35SOL    HW2 1005   0.893   3.083   6.214
   36SOL     OW 1006   5.341   0.801   3.289
   36SOL    HW1 1007   5.419   0.860   3.309
   36SOL    HW2 1008   5.306   0.763   3.375
   37SOL     OW 1009   2.387   6.394   4.050
   37SOL    HW1 1010   2.469   6.429   4.096
   37SOL    HW2 1011   2.370   6.300   4.081
   38SOL     OW 1012   1.526   4.350   2.612
   38SOL    HW1 1013   1.489   4.441   2.634
   38SOL    HW2 1014   1.456   4.296   2.566
   39SOL     OW 1015   6.822   4.801   1.513
   39SOL    HW1 1016   6.862   4.839   1.430
   39SOL    HW2 1017   6.749   4.861   1.546
   40SOL     OW 1018   4.678   1.495   0.585
   40SOL    HW1 1019   4.586   1.494   0.624
   40SOL    HW2 1020   4.705   1.589   0.564
   41SOL     OW 1021   5.143   3.970   1.604
   41SOL    HW1 1022   5.121   4.010   1.694
   41SOL    HW2 1023   5.214   4.025   1.560
   42SOL     OW 1024   1.906   4.487   6.781
   42SOL    HW1 1025   1.933   4.564   6.723
   42SOL    HW2 1026   1.815   4.456   6.753
   43SOL     OW 1027   5.084   0.104   5.010
   43SOL    HW1 1028   5.072   0.005   5.010
   43SOL    HW2 1029   5.130   0.132   5.095
   44SOL     OW 1030   0.325   1.200   6.756
   44SOL    HW1 1031   0.304   1.267   6.685
   44SOL    HW2 1032   0.424   1.199   6.773
   45SOL     OW 1033   1.642   4.966   6.134
   45SOL    HW1 1034   1.704   4.911   6.078
   45SOL    HW2 1035   1.694   5.036   6.183
   46SOL     OW 1036   1.425   4.167   5.114
   46SOL    HW1 1037   1.352   4.099   5.116
   46SOL    HW2 1038   1.498   4.136   5.053
   47SOL     OW 1039   5.922   3.513   6.912
   47SOL    HW1 1040   5.983   3.434   6.905
   47SOL    HW2 1041   5.851   3.506   6.842
   48SOL     OW 1042   6.359   4.141   1.032
   48SOL    HW1 1043   6.391   4.068   0.972
   48SOL    HW2 1044   6.376   4.229   0.988
   49SOL     OW 1045   3.150   3.663   6.401
   49SOL    HW1 1046   3.118   3.667   6.496
   49SOL    HW2 1047   3.072   3.667   6.339
   50SOL     OW 1048   5.587   2.209   6.689
   50SOL    HW1 1049   5.518   2.244   6.753
   50SOL    HW2 1050   5.643   2.141   6.736
   51SOL     OW 1051   1.010   5.722   2.113
   51SOL    HW1 1052   1.106   5.695   2.123
   51SOL    HW2 1053   0.990   5.739   2.017
   52SOL     OW 1054   5.354   2.658   2.441
   52SOL    HW1 1055   5.366   2.666   2.342
   52SOL    HW2 1056   5.308   2.572   2.462
   53SOL     OW 1057   3.631   0.357   1.072
   53SOL    HW1 1058   3.679   0.275   1.042
   53SOL    HW2 1059   3.699   0.427   1.097
   54SOL     OW 1060   6.526   0.454   6.497
   54SOL    HW1 1061   6.450   0.471   6.560
   54SOL    HW2 1062   6.519   0.515   6.419
   55SOL     OW 1063   1.704   3.617   6.218
   55SOL    HW1 1064   1.628   3.582   6.274
   55SOL    HW2 1065   1.679   3.613   6.122
   56SOL     OW 1066   1.135   2.395   6.855
   56SOL    HW1 1067   1.169   2.454   6.782
   56SOL    HW2 1068   1.035   2.393   6.852
   57SOL     OW 1069   4.149   6.240   0.677
   57SOL    HW1 1070   4.105   6.262   0.764
   57SOL    HW2 1071   4.190   6.149   0.682
   58SOL     OW 1072   1.287   1.086   0.020
   58SOL    HW1 1073   1.241   1.039   6.970
   58SOL    HW2 1074   1.278   1.033   0.104
   59SOL     OW 1075   4.248   3.029   5.771
   59SOL    HW1 1076   4.197   2.976   5.703
   59SOL    HW2 1077   4.344   3.035   5.744
   60SOL     OW 1078   6.584   2.701   2.272
   60SOL    HW1 1079   6.615   2.740   2.358
   60SOL    HW2 1080   6.515   2.760   2.231
   61SOL     OW 1081   1.104   5.879   3.672
   61SOL    HW1 1082   1.168   5.921   3.608
   61SOL    HW2 1083   1.023   5.938   3.681
   62SOL     OW 1084   5.903   2.509   3.477
   62SOL    HW1 1085   5.980   2.526   3.415
   62SOL    HW2 1086   5.930   2.443   3.546
   63SOL     OW 1087   3.719   0.159   5.955
   63SOL    HW1 1088   3.761   0.068   5.959
   63SOL    HW2 1089   3.712   0.187   5.859
   64SOL     OW 1090   1.203   2.098   5.748
   64SOL    HW1 1091   1.170   2.012   5.710
   64SOL    HW2 1092   1.272   2.078   5.819
   65SOL     OW 1093   1.013   5.206   4.679
   65SOL    HW1 1094   1.098   5.220   4.629
   65SOL    HW2 1095   1.030   5.145   4.757
   66SOL     OW 1096   4.612   1.632   1.081
   66SOL    HW1 1097   4.539   1.649   1.015
   66SOL    HW2 1098   4.584   1.666   1.171
   67SOL     OW 1099   0.143   3.630   1.823
   67SOL    HW1 1100   0.194   3.716   1.825
   67SOL    HW2 1101   0.093   3.618   1.909
   68SOL     OW 1102   0.357   1.241   0.126
   68SOL    HW1 1103   0.264   1.265   0.155
   68SOL    HW2 1104   0.404   1.324   0.094
   69SOL     OW 1105   1.665   5.651   6.683
   69SOL    HW1 1106   1.631   5.648   6.590
   69SOL    HW2 1107   1.620   5.580   6.738
   70SOL     OW 1108   5.139   4.406   3.801
   70SOL    HW1 1109   5.087   4.344   3.860
   70SOL    HW2 1110   5.075   4.459   3.745
   71SOL     OW 1111   4.586   1.649   5.054
   71SOL    HW1 1112   4.581   1.574   5.121
   71SOL    HW2 1113   4.669   1.640   4.999
   72SOL     OW 1114   6.970   0.436   3.386
   72SOL    HW1 1115   6.924   0.506   3.332
   72SOL    HW2 1116   7.016   0.372   3.325
   73SOL     OW 1117   2.386   0.502   1.682
   73SOL    HW1 1118   2.451   0.542   1.747
   73SOL    HW2 1119   2.295   0.501   1.722
   74SOL     OW 1120   3.302   1.784   0.201
   74SOL    HW1 1121   3.375   1.835   0.155
   74SOL    HW2 1122   3.331   1.689   0.213
   75SOL     OW 1123   2.789   3.073   0.508
   75SOL    HW1 1124   2.797   3.173   0.508
   75SOL    HW2 1125   2.717   3.045   0.571
   76SOL     OW 1126   3.574   5.058   5.589
   76SOL    HW1 1127   3.599   5.103   5.504
   76SOL    HW2 1128   3.483   5.016   5.579
   77SOL     OW 1129   0.892   5.414   4.792
   77SOL    HW1 1130   0.960   5.450   4.856
   77SOL    HW2 1131   0.931   5.336   4.743
   78SOL     OW 1132   4.709   2.183   0.715
   78SOL    HW1 1133   4.635   2.132   0.671
   78SOL    HW2 1134   4.689   2.281   0.709
   79SOL     OW 1135   1.786   4.349   3.770
   79SOL    HW1 1136   1.851   4.274   3.763
   79SOL    HW2 1137   1.745   4.367   3.680
   80SOL     OW 1138   3.444   1.988   4.881
   80SOL    HW1 1139   3.492   2.036   4.955
   80SOL    HW2 1140   3.349   2.019   4.877
   81SOL     OW 1141   3.439   5.186   1.889
   81SOL    HW1 1142   3.538   5.175   1.877
   81SOL    HW2 1143   3.422   5.252   1.962
   82SOL     OW 1144   2.509   0.333   2.194
   82SOL    HW1 1145   2.606   0.316   2.175
   82SOL    HW2 1146   2.476   0.266   2.260
   83SOL     OW 1147   4.994   1.571   3.936
   83SOL    HW1 1148   5.007   1.614   4.025
   83SOL    HW2 1149   5.060   1.609   3.871
   84SOL     OW 1150   5.979   2.823   2.827
   84SOL    HW1 1151   5.903   2.871   2.871
   84SOL    HW2 1152   6.056   2.818   2.890
   85SOL     OW 1153   2.652   6.719   3.234
   85SOL    HW1 1154   2.569   6.775   3.240
   85SOL    HW2 1155   2.644   6.641   3.295
   86SOL     OW 1156   4.927   0.107   1.063
   86SOL    HW1 1157   5.019   0.144   1.079
   86SOL    HW2 1158   4.927   0.052   0.980
   87SOL     OW 1159   3.024   3.671   6.641
   87SOL    HW1 1160   3.048   3.662   6.738
   87SOL    HW2 1161   3.017   3.768   6.618
   88SOL     OW 1162   2.372   2.913   1.374
   88SOL    HW1 1163   2.413   2.948   1.458
   88SOL    HW2 1164   2.302   2.846   1.397
   89SOL     OW 1165   3.137   3.567   4.576
   89SOL    HW1 1166   3.132   3.473   4.541
   89SOL    HW2 1167   3.054   3.587   4.627
   90SOL     OW 1168   5.881   3.660   2.415
   90SOL    HW1 1169   5.936   3.601   2.356
   90SOL    HW2 1170   5.920   3.751   2.417
   91SOL     OW 1171   4.429   6.270   6.827
   91SOL    HW1 1172   4.399   6.206   6.757
   91SOL    HW2 1173   4.361   6.274   6.901
   92SOL     OW 1174   5.622   4.810   6.972
   92SOL    HW1 1175   5.710   4.770   7.000
   92SOL    HW2 1176   5.609   4.898   7.018
   93SOL     OW 1177   2.957   3.947   1.785
   93SOL    HW1 1178   2.948   3.908   1.693
   93SOL    HW2 1179   2.888   4.018   1.798
   94SOL     OW 1180   3.715   2.116   3.948
   94SOL    HW1 1181   3.622   2.137   3.917
   94SOL    HW2 1182   3.735   2.169   4.030
   95SOL     OW 1183   0.500   0.036   4.401
   95SOL    HW1 1184   0.587   7.012   4.404
   95SOL    HW2 1185   0.450   0.023   4.487
   96SOL     OW 1186   0.115   5.487   6.864
   96SOL    HW1 1187   0.084   5.571   6.820
   96SOL    HW2 1188   0.193   5.507   6.924
   97SOL     OW 1189   2.339   4.208   5.773
   97SOL    HW1 1190   2.367   4.291   5.724
   97SOL    HW2 1191   2.341   4.130   5.711
   98SOL     OW 1192   6.950   1.698   4.405
   98SOL    HW1 1193   6.929   1.762   4.331
   98SOL    HW2 1194   0.020   1.710   4.434
   99SOL     OW 1195   3.870   4.350   5.273
   99SOL    HW1 1196   3.960   4.308   5.267
   99SOL    HW2 1197   3.800   4.279   5.269
  100SOL     OW 1198   1.238   0.618   5.445
  100SOL    HW1 1199   1.286   0.547   5.394
  100SOL    HW2 1200   1.167   0.659   5.387
  101SOL     OW 1201   5.193   3.096   2.730
  101SOL    HW1 1202   5.221   3.002   2.715
  101SOL    HW2 1203   5.258   3.158   2.686
  102SOL     OW 1204   4.091   0.530   6.754
  102SOL    HW1 1205   4.065   0.608   6.811
  102SOL    HW2 1206   4.037   0.531   6.670
  103SOL     OW 1207   0.870   1.706   2.060
  103SOL    HW1 1208   0.924   1.671   1.983
  103SOL    HW2 1209   0.785   1.655   2.067
  104SOL     OW 1210   6.163   4.440   1.957
  104SOL    HW1 1211   6.160   4.347   1.996
  104SOL    HW2 1212   6.179   4.506   2.031
  105SOL     OW 1213   0.904   0.392   5.106
  105SOL    HW1 1214   0.932   0.430   5.194
  105SOL    HW2 1215   0.953   0.438   5.032
  106SOL     OW 1216   4.424   3.062   1.696
  106SOL    HW1 1217   4.383   2.971   1.685
  106SOL    HW2 1218   4.497   3.058   1.764
  107SOL     OW 1219   5.722   6.603   1.303
  107SOL    HW1 1220   5.661   6.528   1.276
  107SOL    HW2 1221   5.675   6.691   1.289
  108SOL     OW 1222   3.400   1.599   4.691
  108SOL    HW1 1223   3.479   1.543   4.664
  108SOL    HW2 1224   3.326   1.584   4.626
  109SOL     OW 1225   2.377   0.711   5.379
  109SOL    HW1 1226   2.339   0.751   5.296
  109SOL    HW2 1227   2.326   0.744   5.459
  110SOL     OW 1228   3.624   3.951   5.675
  110SOL    HW1 1229   3.686   3.959   5.597
  110SOL    HW2 1230   3.671   3.907   5.751
  111SOL     OW 1231   6.016   2.866   1.074
  111SOL    HW1 1232   5.944   2.930   1.046
  111SOL    HW2 1233   6.095   2.876   1.014
  112SOL     OW 1234   5.434   6.230   6.108
  112SOL    HW1 1235   5.524   6.272   6.099
  112SOL    HW2 1236   5.392   6.221   6.018
  113SOL     OW 1237   0.341   4.877   2.963
  113SOL    HW1 1238   0.430   4.924   2.958
  113SOL    HW2 1239   0.295   4.901   3.048
  114SOL     OW 1240   0.058   2.476   1.836
  114SOL    HW1 1241   7.011   2.408   1.822
  114SOL    HW2 1242   0.097   2.502   1.747
  115SOL     OW 1243   4.520   0.140   2.561
  115SOL    HW1 1244   4.617   0.164   2.572
  115SOL    HW2 1245   4.511   0.075   2.485
  116SOL     OW 1246   6.953   5.138   0.509
  116SOL    HW1 1247   6.966   5.223   0.560
  116SOL    HW2 1248   6.870   5.092   0.541
  117SOL     OW 1249   3.035   2.386   0.168
  117SOL    HW1 1250   3.010   2.391   0.071
  117SOL    HW2 1251   2.952   2.385   0.224
  118SOL     OW 1252   0.236   1.713   2.612
  118SOL    HW1 1253   0.187   1.801   2.607
  118SOL    HW2 1254   0.170   1.638   2.617
  119SOL     OW 1255   6.466   6.860   5.542
  119SOL    HW1 1256   6.447   6.882   5.446
  119SOL    HW2 1257   6.472   6.761   5.552
  120SOL     OW 1258   4.427   0.842   4.575
  120SOL    HW1 1259   4.447   0.811   4.482
  120SOL    HW2 1260   4.334   0.815   4.600
  121SOL     OW 1261   0.634   5.445   6.496
  121SOL    HW1 1262   0.608   5.523   6.553
  121SOL    HW2 1263   0.662   5.478   6.406
  122SOL     OW 1264   6.689   4.386   5.741
  122SOL    HW1 1265   6.625   4.317   5.775
  122SOL    HW2 1266   6.700   4.374   5.642
  123SOL     OW 1267   0.440   2.863   1.815
  123SOL    HW1 1268   0.345   2.889   1.801
  123SOL    HW2 1269   0.460   2.860   1.912
  124SOL     OW 1270   1.626   3.461   0.246
  124SOL    HW1 1271   1.649   3.508   0.161
  124SOL    HW2 1272   1.632   3.526   0.322
  125SOL     OW 1273   4.307   2.769   0.727
  125SOL    HW1 1274   4.235   2.700   0.716
  125SOL    HW2 1275   4.391   2.736   0.685
  126SOL     OW 1276   3.665   3.370   4.052
  126SOL    HW1 1277   3.746   3.353   4.107
  126SOL    HW2 1278   3.587   3.319   4.089
  127SOL     OW 1279   0.594   4.394   5.242
  127SOL    HW1 1280   0.507   4.366   5.283
  127SOL    HW2 1281   0.590   4.491   5.219
  128SOL     OW 1282   4.693   3.817   6.411
  128SOL    HW1 1283   4.712   3.851   6.503
  128SOL    HW2 1284   4.630   3.879   6.364
  129SOL     OW 1285   0.301   5.694   2.290
  129SOL    HW1 1286   0.352   5.758   2.348
  129SOL    HW2 1287   0.343   5.691   2.199
  130SOL     OW 1288   5.912   3.460   4.172
  130SOL    HW1 1289   6.008   3.478   4.194
  130SOL    HW2 1290   5.854   3.521   4.225
  131SOL     OW 1291   0.409   3.516   3.331
  131SOL    HW1 1292   0.438   3.426   3.364
  131SOL    HW2 1293   0.489   3.568   3.301
  132SOL     OW 1294   4.544   2.445   0.811
  132SOL    HW1 1295   4.456   2.416   0.773
  132SOL    HW2 1296   4.540   2.439   0.911
  133SOL     OW 1297   4.361   5.093   6.453
  133SOL    HW1 1298   4.358   5.179   6.403
  133SOL    HW2 1299   4.316   5.104   6.542
  134SOL     OW 1300   5.423   2.125   1.119
  134SOL    HW1 1301   5.336   2.088   1.150
  134SOL    HW2 1302   5.496   2.060   1.138
  135SOL     OW 1303   4.972   3.815   3.786
  135SOL    HW1 1304   4.889   3.870   3.774
  135SOL    HW2 1305   5.049   3.859   3.739
  136SOL     OW 1306   4.201   0.747   6.426
  136SOL    HW1 1307   4.124   0.706   6.377
  136SOL    HW2 1308   4.240   0.821   6.370
  137SOL     OW 1309   2.605   4.036   6.107
  137SOL    HW1 1310   2.605   4.119   6.052
  137SOL    HW2 1311   2.678   4.041   6.175
  138SOL     OW 1312   0.912   5.590   6.591
  138SOL    HW1 1313   0.900   5.563   6.687
  138SOL    HW2 1314   0.998   5.640   6.581
  139SOL     OW 1315   1.169   6.848   1.385
  139SOL    HW1 1316   1.250   6.901   1.359
  139SOL    HW2 1317   1.088   6.906   1.379
  140SOL     OW 1318   4.024   0.958   1.427
  140SOL    HW1 1319   3.925   0.968   1.438
  140SOL    HW2 1320   4.068   0.955   1.516
  141SOL     OW 1321   0.161   2.294   0.559
  141SOL    HW1 1322   0.152   2.314   0.461
  141SOL    HW2 1323   0.092   2.345   0.610
  142SOL     OW 1324   2.247   4.125   0.586
  142SOL    HW1 1325   2.173   4.171   0.634
  142SOL    HW2 1326   2.333   4.174   0.601
  143SOL     OW 1327   4.130   6.469   2.314
  143SOL    HW1 1328   4.158   6.549   2.260
  143SOL    HW2 1329   4.052   6.494   2.372
  144SOL     OW 1330   3.214   5.668   2.663
  144SOL    HW1 1331   3.197   5.752   2.714
  144SOL    HW2 1332   3.126   5.628   2.636
  145SOL     OW 1333   6.814   5.424   4.219
  145SOL    HW1 1334   6.812   5.377   4.307
  145SOL    HW2 1335   6.722   5.453   4.194
  146SOL     OW 1336   6.169   0.525   6.492
  146SOL    HW1 1337   6.091   0.504   6.433
  146SOL    HW2 1338   6.239   0.574   6.440
  147SOL     OW 1339   5.761   1.299   5.410
  147SOL    HW1 1340   5.807   1.378   5.450
  147SOL    HW2 1341   5.713   1.327   5.327
  148SOL     OW 1342   2.358   6.495   1.134
  148SOL    HW1 1343   2.373   6.526   1.228
  148SOL    HW2 1344   2.260   6.492   1.114
  149SOL     OW 1345   1.837   2.845   4.493
  149SOL    HW1 1346   1.888   2.931   4.503
  149SOL    HW2 1347   1.899   2.768   4.506
  150SOL     OW 1348   4.102   1.961   5.113
  150SOL    HW1 1349   4.149   1.891   5.059
  150SOL    HW2 1350   4.079   1.923   5.202
  151SOL     OW 1351   5.997   3.366   0.821
  151SOL    HW1 1352   6.080   3.349   0.874
  151SOL    HW2 1353   5.949   3.445   0.860
  152SOL     OW 1354   0.958   2.863   1.645
  152SOL    HW1 1355   0.884   2.799   1.665
  152SOL    HW2 1356   0.927   2.956   1.663
  153SOL     OW 1357   2.020   1.908   3.697
  153SOL    HW1 1358   1.966   1.828   3.722
  153SOL    HW2 1359   2.018   1.974   3.773
  154SOL     OW 1360   6.513   1.748   3.182
  154SOL    HW1 1361   6.603   1.787   3.201
  154SOL    HW2 1362   6.501   1.738   3.084
  155SOL     OW 1363   6.475   4.674   3.183
  155SOL    HW1 1364   6.544   4.690   3.112
  155SOL    HW2 1365   6.434   4.762   3.209
  156SOL     OW 1366   5.159   1.492   0.596
  156SOL    HW1 1367   5.179   1.542   0.511
  156SOL    HW2 1368   5.202   1.402   0.593
  157SOL     OW 1369   5.241   6.994   1.402
  157SOL    HW1 1370   5.168   6.996   1.335
  157SOL    HW2 1371   5.250   0.058   1.446
  158SOL     OW 1372   0.566   2.691   4.535
  158SOL    HW1 1373   0.553   2.718   4.631
  158SOL    HW2 1374   0.532   2.763   4.475
  159SOL     OW 1375   6.261   5.387   0.367
  159SOL    HW1 1376   6.341   5.382   0.426
  159SOL    HW2 1377   6.274   5.459   0.298
  160SOL     OW 1378   5.346   0.548   0.934
  160SOL    HW1 1379   5.389   0.482   0.873
  160SOL    HW2 1380   5.389   0.637   0.922
  161SOL     OW 1381   6.559   6.019   0.705
  161SOL    HW1 1382   6.595   6.060   0.789
  161SOL    HW2 1383   6.625   6.032   0.631
  162SOL     OW 1384   4.641   6.997   5.837
  162SOL    HW1 1385   4.596   0.008   5.756
  162SOL    HW2 1386   4.597   6.911   5.865
  163SOL     OW 1387   0.468   2.995   2.812
  163SOL    HW1 1388   0.458   2.943   2.897
  163SOL    HW2 1389   0.457   2.934   2.734
  164SOL     OW 1390   2.753   2.353   3.105
  164SOL    HW1 1391   2.814   2.337   3.183
  164SOL    HW2 1392   2.673   2.293   3.113
  165SOL     OW 1393   7.008   6.879   3.882
  165SOL    HW1 1394   0.059   6.944   3.881
  165SOL    HW2 1395   0.020   6.786   3.887
  166SOL     OW 1396   6.970   4.772   4.337
  166SOL    HW1 1397   0.031   4.823   4.340
  166SOL    HW2 1398   6.902   4.826   4.286
  167SOL     OW 1399   2.199   1.111   4.914
  167SOL    HW1 1400   2.178   1.044   4.842
  167SOL    HW2 1401   2.130   1.184   4.912
  168SOL     OW 1402   3.696   3.623   2.117
  168SOL    HW1 1403   3.615   3.572   2.090
  168SOL    HW2 1404   3.777   3.582   2.076
  169SOL     OW 1405   5.469   2.711   0.399
  169SOL    HW1 1406   5.537   2.734   0.329
  169SOL    HW2 1407   5.420   2.628   0.372
  170SOL     OW 1408   6.165   5.450   1.364
  170SOL    HW1 1409   6.260   5.423   1.344
  170SOL    HW2 1410   6.164   5.541   1.405
  171SOL     OW 1411   3.426   3.232   1.178
  171SOL    HW1 1412   3.368   3.297   1.129
  171SOL    HW2 1413   3.369   3.170   1.231
  172SOL     OW 1414   1.788   1.002   5.932
  172SOL    HW1 1415   1.693   1.018   5.960
  172SOL    HW2 1416   1.845   1.079   5.962
  173SOL     OW 1417   5.875   1.225   4.284
  173SOL    HW1 1418   5.966   1.236   4.243
  173SOL    HW2 1419   5.806   1.261   4.222
  174SOL     OW 1420   5.429   4.350   4.398
  174SOL    HW1 1421   5.520   4.310   4.402
  174SOL    HW2 1422   5.418   4.401   4.312
  175SOL     OW 1423   0.392   6.239   2.394
  175SOL    HW1 1424   0.368   6.262   2.300
  175SOL    HW2 1425   0.490   6.250   2.408
  176SOL     OW 1426   6.692   3.465   1.618
  176SOL    HW1 1427   6.655   3.402   1.550
  176SOL    HW2 1428   6.746   3.535   1.572
  177SOL     OW 1429   6.018   2.161   3.345
  177SOL    HW1 1430   6.091   2.141   3.411
  177SOL    HW2 1431   5.930   2.162   3.393
  178SOL     OW 1432   2.234   5.836   4.342
  178SOL    HW1 1433   2.287   5.787   4.411
  178SOL    HW2 1434   2.168   5.895   4.388
  179SOL     OW 1435   3.125   4.528   1.327
  179SOL    HW1 1436   3.205   4.479   1.362
  179SOL    HW2 1437   3.049   4.517   1.392
  180SOL     OW 1438   4.954   1.218   6.347
  180SOL    HW1 1439   5.044   1.217   6.303
  180SOL    HW2 1440   4.905   1.301   6.319
  181SOL     OW 1441   3.334   1.268   6.093
  181SOL    HW1 1442   3.285   1.352   6.069
  181SOL    HW2 1443   3.430   1.276   6.067
  182SOL     OW 1444   3.151   3.318   5.631
  182SOL    HW1 1445   3.146   3.333   5.532
  182SOL    HW2 1446   3.105   3.393   5.678
  183SOL     OW 1447   3.020   0.600   3.170
  183SOL    HW1 1448   2.952   0.526   3.173
  183SOL    HW2 1449   2.995   0.665   3.099
  184SOL     OW 1450   5.487   5.825   3.537
  184SOL    HW1 1451   5.537   5.819   3.624
  184SOL    HW2 1452   5.552   5.813   3.462
  185SOL     OW 1453   0.711   6.919   5.073
  185SOL    HW1 1454   0.756   6.992   5.123
  185SOL    HW2 1455   0.706   6.943   4.976
  186SOL     OW 1456   3.060   6.102   4.506
  186SOL    HW1 1457   3.003   6.025   4.477
  186SOL    HW2 1458   3.152   6.070   4.527
  187SOL     OW 1459   4.174   5.543   1.216
  187SOL    HW1 1460   4.123   5.624   1.247
  187SOL    HW2 1461   4.263   5.541   1.261
  188SOL     OW 1462   0.936   3.747   3.474
  188SOL    HW1 1463   0.965   3.659   3.437
  188SOL    HW2 1464   0.954   3.819   3.406
  189SOL     OW 1465   5.287   4.661   5.224
  189SOL    HW1 1466   5.259   4.572   5.189
  189SOL    HW2 1467   5.247   4.733   5.168
  190SOL     OW 1468   6.041   6.957   0.557
  190SOL    HW1 1469   6.054   6.914   0.646
  190SOL    HW2 1470   6.125   6.950   0.504
  191SOL     OW 1471   1.586   1.940   5.302
  191SOL    HW1 1472   1.631   1.899   5.223
  191SOL    HW2 1473   1.514   2.002   5.271
  192SOL     OW 1474   0.638   5.848   1.601
  192SOL    HW1 1475   0.680   5.759   1.619
  192SOL    HW2 1476   0.708   5.911   1.568
  193SOL     OW 1477   2.422   0.834   1.955
  193SOL    HW1 1478   2.445   0.738   1.972
  193SOL    HW2 1479   2.489   0.874   1.892
  194SOL     OW 1480   3.469   5.989   2.403
  194SOL    HW1 1481   3.473   5.912   2.339
  194SOL    HW2 1482   3.402   6.056   2.370
  195SOL     OW 1483   3.428   0.256   0.510
  195SOL    HW1 1484   3.383   0.342   0.532
  195SOL    HW2 1485   3.489   0.230   0.584
  196SOL     OW 1486   3.793   2.372   0.775
  196SOL    HW1 1487   3.755   2.282   0.794
  196SOL    HW2 1488   3.755   2.438   0.840
  197SOL     OW 1489   1.645   5.639   0.271
  197SOL    HW1 1490   1.678   5.709   0.207
  197SOL    HW2 1491   1.551   5.613   0.245
  198SOL     OW 1492   4.508   6.676   6.494
  198SOL    HW1 1493   4.511   6.595   6.552
  198SOL    HW2 1494   4.601   6.701   6.467
  199SOL     OW 1495   0.936   0.650   3.356
  199SOL    HW1 1496   0.898   0.734   3.317
  199SOL    HW2 1497   0.862   0.598   3.400
  200SOL     OW 1498   1.089   3.874   3.871
  200SOL    HW1 1499   1.070   3.954   3.926
  200SOL    HW2 1500   1.004   3.840   3.831
  201SOL     OW 1501   4.627   1.557   6.451
  201SOL    HW1 1502   4.560   1.587   6.384
  201SOL    HW2 1503   4.592   1.479   6.502
  202SOL     OW 1504   3.755   1.122   2.297
  202SOL    HW1 1505   3.779   1.042   2.352
  202SOL    HW2 1506   3.816   1.198   2.320
  203SOL     OW 1507   6.211   2.734   7.007
  203SOL    HW1 1508   6.232   2.783   0.067
  203SOL    HW2 1509   6.179   2.798   6.938
  204SOL     OW 1510   2.251   0.146   1.448
  204SOL    HW1 1511   2.327   0.185   1.501
  204SOL    HW2 1512   2.176   0.212   1.444
  205SOL     OW 1513   5.657   0.658   1.536
  205SOL    HW1 1514   5.605   0.734   1.574
  205SOL    HW2 1515   5.652   0.660   1.436
  206SOL     OW 1516   0.105   5.803   1.721
  206SOL    HW1 1517   0.185   5.785   1.778
  206SOL    HW2 1518   0.061   5.888   1.750
  207SOL     OW 1519   5.075   1.707   5.605
  207SOL    HW1 1520   5.080   1.729   5.703
  207SOL    HW2 1521   4.997   1.754   5.564
  208SOL     OW 1522   3.775   4.388   6.168
  208SOL    HW1 1523   3.840   4.347   6.103
  208SOL    HW2 1524   3.822   4.407   6.255
  209SOL     OW 1525   6.738   5.568   4.536
  209SOL    HW1 1526   6.818   5.619   4.505
  209SOL    HW2 1527   6.757   5.470   4.530
  210SOL     OW 1528   4.002   1.972   1.114
  210SOL    HW1 1529   3.945   2.026   1.177
  210SOL    HW2 1530   4.036   2.031   1.041
  211SOL     OW 1531   0.717   3.111   2.017
  211SOL    HW1 1532   0.814   3.136   2.023
  211SOL    HW2 1533   0.683   3.088   2.108
  212SOL     OW 1534   6.751   5.290   4.491
  212SOL    HW1 1535   6.806   5.207   4.500
  212SOL    HW2 1536   6.654   5.266   4.493
  213SOL     OW 1537   3.851   2.296   5.940
  213SOL    HW1 1538   3.882   2.383   5.903
  213SOL    HW2 1539   3.804   2.311   6.026
  214SOL     OW 1540   1.411   6.650   3.275
  214SOL    HW1 1541   1.506   6.650   3.243
  214SOL    HW2 1542   1.402   6.713   3.353
  215SOL     OW 1543   4.113   3.679   2.930
  215SOL    HW1 1544   4.112   3.755   2.866
  215SOL    HW2 1545   4.133   3.714   3.022
  216SOL     OW 1546   1.869   0.126   5.698
  216SOL    HW1 1547   1.880   0.041   5.748
  216SOL    HW2 1548   1.798   0.182   5.741
  217SOL     OW 1549   6.784   2.579   4.326
  217SOL    HW1 1550   6.801   2.658   4.267
  217SOL    HW2 1551   6.686   2.561   4.331
  218SOL     OW 1552   1.962   3.517   5.551
  218SOL    HW1 1553   1.943   3.529   5.649
  218SOL    HW2 1554   2.017   3.594   5.519
  219SOL     OW 1555   3.356   5.351   0.392
  219SOL    HW1 1556   3.309   5.427   0.347
  219SOL    HW2 1557   3.290   5.278   0.411
  220SOL     OW 1558   1.229   4.343   0.510
  220SOL    HW1 1559   1.310   4.355   0.568
  220SOL    HW2 1560   1.256   4.347   0.414
  221SOL     OW 1561   6.420   2.829   4.294
  221SOL    HW1 1562   6.332   2.854   4.251
  221SOL    HW2 1563   6.403   2.792   4.385
  222SOL     OW 1564   1.187   6.248   4.389
  222SOL    HW1 1565   1.105   6.191   4.397
  222SOL    HW2 1566   1.217   6.275   4.481
  223SOL     OW 1567   6.216   4.607   2.176
  223SOL    HW1 1568   6.301   4.601   2.227
  223SOL    HW2 1569   6.139   4.612   2.240
  224SOL     OW 1570   3.902   2.139   2.170
  224SOL    HW1 1571   3.839   2.170   2.099
  224SOL    HW2 1572   3.858   2.149   2.260
  225SOL     OW 1573   6.365   0.147   1.454
  225SOL    HW1 1574   6.412   0.200   1.383
  225SOL    HW2 1575   6.381   0.049   1.438
  226SOL     OW 1576   6.924   5.992   1.495
  226SOL    HW1 1577   6.999   6.016   1.433
  226SOL    HW2 1578   6.954   6.006   1.590
  227SOL     OW 1579   1.047   3.253   2.817
  227SOL    HW1 1580   1.046   3.155   2.837
  227SOL    HW2 1581   1.001   3.303   2.891
  228SOL     OW 1582   3.529   6.430   2.624
  228SOL    HW1 1583   3.489   6.344   2.592
  228SOL    HW2 1584   3.458   6.484   2.670
  229SOL     OW 1585   5.974   5.687   3.535
  229SOL    HW1 1586   5.879   5.659   3.529
  229SOL    HW2 1587   5.981   5.786   3.521
  230SOL     OW 1588   1.168   4.068   6.251
  230SOL    HW1 1589   1.232   4.102   6.181
  230SOL    HW2 1590   1.128   4.145   6.300
  231SOL     OW 1591   0.800   1.647   0.046
  231SOL    HW1 1592   0.808   1.559   7.024
  231SOL    HW2 1593   0.815   1.634   0.144
  232SOL     OW 1594   1.686   4.417   6.655
  232SOL    HW1 1595   1.623   4.340   6.644
  232SOL    HW2 1596   1.736   4.430   6.570
  233SOL     OW 1597   3.306   0.528   6.141
  233SOL    HW1 1598   3.230   0.585   6.173
  233SOL    HW2 1599   3.286   0.432   6.160
  234SOL     OW 1600   3.121   5.673   6.129
  234SOL    HW1 1601   3.129   5.631   6.039
  234SOL    HW2 1602   3.104   5.602   6.197
  235SOL     OW 1603   3.551   3.425   4.905
  235SOL    HW1 1604   3.528   3.420   4.808
  235SOL    HW2 1605   3.566   3.520   4.931
  236SOL     OW 1606   0.254   2.344   6.167
  236SOL    HW1 1607   0.240   2.284   6.088
  236SOL    HW2 1608   0.334   2.401   6.152
  237SOL     OW 1609   6.442   6.506   1.748
  237SOL    HW1 1610   6.462   6.547   1.659
  237SOL    HW2 1611   6.526   6.469   1.787
  238SOL     OW 1612   6.528   1.424   2.599
  238SOL    HW1 1613   6.433   1.436   2.627
  238SOL    HW2 1614   6.573   1.357   2.659
  239SOL     OW 1615   0.421   5.598   0.902
  239SOL    HW1 1616   0.380   5.521   0.950
  239SOL    HW2 1617   0.518   5.605   0.927
  240SOL     OW 1618   6.714   3.110   5.524
  240SOL    HW1 1619   6.762   3.099   5.611
  240SOL    HW2 1620   6.769   3.164   5.462
  241SOL     OW 1621   6.020   1.676   4.543
  241SOL    HW1 1622   5.936   1.730   4.549
  241SOL    HW2 1623   5.997   1.581   4.520
  242SOL     OW 1624   2.577   2.485   4.102
  242SOL    HW1 1625   2.661   2.430   4.092
  242SOL    HW2 1626   2.556   2.496   4.199
  243SOL     OW 1627   4.351   1.321   6.539
  243SOL    HW1 1628   4.362   1.363   6.629
  243SOL    HW2 1629   4.255   1.328   6.510
  244SOL     OW 1630   0.154   0.618   6.113
  244SOL    HW1 1631   0.087   0.688   6.090
  244SOL    HW2 1632   0.181   0.569   6.030
  245SOL     OW 1633   4.994   2.614   3.837
  245SOL    HW1 1634   5.007   2.646   3.930
  245SOL    HW2 1635   4.972   2.692   3.778
  246SOL     OW 1636   5.024   3.048   3.672
  246SOL    HW1 1637   5.095   3.070   3.740
  246SOL    HW2 1638   5.044   2.959   3.632
  247SOL     OW 1639   2.782   0.062   3.450
  247SOL    HW1 1640   2.881   0.056   3.457
  247SOL    HW2 1641   2.741   0.045   3.540
  248SOL     OW 1642   6.708   1.521   1.665
  248SOL    HW1 1643   6.794   1.475   1.641
  248SOL    HW2 1644   6.726   1.617   1.687
  249SOL     OW 1645   2.065   6.031   5.223
  249SOL    HW1 1646   2.134   5.970   5.183
  249SOL    HW2 1647   1.996   6.053   5.154
  250SOL     OW 1648   5.181   2.777   6.666
  250SOL    HW1 1649   5.124   2.770   6.748
  250SOL    HW2 1650   5.263   2.829   6.688
  251SOL     OW 1651   1.862   2.600   0.525
  251SOL    HW1 1652   1.926   2.572   0.597
  251SOL    HW2 1653   1.899   2.575   0.435
  252SOL     OW 1654   0.917   1.550   0.880
  252SOL    HW1 1655   0.874   1.566   0.969
  252SOL    HW2 1656   1.002   1.603   0.873
  253SOL     OW 1657   1.800   4.315   6.068
  253SOL    HW1 1658   1.731   4.383   6.094
  253SOL    HW2 1659   1.890   4.359   6.063
  254SOL     OW 1660   4.727   3.486   6.511
  254SOL    HW1 1661   4.826   3.478   6.516
  254SOL    HW2 1662   4.690   3.410   6.458
  255SOL     OW 1663   3.814   2.117   2.432
  255SOL    HW1 1664   3.720   2.082   2.430
  255SOL    HW2 1665   3.844   2.127   2.527
  256SOL     OW 1666   6.720   5.722   1.991
  256SOL    HW1 1667   6.702   5.738   1.894
  256SOL    HW2 1668   6.648   5.662   2.028
  257SOL     OW 1669   2.611   5.910   6.665
  257SOL    HW1 1670   2.688   5.953   6.617
  257SOL    HW2 1671   2.569   5.976   6.727
  258SOL     OW 1672   4.891   4.275   4.478
  258SOL    HW1 1673   4.911   4.368   4.507
  258SOL    HW2 1674   4.840   4.278   4.392
  259SOL     OW 1675   0.540   2.062   3.065
  259SOL    HW1 1676   0.486   1.998   3.120
  259SOL    HW2 1677   0.491   2.149   3.058
  260SOL     OW 1678   0.106   6.607   5.877
  260SOL    HW1 1679   0.007   6.593   5.870
  260SOL    HW2 1680   0.149   6.523   5.911
  261SOL     OW 1681   0.236   1.062   3.182
  261SOL    HW1 1682   0.328   1.101   3.172
  261SOL    HW2 1683   0.209   1.018   3.097
  262SOL     OW 1684   1.809   5.314   2.774
  262SOL    HW1 1685   1.832   5.276   2.684
  262SOL    HW2 1686   1.725   5.368   2.767
  263SOL     OW 1687   0.028   3.070   5.224
  263SOL    HW1 1688   0.058   3.110   5.311
  263SOL    HW2 1689   0.053   2.973   5.222
  264SOL     OW 1690   3.266   4.179   6.627
  264SOL    HW1 1691   3.215   4.107   6.580
  264SOL    HW2 1692   3.202   4.246   6.664
  265SOL     OW 1693   4.842   5.313   4.501
  265SOL    HW1 1694   4.860   5.220   4.534
  265SOL    HW2 1695   4.845   5.313   4.401
  266SOL     OW 1696   4.056   3.217   6.739
  266SOL    HW1 1697   3.973   3.272   6.725
  266SOL    HW2 1698   4.083   3.175   6.652
  267SOL     OW 1699   2.425   1.737   6.433
  267SOL    HW1 1700   2.465   1.784   6.354
  267SOL    HW2 1701   2.326   1.755   6.436
  268SOL     OW 1702   2.796   4.724   3.780
  268SOL    HW1 1703   2.706   4.700   3.817
  268SOL    HW2 1704   2.829   4.808   3.822
  269SOL     OW 1705   1.978   1.273   4.888
  269SOL    HW1 1706   1.942   1.275   4.795
  269SOL    HW2 1707   1.942   1.352   4.939
  270SOL     OW 1708   4.922   6.719   4.457
  270SOL    HW1 1709   4.963   6.750   4.542
  270SOL    HW2 1710   4.829   6.756   4.449
  271SOL     OW 1711   1.687   1.543   0.652
  271SOL    HW1 1712   1.771   1.533   0.704
  271SOL    HW2 1713   1.646   1.633   0.670
  272SOL     OW 1714   4.315   5.997   1.169
  272SOL    HW1 1715   4.401   5.957   1.199
  272SOL    HW2 1716   4.266   6.036   1.247
  273SOL     OW 1717   2.288   6.554   4.263
  273SOL    HW1 1718   2.310   6.490   4.189
  273SOL    HW2 1719   2.202   6.601   4.242
  274SOL     OW 1720   5.481   1.675   1.041
  274SOL    HW1 1721   5.528   1.612   1.103
  274SOL    HW2 1722   5.494   1.769   1.071
  275SOL     OW 1723   5.667   5.537   5.731
  275SOL    HW1 1724   5.626   5.537   5.823
  275SOL    HW2 1725   5.668   5.443   5.696
  276SOL     OW 1726   6.994   6.548   4.661
  276SOL    HW1 1727   0.053   6.602   4.668
  276SOL    HW2 1728   6.987   6.486   4.740
  277SOL     OW 1729   4.444   2.661   5.456
  277SOL    HW1 1730   4.480   2.701   5.540
  277SOL    HW2 1731   4.359   2.707   5.431
  278SOL     OW 1732   5.695   4.022   3.246
  278SOL    HW1 1733   5.665   3.927   3.237
  278SOL    HW2 1734   5.754   4.031   3.325
  279SOL     OW 1735   6.702   3.480   3.950
  279SOL    HW1 1736   6.648   3.398   3.930
  279SOL    HW2 1737   6.778   3.486   3.885
  280SOL     OW 1738   4.451   1.322   3.536
  280SOL    HW1 1739   4.505   1.249   3.577
  280SOL    HW2 1740   4.509   1.402   3.520
  281SOL     OW 1741   5.356   5.955   5.085
  281SOL    HW1 1742   5.408   5.878   5.123
  281SOL    HW2 1743   5.347   5.944   4.987
  282SOL     OW 1744   1.119   3.014   0.294
  282SOL    HW1 1745   1.176   2.938   0.266
  282SOL    HW2 1746   1.090   3.066   0.213
  283SOL     OW 1747   5.848   3.965   4.364
  283SOL    HW1 1748   5.943   3.988   4.341
  283SOL    HW2 1749   5.820   4.016   4.445
  284SOL     OW 1750   4.883   5.865   2.569
  284SOL    HW1 1751   4.901   5.947   2.514
  284SOL    HW2 1752   4.878   5.891   2.666
  285SOL     OW 1753   3.894   6.911   5.750
  285SOL    HW1 1754   3.947   6.945   5.828
  285SOL    HW2 1755   3.840   6.832   5.780
  286SOL     OW 1756   2.619   5.203   5.240
  286SOL    HW1 1757   2.579   5.119   5.202
  286SOL    HW2 1758   2.695   5.179   5.301
  287SOL     OW 1759   4.044   6.275   7.000
  287SOL    HW1 1760   4.013   6.181   6.985
  287SOL    HW2 1761   3.996   6.314   0.054
  288SOL     OW 1762   4.978   1.653   0.277
  288SOL    HW1 1763   5.077   1.639   0.277
  288SOL    HW2 1764   4.943   1.639   0.184
  289SOL     OW 1765   5.946   5.198   4.282
  289SOL    HW1 1766   5.947   5.181   4.381
  289SOL    HW2 1767   6.037   5.178   4.244
  290SOL     OW 1768   4.128   0.511   5.671
  290SOL    HW1 1769   4.202   0.474   5.727
  290SOL    HW2 1770   4.059   0.440   5.657
  291SOL     OW 1771   4.313   0.359   5.422
  291SOL    HW1 1772   4.349   0.345   5.515
  291SOL    HW2 1773   4.244   0.430   5.424
  292SOL     OW 1774   3.398   0.216   3.820
  292SOL    HW1 1775   3.401   0.126   3.862
  292SOL    HW2 1776   3.367   0.208   3.725
  293SOL     OW 1777   5.206   6.191   2.907
  293SOL    HW1 1778   5.153   6.210   2.989
  293SOL    HW2 1779   5.164   6.234   2.828
  294SOL     OW 1780   6.641   1.364   0.014
  294SOL    HW1 1781   6.628   1.385   6.942
  294SOL    HW2 1782   6.656   1.449   0.065
  295SOL     OW 1783   1.259   0.852   4.572
  295SOL    HW1 1784   1.273   0.949   4.551
  295SOL    HW2 1785   1.289   0.834   4.665
  296SOL     OW 1786   0.765   2.348   2.122
  296SOL    HW1 1787   0.732   2.309   2.208
  296SOL    HW2 1788   0.705   2.423   2.094
  297SOL     OW 1789   5.748   3.055   3.490
  297SOL    HW1 1790   5.760   3.120   3.566
  297SOL    HW2 1791   5.744   2.962   3.527
  298SOL     OW 1792   3.989   1.097   5.630
  298SOL    HW1 1793   3.971   1.158   5.707
  298SOL    HW2 1794   4.033   1.014   5.663
  299SOL     OW 1795   0.620   1.110   6.758
  299SOL    HW1 1796   0.649   1.073   6.670
  299SOL    HW2 1797   0.646   1.206   6.764
  300SOL     OW 1798   4.815   0.100   3.652
  300SOL    HW1 1799   4.751   0.025   3.666
  300SOL    HW2 1800   4.764   0.182   3.625
  301SOL     OW 1801   6.696   5.166   6.405
  301SOL    HW1 1802   6.754   5.140   6.328
  301SOL    HW2 1803   6.748   5.222   6.469
  302SOL     OW 1804   6.952   6.261   2.755
  302SOL    HW1 1805   7.023   6.200   2.789
  302SOL    HW2 1806   6.964   6.352   2.796
  303SOL     OW 1807   5.892   5.975   3.405
  303SOL    HW1 1808   5.822   5.906   3.386
  303SOL    HW2 1809   5.918   6.019   3.319
  304SOL     OW 1810   2.368   6.365   4.770
  304SOL    HW1 1811   2.380   6.329   4.677
  304SOL    HW2 1812   2.332   6.293   4.829
  305SOL     OW 1813   0.751   2.695   1.661
  305SOL    HW1 1814   0.747   2.597   1.682
  305SOL    HW2 1815   0.664   2.724   1.622
  306SOL     OW 1816   0.253   6.687   3.323
  306SOL    HW1 1817   0.339   6.717   3.365
  306SOL    HW2 1818   0.181   6.685   3.393
  307SOL     OW 1819   3.677   3.425   3.796
  307SOL    HW1 1820   3.699   3.383   3.884
  307SOL    HW2 1821   3.761   3.457   3.752
  308SOL     OW 1822   6.709   1.891   2.528
  308SOL    HW1 1823   6.757   1.969   2.486
  308SOL    HW2 1824   6.738   1.881   2.623
  309SOL     OW 1825   2.297   5.706   0.054
  309SOL    HW1 1826   2.368   5.762   0.011
  309SOL    HW2 1827   2.229   5.680   7.009
  310SOL     OW 1828   5.649   6.402   4.988
  310SOL    HW1 1829   5.706   6.479   4.959
  310SOL    HW2 1830   5.555   6.434   5.001
  311SOL     OW 1831   1.798   5.948   1.874
  311SOL    HW1 1832   1.896   5.931   1.862
  311SOL    HW2 1833   1.769   5.918   1.965
  312SOL     OW 1834   3.029   0.379   4.138
  312SOL    HW1 1835   3.026   0.470   4.096
  312SOL    HW2 1836   3.103   0.326   4.096
  313SOL     OW 1837   2.933   3.322   2.755
  313SOL    HW1 1838   2.953   3.343   2.659
  313SOL    HW2 1839   2.961   3.228   2.775
  314SOL     OW 1840   2.696   5.605   5.735
  314SOL    HW1 1841   2.754   5.542   5.786
  314SOL    HW2 1842   2.734   5.620   5.644
  315SOL     OW 1843   5.610   0.795   4.805
  315SOL    HW1 1844   5.700   0.829   4.832
  315SOL    HW2 1845   5.582   0.840   4.719
  316SOL     OW 1846   4.032   0.620   6.249
  316SOL    HW1 1847   3.999   0.544   6.194
  316SOL    HW2 1848   3.967   0.696   6.242
  317SOL     OW 1849   0.418   2.591   1.485
  317SOL    HW1 1850   0.437   2.510   1.429
  317SOL    HW2 1851   0.319   2.600   1.497
  318SOL     OW 1852   0.984   0.756   5.284
  318SOL    HW1 1853   0.965   0.743   5.187
  318SOL    HW2 1854   0.898   0.756   5.335
  319SOL     OW 1855   7.018   0.834   3.909
  319SOL    HW1 1856   6.984   0.741   3.893
  319SOL    HW2 1857   0.056   0.859   3.836
  320SOL     OW 1858   5.783   2.043   6.774
  320SOL    HW1 1859   5.778   1.949   6.741
  320SOL    HW2 1860   5.820   2.043   6.868
  321SOL     OW 1861   5.082   2.927   0.949
  321SOL    HW1 1862   5.088   3.025   0.968
  321SOL    HW2 1863   5.159   2.899   0.893
  322SOL     OW 1864   3.520   2.944   6.717
  322SOL    HW1 1865   3.506   3.018   6.783
  322SOL    HW2 1866   3.600   2.964   6.661
  323SOL     OW 1867   1.424   3.898   2.715
  323SOL    HW1 1868   1.484   3.822   2.739
  323SOL    HW2 1869   1.479   3.978   2.693
  324SOL     OW 1870   0.402   0.160   3.006
  324SOL    HW1 1871   0.360   0.188   3.093
  324SOL    HW2 1872   0.376   0.065   2.986
  325SOL     OW 1873   6.956   3.944   0.551
  325SOL    HW1 1874   6.945   3.853   0.510
  325SOL    HW2 1875   6.980   3.934   0.647
  326SOL     OW 1876   0.574   6.159   0.061
  326SOL    HW1 1877   0.626   6.144   7.002
  326SOL    HW2 1878   0.483   6.194   0.037
  327SOL     OW 1879   4.440   5.561   5.409
  327SOL    HW1 1880   4.381   5.481   5.394
  327SOL    HW2 1881   4.385   5.637   5.444
  328SOL     OW 1882   1.565   4.807   3.199
  328SOL    HW1 1883   1.505   4.804   3.278
  328SOL    HW2 1884   1.631   4.881   3.210
  329SOL     OW 1885   3.230   3.175   1.393
  329SOL    HW1 1886   3.181   3.253   1.353
  329SOL    HW2 1887   3.221   3.177   1.492
  330SOL     OW 1888   3.334   3.671   0.408
  330SOL    HW1 1889   3.388   3.672   0.324
  330SOL    HW2 1890   3.238   3.652   0.386
  331SOL     OW 1891   5.246   5.324   5.034
  331SOL    HW1 1892   5.176   5.277   5.087
  331SOL    HW2 1893   5.313   5.257   5.001
  332SOL     OW 1894   5.460   2.423   3.064
  332SOL    HW1 1895   5.501   2.486   2.998
  332SOL    HW2 1896   5.530   2.360   3.098
  333SOL     OW 1897   3.178   0.358   4.432
  333SOL    HW1 1898   3.266   0.360   4.384
  333SOL    HW2 1899   3.111   0.311   4.375
  334SOL     OW 1900   3.724   3.937   3.361
  334SOL    HW1 1901   3.671   4.004   3.309
  334SOL    HW2 1902   3.663   3.869   3.400
  335SOL     OW 1903   4.142   1.708   1.202
  335SOL    HW1 1904   4.097   1.787   1.159
  335SOL    HW2 1905   4.073   1.644   1.234
  336SOL     OW 1906   3.448   1.927   4.515
  336SOL    HW1 1907   3.524   1.945   4.578
  336SOL    HW2 1908   3.364   1.915   4.568
  337SOL     OW 1909   0.489   0.886   5.327
  337SOL    HW1 1910   0.429   0.917   5.253
  337SOL    HW2 1911   0.585   0.891   5.296
  338SOL     OW 1912   4.431   1.841   1.217
  338SOL    HW1 1913   4.512   1.882   1.260
  338SOL    HW2 1914   4.372   1.803   1.288
  339SOL     OW 1915   4.158   5.216   5.599
  339SOL    HW1 1916   4.074   5.189   5.552
  339SOL    HW2 1917   4.187   5.144   5.661
  340SOL     OW 1918   6.121   2.405   4.173
  340SOL    HW1 1919   6.059   2.343   4.126
  340SOL    HW2 1920   6.173   2.354   4.242
  341SOL     OW 1921   0.097   6.356   3.334
  341SOL    HW1 1922   0.009   6.397   3.357
  341SOL    HW2 1923   0.120   6.377   3.239
  342SOL     OW 1924   5.032   2.031   2.405
  342SOL    HW1 1925   4.943   2.047   2.362
  342SOL    HW2 1926   5.099   2.005   2.334
  343SOL     OW 1927   6.403   6.722   1.566
  343SOL    HW1 1928   6.369   6.776   1.642
  343SOL    HW2 1929   6.331   6.709   1.499
  344SOL     OW 1930   0.124   2.214   1.179
  344SOL    HW1 1931   0.177   2.279   1.124
  344SOL    HW2 1932   0.084   2.261   1.257
  345SOL     OW 1933   6.251   2.526   4.712
  345SOL    HW1 1934   6.196   2.453   4.673
  345SOL    HW2 1935   6.200   2.571   4.785
  346SOL     OW 1936   2.207   6.352   3.671
  346SOL    HW1 1937   2.168   6.394   3.589
  346SOL    HW2 1938   2.202   6.418   3.747
  347SOL     OW 1939   1.936   4.256   0.551
  347SOL    HW1 1940   1.876   4.225   0.625
  347SOL    HW2 1941   1.915   4.350   0.527
  348SOL     OW 1942   3.675   5.372   1.416
  348SOL    HW1 1943   3.616   5.443   1.453
  348SOL    HW2 1944   3.769   5.405   1.414
  349SOL     OW 1945   5.932   4.456   0.851
  349SOL    HW1 1946   5.949   4.512   0.933
  349SOL    HW2 1947   5.919   4.515   0.772
  350SOL     OW 1948   3.275   2.300   6.819
  350SOL    HW1 1949   3.322   2.364   6.879
  350SOL    HW2 1950   3.177   2.302   6.838
  351SOL     OW 1951   3.617   4.616   0.880
  351SOL    HW1 1952   3.588   4.657   0.793
  351SOL    HW2 1953   3.714   4.594   0.875
  352SOL     OW 1954   4.501   0.404   2.477
  352SOL    HW1 1955   4.426   0.462   2.511
  352SOL    HW2 1956   4.492   0.313   2.516
  353SOL     OW 1957   1.639   0.474   0.466
  353SOL    HW1 1958   1.635   0.538   0.389
  353SOL    HW2 1959   1.662   0.383   0.431
  354SOL     OW 1960   0.900   2.657   0.355
  354SOL    HW1 1961   0.875   2.589   0.286
  354SOL    HW2 1962   0.962   2.616   0.421
  355SOL     OW 1963   1.008   2.604   3.064
  355SOL    HW1 1964   0.979   2.543   2.990
  355SOL    HW2 1965   1.059   2.551   3.133
  356SOL     OW 1966   2.560   0.319   5.212
  356SOL    HW1 1967   2.605   0.230   5.200
  356SOL    HW2 1968   2.623   0.382   5.257
  357SOL     OW 1969   5.589   0.226   4.531
  357SOL    HW1 1970   5.526   0.294   4.495
  357SOL    HW2 1971   5.543   0.170   4.600
  358SOL     OW 1972   3.603   6.050   6.211
  358SOL    HW1 1973   3.524   6.004   6.252
  358SOL    HW2 1974   3.624   6.007   6.123
  359SOL     OW 1975   1.153   1.814   2.548
  359SOL    HW1 1976   1.068   1.852   2.585
  359SOL    HW2 1977   1.176   1.861   2.462
  360SOL     OW 1978   1.938   4.371   4.306
  360SOL    HW1 1979   2.037   4.357   4.310
  360SOL    HW2 1980   1.892   4.298   4.357
  361SOL     OW 1981   6.477   1.349   2.323
  361SOL    HW1 1982   6.518   1.387   2.406
  361SOL    HW2 1983   6.489   1.412   2.247
  362SOL     OW 1984   3.878   3.475   1.130
  362SOL    HW1 1985   3.790   3.434   1.106
  362SOL    HW2 1986   3.884   3.486   1.229
  363SOL     OW 1987   5.142   5.552   1.755
  363SOL    HW1 1988   5.190   5.514   1.834
  363SOL    HW2 1989   5.207   5.599   1.696
  364SOL     OW 1990   0.795   6.757   6.991
  364SOL    HW1 1991   0.756   6.694   6.924
  364SOL    HW2 1992   0.823   6.706   0.047
  365SOL     OW 1993   5.548   1.363   3.748
  365SOL    HW1 1994   5.603   1.415   3.682
  365SOL    HW2 1995   5.467   1.327   3.702
  366SOL     OW 1996   5.718   1.526   6.517
  366SOL    HW1 1997   5.719   1.611   6.464
  366SOL    HW2 1998   5.805   1.516   6.566
  367SOL     OW 1999   5.910   1.327   6.850
  367SOL    HW1 2000   5.876   1.241   6.812
  367SOL    HW2 2001   5.833   1.382   6.883
  368SOL     OW 2002   0.738   2.319   5.777
  368SOL    HW1 2003   0.687   2.260   5.715
  368SOL    HW2 2004   0.828   2.339   5.738
  369SOL     OW 2005   6.194   3.884   1.021
  369SOL    HW1 2006   6.177   3.786   1.007
  369SOL    HW2 2007   6.289   3.904   0.998
  370SOL     OW 2008   1.557   2.570   3.660
  370SOL    HW1 2009   1.488   2.618   3.714
  370SOL    HW2 2010   1.540   2.586   3.563
  371SOL     OW 2011   0.847   4.922   6.560
  371SOL    HW1 2012   0.915   4.994   6.567
  371SOL    HW2 2013   0.826   4.887   6.652
  372SOL     OW 2014   3.127   6.386   6.313
  372SOL    HW1 2015   3.040   6.357   6.274
  372SOL    HW2 2016   3.202   6.350   6.257
  373SOL     OW 2017   5.967   4.814   3.572
  373SOL    HW1 2018   5.943   4.744   3.505
  373SOL    HW2 2019   5.980   4.902   3.527
  374SOL     OW 2020   2.876   1.444   2.758
  374SOL    HW1 2021   2.815   1.419   2.683
  374SOL    HW2 2022   2.961   1.482   2.722
  375SOL     OW 2023   0.726   5.687   4.425
  375SOL    HW1 2024   0.694   5.617   4.488
  375SOL    HW2 2025   0.825   5.699   4.435
  376SOL     OW 2026   3.780   0.728   3.702
  376SOL    HW1 2027   3.751   0.639   3.666
  376SOL    HW2 2028   3.865   0.756   3.657
  377SOL     OW 2029   1.895   2.002   6.678
  377SOL    HW1 2030   1.865   1.958   6.762
  377SOL    HW2 2031   1.931   1.934   6.615
  378SOL     OW 2032   4.671   1.508   2.582
  378SOL    HW1 2033   4.623   1.424   2.558
  378SOL    HW2 2034   4.648   1.580   2.517
  379SOL     OW 2035   4.776   1.852   5.922
  379SOL    HW1 2036   4.777   1.950   5.941
  379SOL    HW2 2037   4.728   1.805   5.997
  380SOL     OW 2038   4.380   2.665   6.818
  380SOL    HW1 2039   4.337   2.732   6.757
  380SOL    HW2 2040   4.384   2.702   6.911
  381SOL     OW 2041   2.196   4.036   2.847
  381SOL    HW1 2042   2.249   3.951   2.851
  381SOL    HW2 2043   2.133   4.040   2.925
  382SOL     OW 2044   5.686   0.367   6.325
  382SOL    HW1 2045   5.753   0.300   6.356
  382SOL    HW2 2046   5.632   0.328   6.250
  383SOL     OW 2047   5.142   2.283   0.630
  383SOL    HW1 2048   5.120   2.368   0.678
  383SOL    HW2 2049   5.171   2.214   0.697
  384SOL     OW 2050   6.407   3.794   4.740
  384SOL    HW1 2051   6.413   3.758   4.647
  384SOL    HW2 2052   6.354   3.731   4.797
  385SOL     OW 2053   4.768   3.363   0.433
  385SOL    HW1 2054   4.831   3.334   0.361
  385SOL    HW2 2055   4.683   3.311   0.425
  386SOL     OW 2056   3.954   6.300   4.093
  386SOL    HW1 2057   3.906   6.303   4.181
  386SOL    HW2 2058   4.014   6.219   4.091
  387SOL     OW 2059   2.459   5.784   4.198
  387SOL    HW1 2060   2.439   5.828   4.110
  387SOL    HW2 2061   2.385   5.805   4.262
  388SOL     OW 2062   1.201   4.403   6.795
  388SOL    HW1 2063   1.265   4.447   6.858
  388SOL    HW2 2064   1.185   4.463   6.717
  389SOL     OW 2065   2.904   3.443   2.244
  389SOL    HW1 2066   2.837   3.511   2.215
  389SOL    HW2 2067   2.898   3.363   2.186
  390SOL     OW 2068   2.590   1.482   4.118
  390SOL    HW1 2069   2.524   1.478   4.043
  390SOL    HW2 2070   2.558   1.426   4.194
  391SOL     OW 2071   1.359   2.480   6.303
  391SOL    HW1 2072   1.274   2.461   6.253
  391SOL    HW2 2073   1.342   2.549   6.373
  392SOL     OW 2074   3.071   5.557   3.490
  392SOL    HW1 2075   3.144   5.611   3.533
  392SOL    HW2 2076   3.002   5.618   3.453
  393SOL     OW 2077   6.228   4.073   4.958
  393SOL    HW1 2078   6.183   4.152   4.916
  393SOL    HW2 2079   6.225   3.996   4.895
  394SOL     OW 2080   2.808   0.172   6.697
  394SOL    HW1 2081   2.871   0.158   6.620
  394SOL    HW2 2082   2.854   0.149   6.782
  395SOL     OW 2083   6.223   3.632   0.954
  395SOL    HW1 2084   6.289   3.585   0.897
  395SOL    HW2 2085   6.242   3.613   1.051
  396SOL     OW 2086   3.477   3.040   4.301
  396SOL    HW1 2087   3.473   3.066   4.398
  396SOL    HW2 2088   3.449   3.117   4.244
  397SOL     OW 2089   4.072   2.001   6.223
  397SOL    HW1 2090   4.100   2.069   6.155
  397SOL    HW2 2091   4.034   1.921   6.177
  398SOL     OW 2092   0.969   4.797   2.391
  398SOL    HW1 2093   0.923   4.840   2.469
  398SOL    HW2 2094   0.902   4.745   2.338
  399SOL     OW 2095   4.738   4.991   2.976
  399SOL    HW1 2096   4.660   4.929   2.986
  399SOL    HW2 2097   4.812   4.961   3.036
  400SOL     OW 2098   1.440   5.132   4.579
  400SOL    HW1 2099   1.431   5.069   4.657
  400SOL    HW2 2100   1.381   5.102   4.504
  401SOL     OW 2101   5.488   1.191   6.569
  401SOL    HW1 2102   5.478   1.110   6.511
  401SOL    HW2 2103   5.536   1.262   6.518
  402SOL     OW 2104   6.035   5.000   1.461
  402SOL    HW1 2105   6.039   4.967   1.556
  402SOL    HW2 2106   6.026   5.100   1.461
  403SOL     OW 2107   5.275   3.561   6.798
  403SOL    HW1 2108   5.280   3.480   6.739
  403SOL    HW2 2109   5.180   3.576   6.825
  404SOL     OW 2110   0.647   0.028   4.831
  404SOL    HW1 2111   0.701   7.004   4.763
  404SOL    HW2 2112   0.641   0.125   4.806
  405SOL     OW 2113   1.250   2.281   0.518
  405SOL    HW1 2114   1.304   2.333   0.584
  405SOL    HW2 2115   1.221   2.194   0.558
  406SOL     OW 2116   1.310   3.369   2.939
  406SOL    HW1 2117   1.234   3.365   2.874
  406SOL    HW2 2118   1.390   3.323   2.901
  407SOL     OW 2119   2.343   1.536   3.486
  407SOL    HW1 2120   2.441   1.526   3.505
  407SOL    HW2 2121   2.311   1.623   3.523
  408SOL     OW 2122   1.729   0.450   3.283
  408SOL    HW1 2123   1.636   0.414   3.283
  408SOL    HW2 2124   1.791   0.378   3.316
  409SOL     OW 2125   5.848   3.214   4.070
  409SOL    HW1 2126   5.889   3.302   4.093
  409SOL    HW2 2127   5.796   3.223   3.985
  410SOL     OW 2128   3.199   0.904   6.080
  410SOL    HW1 2129   3.288   0.916   6.122
  410SOL    HW2 2130   3.203   0.933   5.984
  411SOL     OW 2131   6.869   3.862   5.211
  411SOL    HW1 2132   6.786   3.822   5.250
  411SOL    HW2 2133   6.931   3.889   5.286
  412SOL     OW 2134   3.284   0.209   2.369
  412SOL    HW1 2135   3.379   0.212   2.340
  412SOL    HW2 2136   3.224   0.206   2.289
  413SOL     OW 2137   2.560   0.533   1.461
  413SOL    HW1 2138   2.545   0.522   1.362
  413SOL    HW2 2139   2.477   0.506   1.510
  414SOL     OW 2140   4.627   3.971   0.166
  414SOL    HW1 2141   4.645   3.948   0.262
  414SOL    HW2 2142   4.559   3.907   0.129
  415SOL     OW 2143   3.140   6.751   1.779
  415SOL    HW1 2144   3.070   6.798   1.725
  415SOL    HW2 2145   3.166   6.666   1.733
  416SOL     OW 2146   3.664   5.925   5.548
  416SOL    HW1 2147   3.725   5.989   5.595
  416SOL    HW2 2148   3.711   5.886   5.469
  417SOL     OW 2149   4.156   5.881   0.911
  417SOL    HW1 2150   4.175   5.910   1.005
  417SOL    HW2 2151   4.188   5.788   0.898
  418SOL     OW 2152   5.623   4.641   0.587
  418SOL    HW1 2153   5.710   4.654   0.635
  418SOL    HW2 2154   5.577   4.729   0.576
  419SOL     OW 2155   6.292   6.300   0.964
  419SOL    HW1 2156   6.315   6.311   0.867
  419SOL    HW2 2157   6.193   6.293   0.974
  420SOL     OW 2158   4.386   4.200   6.956
  420SOL    HW1 2159   4.394   4.115   6.905
  420SOL    HW2 2160   4.344   4.181   0.021
  421SOL     OW 2161   1.507   5.921   6.613
  421SOL    HW1 2162   1.448   5.883   6.684
  421SOL    HW2 2163   1.576   5.853   6.587
  422SOL     OW 2164   5.959   3.009   6.658
  422SOL    HW1 2165   6.009   3.003   6.571
  422SOL    HW2 2166   6.023   2.995   6.734
  423SOL     OW 2167   0.799   2.775   6.244
  423SOL    HW1 2168   0.841   2.685   6.247
  423SOL    HW2 2169   0.744   2.788   6.327
  424SOL     OW 2170   2.312   4.208   7.013
  424SOL    HW1 2171   2.286   4.154   6.933
  424SOL    HW2 2172   2.333   4.147   0.064
  425SOL     OW 2173   3.147   0.888   0.571
  425SOL    HW1 2174   3.162   0.862   0.666
  425SOL    HW2 2175   3.073   0.832   0.533
  426SOL     OW 2176   5.548   4.128   5.671
  426SOL    HW1 2177   5.450   4.122   5.687
  426SOL    HW2 2178   5.592   4.169   5.751
  427SOL     OW 2179   5.118   3.670   0.680
  427SOL    HW1 2180   5.092   3.605   0.752
  427SOL    HW2 2181   5.201   3.719   0.708
  428SOL     OW 2182   3.837   1.263   4.963
  428SOL    HW1 2183   3.764   1.260   4.894
  428SOL    HW2 2184   3.856   1.170   4.995
  429SOL     OW 2185   2.027   5.390   6.765
  429SOL    HW1 2186   1.998   5.298   6.740
  429SOL    HW2 2187   2.126   5.399   6.754
  430SOL     OW 2188   1.409   6.557   5.108
  430SOL    HW1 2189   1.405   6.617   5.188
  430SOL    HW2 2190   1.467   6.478   5.128
  431SOL     OW 2191   3.646   1.756   0.100
  431SOL    HW1 2192   3.660   1.727   0.005
  431SOL    HW2 2193   3.684   1.687   0.161
  432SOL     OW 2194   0.387   2.024   0.971
  432SOL    HW1 2195   0.404   2.107   0.918
  432SOL    HW2 2196   0.465   1.962   0.963
  433SOL     OW 2197   2.814   6.069   4.757
  433SOL    HW1 2198   2.785   6.162   4.778
  433SOL    HW2 2199   2.764   6.036   4.677
  434SOL     OW 2200   6.981   3.759   0.980
  434SOL    HW1 2201   0.001   3.687   1.033
  434SOL    HW2 2202   6.981   3.734   0.883
  435SOL     OW 2203   3.474   4.129   0.357
  435SOL    HW1 2204   3.512   4.080   0.279
  435SOL    HW2 2205   3.527   4.212   0.373
  436SOL     OW 2206   2.841   1.029   6.843
  436SOL    HW1 2207   2.770   0.992   6.783
  436SOL    HW2 2208   2.863   1.123   6.814
  437SOL     OW 2209   0.087   6.906   6.693
  437SOL    HW1 2210   0.016   6.895   6.624
  437SOL    HW2 2211   0.167   6.949   6.652
  438SOL     OW 2212   1.754   2.901   1.945
  438SOL    HW1 2213   1.774   2.999   1.953
  438SOL    HW2 2214   1.779   2.855   2.031
  439SOL     OW 2215   5.954   4.967   2.868
  439SOL    HW1 2216   5.892   4.976   2.946
  439SOL    HW2 2217   5.977   4.870   2.855
  440SOL     OW 2218   1.246   3.287   3.796
  440SOL    HW1 2219   1.302   3.247   3.868
  440SOL    HW2 2220   1.243   3.226   3.717
  441SOL     OW 2221   0.801   1.058   3.704
  441SOL    HW1 2222   0.744   1.132   3.668
  441SOL    HW2 2223   0.773   0.971   3.662
  442SOL     OW 2224   6.851   4.115   0.312
  442SOL    HW1 2225   6.859   4.213   0.331
  442SOL    HW2 2226   6.896   4.063   0.384
  443SOL     OW 2227   0.609   4.047   5.808
  443SOL    HW1 2228   0.621   4.136   5.764
  443SOL    HW2 2229   0.566   3.984   5.744
  444SOL     OW 2230   4.292   3.522   6.091
  444SOL    HW1 2231   4.336   3.448   6.041
  444SOL    HW2 2232   4.281   3.601   6.031
  445SOL     OW 2233   1.743   4.623   2.870
  445SOL    HW1 2234   1.800   4.703   2.853
  445SOL    HW2 2235   1.799   4.549   2.907
  446SOL     OW 2236   4.892   4.720   3.967
  446SOL    HW1 2237   4.983   4.679   3.955
  446SOL    HW2 2238   4.831   4.652   4.008
  447SOL     OW 2239   6.833   5.530   0.541
  447SOL    HW1 2240   6.925   5.493   0.551
  447SOL    HW2 2241   6.773   5.491   0.611
  448SOL     OW 2242   4.889   0.685   5.319
  448SOL    HW1 2243   4.921   0.590   5.324
  448SOL    HW2 2244   4.928   0.729   5.238
  449SOL     OW 2245   6.179   0.615   4.903
  449SOL    HW1 2246   6.178   0.518   4.929
  449SOL    HW2 2247   6.107   0.632   4.835
  450SOL     OW 2248   6.584   6.463   3.927
  450SOL    HW1 2249   6.575   6.364   3.914
  450SOL    HW2 2250   6.676   6.484   3.960
  451SOL     OW 2251   0.640   2.461   3.357
  451SOL    HW1 2252   0.601   2.487   3.269
  451SOL    HW2 2253   0.594   2.510   3.430
  452SOL     OW 2254   0.057   4.862   6.680
  452SOL    HW1 2255   0.081   4.824   6.591
  452SOL    HW2 2256   7.010   4.930   6.669
  453SOL     OW 2257   3.167   0.708   5.739
  453SOL    HW1 2258   3.089   0.702   5.801
  453SOL    HW2 2259   3.143   0.668   5.651
  454SOL     OW 2260   1.134   6.237   6.933
  454SOL    HW1 2261   1.144   6.197   7.024
  454SOL    HW2 2262   1.146   6.336   6.939
  455SOL     OW 2263   5.318   0.880   5.657
  455SOL    HW1 2264   5.410   0.850   5.683
  455SOL    HW2 2265   5.299   0.854   5.563
  456SOL     OW 2266   4.542   5.792   6.467
  456SOL    HW1 2267   4.495   5.839   6.392
  456SOL    HW2 2268   4.562   5.697   6.440
  457SOL     OW 2269   1.583   5.050   2.851
  457SOL    HW1 2270   1.590   5.134   2.798
  457SOL    HW2 2271   1.531   5.068   2.935
  458SOL     OW 2272   6.458   5.520   6.522
  458SOL    HW1 2273   6.472   5.473   6.435
  458SOL    HW2 2274   6.438   5.616   6.504
  459SOL     OW 2275   1.998   0.770   2.776
  459SOL    HW1 2276   1.936   0.694   2.755
  459SOL    HW2 2277   1.975   0.807   2.866
  460SOL     OW 2278   6.427   1.827   3.496
  460SOL    HW1 2279   6.358   1.899   3.494
  460SOL    HW2 2280   6.398   1.752   3.437
  461SOL     OW 2281   4.603   6.468   5.398
  461SOL    HW1 2282   4.678   6.521   5.437
  461SOL    HW2 2283   4.519   6.523   5.398
  462SOL     OW 2284   2.764   3.476   6.234
  462SOL    HW1 2285   2.743   3.499   6.329
  462SOL    HW2 2286   2.845   3.526   6.204
  463SOL     OW 2287   6.486   5.224   1.719
  463SOL    HW1 2288   6.574   5.176   1.716
  463SOL    HW2 2289   6.476   5.271   1.807
  464SOL     OW 2290   2.227   1.112   5.476
  464SOL    HW1 2291   2.168   1.034   5.455
  464SOL    HW2 2292   2.322   1.083   5.477
  465SOL     OW 2293   6.495   2.630   4.113
  465SOL    HW1 2294   6.405   2.648   4.072
  465SOL    HW2 2295   6.518   2.704   4.176
  466SOL     OW 2296   1.592   0.079   3.435
  466SOL    HW1 2297   1.623   0.158   3.488
  466SOL    HW2 2298   1.629   7.020   3.476
  467SOL     OW 2299   1.744   0.534   5.169
  467SOL    HW1 2300   1.803   0.453   5.161
  467SOL    HW2 2301   1.766   0.598   5.095
  468SOL     OW 2302   3.218   4.394   0.859
  468SOL    HW1 2303   3.191   4.349   0.774
  468SOL    HW2 2304   3.136   4.421   0.910
  469SOL     OW 2305   2.175   5.254   0.474
  469SOL    HW1 2306   2.101   5.263   0.407
  469SOL    HW2 2307   2.136   5.236   0.565
  470SOL     OW 2308   3.762   1.108   2.633
  470SOL    HW1 2309   3.700   1.180   2.602
  470SOL    HW2 2310   3.718   1.019   2.622
  471SOL     OW 2311   2.517   2.414   5.268
  471SOL    HW1 2312   2.467   2.396   5.184
  471SOL    HW2 2313   2.519   2.332   5.325
  472SOL     OW 2314   3.410   4.429   5.846
  472SOL    HW1 2315   3.418   4.529   5.849
  472SOL    HW2 2316   3.466   4.390   5.918
  473SOL     OW 2317   1.084   4.269   2.649
  473SOL    HW1 2318   1.164   4.323   2.673
  473SOL    HW2 2319   1.013   4.330   2.612
  474SOL     OW 2320   4.063   4.925   4.495
  474SOL    HW1 2321   4.022   4.904   4.406
  474SOL    HW2 2322   3.991   4.947   4.560
  475SOL     OW 2323   0.617   6.763   6.497
  475SOL    HW1 2324   0.701   6.815   6.482
  475SOL    HW2 2325   0.607   6.744   6.595
  476SOL     OW 2326   6.852   4.656   2.727
  476SOL    HW1 2327   6.876   4.559   2.727
  476SOL    HW2 2328   6.923   4.707   2.678
  477SOL     OW 2329   1.585   5.331   4.225
  477SOL    HW1 2330   1.560   5.408   4.283
  477SOL    HW2 2331   1.669   5.352   4.175
  478SOL     OW 2332   2.252   5.133   3.556
  478SOL    HW1 2333   2.229   5.097   3.646
  478SOL    HW2 2334   2.240   5.061   3.488
  479SOL     OW 2335   3.557   2.089   0.657
  479SOL    HW1 2336   3.594   2.121   0.570
  479SOL    HW2 2337   3.630   2.086   0.725
  480SOL     OW 2338   0.945   0.167   2.618
  480SOL    HW1 2339   1.003   0.200   2.543
  480SOL    HW2 2340   0.907   0.245   2.667
  481SOL     OW 2341   4.194   0.096   1.128
  481SOL    HW1 2342   4.264   0.164   1.106
  481SOL    HW2 2343   4.237   0.008   1.148
  482SOL     OW 2344   5.486   4.328   1.911
  482SOL    HW1 2345   5.569   4.320   1.967
  482SOL    HW2 2346   5.506   4.384   1.831
  483SOL     OW 2347   5.509   1.731   1.512
  483SOL    HW1 2348   5.435   1.688   1.460
  483SOL    HW2 2349   5.597   1.702   1.475
  484SOL     OW 2350   6.306   2.189   5.154
  484SOL    HW1 2351   6.340   2.224   5.067
  484SOL    HW2 2352   6.370   2.120   5.189
  485SOL     OW 2353   3.734   5.117   2.444
  485SOL    HW1 2354   3.719   5.063   2.361
  485SOL    HW2 2355   3.669   5.193   2.446
  486SOL     OW 2356   0.783   0.678   0.831
  486SOL    HW1 2357   0.878   0.652   0.813
  486SOL    HW2 2358   0.778   0.775   0.852
  487SOL     OW 2359   0.377   2.375   6.885
  487SOL    HW1 2360   0.323   2.336   6.811
  487SOL    HW2 2361   0.334   2.354   6.973
  488SOL     OW 2362   0.129   2.119   2.456
  488SOL    HW1 2363   0.160   2.095   2.364
  488SOL    HW2 2364   0.031   2.140   2.454
  489SOL     OW 2365   3.461   5.787   6.766
  489SOL    HW1 2366   3.470   5.723   6.689
  489SOL    HW2 2367   3.424   5.873   6.732
  490SOL     OW 2368   5.730   6.265   4.777
  490SOL    HW1 2369   5.745   6.309   4.688
  490SOL    HW2 2370   5.677   6.326   4.836
  491SOL     OW 2371   0.048   2.909   2.885
  491SOL    HW1 2372   0.126   2.921   2.947
  491SOL    HW2 2373   0.012   2.998   2.859
  492SOL     OW 2374   1.938   0.695   5.314
  492SOL    HW1 2375   1.897   0.606   5.332
  492SOL    HW2 2376   1.866   0.759   5.285
  493SOL     OW 2377   6.637   4.290   4.797
  493SOL    HW1 2378   6.577   4.279   4.877
  493SOL    HW2 2379   6.648   4.202   4.751
  494SOL     OW 2380   6.692   0.677   0.905
  494SOL    HW1 2381   6.700   0.618   0.825
  494SOL    HW2 2382   6.739   0.764   0.888
  495SOL     OW 2383   4.547   4.572   1.472
  495SOL    HW1 2384   4.642   4.594   1.450
  495SOL    HW2 2385   4.545   4.493   1.533
  496SOL     OW 2386   5.646   3.003   3.824
  496SOL    HW1 2387   5.640   3.093   3.867
  496SOL    HW2 2388   5.579   2.942   3.867
  497SOL     OW 2389   4.139   0.806   4.540
  497SOL    HW1 2390   4.111   0.714   4.512
  497SOL    HW2 2391   4.062   0.868   4.528
  498SOL     OW 2392   0.918   2.955   2.470
  498SOL    HW1 2393   0.876   2.865   2.455
  498SOL    HW2 2394   0.868   3.002   2.544
  499SOL     OW 2395   3.297   1.421   5.005
  499SOL    HW1 2396   3.219   1.393   4.948
  499SOL    HW2 2397   3.320   1.516   4.984
  500SOL     OW 2398   0.701   3.788   2.484
  500SOL    HW1 2399   0.607   3.754   2.476
  500SOL    HW2 2400   0.704   3.858   2.555
  501SOL     OW 2401   0.818   3.631   6.580
  501SOL    HW1 2402   0.844   3.675   6.495
  501SOL    HW2 2403   0.749   3.686   6.627
  502SOL     OW 2404   3.441   5.038   6.503
  502SOL    HW1 2405   3.484   4.953   6.531
  502SOL    HW2 2406   3.382   5.071   6.576
  503SOL     OW 2407   5.234   5.102   5.361
  503SOL    HW1 2408   5.177   5.057   5.429
  503SOL    HW2 2409   5.324   5.059   5.359
  504SOL     OW 2410   2.072   5.962   4.496
  504SOL    HW1 2411   1.977   5.934   4.507
  504SOL    HW2 2412   2.107   5.999   4.582
  505SOL     OW 2413   4.068   0.004   5.930
  505SOL    HW1 2414   4.140   6.972   5.968
  505SOL    HW2 2415   4.065   0.091   5.979
  506SOL     OW 2416   2.040   4.011   6.440
  506SOL    HW1 2417   2.054   3.971   6.350
  506SOL    HW2 2418   1.944   4.000   6.467
  507SOL     OW 2419   3.404   1.420   4.014
  507SOL    HW1 2420   3.427   1.429   4.111
  507SOL    HW2 2421   3.475   1.464   3.959
  508SOL     OW 2422   6.525   3.686   3.911
  508SOL    HW1 2423   6.501   3.720   4.002
  508SOL    HW2 2424   6.595   3.615   3.920
  509SOL     OW 2425   4.695   1.989   1.271
  509SOL    HW1 2426   4.710   1.901   1.316
  509SOL    HW2 2427   4.685   1.975   1.172
  510SOL     OW 2428   0.294   4.077   4.199
  510SOL    HW1 2429   0.281   4.101   4.103
  510SOL    HW2 2430   0.364   4.135   4.239
  511SOL     OW 2431   0.143   6.847   0.705
  511SOL    HW1 2432   0.058   6.897   0.713
  511SOL    HW2 2433   0.220   6.911   0.699
  512SOL     OW 2434   0.429   3.734   6.395
  512SOL    HW1 2435   0.503   3.794   6.364
  512SOL    HW2 2436   0.467   3.667   6.459
  513SOL     OW 2437   6.311   5.945   4.446
  513SOL    HW1 2438   6.304   5.942   4.347
  513SOL    HW2 2439   6.407   5.961   4.472
  514SOL     OW 2440   5.633   1.736   3.997
  514SOL    HW1 2441   5.607   1.658   4.054
  514SOL    HW2 2442   5.551   1.784   3.966
  515SOL     OW 2443   2.235   5.983   6.793
  515SOL    HW1 2444   2.230   6.041   6.874
  515SOL    HW2 2445   2.260   6.038   6.714
  516SOL     OW 2446   1.861   4.929   1.609
  516SOL    HW1 2447   1.929   4.889   1.671
  516SOL    HW2 2448   1.854   5.027   1.627
  517SOL     OW 2449   4.689   0.314   0.931
  517SOL    HW1 2450   4.676   0.382   0.859
  517SOL    HW2 2451   4.653   0.226   0.899
  518SOL     OW 2452   2.248   2.663   0.723
  518SOL    HW1 2453   2.323   2.605   0.691
  518SOL    HW2 2454   2.270   2.758   0.704
  519SOL     OW 2455   0.842   6.350   0.040
  519SOL    HW1 2456   0.821   6.386   6.974
  519SOL    HW2 2457   0.768   6.289   0.070
  520SOL     OW 2458   5.291   4.768   5.460
  520SOL    HW1 2459   5.286   4.737   5.365
  520SOL    HW2 2460   5.251   4.698   5.520
  521SOL     OW 2461   6.640   1.338   0.788
  521SOL    HW1 2462   6.718   1.397   0.809
  521SOL    HW2 2463   6.572   1.346   0.860
  522SOL     OW 2464   3.987   3.542   4.330
  522SOL    HW1 2465   3.999   3.619   4.392
  522SOL    HW2 2466   3.987   3.575   4.236
  523SOL     OW 2467   0.295   6.922   5.167
  523SOL    HW1 2468   0.218   6.978   5.196
  523SOL    HW2 2469   0.366   6.924   5.238
  524SOL     OW 2470   3.113   0.626   5.471
  524SOL    HW1 2471   3.069   0.713   5.451
  524SOL    HW2 2472   3.189   0.612   5.407
  525SOL     OW 2473   2.338   3.600   6.939
  525SOL    HW1 2474   2.367   3.505   6.930
  525SOL    HW2 2475   2.313   3.617   0.010
  526SOL     OW 2476   3.305   5.996   4.492
  526SOL    HW1 2477   3.397   6.034   4.478
  526SOL    HW2 2478   3.295   5.913   4.438
  527SOL     OW 2479   1.046   1.726   6.506
  527SOL    HW1 2480   0.961   1.674   6.497
  527SOL    HW2 2481   1.052   1.794   6.433
  528SOL     OW 2482   2.296   0.042   5.179
  528SOL    HW1 2483   2.238   6.989   5.153
  528SOL    HW2 2484   2.377   0.007   5.227
  529SOL     OW 2485   7.014   4.939   3.679
  529SOL    HW1 2486   0.028   4.851   3.653
  529SOL    HW2 2487   7.006   4.944   3.778
  530SOL     OW 2488   2.299   3.117   5.344
  530SOL    HW1 2489   2.330   3.092   5.436
  530SOL    HW2 2490   2.372   3.097   5.278
  531SOL     OW 2491   0.213   0.276   1.177
  531SOL    HW1 2492   0.187   0.273   1.081
  531SOL    HW2 2493   0.246   0.186   1.205
  532SOL     OW 2494   2.018   0.654   5.654
  532SOL    HW1 2495   1.973   0.739   5.683
  532SOL    HW2 2496   1.956   0.601   5.597
  533SOL     OW 2497   5.250   0.021   4.451
  533SOL    HW1 2498   5.318   6.978   4.478
  533SOL    HW2 2499   5.285   0.113   4.468
  534SOL     OW 2500   3.900   5.813   2.296
  534SOL    HW1 2501   3.942   5.727   2.324
  534SOL    HW2 2502   3.802   5.801   2.283
  535SOL     OW 2503   6.800   3.389   3.666
  535SOL    HW1 2504   6.884   3.442   3.668
  535SOL    HW2 2505   6.806   3.315   3.734
  536SOL     OW 2506   1.191   5.612   1.179
  536SOL    HW1 2507   1.091   5.602   1.185
  536SOL    HW2 2508   1.222   5.678   1.247
  537SOL     OW 2509   2.003   0.376   2.622
  537SOL    HW1 2510   2.093   0.363   2.665
  537SOL    HW2 2511   1.963   0.287   2.601
  538SOL     OW 2512   1.000   5.567   3.372
  538SOL    HW1 2513   1.039   5.626   3.301
  538SOL    HW2 2514   1.036   5.474   3.360
  539SOL     OW 2515   1.543   4.798   2.040
  539SOL    HW1 2516   1.635   4.777   2.071
  539SOL    HW2 2517   1.498   4.715   2.007
  540SOL     OW 2518   1.004   2.094   2.188
  540SOL    HW1 2519   0.920   2.059   2.231
  540SOL    HW2 2520   1.001   2.075   2.090
  541SOL     OW 2521   3.045   5.743   5.657
  541SOL    HW1 2522   2.980   5.807   5.616
  541SOL    HW2 2523   3.061   5.768   5.753
  542SOL     OW 2524   5.847   5.521   6.640
  542SOL    HW1 2525   5.813   5.526   6.545
  542SOL    HW2 2526   5.803   5.444   6.686
  543SOL     OW 2527   0.404   5.774   0.003
  543SOL    HW1 2528   0.344   5.842   6.986
  543SOL    HW2 2529   0.416   5.796   0.100
  544SOL     OW 2530   1.320   5.424   0.669
  544SOL    HW1 2531   1.412   5.457   0.689
  544SOL    HW2 2532   1.260   5.446   0.746
  545SOL     OW 2533   3.911   1.947   3.291
  545SOL    HW1 2534   4.004   1.931   3.256
  545SOL    HW2 2535   3.857   1.864   3.280
  546SOL     OW 2536   0.817   3.897   0.313
  546SOL    HW1 2537   0.900   3.851   0.284
  546SOL    HW2 2538   0.757   3.911   0.234
  547SOL     OW 2539   2.797   3.275   0.148
  547SOL    HW1 2540   2.828   3.306   0.058
  547SOL    HW2 2541   2.744   3.348   0.192
  548SOL     OW 2542   3.514   3.144   3.953
  548SOL    HW1 2543   3.502   3.046   3.936
  548SOL    HW2 2544   3.528   3.191   3.866
  549SOL     OW 2545   6.458   3.367   1.223
  549SOL    HW1 2546   6.473   3.465   1.210
  549SOL    HW2 2547   6.362   3.350   1.243
  550SOL     OW 2548   0.374   3.981   2.114
  550SOL    HW1 2549   0.353   3.897   2.064
  550SOL    HW2 2550   0.398   4.053   2.049
  551SOL     OW 2551   0.000   2.180   0.242
  551SOL    HW1 2552   7.013   2.135   0.154
  551SOL    HW2 2553   0.091   2.158   0.279
  552SOL     OW 2554   4.472   6.034   0.557
  552SOL    HW1 2555   4.408   5.967   0.594
  552SOL    HW2 2556   4.460   6.121   0.604
  553SOL     OW 2557   1.589   2.302   1.773
  553SOL    HW1 2558   1.603   2.253   1.859
  553SOL    HW2 2559   1.668   2.287   1.713
  554SOL     OW 2560   5.610   6.120   5.028
  554SOL    HW1 2561   5.644   6.213   5.015
  554SOL    HW2 2562   5.513   6.123   5.051
  555SOL     OW 2563   1.583   4.289   4.684
  555SOL    HW1 2564   1.584   4.286   4.584
  555SOL    HW2 2565   1.559   4.381   4.715
  556SOL     OW 2566   5.360   3.504   3.240
  556SOL    HW1 2567   5.276   3.553   3.264
  556SOL    HW2 2568   5.376   3.512   3.142
  557SOL     OW 2569   0.592   6.320   6.273
  557SOL    HW1 2570   0.624   6.288   6.184
  557SOL    HW2 2571   0.527   6.254   6.311
  558SOL     OW 2572   4.027   3.956   5.255
  558SOL    HW1 2573   4.124   3.931   5.258
  558SOL    HW2 2574   4.017   4.054   5.270
  559SOL     OW 2575   6.338   5.786   6.500
  559SOL    HW1 2576   6.380   5.840   6.427
  559SOL    HW2 2577   6.310   5.847   6.575
  560SOL     OW 2578   4.145   6.534   6.795
  560SOL    HW1 2579   4.222   6.590   6.765
  560SOL    HW2 2580   4.076   6.592   6.839
  561SOL     OW 2581   5.496   6.522   1.148
  561SOL    HW1 2582   5.513   6.599   1.087
  561SOL    HW2 2583   5.406   6.532   1.190
  562SOL     OW 2584   6.334   1.293   6.084
  562SOL    HW1 2585   6.329   1.199   6.052
  562SOL    HW2 2586   6.256   1.313   6.144
  563SOL     OW 2587   3.285   6.080   4.100
  563SOL    HW1 2588   3.195   6.036   4.106
  563SOL    HW2 2589   3.354   6.011   4.076
  564SOL     OW 2590   0.938   1.444   6.477
  564SOL    HW1 2591   1.014   1.469   6.416
  564SOL    HW2 2592   0.927   1.345   6.477
  565SOL     OW 2593   4.775   4.121   5.098
  565SOL    HW1 2594   4.708   4.089   5.032
  565SOL    HW2 2595   4.855   4.157   5.050
  566SOL     OW 2596   5.013   5.023   3.098
  566SOL    HW1 2597   5.074   4.956   3.138
  566SOL    HW2 2598   4.992   5.094   3.165
  567SOL     OW 2599   4.060   3.151   4.601
  567SOL    HW1 2600   4.083   3.235   4.551
  567SOL    HW2 2601   4.144   3.107   4.632
  568SOL     OW 2602   2.176   1.352   6.843
  568SOL    HW1 2603   2.250   1.375   6.780
  568SOL    HW2 2604   2.187   1.403   6.929
  569SOL     OW 2605   2.624   3.473   0.226
  569SOL    HW1 2606   2.625   3.508   0.320
  569SOL    HW2 2607   2.543   3.416   0.213
  570SOL     OW 2608   6.871   5.854   1.081
  570SOL    HW1 2609   6.914   5.942   1.101
  570SOL    HW2 2610   6.804   5.832   1.152
  571SOL     OW 2611   4.257   5.435   3.215
  571SOL    HW1 2612   4.186   5.400   3.154
  571SOL    HW2 2613   4.343   5.388   3.195
  572SOL     OW 2614   1.713   3.946   5.227
  572SOL    HW1 2615   1.633   3.889   5.247
  572SOL    HW2 2616   1.774   3.898   5.165
  573SOL     OW 2617   3.809   2.047   6.041
  573SOL    HW1 2618   3.760   2.067   6.126
  573SOL    HW2 2619   3.834   2.132   5.996
  574SOL     OW 2620   2.570   1.788   4.143
  574SOL    HW1 2621   2.560   1.887   4.140
  574SOL    HW2 2622   2.658   1.765   4.185
  575SOL     OW 2623   5.611   2.617   6.723
  575SOL    HW1 2624   5.685   2.572   6.773
  575SOL    HW2 2625   5.576   2.555   6.652
  576SOL     OW 2626   0.413   2.019   2.553
  576SOL    HW1 2627   0.322   2.060   2.539
  576SOL    HW2 2628   0.457   2.064   2.632
  577SOL     OW 2629   3.470   2.139   3.541
  577SOL    HW1 2630   3.470   2.060   3.479
  577SOL    HW2 2631   3.375   2.166   3.560
  578SOL     OW 2632   0.458   3.268   4.100
  578SOL    HW1 2633   0.557   3.280   4.101
  578SOL    HW2 2634   0.413   3.354   4.124
  579SOL     OW 2635   4.285   3.333   0.495
  579SOL    HW1 2636   4.353   3.296   0.432
  579SOL    HW2 2637   4.291   3.285   0.583
  580SOL     OW 2638   0.435   5.905   0.304
  580SOL    HW1 2639   0.473   5.995   0.323
  580SOL    HW2 2640   0.339   5.913   0.280
  581SOL     OW 2641   3.827   3.594   2.905
  581SOL    HW1 2642   3.873   3.507   2.922
  581SOL    HW2 2643   3.887   3.655   2.854
  582SOL     OW 2644   5.875   3.882   2.190
  582SOL    HW1 2645   5.795   3.902   2.134
  582SOL    HW2 2646   5.905   3.964   2.238
  583SOL     OW 2647   1.830   5.142   7.003
  583SOL    HW1 2648   1.881   5.157   6.918
  583SOL    HW2 2649   1.732   5.140   6.983
  584SOL     OW 2650   0.337   5.267   4.369
  584SOL    HW1 2651   0.413   5.212   4.335
  584SOL    HW2 2652   0.359   5.301   4.461
  585SOL     OW 2653   0.073   1.462   6.540
  585SOL    HW1 2654   0.161   1.417   6.535
  585SOL    HW2 2655   0.058   1.496   6.633
  586SOL     OW 2656   2.250   6.157   0.304
  586SOL    HW1 2657   2.294   6.174   0.392
  586SOL    HW2 2658   2.294   6.211   0.233
  587SOL     OW 2659   1.089   3.294   5.474
  587SOL    HW1 2660   1.079   3.336   5.384
  587SOL    HW2 2661   1.178   3.319   5.512
  588SOL     OW 2662   2.919   6.922   1.303
  588SOL    HW1 2663   2.949   6.828   1.320
  588SOL    HW2 2664   2.840   6.921   1.241
  589SOL     OW 2665   4.502   5.336   2.840
  589SOL    HW1 2666   4.500   5.244   2.802
  589SOL    HW2 2667   4.408   5.367   2.857
  590SOL     OW 2668   6.786   2.168   2.058
  590SOL    HW1 2669   6.808   2.257   2.018
  590SOL    HW2 2670   6.687   2.152   2.050
  591SOL     OW 2671   3.630   0.220   2.847
  591SOL    HW1 2672   3.691   0.154   2.892
  591SOL    HW2 2673   3.553   0.170   2.807
  592SOL     OW 2674   5.459   0.764   6.914
  592SOL    HW1 2675   5.388   0.817   6.867
  592SOL    HW2 2676   5.544   0.769   6.861
  593SOL     OW 2677   6.035   1.740   4.025
  593SOL    HW1 2678   6.016   1.690   3.941
  593SOL    HW2 2679   5.967   1.812   4.036
  594SOL     OW 2680   4.796   2.596   1.260
  594SOL    HW1 2681   4.787   2.639   1.350
  594SOL    HW2 2682   4.865   2.644   1.207
  595SOL     OW 2683   3.514   6.734   4.011
  595SOL    HW1 2684   3.525   6.659   3.946
  595SOL    HW2 2685   3.524   6.822   3.965
  596SOL     OW 2686   1.011   4.516   2.522
  596SOL    HW1 2687   0.951   4.457   2.469
  596SOL    HW2 2688   1.000   4.611   2.492
  597SOL     OW 2689   3.788   1.817   5.542
  597SOL    HW1 2690   3.715   1.754   5.568
  597SOL    HW2 2691   3.749   1.906   5.518
  598SOL     OW 2692   3.434   4.020   0.802
  598SOL    HW1 2693   3.344   4.012   0.846
  598SOL    HW2 2694   3.434   3.968   0.717
  599SOL     OW 2695   6.725   6.129   2.837
  599SOL    HW1 2696   6.747   6.083   2.923
  599SOL    HW2 2697   6.809   6.167   2.798
  600SOL     OW 2698   2.396   0.734   0.681
  600SOL    HW1 2699   2.390   0.809   0.615
  600SOL    HW2 2700   2.364   0.649   0.638
  601SOL     OW 2701   2.596   5.023   3.258
  601SOL    HW1 2702   2.569   5.100   3.201
  601SOL    HW2 2703   2.604   5.052   3.353
  602SOL     OW 2704   1.079   0.574   1.557
  602SOL    HW1 2705   1.097   0.476   1.545
  602SOL    HW2 2706   1.157   0.627   1.524
  603SOL     OW 2707   3.984   2.154   3.438
  603SOL    HW1 2708   3.909   2.172   3.502
  603SOL    HW2 2709   3.956   2.085   3.371
  604SOL     OW 2710   0.741   4.030   5.400
  604SOL    HW1 2711   0.760   4.128   5.394
  604SOL    HW2 2712   0.702   3.999   5.314
  605SOL     OW 2713   5.960   0.606   4.731
  605SOL    HW1 2714   5.927   0.531   4.673
  605SOL    HW2 2715   5.911   0.606   4.818
  606SOL     OW 2716   3.825   0.102   3.031
  606SOL    HW1 2717   3.850   0.025   2.972
  606SOL    HW2 2718   3.906   0.134   3.081
  607SOL     OW 2719   4.916   0.943   3.963
  607SOL    HW1 2720   4.973   1.022   3.940
  607SOL    HW2 2721   4.917   0.878   3.887
  608SOL     OW 2722   4.868   1.577   1.168
  608SOL    HW1 2723   4.881   1.482   1.141
  608SOL    HW2 2724   4.789   1.616   1.119
  609SOL     OW 2725   3.043   3.658   4.329
  609SOL    HW1 2726   3.029   3.596   4.406
  609SOL    HW2 2727   3.056   3.751   4.364
  610SOL     OW 2728   5.489   2.265   5.044
  610SOL    HW1 2729   5.542   2.181   5.038
  610SOL    HW2 2730   5.391   2.244   5.036
  611SOL     OW 2731   6.890   0.230   0.985
  611SOL    HW1 2732   6.853   0.207   0.895
  611SOL    HW2 2733   6.832   0.299   1.029
  612SOL     OW 2734   3.284   5.788   5.506
  612SOL    HW1 2735   3.303   5.710   5.446
  612SOL    HW2 2736   3.200   5.771   5.558
  613SOL     OW 2737   3.728   2.406   6.600
  613SOL    HW1 2738   3.634   2.439   6.614
  613SOL    HW2 2739   3.781   2.422   6.683
  614SOL     OW 2740   5.192   4.473   0.991
  614SOL    HW1 2741   5.147   4.481   0.902
  614SOL    HW2 2742   5.233   4.383   0.999
  615SOL     OW 2743   6.006   6.255   1.034
  615SOL    HW1 2744   5.912   6.284   1.016
  615SOL    HW2 2745   6.033   6.187   0.966
  616SOL     OW 2746   5.870   0.854   4.945
  616SOL    HW1 2747   5.869   0.863   5.044
  616SOL    HW2 2748   5.903   0.763   4.920
  617SOL     OW 2749   0.023   5.392   5.646
  617SOL    HW1 2750   0.080   5.463   5.687
  617SOL    HW2 2751   6.988   5.352   5.715
  618SOL     OW 2752   6.307   3.675   0.461
  618SOL    HW1 2753   6.372   3.599   0.459
  618SOL    HW2 2754   6.249   3.666   0.542
  619SOL     OW 2755   2.931   0.266   6.095
  619SOL    HW1 2756   2.901   0.327   6.168
  619SOL    HW2 2757   2.942   0.174   6.130
  620SOL     OW 2758   5.706   1.683   2.303
  620SOL    HW1 2759   5.760   1.659   2.222
  620SOL    HW2 2760   5.757   1.661   2.385
  621SOL     OW 2761   3.013   0.523   6.494
  621SOL    HW1 2762   3.034   0.601   6.553
  621SOL    HW2 2763   2.967   0.555   6.411
  622SOL     OW 2764   0.975   2.104   4.921
  622SOL    HW1 2765   0.980   2.008   4.895
  622SOL    HW2 2766   0.886   2.123   4.963
  623SOL     OW 2767   5.988   0.408   4.117
  623SOL    HW1 2768   6.084   0.436   4.116
  623SOL    HW2 2769   5.939   0.458   4.188
  624SOL     OW 2770   6.720   0.573   6.654
  624SOL    HW1 2771   6.695   0.577   6.751
  624SOL    HW2 2772   6.656   0.513   6.606
  625SOL     OW 2773   2.983   1.853   0.469
  625SOL    HW1 2774   2.927   1.790   0.523
  625SOL    HW2 2775   2.934   1.938   0.455
  626SOL     OW 2776   6.919   6.191   4.164
  626SOL    HW1 2777   6.892   6.107   4.211
  626SOL    HW2 2778   6.919   6.267   4.230
  627SOL     OW 2779   6.420   0.066   0.207
  627SOL    HW1 2780   6.506   0.014   0.212
  627SOL    HW2 2781   6.350   0.017   0.259
  628SOL     OW 2782   4.249   4.845   6.024
  628SOL    HW1 2783   4.259   4.918   6.091
  628SOL    HW2 2784   4.324   4.780   6.033
  629SOL     OW 2785   1.353   6.851   6.653
  629SOL    HW1 2786   1.330   6.883   6.561
  629SOL    HW2 2787   1.374   6.753   6.650
  630SOL     OW 2788   6.320   1.395   1.365
  630SOL    HW1 2789   6.231   1.365   1.399
  630SOL    HW2 2790   6.319   1.494   1.352
  631SOL     OW 2791   1.604   2.351   3.837
  631SOL    HW1 2792   1.621   2.263   3.791
  631SOL    HW2 2793   1.573   2.418   3.769
  632SOL     OW 2794   2.894   3.945   0.024
  632SOL    HW1 2795   2.815   3.941   6.987
  632SOL    HW2 2796   2.935   4.036   0.019
  633SOL     OW 2797   1.792   5.819   1.034
  633SOL    HW1 2798   1.805   5.795   0.938
  633SOL    HW2 2799   1.767   5.737   1.086
  634SOL     OW 2800   2.901   3.410   4.464
  634SOL    HW1 2801   2.950   3.323   4.471
  634SOL    HW2 2802   2.876   3.441   4.556
  635SOL     OW 2803   5.568   0.428   6.694
  635SOL    HW1 2804   5.665   0.448   6.707
  635SOL    HW2 2805   5.538   0.463   6.606
  636SOL     OW 2806   2.964   0.494   5.669
  636SOL    HW1 2807   3.008   0.531   5.588
  636SOL    HW2 2808   3.033   0.474   5.738
  637SOL     OW 2809   6.522   0.568   2.792
  637SOL    HW1 2810   6.600   0.511   2.766
  637SOL    HW2 2811   6.506   0.638   2.722
  638SOL     OW 2812   6.504   2.684   4.962
  638SOL    HW1 2813   6.463   2.669   5.052
  638SOL    HW2 2814   6.525   2.782   4.951
  639SOL     OW 2815   5.613   4.350   2.275
  639SOL    HW1 2816   5.672   4.292   2.331
  639SOL    HW2 2817   5.532   4.299   2.246
  640SOL     OW 2818   0.587   2.562   2.089
  640SOL    HW1 2819   0.651   2.638   2.100
  640SOL    HW2 2820   0.509   2.574   2.151
  641SOL     OW 2821   2.502   4.967   4.353
  641SOL    HW1 2822   2.415   4.959   4.305
  641SOL    HW2 2823   2.546   4.877   4.357
  642SOL     OW 2824   0.891   4.008   4.596
  642SOL    HW1 2825   0.901   4.068   4.675
  642SOL    HW2 2826   0.847   4.058   4.522
  643SOL     OW 2827   4.727   5.064   0.887
  643SOL    HW1 2828   4.802   5.126   0.910
  643SOL    HW2 2829   4.660   5.064   0.962
  644SOL     OW 2830   0.242   6.807   5.552
  644SOL    HW1 2831   0.240   6.789   5.650
  644SOL    HW2 2832   0.150   6.830   5.520
  645SOL     OW 2833   3.696   5.264   2.144
  645SOL    HW1 2834   3.620   5.329   2.143
  645SOL    HW2 2835   3.768   5.296   2.206
  646SOL     OW 2836   3.869   1.868   4.399
  646SOL    HW1 2837   3.958   1.825   4.385
  646SOL    HW2 2838   3.835   1.844   4.490
  647SOL     OW 2839   3.676   2.740   6.099
  647SOL    HW1 2840   3.702   2.658   6.047
  647SOL    HW2 2841   3.652   2.813   6.035
  648SOL     OW 2842   6.305   1.086   3.158
  648SOL    HW1 2843   6.302   1.028   3.076
  648SOL    HW2 2844   6.269   1.035   3.236
  649SOL     OW 2845   2.261   5.305   1.076
  649SOL    HW1 2846   2.320   5.240   1.028
  649SOL    HW2 2847   2.168   5.268   1.080
  650SOL     OW 2848   6.949   3.666   0.743
  650SOL    HW1 2849   6.887   3.682   0.667
  650SOL    HW2 2850   6.911   3.595   0.803
  651SOL     OW 2851   1.015   0.574   4.098
  651SOL    HW1 2852   0.981   0.556   4.190
  651SOL    HW2 2853   0.969   0.654   4.061
  652SOL     OW 2854   3.897   6.179   1.530
  652SOL    HW1 2855   3.905   6.240   1.452
  652SOL    HW2 2856   3.828   6.215   1.594
  653SOL     OW 2857   1.097   0.274   2.443
  653SOL    HW1 2858   1.128   0.346   2.381
  653SOL    HW2 2859   1.175   0.237   2.493
  654SOL     OW 2860   1.103   0.093   5.527
  654SOL    HW1 2861   1.192   0.081   5.484
  654SOL    HW2 2862   1.064   0.003   5.547
  655SOL     OW 2863   0.477   4.142   1.921
  655SOL    HW1 2864   0.408   4.146   1.849
  655SOL    HW2 2865   0.567   4.167   1.884
  656SOL     OW 2866   3.574   6.495   0.357
  656SOL    HW1 2867   3.654   6.548   0.385
  656SOL    HW2 2868   3.569   6.411   0.412
  657SOL     OW 2869   3.731   3.799   3.117
  657SOL    HW1 2870   3.751   3.841   3.205
  657SOL    HW2 2871   3.787   3.717   3.105
  658SOL     OW 2872   1.745   1.267   4.760
  658SOL    HW1 2873   1.732   1.207   4.681
  658SOL    HW2 2874   1.677   1.341   4.757
  659SOL     OW 2875   1.483   5.722   6.284
  659SOL    HW1 2876   1.546   5.655   6.321
  659SOL    HW2 2877   1.505   5.740   6.188
  660SOL     OW 2878   4.354   4.874   3.118
  660SOL    HW1 2879   4.307   4.923   3.044
  660SOL    HW2 2880   4.290   4.811   3.162
  661SOL     OW 2881   4.751   4.531   4.126
  661SOL    HW1 2882   4.835   4.508   4.176
  661SOL    HW2 2883   4.697   4.596   4.180
  662SOL     OW 2884   4.986   3.471   6.885
  662SOL    HW1 2885   5.033   3.468   6.973
  662SOL    HW2 2886   5.009   3.388   6.833
  663SOL     OW 2887   6.630   4.181   6.953
  663SOL    HW1 2888   6.705   4.222   7.007
  663SOL    HW2 2889   6.550   4.240   6.958
  664SOL     OW 2890   1.791   6.988   6.502
  664SOL    HW1 2891   1.823   0.054   6.477
  664SOL    HW2 2892   1.705   6.996   6.552
  665SOL     OW 2893   3.538   4.973   1.743
  665SOL    HW1 2894   3.550   4.894   1.804
  665SOL    HW2 2895   3.468   5.034   1.780
  666SOL     OW 2896   2.962   0.663   0.483
  666SOL    HW1 2897   2.932   0.682   0.390
  666SOL    HW2 2898   2.882   0.665   0.544
  667SOL     OW 2899   0.775   3.621   2.802
  667SOL    HW1 2900   0.807   3.715   2.791
  667SOL    HW2 2901   0.810   3.565   2.726
  668SOL     OW 2902   5.227   0.105   0.509
  668SOL    HW1 2903   5.263   0.080   0.419
  668SOL    HW2 2904   5.213   0.023   0.563
  669SOL     OW 2905   1.870   6.045   2.523
  669SOL    HW1 2906   1.950   5.986   2.522
  669SOL    HW2 2907   1.863   6.090   2.612
  670SOL     OW 2908   3.456   2.936   3.462
  670SOL    HW1 2909   3.433   3.027   3.496
  670SOL    HW2 2910   3.397   2.914   3.384
  671SOL     OW 2911   1.280   6.927   6.403
  671SOL    HW1 2912   1.239   6.899   6.316
  671SOL    HW2 2913   1.330   7.013   6.390
  672SOL     OW 2914   1.556   1.611   3.373
  672SOL    HW1 2915   1.568   1.608   3.473
  672SOL    HW2 2916   1.625   1.553   3.330
  673SOL     OW 2917   4.852   6.763   0.628
  673SOL    HW1 2918   4.872   6.839   0.566
  673SOL    HW2 2919   4.778   6.707   0.589
  674SOL     OW 2920   6.882   1.596   3.864
  674SOL    HW1 2921   6.980   1.587   3.849
  674SOL    HW2 2922   6.833   1.563   3.783
  675SOL     OW 2923   5.644   0.980   4.542
  675SOL    HW1 2924   5.740   0.993   4.521
  675SOL    HW2 2925   5.608   0.903   4.488
  676SOL     OW 2926   2.101   4.571   4.152
  676SOL    HW1 2927   2.078   4.550   4.247
  676SOL    HW2 2928   2.198   4.553   4.137
  677SOL     OW 2929   5.194   6.563   1.222
  677SOL    HW1 2930   5.155   6.573   1.314
  677SOL    HW2 2931   5.121   6.544   1.156
  678SOL     OW 2932   2.352   1.253   5.969
  678SOL    HW1 2933   2.399   1.217   5.888
  678SOL    HW2 2934   2.288   1.185   6.004
  679SOL     OW 2935   6.363   6.683   2.475
  679SOL    HW1 2936   6.274   6.647   2.505
  679SOL    HW2 2937   6.435   6.623   2.509
  680SOL     OW 2938   5.576   4.267   5.222
  680SOL    HW1 2939   5.633   4.342   5.254
  680SOL    HW2 2940   5.584   4.260   5.123
  681SOL     OW 2941   1.452   6.817   2.044
  681SOL    HW1 2942   1.504   6.738   2.013
  681SOL    HW2 2943   1.485   6.900   1.998
  682SOL     OW 2944   0.713   6.580   6.799
  682SOL    HW1 2945   0.619   6.574   6.832
  682SOL    HW2 2946   0.721   6.532   6.711
  683SOL     OW 2947   5.400   1.988   0.145
  683SOL    HW1 2948   5.374   2.071   0.096
  683SOL    HW2 2949   5.360   1.989   0.237
  684SOL     OW 2950   0.186   6.135   6.175
  684SOL    HW1 2951   0.156   6.085   6.256
  684SOL    HW2 2952   0.286   6.139   6.173
  685SOL     OW 2953   5.594   1.004   5.988
  685SOL    HW1 2954   5.565   1.085   6.040
  685SOL    HW2 2955   5.682   0.972   6.022
  686SOL     OW 2956   5.105   4.673   3.138
  686SOL    HW1 2957   5.146   4.742   3.079
  686SOL    HW2 2958   5.083   4.591   3.085
  687SOL     OW 2959   5.873   2.306   5.534
  687SOL    HW1 2960   5.830   2.380   5.586
  687SOL    HW2 2961   5.803   2.258   5.481
  688SOL     OW 2962   0.424   3.457   4.454
  688SOL    HW1 2963   0.369   3.464   4.371
  688SOL    HW2 2964   0.374   3.405   4.523
  689SOL     OW 2965   6.110   4.312   5.271
  689SOL    HW1 2966   6.165   4.229   5.264
  689SOL    HW2 2967   6.076   4.321   5.364
  690SOL     OW 2968   0.739   2.959   3.687
  690SOL    HW1 2969   0.709   2.901   3.762
  690SOL    HW2 2970   0.832   2.992   3.705
  691SOL     OW 2971   0.040   3.038   6.439
  691SOL    HW1 2972   7.007   3.111   6.475
  691SOL    HW2 2973   0.131   3.075   6.419
  692SOL     OW 2974   1.999   0.011   3.272
  692SOL    HW1 2975   2.070   7.004   3.335
  692SOL    HW2 2976   2.035   0.012   3.179
  693SOL     OW 2977   6.565   1.030   2.520
  693SOL    HW1 2978   6.590   1.069   2.431
  693SOL    HW2 2979   6.590   1.095   2.592
  694SOL     OW 2980   1.545   0.494   2.092
  694SOL    HW1 2981   1.488   0.420   2.058
  694SOL    HW2 2982   1.496   0.581   2.084
  695SOL     OW 2983   4.493   5.399   6.036
  695SOL    HW1 2984   4.516   5.301   6.035
  695SOL    HW2 2985   4.393   5.409   6.033
  696SOL     OW 2986   4.588   5.603   2.827
  696SOL    HW1 2987   4.556   5.508   2.834
  696SOL    HW2 2988   4.594   5.628   2.730
  697SOL     OW 2989   1.355   3.791   3.913
  697SOL    HW1 2990   1.410   3.875   3.913
  697SOL    HW2 2991   1.260   3.813   3.890
  698SOL     OW 2992   4.230   6.593   3.453
  698SOL    HW1 2993   4.226   6.509   3.507
  698SOL    HW2 2994   4.147   6.602   3.399
  699SOL     OW 2995   1.804   4.523   0.143
  699SOL    HW1 2996   1.846   4.583   0.211
  699SOL    HW2 2997   1.869   4.503   0.070
  700SOL     OW 2998   2.395   1.518   3.946
  700SOL    HW1 2999   2.338   1.484   3.871
  700SOL    HW2 3000   2.397   1.618   3.944
  701SOL     OW 3001   0.819   4.456   5.657
  701SOL    HW1 3002   0.894   4.517   5.683
  701SOL    HW2 3003   0.738   4.511   5.635
  702SOL     OW 3004   5.412   5.515   4.925
  702SOL    HW1 3005   5.500   5.469   4.914
  702SOL    HW2 3006   5.342   5.448   4.950
  703SOL     OW 3007   4.646   4.227   0.208
  703SOL    HW1 3008   4.616   4.134   0.187
  703SOL    HW2 3009   4.703   4.261   0.134
  704SOL     OW 3010   2.618   0.515   1.168
  704SOL    HW1 3011   2.556   0.441   1.141
  704SOL    HW2 3012   2.711   0.480   1.175
  705SOL     OW 3013   6.831   2.074   3.506
  705SOL    HW1 3014   6.840   1.975   3.514
  705SOL    HW2 3015   6.734   2.098   3.503
  706SOL     OW 3016   4.890   1.880   3.931
  706SOL    HW1 3017   4.860   1.961   3.981
  706SOL    HW2 3018   4.840   1.800   3.963
  707SOL     OW 3019   5.116   1.908   1.610
  707SOL    HW1 3020   5.208   1.911   1.649
  707SOL    HW2 3021   5.115   1.955   1.522
  708SOL     OW 3022   3.987   0.726   1.695
  708SOL    HW1 3023   3.892   0.701   1.678
  708SOL    HW2 3024   4.008   0.715   1.792
  709SOL     OW 3025   0.883   5.218   6.851
  709SOL    HW1 3026   0.795   5.222   6.804
  709SOL    HW2 3027   0.957   5.215   6.783
  710SOL     OW 3028   3.312   3.471   2.438
  710SOL    HW1 3029   3.407   3.450   2.461
  710SOL    HW2 3030   3.262   3.492   2.522
  711SOL     OW 3031   0.894   0.147   4.277
  711SOL    HW1 3032   0.809   0.191   4.249
  711SOL    HW2 3033   0.924   0.084   4.206
  712SOL     OW 3034   1.273   4.199   1.533
  712SOL    HW1 3035   1.369   4.174   1.544
  712SOL    HW2 3036   1.266   4.279   1.473
  713SOL     OW 3037   3.935   3.094   3.064
  713SOL    HW1 3038   3.973   3.005   3.040
  713SOL    HW2 3039   3.860   3.081   3.129
  714SOL     OW 3040   4.964   5.215   5.712
  714SOL    HW1 3041   4.866   5.228   5.728
  714SOL    HW2 3042   5.004   5.302   5.683
  715SOL     OW 3043   4.860   0.893   6.790
  715SOL    HW1 3044   4.895   0.972   6.740
  715SOL    HW2 3045   4.762   0.884   6.775
  716SOL     OW 3046   6.787   4.959   1.866
  716SOL    HW1 3047   6.766   5.023   1.941
  716SOL    HW2 3048   6.756   4.998   1.780
  717SOL     OW 3049   5.942   2.741   0.413
  717SOL    HW1 3050   5.877   2.672   0.445
  717SOL    HW2 3051   6.035   2.709   0.431
  718SOL     OW 3052   3.359   3.594   6.258
  718SOL    HW1 3053   3.418   3.517   6.283
  718SOL    HW2 3054   3.278   3.595   6.317
  719SOL     OW 3055   5.278   4.910   6.902
  719SOL    HW1 3056   5.357   4.956   6.862
  719SOL    HW2 3057   5.302   4.876   6.993
  720SOL     OW 3058   2.185   7.019   6.688
  720SOL    HW1 3059   2.206   0.042   6.603
  720SOL    HW2 3060   2.165   6.923   6.668
  721SOL     OW 3061   1.106   6.225   5.765
  721SOL    HW1 3062   1.173   6.229   5.690
  721SOL    HW2 3063   1.147   6.264   5.848
  722SOL     OW 3064   4.963   0.071   6.116
  722SOL    HW1 3065   4.911   0.156   6.104
  722SOL    HW2 3066   4.921   7.023   6.062
  723SOL     OW 3067   1.906   3.065   2.262
  723SOL    HW1 3068   1.822   3.042   2.311
  723SOL    HW2 3069   1.883   3.108   2.175
  724SOL     OW 3070   6.966   0.652   4.779
  724SOL    HW1 3071   6.934   0.697   4.862
  724SOL    HW2 3072   6.894   0.655   4.710
  725SOL     OW 3073   2.363   4.938   0.797
  725SOL    HW1 3074   2.422   4.862   0.822
  725SOL    HW2 3075   2.300   4.909   0.725
  726SOL     OW 3076   4.562   0.111   6.074
  726SOL    HW1 3077   4.622   0.084   6.150
  726SOL    HW2 3078   4.599   0.076   5.988
  727SOL     OW 3079   2.549   4.601   3.948
  727SOL    HW1 3080   2.621   4.581   4.014
  727SOL    HW2 3081   2.518   4.515   3.906
  728SOL     OW 3082   6.863   3.324   5.006
  728SOL    HW1 3083   6.873   3.227   5.029
  728SOL    HW2 3084   6.791   3.334   4.937
  729SOL     OW 3085   2.782   0.402   0.634
  729SOL    HW1 3086   2.738   0.492   0.629
  729SOL    HW2 3087   2.822   0.389   0.725
  730SOL     OW 3088   6.316   0.135   5.374
  730SOL    HW1 3089   6.327   0.134   5.473
  730SOL    HW2 3090   6.304   0.229   5.342
  731SOL     OW 3091   6.429   3.128   3.516
  731SOL    HW1 3092   6.468   3.064   3.450
  731SOL    HW2 3093   6.402   3.079   3.599
  732SOL     OW 3094   6.956   2.900   2.197
  732SOL    HW1 3095   6.950   2.889   2.296
  732SOL    HW2 3096   6.969   2.810   2.154
  733SOL     OW 3097   4.731   4.542   3.752
  733SOL    HW1 3098   4.830   4.550   3.749
  733SOL    HW2 3099   4.689   4.626   3.716
  734SOL     OW 3100   7.011   4.806   0.786
  734SOL    HW1 3101   6.957   4.844   0.711
  734SOL    HW2 3102   6.952   4.751   0.845
  735SOL     OW 3103   1.369   4.674   6.292
  735SOL    HW1 3104   1.356   4.772   6.278
  735SOL    HW2 3105   1.378   4.655   6.390
  736SOL     OW 3106   6.179   1.342   3.179
  736SOL    HW1 3107   6.198   1.248   3.152
  736SOL    HW2 3108   6.192   1.352   3.278
  737SOL     OW 3109   5.823   3.514   0.475
  737SOL    HW1 3110   5.898   3.454   0.505
  737SOL    HW2 3111   5.778   3.473   0.396
  738SOL     OW 3112   0.649   4.156   3.374
  738SOL    HW1 3113   0.656   4.068   3.420
  738SOL    HW2 3114   0.571   4.155   3.311
  739SOL     OW 3115   4.956   5.580   6.835
  739SOL    HW1 3116   4.959   5.678   6.858
  739SOL    HW2 3117   4.877   5.538   6.879
  740SOL     OW 3118   5.517   6.882   0.988
  740SOL    HW1 3119   5.420   6.874   1.010
  740SOL    HW2 3120   5.544   6.978   0.986
  741SOL     OW 3121   2.850   1.005   3.641
  741SOL    HW1 3122   2.782   1.038   3.707
  741SOL    HW2 3123   2.926   1.069   3.636
  742SOL     OW 3124   1.470   0.913   3.123
  742SOL    HW1 3125   1.547   0.961   3.166
  742SOL    HW2 3126   1.505   0.841   3.063
  743SOL     OW 3127   2.083   3.860   4.275
  743SOL    HW1 3128   2.114   3.768   4.299
  743SOL    HW2 3129   2.108   3.880   4.180
  744SOL     OW 3130   0.530   6.397   1.374
  744SOL    HW1 3131   0.491   6.392   1.466
  744SOL    HW2 3132   0.516   6.309   1.327
  745SOL     OW 3133   1.215   6.393   3.047
  745SOL    HW1 3134   1.257   6.311   3.086
  745SOL    HW2 3135   1.209   6.464   3.117
  746SOL     OW 3136   2.655   0.674   4.607
  746SOL    HW1 3137   2.613   0.631   4.687
  746SOL    HW2 3138   2.639   0.773   4.611
  747SOL     OW 3139   5.526   4.611   2.313
  747SOL    HW1 3140   5.578   4.528   2.291
  747SOL    HW2 3141   5.468   4.593   2.392
  748SOL     OW 3142   4.279   2.797   1.659
  748SOL    HW1 3143   4.363   2.745   1.646
  748SOL    HW2 3144   4.218   2.783   1.581
  749SOL     OW 3145   0.068   1.442   5.460
  749SOL    HW1 3146   0.027   1.410   5.374
  749SOL    HW2 3147   0.165   1.457   5.446
  750SOL     OW 3148   2.365   4.475   0.373
  750SOL    HW1 3149   2.441   4.422   0.335
  750SOL    HW2 3150   2.380   4.489   0.471
  751SOL     OW 3151   4.875   0.943   0.403
  751SOL    HW1 3152   4.899   0.931   0.499
  751SOL    HW2 3153   4.863   1.041   0.383
  752SOL     OW 3154   5.071   1.265   1.843
  752SOL    HW1 3155   4.988   1.210   1.845
  752SOL    HW2 3156   5.141   1.221   1.900
  753SOL     OW 3157   2.412   2.206   3.351
  753SOL    HW1 3158   2.472   2.154   3.291
  753SOL    HW2 3159   2.323   2.161   3.358
  754SOL     OW 3160   5.105   5.344   6.934
  754SOL    HW1 3161   5.197   5.383   6.941
  754SOL    HW2 3162   5.040   5.416   6.911
  755SOL     OW 3163   6.975   6.439   1.991
  755SOL    HW1 3164   6.967   6.516   2.054
  755SOL    HW2 3165   0.047   6.416   1.978
  756SOL     OW 3166   4.155   0.509   3.464
  756SOL    HW1 3167   4.122   0.416   3.450
  756SOL    HW2 3168   4.101   0.572   3.408
  757SOL     OW 3169   0.302   0.635   4.364
  757SOL    HW1 3170   0.391   0.665   4.398
  757SOL    HW2 3171   0.240   0.620   4.442
  758SOL     OW 3172   4.545   2.207   1.422
  758SOL    HW1 3173   4.568   2.304   1.414
  758SOL    HW2 3174   4.606   2.153   1.364
  759SOL     OW 3175   1.637   1.265   6.983
  759SOL    HW1 3176   1.650   1.172   7.017
  759SOL    HW2 3177   1.607   1.262   6.887
  760SOL     OW 3178   4.592   1.473   5.988
  760SOL    HW1 3179   4.649   1.458   5.907
  760SOL    HW2 3180   4.596   1.569   6.015
  761SOL     OW 3181   6.470   2.674   6.862
  761SOL    HW1 3182   6.385   2.670   6.914
  761SOL    HW2 3183   6.450   2.663   6.765
  762SOL     OW 3184   2.181   5.434   3.839
  762SOL    HW1 3185   2.095   5.386   3.823
  762SOL    HW2 3186   2.230   5.444   3.753
  763SOL     OW 3187   5.906   5.340   5.935
  763SOL    HW1 3188   5.877   5.434   5.953
  763SOL    HW2 3189   5.964   5.308   6.010
  764SOL     OW 3190   4.397   1.139   2.245
  764SOL    HW1 3191   4.384   1.061   2.306
  764SOL    HW2 3192   4.309   1.166   2.206
  765SOL     OW 3193   0.415   7.000   3.530
  765SOL    HW1 3194   0.406   0.074   3.541
  765SOL    HW2 3195   0.414   6.956   3.620
  766SOL     OW 3196   0.387   6.405   0.055
  766SOL    HW1 3197   0.343   6.335   0.111
  766SOL    HW2 3198   0.444   6.463   0.112
  767SOL     OW 3199   5.938   0.271   2.123
  767SOL    HW1 3200   5.892   0.221   2.049
  767SOL    HW2 3201   5.880   0.345   2.155
  768SOL     OW 3202   3.274   6.706   3.254
  768SOL    HW1 3203   3.369   6.680   3.241
  768SOL    HW2 3204   3.227   6.708   3.166
  769SOL     OW 3205   3.665   0.721   5.772
  769SOL    HW1 3206   3.692   0.761   5.859
  769SOL    HW2 3207   3.684   0.785   5.698
  770SOL     OW 3208   3.510   4.963   4.045
  770SOL    HW1 3209   3.565   5.007   3.974
  770SOL    HW2 3210   3.431   4.918   4.003
  771SOL     OW 3211   0.285   5.767   3.551
  771SOL    HW1 3212   0.261   5.722   3.465
  771SOL    HW2 3213   0.218   5.839   3.570
  772SOL     OW 3214   6.804   4.445   5.218
  772SOL    HW1 3215   6.760   4.470   5.131
  772SOL    HW2 3216   6.900   4.424   5.201
  773SOL     OW 3217   0.098   4.269   2.288
  773SOL    HW1 3218   0.128   4.364   2.285
  773SOL    HW2 3219   0.177   4.208   2.288
  774SOL     OW 3220   1.659   0.921   1.677
  774SOL    HW1 3221   1.729   0.857   1.707
  774SOL    HW2 3222   1.628   0.896   1.585
  775SOL     OW 3223   1.225   2.147   4.081
  775SOL    HW1 3224   1.147   2.089   4.061
  775SOL    HW2 3225   1.192   2.239   4.107
  776SOL     OW 3226   2.632   0.725   6.272
  776SOL    HW1 3227   2.596   0.757   6.184
  776SOL    HW2 3228   2.567   0.661   6.313
  777SOL     OW 3229   4.415   0.682   0.590
  777SOL    HW1 3230   4.434   0.768   0.544
  777SOL    HW2 3231   4.319   0.679   0.617
  778SOL     OW 3232   4.378   6.890   3.872
  778SOL    HW1 3233   4.347   6.877   3.778
  778SOL    HW2 3234   4.301   6.915   3.930
  779SOL     OW 3235   1.111   1.154   2.368
  779SOL    HW1 3236   1.110   1.215   2.289
  779SOL    HW2 3237   1.042   1.082   2.356
  780SOL     OW 3238   5.216   3.450   5.059
  780SOL    HW1 3239   5.259   3.372   5.105
  780SOL    HW2 3240   5.127   3.423   5.022
  781SOL     OW 3241   0.641   1.397   5.525
  781SOL    HW1 3242   0.665   1.318   5.582
  781SOL    HW2 3243   0.561   1.375   5.470
  782SOL     OW 3244   0.341   3.305   0.734
  782SOL    HW1 3245   0.337   3.375   0.806
  782SOL    HW2 3246   0.305   3.343   0.649
  783SOL     OW 3247   2.929   4.057   0.328
  783SOL    HW1 3248   3.019   4.030   0.362
  783SOL    HW2 3249   2.873   3.976   0.313
  784SOL     OW 3250   5.343   0.327   4.449
  784SOL    HW1 3251   5.332   0.328   4.548
  784SOL    HW2 3252   5.296   0.406   4.410
  785SOL     OW 3253   6.663   2.398   3.582
  785SOL    HW1 3254   6.580   2.392   3.526
  785SOL    HW2 3255   6.686   2.494   3.597
  786SOL     OW 3256   6.605   0.172   6.994
  786SOL    HW1 3257   6.642   0.128   0.051
  786SOL    HW2 3258   6.579   0.266   7.016
  787SOL     OW 3259   3.536   1.015   6.395
  787SOL    HW1 3260   3.458   0.981   6.448
  787SOL    HW2 3261   3.525   0.987   6.299
  788SOL     OW 3262   1.232   4.320   4.134
  788SOL    HW1 3263   1.245   4.404   4.082
  788SOL    HW2 3264   1.309   4.259   4.118
  789SOL     OW 3265   5.756   3.827   1.220
  789SOL    HW1 3266   5.747   3.926   1.224
  789SOL    HW2 3267   5.852   3.803   1.203
  790SOL     OW 3268   3.100   1.150   3.595
  790SOL    HW1 3269   3.101   1.138   3.496
  790SOL    HW2 3270   3.121   1.245   3.618
  791SOL     OW 3271   4.117   1.775   4.406
  791SOL    HW1 3272   4.170   1.690   4.405
  791SOL    HW2 3273   4.156   1.838   4.472
  792SOL     OW 3274   6.154   0.322   3.427
  792SOL    HW1 3275   6.202   0.278   3.351
  792SOL    HW2 3276   6.219   0.338   3.502
  793SOL     OW 3277   6.536   0.205   6.726
  793SOL    HW1 3278   6.480   0.287   6.713
  793SOL    HW2 3279   6.572   0.203   6.819
  794SOL     OW 3280   2.219   5.426   5.033
  794SOL    HW1 3281   2.283   5.384   5.097
  794SOL    HW2 3282   2.148   5.474   5.083
  795SOL     OW 3283   4.875   4.908   5.997
  795SOL    HW1 3284   4.941   4.867   5.934
  795SOL    HW2 3285   4.892   5.007   6.004
  796SOL     OW 3286   0.988   2.194   5.994
  796SOL    HW1 3287   0.949   2.229   5.908
  796SOL    HW2 3288   1.061   2.129   5.973
  797SOL     OW 3289   5.832   3.034   4.468
  797SOL    HW1 3290   5.865   2.940   4.481
  797SOL    HW2 3291   5.773   3.038   4.388
  798SOL     OW 3292   6.253   0.762   6.041
  798SOL    HW1 3293   6.331   0.702   6.026
  798SOL    HW2 3294   6.168   0.714   6.019
  799SOL     OW 3295   6.600   3.341   3.060
  799SOL    HW1 3296   6.555   3.254   3.042
  799SOL    HW2 3297   6.567   3.378   3.147
  800SOL     OW 3298   6.507   1.774   1.882
  800SOL    HW1 3299   6.428   1.773   1.820
  800SOL    HW2 3300   6.552   1.863   1.876
  801SOL     OW 3301   0.481   2.756   3.515
  801SOL    HW1 3302   0.439   2.702   3.588
  801SOL    HW2 3303   0.499   2.849   3.548
  802SOL     OW 3304   6.024   0.771   0.816
  802SOL    HW1 3305   5.932   0.784   0.781
  802SOL    HW2 3306   6.055   0.855   0.861
  803SOL     OW 3307   0.820   6.881   5.527
  803SOL    HW1 3308   0.757   6.803   5.521
  803SOL    HW2 3309   0.910   6.849   5.556
  804SOL     OW 3310   6.691   0.622   0.625
  804SOL    HW1 3311   6.659   0.693   0.561
  804SOL    HW2 3312   6.790   0.616   0.621
  805SOL     OW 3313   1.838   3.360   6.334
  805SOL    HW1 3314   1.756   3.310   6.358
  805SOL    HW2 3315   1.823   3.411   6.249
  806SOL     OW 3316   5.529   0.801   0.808
  806SOL    HW1 3317   5.464   0.783   0.734
  806SOL    HW2 3318   5.488   0.865   0.873
  807SOL     OW 3319   1.441   0.377   3.227
  807SOL    HW1 3320   1.405   0.318   3.300
  807SOL    HW2 3321   1.470   0.320   3.150
  808SOL     OW 3322   5.466   3.583   5.010
  808SOL    HW1 3323   5.513   3.515   4.954
  808SOL    HW2 3324   5.399   3.536   5.069
  809SOL     OW 3325   0.204   4.699   5.825
  809SOL    HW1 3326   0.178   4.602   5.825
  809SOL    HW2 3327   0.132   4.752   5.778
  810SOL     OW 3328   6.228   4.824   6.729
  810SOL    HW1 3329   6.299   4.893   6.711
  810SOL    HW2 3330   6.186   4.796   6.642
  811SOL     OW 3331   5.086   5.163   4.076
  811SOL    HW1 3332   5.087   5.064   4.088
  811SOL    HW2 3333   4.992   5.197   4.087
  812SOL     OW 3334   0.341   0.103   2.512
  812SOL    HW1 3335   0.291   0.148   2.586
  812SOL    HW2 3336   0.429   0.147   2.499
  813SOL     OW 3337   5.714   5.510   2.361
  813SOL    HW1 3338   5.775   5.583   2.392
  813SOL    HW2 3339   5.767   5.439   2.315
  814SOL     OW 3340   4.970   5.777   1.290
  814SOL    HW1 3341   5.013   5.696   1.250
  814SOL    HW2 3342   5.010   5.793   1.381
  815SOL     OW 3343   0.737   1.954   0.664
  815SOL    HW1 3344   0.732   1.950   0.764
  815SOL    HW2 3345   0.776   2.042   0.636
  816SOL     OW 3346   6.208   0.351   1.093
  816SOL    HW1 3347   6.219   0.391   1.184
  816SOL    HW2 3348   6.112   0.356   1.066
  817SOL     OW 3349   1.819   2.221   3.083
  817SOL    HW1 3350   1.846   2.146   3.023
  817SOL    HW2 3351   1.806   2.304   3.028
  818SOL     OW 3352   6.725   2.001   1.219
  818SOL    HW1 3353   6.688   2.062   1.149
  818SOL    HW2 3354   6.674   1.915   1.219
  819SOL     OW 3355   0.450   3.931   3.588
  819SOL    HW1 3356   0.549   3.927   3.577
  819SOL    HW2 3357   0.425   4.014   3.637
  820SOL     OW 3358   1.009   3.215   4.235
  820SOL    HW1 3359   1.038   3.301   4.193
  820SOL    HW2 3360   1.061   3.139   4.195
  821SOL     OW 3361   1.211   3.370   0.029
  821SOL    HW1 3362   1.175   3.442   0.088
  821SOL    HW2 3363   1.303   3.344   0.059
  822SOL     OW 3364   1.510   3.578   4.720
  822SOL    HW1 3365   1.552   3.509   4.661
  822SOL    HW2 3366   1.432   3.620   4.674
  823SOL     OW 3367   3.113   3.551   0.914
  823SOL    HW1 3368   3.135   3.634   0.966
  823SOL    HW2 3369   3.118   3.472   0.975
  824SOL     OW 3370   6.300   2.379   5.945
  824SOL    HW1 3371   6.236   2.417   5.878
  824SOL    HW2 3372   6.338   2.453   6.000
  825SOL     OW 3373   1.895   4.170   2.266
  825SOL    HW1 3374   1.861   4.182   2.173
  825SOL    HW2 3375   1.860   4.243   2.324
  826SOL     OW 3376   0.558   4.093   6.088
  826SOL    HW1 3377   0.580   4.073   5.992
  826SOL    HW2 3378   0.514   4.183   6.093
  827SOL     OW 3379   4.599   5.984   0.064
  827SOL    HW1 3380   4.586   5.996   0.162
  827SOL    HW2 3381   4.639   5.894   0.046
  828SOL     OW 3382   6.350   6.604   6.758
  828SOL    HW1 3383   6.384   6.698   6.757
  828SOL    HW2 3384   6.336   6.572   6.665
  829SOL     OW 3385   3.599   2.891   4.496
  829SOL    HW1 3386   3.548   2.806   4.479
  829SOL    HW2 3387   3.581   2.955   4.421
  830SOL     OW 3388   4.656   4.176   5.541
  830SOL    HW1 3389   4.700   4.239   5.476
  830SOL    HW2 3390   4.623   4.228   5.620
  831SOL     OW 3391   6.551   0.795   5.030
  831SOL    HW1 3392   6.518   0.750   4.947
  831SOL    HW2 3393   6.612   0.732   5.080
  832SOL     OW 3394   2.898   1.175   5.579
  832SOL    HW1 3395   2.975   1.200   5.638
  832SOL    HW2 3396   2.932   1.155   5.487
  833SOL     OW 3397   0.478   0.263   6.171
  833SOL    HW1 3398   0.509   0.206   6.247
  833SOL    HW2 3399   0.442   0.204   6.098
  834SOL     OW 3400   3.293   4.427   5.500
  834SOL    HW1 3401   3.316   4.349   5.558
  834SOL    HW2 3402   3.252   4.395   5.415
  835SOL     OW 3403   4.092   0.461   3.085
  835SOL    HW1 3404   4.192   0.465   3.075
  835SOL    HW2 3405   4.049   0.465   2.995
  836SOL     OW 3406   2.500   0.658   0.390
  836SOL    HW1 3407   2.421   0.607   0.423
  836SOL    HW2 3408   2.549   0.604   0.321
  837SOL     OW 3409   4.267   0.421   5.886
  837SOL    HW1 3410   4.208   0.356   5.934
  837SOL    HW2 3411   4.303   0.488   5.952
  838SOL     OW 3412   2.135   4.750   2.909
  838SOL    HW1 3413   2.150   4.655   2.880
  838SOL    HW2 3414   2.087   4.751   2.996
  839SOL     OW 3415   3.214   1.568   1.822
  839SOL    HW1 3416   3.197   1.642   1.887
  839SOL    HW2 3417   3.305   1.578   1.782
  840SOL     OW 3418   0.981   1.569   6.202
  840SOL    HW1 3419   1.010   1.568   6.107
  840SOL    HW2 3420   0.928   1.652   6.220
  841SOL     OW 3421   0.487   3.718   7.017
  841SOL    HW1 3422   0.426   3.670   0.055
  841SOL    HW2 3423   0.553   3.653   6.978
  842SOL     OW 3424   3.669   5.107   3.850
  842SOL    HW1 3425   3.752   5.114   3.795
  842SOL    HW2 3426   3.623   5.195   3.853
  843SOL     OW 3427   6.677   2.864   1.977
  843SOL    HW1 3428   6.728   2.799   2.034
  843SOL    HW2 3429   6.596   2.894   2.026
  844SOL     OW 3430   5.181   5.570   0.631
  844SOL    HW1 3431   5.211   5.538   0.542
  844SOL    HW2 3432   5.091   5.531   0.652
  845SOL     OW 3433   0.907   4.548   4.672
  845SOL    HW1 3434   0.909   4.636   4.625
  845SOL    HW2 3435   0.853   4.482   4.619
  846SOL     OW 3436   5.806   1.976   0.021
  846SOL    HW1 3437   5.764   1.886   0.030
  846SOL    HW2 3438   5.740   2.047   0.044
  847SOL     OW 3439   5.258   3.398   2.048
  847SOL    HW1 3440   5.179   3.389   2.108
  847SOL    HW2 3441   5.317   3.472   2.081
  848SOL     OW 3442   6.934   0.109   6.053
  848SOL    HW1 3443   6.938   0.021   6.100
  848SOL    HW2 3444   0.002   0.138   6.029
  849SOL     OW 3445   0.224   5.098   4.176
  849SOL    HW1 3446   0.242   5.119   4.080
  849SOL    HW2 3447   0.269   5.167   4.234
  850SOL     OW 3448   3.645   0.897   2.492
  850SOL    HW1 3449   3.647   0.839   2.410
  850SOL    HW2 3450   3.629   0.840   2.573
  851SOL     OW 3451   0.626   0.665   6.079
  851SOL    HW1 3452   0.674   0.608   6.145
  851SOL    HW2 3453   0.607   0.612   5.996
  852SOL     OW 3454   2.055   4.297   6.356
  852SOL    HW1 3455   2.067   4.323   6.452
  852SOL    HW2 3456   2.028   4.201   6.350
  853SOL     OW 3457   1.710   3.440   1.613
  853SOL    HW1 3458   1.649   3.389   1.552
  853SOL    HW2 3459   1.656   3.501   1.671
  854SOL     OW 3460   5.433   5.140   1.776
  854SOL    HW1 3461   5.394   5.180   1.693
  854SOL    HW2 3462   5.464   5.213   1.837
  855SOL     OW 3463   5.656   0.268   1.515
  855SOL    HW1 3464   5.721   0.341   1.496
  855SOL    HW2 3465   5.702   0.180   1.509
  856SOL     OW 3466   1.494   6.703   4.748
  856SOL    HW1 3467   1.561   6.737   4.682
  856SOL    HW2 3468   1.531   6.624   4.796
  857SOL     OW 3469   6.494   3.614   1.820
  857SOL    HW1 3470   6.403   3.645   1.795
  857SOL    HW2 3471   6.503   3.613   1.919
  858SOL     OW 3472   3.187   3.995   1.327
  858SOL    HW1 3473   3.199   3.897   1.314
  858SOL    HW2 3474   3.107   4.026   1.276
  859SOL     OW 3475   6.661   5.024   0.352
  859SOL    HW1 3476   6.603   4.946   0.329
  859SOL    HW2 3477   6.659   5.039   0.451
  860SOL     OW 3478   1.596   4.943   1.610
  860SOL    HW1 3479   1.696   4.947   1.612
  860SOL    HW2 3480   1.562   4.999   1.534
  861SOL     OW 3481   3.316   5.377   5.629
  861SOL    HW1 3482   3.348   5.356   5.536
  861SOL    HW2 3483   3.390   5.419   5.681
  862SOL     OW 3484   4.399   4.648   4.430
  862SOL    HW1 3485   4.361   4.660   4.522
  862SOL    HW2 3486   4.496   4.623   4.437
  863SOL     OW 3487   5.913   1.092   1.072
  863SOL    HW1 3488   5.851   1.104   1.150
  863SOL    HW2 3489   5.901   1.000   1.034
  864SOL     OW 3490   5.899   4.432   2.526
  864SOL    HW1 3491   5.857   4.349   2.488
  864SOL    HW2 3492   5.828   4.491   2.564
  865SOL     OW 3493   1.606   0.312   4.381
  865SOL    HW1 3494   1.632   0.299   4.286
  865SOL    HW2 3495   1.514   0.352   4.386
  866SOL     OW 3496   3.438   1.518   1.385
  866SOL    HW1 3497   3.457   1.460   1.305
  866SOL    HW2 3498   3.350   1.564   1.373
  867SOL     OW 3499   1.534   2.481   5.958
  867SOL    HW1 3500   1.567   2.454   6.048
  867SOL    HW2 3501   1.588   2.558   5.924
  868SOL     OW 3502   5.384   2.907   3.454
  868SOL    HW1 3503   5.407   2.997   3.491
  868SOL    HW2 3504   5.370   2.913   3.355
  869SOL     OW 3505   6.123   4.174   2.509
  869SOL    HW1 3506   6.103   4.272   2.515
  869SOL    HW2 3507   6.217   4.161   2.477
  870SOL     OW 3508   0.015   2.734   0.896
  870SOL    HW1 3509   0.112   2.729   0.921
  870SOL    HW2 3510   7.022   2.820   0.848
  871SOL     OW 3511   5.844   3.857   0.874
  871SOL    HW1 3512   5.803   3.929   0.929
  871SOL    HW2 3513   5.936   3.885   0.846
  872SOL     OW 3514   5.550   2.652   2.863
  872SOL    HW1 3515   5.463   2.701   2.865
  872SOL    HW2 3516   5.607   2.689   2.790
  873SOL     OW 3517   4.617   6.613   5.706
  873SOL    HW1 3518   4.568   6.643   5.624
  873SOL    HW2 3519   4.706   6.576   5.680
  874SOL     OW 3520   6.975   3.958   5.801
  874SOL    HW1 3521   6.935   4.025   5.737
  874SOL    HW2 3522   6.978   3.998   5.892
  875SOL     OW 3523   6.125   5.074   6.424
  875SOL    HW1 3524   6.123   5.066   6.324
  875SOL    HW2 3525   6.167   5.161   6.449
  876SOL     OW 3526   1.037   3.352   1.580
  876SOL    HW1 3527   0.953   3.357   1.635
  876SOL    HW2 3528   1.052   3.439   1.534
  877SOL     OW 3529   5.630   6.110   0.564
  877SOL    HW1 3530   5.594   6.113   0.657
  877SOL    HW2 3531   5.694   6.186   0.550
  878SOL     OW 3532   3.195   3.046   0.269
  878SOL    HW1 3533   3.190   2.971   0.335
  878SOL    HW2 3534   3.105   3.060   0.226
  879SOL     OW 3535   4.437   1.822   2.619
  879SOL    HW1 3536   4.378   1.821   2.538
  879SOL    HW2 3537   4.407   1.751   2.682
  880SOL     OW 3538   4.187   5.008   0.767
  880SOL    HW1 3539   4.117   5.057   0.715
  880SOL    HW2 3540   4.265   4.986   0.708
  881SOL     OW 3541   4.302   5.171   4.836
  881SOL    HW1 3542   4.296   5.174   4.736
  881SOL    HW2 3543   4.369   5.103   4.864
  882SOL     OW 3544   1.117   1.591   4.087
  882SOL    HW1 3545   1.184   1.614   4.156
  882SOL    HW2 3546   1.148   1.624   3.998
  883SOL     OW 3547   2.901   4.710   0.008
  883SOL    HW1 3548   2.820   4.708   6.975
  883SOL    HW2 3549   2.931   4.804   0.021
  884SOL     OW 3550   4.578   3.932   1.385
  884SOL    HW1 3551   4.479   3.937   1.373
  884SOL    HW2 3552   4.604   3.837   1.405
  885SOL     OW 3553   5.017   5.923   6.813
  885SOL    HW1 3554   5.052   5.890   6.726
  885SOL    HW2 3555   5.073   5.998   6.846
  886SOL     OW 3556   4.512   1.175   6.391
  886SOL    HW1 3557   4.558   1.228   6.321
  886SOL    HW2 3558   4.447   1.234   6.440
  887SOL     OW 3559   5.249   0.238   6.473
  887SOL    HW1 3560   5.274   0.141   6.478
  887SOL    HW2 3561   5.249   0.277   6.565
  888SOL     OW 3562   6.232   6.625   3.604
  888SOL    HW1 3563   6.168   6.669   3.666
  888SOL    HW2 3564   6.255   6.534   3.639
  889SOL     OW 3565   1.163   6.596   4.677
  889SOL    HW1 3566   1.196   6.534   4.748
  889SOL    HW2 3567   1.180   6.691   4.705
  890SOL     OW 3568   2.228   4.992   2.213
  890SOL    HW1 3569   2.176   5.001   2.129
  890SOL    HW2 3570   2.165   4.992   2.291
  891SOL     OW 3571   5.757   3.634   6.319
  891SOL    HW1 3572   5.826   3.574   6.357
  891SOL    HW2 3573   5.801   3.702   6.260
  892SOL     OW 3574   2.592   5.639   1.799
  892SOL    HW1 3575   2.573   5.595   1.712
  892SOL    HW2 3576   2.666   5.590   1.845
  893SOL     OW 3577   1.853   6.908   0.562
  893SOL    HW1 3578   1.804   6.992   0.541
  893SOL    HW2 3579   1.943   6.910   0.517
  894SOL     OW 3580   1.666   5.352   3.469
  894SOL    HW1 3581   1.595   5.318   3.530
  894SOL    HW2 3582   1.751   5.303   3.485
  895SOL     OW 3583   1.881   0.100   4.809
  895SOL    HW1 3584   1.789   0.122   4.843
  895SOL    HW2 3585   1.905   0.164   4.736
  896SOL     OW 3586   5.776   0.365   3.708
  896SOL    HW1 3587   5.862   0.354   3.757
  896SOL    HW2 3588   5.747   0.276   3.671
  897SOL     OW 3589   5.239   2.442   6.072
  897SOL    HW1 3590   5.228   2.491   6.159
  897SOL    HW2 3591   5.298   2.362   6.086
  898SOL     OW 3592   5.994   6.458   4.076
  898SOL    HW1 3593   6.059   6.409   4.134
  898SOL    HW2 3594   6.036   6.544   4.045
  899SOL     OW 3595   0.905   4.644   6.466
  899SOL    HW1 3596   0.833   4.633   6.397
  899SOL    HW2 3597   0.889   4.729   6.517
  900SOL     OW 3598   0.377   5.537   3.662
  900SOL    HW1 3599   0.342   5.612   3.606
  900SOL    HW2 3600   0.431   5.574   3.738
  901SOL     OW 3601   5.728   2.311   3.354
  901SOL    HW1 3602   5.756   2.304   3.258
  901SOL    HW2 3603   5.766   2.395   3.394
  902SOL     OW 3604   0.593   6.147   0.338
  902SOL    HW1 3605   0.593   6.149   0.238
  902SOL    HW2 3606   0.687   6.141   0.372
  903SOL     OW 3607   0.595   4.931   6.872
  903SOL    HW1 3608   0.584   4.872   6.952
  903SOL    HW2 3609   0.573   5.025   6.898
  904SOL     OW 3610   1.946   1.387   3.768
  904SOL    HW1 3611   1.864   1.331   3.771
  904SOL    HW2 3612   1.947   1.448   3.848
  905SOL     OW 3613   6.360   1.833   5.833
  905SOL    HW1 3614   6.456   1.804   5.832
  905SOL    HW2 3615   6.339   1.872   5.923
  906SOL     OW 3616   6.250   4.060   5.259
  906SOL    HW1 3617   6.170   4.000   5.253
  906SOL    HW2 3618   6.287   4.076   5.167
  907SOL     OW 3619   6.997   3.720   1.627
  907SOL    HW1 3620   0.032   3.683   1.698
  907SOL    HW2 3621   6.904   3.728   1.662
  908SOL     OW 3622   1.671   1.080   3.213
  908SOL    HW1 3623   1.700   1.083   3.118
  908SOL    HW2 3624   1.736   1.024   3.266
  909SOL     OW 3625   4.437   0.527   1.030
  909SOL    HW1 3626   4.359   0.577   1.069
  909SOL    HW2 3627   4.514   0.532   1.093
  910SOL     OW 3628   1.978   2.052   1.624
  910SOL    HW1 3629   1.973   2.037   1.526
  910SOL    HW2 3630   1.915   1.991   1.671
  911SOL     OW 3631   0.553   4.444   0.644
  911SOL    HW1 3632   0.526   4.406   0.556
  911SOL    HW2 3633   0.642   4.488   0.636
  912SOL     OW 3634   1.212   0.449   6.205
  912SOL    HW1 3635   1.268   0.397   6.269
  912SOL    HW2 3636   1.129   0.480   6.251
  913SOL     OW 3637   2.276   1.552   1.690
  913SOL    HW1 3638   2.338   1.630   1.700
  913SOL    HW2 3639   2.188   1.583   1.654
  914SOL     OW 3640   2.737   6.318   3.165
  914SOL    HW1 3641   2.669   6.368   3.218
  914SOL    HW2 3642   2.708   6.222   3.157
  915SOL     OW 3643   1.610   2.181   6.871
  915SOL    HW1 3644   1.519   2.176   6.913
  915SOL    HW2 3645   1.634   2.277   6.856
  916SOL     OW 3646   0.922   3.462   2.638
  916SOL    HW1 3647   0.946   3.382   2.693
  916SOL    HW2 3648   1.004   3.515   2.619
  917SOL     OW 3649   3.484   2.520   6.645
  917SOL    HW1 3650   3.430   2.560   6.719
  917SOL    HW2 3651   3.430   2.516   6.561
  918SOL     OW 3652   1.378   0.865   5.421
  918SOL    HW1 3653   1.449   0.848   5.353
  918SOL    HW2 3654   1.342   0.778   5.454
  919SOL     OW 3655   2.490   0.291   1.118
  919SOL    HW1 3656   2.403   0.260   1.080
  919SOL    HW2 3657   2.565   0.265   1.056
  920SOL     OW 3658   2.406   0.843   4.016
  920SOL    HW1 3659   2.488   0.850   4.073
  920SOL    HW2 3660   2.411   0.761   3.959
  921SOL     OW 3661   4.869   4.743   6.381
  921SOL    HW1 3662   4.862   4.742   6.481
  921SOL    HW2 3663   4.933   4.814   6.353
  922SOL     OW 3664   2.119   3.876   6.225
  922SOL    HW1 3665   2.198   3.843   6.173
  922SOL    HW2 3666   2.062   3.798   6.251
  923SOL     OW 3667   4.299   1.402   6.807
  923SOL    HW1 3668   4.210   1.440   6.833
  923SOL    HW2 3669   4.304   1.306   6.836
  924SOL     OW 3670   6.341   4.055   3.145
  924SOL    HW1 3671   6.323   3.968   3.191
  924SOL    HW2 3672   6.275   4.068   3.071
  925SOL     OW 3673   6.398   2.137   3.131
  925SOL    HW1 3674   6.371   2.232   3.115
  925SOL    HW2 3675   6.385   2.084   3.047
  926SOL     OW 3676   5.646   6.183   1.210
  926SOL    HW1 3677   5.556   6.138   1.208
  926SOL    HW2 3678   5.664   6.224   1.121
  927SOL     OW 3679   4.679   5.128   5.042
  927SOL    HW1 3680   4.598   5.072   5.022
  927SOL    HW2 3681   4.755   5.098   4.984
  928SOL     OW 3682   0.689   1.438   1.404
  928SOL    HW1 3683   0.698   1.466   1.308
  928SOL    HW2 3684   0.740   1.353   1.419
  929SOL     OW 3685   0.511   2.403   2.509
  929SOL    HW1 3686   0.422   2.413   2.463
  929SOL    HW2 3687   0.568   2.340   2.457
  930SOL     OW 3688   5.341   5.648   2.958
  930SOL    HW1 3689   5.259   5.624   3.010
  930SOL    HW2 3690   5.344   5.596   2.873
  931SOL     OW 3691   1.804   3.320   2.530
  931SOL    HW1 3692   1.898   3.301   2.502
  931SOL    HW2 3693   1.744   3.244   2.503
  932SOL     OW 3694   4.431   6.505   1.356
  932SOL    HW1 3695   4.433   6.560   1.439
  932SOL    HW2 3696   4.339   6.471   1.341
  933SOL     OW 3697   1.627   5.830   3.914
  933SOL    HW1 3698   1.590   5.889   3.842
  933SOL    HW2 3699   1.712   5.788   3.882
  934SOL     OW 3700   3.320   0.613   5.277
  934SOL    HW1 3701   3.394   0.547   5.268
  934SOL    HW2 3702   3.340   0.694   5.222
  935SOL     OW 3703   2.266   3.002   5.986
  935SOL    HW1 3704   2.174   3.033   6.010
  935SOL    HW2 3705   2.274   2.904   6.005
  936SOL     OW 3706   0.163   2.253   1.965
  936SOL    HW1 3707   0.139   2.331   1.908
  936SOL    HW2 3708   0.220   2.189   1.913
  937SOL     OW 3709   5.328   2.299   3.610
  937SOL    HW1 3710   5.293   2.205   3.609
  937SOL    HW2 3711   5.278   2.352   3.679
  938SOL     OW 3712   6.987   1.707   0.116
  938SOL    HW1 3713   0.037   1.649   0.148
  938SOL    HW2 3714   6.900   1.663   0.136
  939SOL     OW 3715   6.495   0.650   5.937
  939SOL    HW1 3716   6.538   0.612   5.855
  939SOL    HW2 3717   6.515   0.591   6.016
  940SOL     OW 3718   0.771   0.795   4.141
  940SOL    HW1 3719   0.863   0.814   4.104
  940SOL    HW2 3720   0.731   0.880   4.174
  941SOL     OW 3721   5.299   2.990   5.320
  941SOL    HW1 3722   5.250   2.962   5.237
  941SOL    HW2 3723   5.249   3.065   5.364
  942SOL     OW 3724   5.049   0.277   5.524
  942SOL    HW1 3725   5.054   0.354   5.461
  942SOL    HW2 3726   5.008   0.307   5.610
  943SOL     OW 3727   5.961   1.959   0.294
  943SOL    HW1 3728   5.917   1.902   0.364
  943SOL    HW2 3729   5.917   1.943   0.205
  944SOL     OW 3730   5.451   3.827   4.870
  944SOL    HW1 3731   5.453   3.737   4.915
  944SOL    HW2 3732   5.534   3.878   4.893
  945SOL     OW 3733   5.319   3.666   5.385
  945SOL    HW1 3734   5.347   3.730   5.456
  945SOL    HW2 3735   5.223   3.683   5.361
  946SOL     OW 3736   5.785   2.879   6.124
  946SOL    HW1 3737   5.799   2.941   6.202
  946SOL    HW2 3738   5.707   2.910   6.070
  947SOL     OW 3739   0.905   2.668   5.428
  947SOL    HW1 3740   1.004   2.669   5.414
  947SOL    HW2 3741   0.862   2.607   5.362
  948SOL     OW 3742   4.113   1.893   0.425
  948SOL    HW1 3743   4.205   1.913   0.389
  948SOL    HW2 3744   4.046   1.904   0.351
  949SOL     OW 3745   5.868   5.680   6.879
  949SOL    HW1 3746   5.843   5.619   6.804
  949SOL    HW2 3747   5.931   5.632   6.941
  950SOL     OW 3748   4.172   4.840   0.436
  950SOL    HW1 3749   4.264   4.816   0.406
  950SOL    HW2 3750   4.167   4.837   0.536
  951SOL     OW 3751   1.097   2.635   3.639
  951SOL    HW1 3752   1.065   2.650   3.732
  951SOL    HW2 3753   1.019   2.627   3.577
  952SOL     OW 3754   5.193   1.113   1.522
  952SOL    HW1 3755   5.162   1.208   1.515
  952SOL    HW2 3756   5.115   1.052   1.514
  953SOL     OW 3757   3.493   6.264   6.003
  953SOL    HW1 3758   3.571   6.252   5.941
  953SOL    HW2 3759   3.525   6.304   6.089
  954SOL     OW 3760   0.602   6.819   1.426
  954SOL    HW1 3761   0.669   6.782   1.363
  954SOL    HW2 3762   0.515   6.771   1.414
  955SOL     OW 3763   6.571   6.512   2.553
  955SOL    HW1 3764   6.666   6.480   2.552
  955SOL    HW2 3765   6.544   6.534   2.646
  956SOL     OW 3766   0.877   2.488   0.147
  956SOL    HW1 3767   0.821   2.562   0.109
  956SOL    HW2 3768   0.960   2.478   0.091
  957SOL     OW 3769   2.490   6.479   5.145
  957SOL    HW1 3770   2.444   6.564   5.119
  957SOL    HW2 3771   2.547   6.495   5.225
  958SOL     OW 3772   4.891   2.340   0.449
  958SOL    HW1 3773   4.956   2.332   0.524
  958SOL    HW2 3774   4.818   2.403   0.474
  959SOL     OW 3775   1.643   3.882   2.250
  959SOL    HW1 3776   1.736   3.879   2.287
  959SOL    HW2 3777   1.637   3.823   2.170
  960SOL     OW 3778   1.448   5.696   5.532
  960SOL    HW1 3779   1.400   5.609   5.537
  960SOL    HW2 3780   1.511   5.704   5.610
  961SOL     OW 3781   3.578   0.077   1.239
  961SOL    HW1 3782   3.494   0.086   1.187
  961SOL    HW2 3783   3.557   0.076   1.337
  962SOL     OW 3784   1.712   6.351   4.081
  962SOL    HW1 3785   1.692   6.269   4.135
  962SOL    HW2 3786   1.632   6.411   4.081
  963SOL     OW 3787   6.153   0.274   2.393
  963SOL    HW1 3788   6.058   0.303   2.399
  963SOL    HW2 3789   6.173   0.243   2.300
  964SOL     OW 3790   5.175   3.598   1.119
  964SOL    HW1 3791   5.139   3.554   1.037
  964SOL    HW2 3792   5.259   3.648   1.096
  965SOL     OW 3793   1.425   2.418   0.799
  965SOL    HW1 3794   1.483   2.384   0.725
  965SOL    HW2 3795   1.412   2.346   0.867
  966SOL     OW 3796   6.917   2.269   1.806
  966SOL    HW1 3797   6.974   2.189   1.827
  966SOL    HW2 3798   6.822   2.239   1.792
  967SOL     OW 3799   0.994   5.779   2.605
  967SOL    HW1 3800   0.920   5.712   2.595
  967SOL    HW2 3801   0.963   5.854   2.664
  968SOL     OW 3802   6.416   4.336   1.992
  968SOL    HW1 3803   6.389   4.267   1.924
  968SOL    HW2 3804   6.414   4.427   1.951
  969SOL     OW 3805   3.927   5.865   6.618
  969SOL    HW1 3806   3.996   5.916   6.669
  969SOL    HW2 3807   3.966   5.778   6.586
  970SOL     OW 3808   4.436   2.431   5.304
  970SOL    HW1 3809   4.508   2.372   5.341
  970SOL    HW2 3810   4.440   2.520   5.350
  971SOL     OW 3811   0.790   2.531   1.414
  971SOL    HW1 3812   0.801   2.487   1.503
  971SOL    HW2 3813   0.737   2.615   1.423
  972SOL     OW 3814   6.767   6.419   1.436
  972SOL    HW1 3815   6.671   6.403   1.457
  972SOL    HW2 3816   6.799   6.500   1.485
  973SOL     OW 3817   5.730   3.918   5.817
  973SOL    HW1 3818   5.823   3.906   5.781
  973SOL    HW2 3819   5.676   3.972   5.753
  974SOL     OW 3820   3.102   1.498   4.028
  974SOL    HW1 3821   3.126   1.559   4.103
  974SOL    HW2 3822   3.107   1.547   3.942
  975SOL     OW 3823   3.557   6.542   5.344
  975SOL    HW1 3824   3.562   6.472   5.273
  975SOL    HW2 3825   3.461   6.554   5.372
  976SOL     OW 3826   6.913   6.527   3.815
  976SOL    HW1 3827   6.878   6.536   3.909
  976SOL    HW2 3828   6.840   6.548   3.751
  977SOL     OW 3829   1.623   2.499   2.618
  977SOL    HW1 3830   1.576   2.461   2.698
  977SOL    HW2 3831   1.682   2.575   2.648
  978SOL     OW 3832   5.995   3.427   4.786
  978SOL    HW1 3833   5.942   3.353   4.744
  978SOL    HW2 3834   6.053   3.389   4.858
  979SOL     OW 3835   5.664   1.470   3.495
  979SOL    HW1 3836   5.617   1.480   3.408
  979SOL    HW2 3837   5.660   1.556   3.546
  980SOL     OW 3838   6.445   0.990   4.663
  980SOL    HW1 3839   6.377   1.063   4.666
  980SOL    HW2 3840   6.534   1.028   4.637
  981SOL     OW 3841   6.917   3.343   5.437
  981SOL    HW1 3842   6.866   3.394   5.506
  981SOL    HW2 3843   6.913   3.392   5.350
  982SOL     OW 3844   1.593   2.837   1.503
  982SOL    HW1 3845   1.634   2.749   1.481
  982SOL    HW2 3846   1.542   2.830   1.589
  983SOL     OW 3847   5.819   1.523   2.962
  983SOL    HW1 3848   5.852   1.611   2.996
  983SOL    HW2 3849   5.888   1.453   2.979
  984SOL     OW 3850   4.911   1.474   4.537
  984SOL    HW1 3851   4.933   1.386   4.578
  984SOL    HW2 3852   4.882   1.461   4.443
  985SOL     OW 3853   3.143   4.822   0.693
  985SOL    HW1 3854   3.224   4.789   0.741
  985SOL    HW2 3855   3.078   4.860   0.758
  986SOL     OW 3856   3.973   5.246   6.623
  986SOL    HW1 3857   4.007   5.308   6.552
  986SOL    HW2 3858   3.949   5.300   6.704
  987SOL     OW 3859   3.083   6.774   2.052
  987SOL    HW1 3860   3.122   6.758   1.962
  987SOL    HW2 3861   3.101   6.696   2.112
  988SOL     OW 3862   3.544   4.075   2.251
  988SOL    HW1 3863   3.618   4.101   2.312
  988SOL    HW2 3864   3.582   4.032   2.169
  989SOL     OW 3865   1.008   0.140   4.759
  989SOL    HW1 3866   0.966   0.226   4.730
  989SOL    HW2 3867   1.063   0.103   4.685
  990SOL     OW 3868   4.781   6.273   3.651
  990SOL    HW1 3869   4.842   6.344   3.685
  990SOL    HW2 3870   4.764   6.206   3.724
  991SOL     OW 3871   6.516   1.120   5.325
  991SOL    HW1 3872   6.481   1.190   5.388
  991SOL    HW2 3873   6.587   1.066   5.370
  992SOL     OW 3874   0.084   3.128   0.880
  992SOL    HW1 3875   0.177   3.164   0.865
  992SOL    HW2 3876   0.077   3.093   0.973
  993SOL     OW 3877   3.333   5.217   3.982
  993SOL    HW1 3878   3.304   5.127   3.952
  993SOL    HW2 3879   3.362   5.271   3.903
  994SOL     OW 3880   3.257   4.083   2.249
  994SOL    HW1 3881   3.208   4.086   2.162
  994SOL    HW2 3882   3.355   4.089   2.233
  995SOL     OW 3883   0.343   0.850   4.898
  995SOL    HW1 3884   0.335   0.911   4.977
  995SOL    HW2 3885   0.271   0.870   4.832
  996SOL     OW 3886   1.130   3.794   1.921
  996SOL    HW1 3887   1.087   3.844   1.846
  996SOL    HW2 3888   1.144   3.856   1.998
  997SOL     OW 3889   0.177   1.382   1.368
  997SOL    HW1 3890   0.233   1.465   1.371
  997SOL    HW2 3891   0.121   1.383   1.285
  998SOL     OW 3892   4.744   0.231   3.248
  998SOL    HW1 3893   4.672   0.162   3.242
  998SOL    HW2 3894   4.718   0.301   3.314
  999SOL     OW 3895   0.030   5.575   1.595
  999SOL    HW1 3896   0.047   5.670   1.621
  999SOL    HW2 3897   0.061   5.559   1.502
 1000SOL     OW 3898   4.118   2.138   4.219
 1000SOL    HW1 3899   4.210   2.164   4.191
 1000SOL    HW2 3900   4.062   2.122   4.137
 1001SOL     OW 3901   4.479   0.084   5.646
 1001SOL    HW1 3902   4.392   0.035   5.648
 1001SOL    HW2 3903   4.462   0.182   5.653
 1002SOL     OW 3904   6.828   1.645   0.431
 1002SOL    HW1 3905   6.845   1.568   0.492
 1002SOL    HW2 3906   6.902   1.711   0.440
 1003SOL     OW 3907   4.388   4.867   2.748
 1003SOL    HW1 3908   4.348   4.818   2.671
 1003SOL    HW2 3909   4.443   4.805   2.803
 1004SOL     OW 3910   5.712   5.571   0.477
 1004SOL    HW1 3911   5.807   5.554   0.505
 1004SOL    HW2 3912   5.691   5.668   0.492
 1005SOL     OW 3913   6.567   6.293   3.572
 1005SOL    HW1 3914   6.580   6.257   3.479
 1005SOL    HW2 3915   6.470   6.297   3.593
 1006SOL     OW 3916   2.293   4.304   0.954
 1006SOL    HW1 3917   2.249   4.236   0.896
 1006SOL    HW2 3918   2.365   4.261   1.009
 1007SOL     OW 3919   1.047   0.415   3.709
 1007SOL    HW1 3920   1.097   0.402   3.623
 1007SOL    HW2 3921   1.028   0.512   3.722
 1008SOL     OW 3922   2.392   2.669   3.521
 1008SOL    HW1 3923   2.410   2.594   3.585
 1008SOL    HW2 3924   2.432   2.647   3.432
 1009SOL     OW 3925   1.462   5.660   4.970
 1009SOL    HW1 3926   1.526   5.619   4.905
 1009SOL    HW2 3927   1.458   5.603   5.053
 1010SOL     OW 3928   4.700   1.331   6.633
 1010SOL    HW1 3929   4.636   1.276   6.581
 1010SOL    HW2 3930   4.794   1.300   6.614
 1011SOL     OW 3931   3.447   5.620   3.544
 1011SOL    HW1 3932   3.451   5.708   3.498
 1011SOL    HW2 3933   3.451   5.633   3.643
 1012SOL     OW 3934   4.715   5.739   0.046
 1012SOL    HW1 3935   4.814   5.756   0.052
 1012SOL    HW2 3936   4.700   5.651   0.000
 1013SOL     OW 3937   0.473   1.796   1.354
 1013SOL    HW1 3938   0.403   1.837   1.295
 1013SOL    HW2 3939   0.563   1.810   1.311
 1014SOL     OW 3940   5.175   0.583   6.456
 1014SOL    HW1 3941   5.231   0.530   6.519
 1014SOL    HW2 3942   5.091   0.534   6.436
 1015SOL     OW 3943   3.056   5.945   4.104
 1015SOL    HW1 3944   3.026   5.889   4.181
 1015SOL    HW2 3945   2.994   6.023   4.093
 1016SOL     OW 3946   4.577   2.531   1.399
 1016SOL    HW1 3947   4.492   2.533   1.348
 1016SOL    HW2 3948   4.654   2.545   1.336
 1017SOL     OW 3949   4.576   1.942   7.005
 1017SOL    HW1 3950   4.613   1.849   7.009
 1017SOL    HW2 3951   4.478   1.940   0.001
 1018SOL     OW 3952   1.844   3.171   2.016
 1018SOL    HW1 3953   1.849   3.181   1.917
 1018SOL    HW2 3954   1.761   3.214   2.050
 1019SOL     OW 3955   6.339   0.682   0.389
 1019SOL    HW1 3956   6.274   0.699   0.464
 1019SOL    HW2 3957   6.307   0.728   0.306
 1020SOL     OW 3958   2.818   1.822   1.247
 1020SOL    HW1 3959   2.914   1.836   1.224
 1020SOL    HW2 3960   2.797   1.724   1.248
 1021SOL     OW 3961   6.431   1.736   1.104
 1021SOL    HW1 3962   6.500   1.756   1.174
 1021SOL    HW2 3963   6.474   1.738   1.014
 1022SOL     OW 3964   4.231   2.784   6.547
 1022SOL    HW1 3965   4.192   2.875   6.563
 1022SOL    HW2 3966   4.316   2.793   6.494
 1023SOL     OW 3967   5.422   1.156   4.109
 1023SOL    HW1 3968   5.330   1.117   4.117
 1023SOL    HW2 3969   5.423   1.226   4.039
 1024SOL     OW 3970   5.953   1.708   3.755
 1024SOL    HW1 3971   5.864   1.699   3.710
 1024SOL    HW2 3972   6.009   1.628   3.734
 1025SOL     OW 3973   2.938   4.038   1.188
 1025SOL    HW1 3974   2.875   4.116   1.186
 1025SOL    HW2 3975   2.939   3.994   1.098
 1026SOL     OW 3976   1.118   2.921   6.532
 1026SOL    HW1 3977   1.127   2.844   6.468
 1026SOL    HW2 3978   1.208   2.941   6.572
 1027SOL     OW 3979   2.380   5.443   2.154
 1027SOL    HW1 3980   2.467   5.394   2.152
 1027SOL    HW2 3981   2.304   5.378   2.155
 1028SOL     OW 3982   1.860   5.710   0.774
 1028SOL    HW1 3983   1.836   5.762   0.692
 1028SOL    HW2 3984   1.952   5.671   0.763
 1029SOL     OW 3985   3.401   0.316   5.635
 1029SOL    HW1 3986   3.376   0.294   5.729
 1029SOL    HW2 3987   3.395   0.415   5.620
 1030SOL     OW 3988   3.471   4.145   4.858
 1030SOL    HW1 3989   3.406   4.140   4.934
 1030SOL    HW2 3990   3.558   4.182   4.891
 1031SOL     OW 3991   2.355   5.374   1.442
 1031SOL    HW1 3992   2.358   5.279   1.474
 1031SOL    HW2 3993   2.422   5.387   1.369
 1032SOL     OW 3994   2.267   0.644   4.380
 1032SOL    HW1 3995   2.227   0.596   4.458
 1032SOL    HW2 3996   2.275   0.742   4.402
 1033SOL     OW 3997   1.933   6.204   3.062
 1033SOL    HW1 3998   2.023   6.215   3.020
 1033SOL    HW2 3999   1.921   6.108   3.089
 1034SOL     OW 4000   1.370   6.039   2.818
 1034SOL    HW1 4001   1.422   5.962   2.782
 1034SOL    HW2 4002   1.362   6.030   2.917
 1035SOL     OW 4003   2.928   1.111   4.292
 1035SOL    HW1 4004   2.998   1.156   4.236
 1035SOL    HW2 4005   2.903   1.024   4.249
 1036SOL     OW 4006   4.341   0.691   6.931
 1036SOL    HW1 4007   4.315   0.669   6.837
 1036SOL    HW2 4008   4.408   0.765   6.930
 1037SOL     OW 4009   3.047   1.814   6.373
 1037SOL    HW1 4010   3.082   1.762   6.451
 1037SOL    HW2 4011   3.112   1.886   6.348
 1038SOL     OW 4012   2.511   1.103   4.533
 1038SOL    HW1 4013   2.471   1.189   4.501
 1038SOL    HW2 4014   2.611   1.110   4.530
 1039SOL     OW 4015   4.152   1.352   3.612
 1039SOL    HW1 4016   4.244   1.375   3.579
 1039SOL    HW2 4017   4.123   1.265   3.571
 1040SOL     OW 4018   6.411   3.787   3.700
 1040SOL    HW1 4019   6.448   3.758   3.788
 1040SOL    HW2 4020   6.479   3.843   3.652
 1041SOL     OW 4021   0.784   6.851   4.687
 1041SOL    HW1 4022   0.859   6.824   4.748
 1041SOL    HW2 4023   0.714   6.780   4.686
 1042SOL     OW 4024   5.243   3.952   0.959
 1042SOL    HW1 4025   5.144   3.942   0.961
 1042SOL    HW2 4026   5.283   3.879   0.904
 1043SOL     OW 4027   3.381   0.866   6.559
 1043SOL    HW1 4028   3.291   0.823   6.572
 1043SOL    HW2 4029   3.435   0.853   6.642
 1044SOL     OW 4030   3.814   3.753   1.697
 1044SOL    HW1 4031   3.890   3.819   1.699
 1044SOL    HW2 4032   3.801   3.715   1.788
 1045SOL     OW 4033   3.712   1.464   3.342
 1045SOL    HW1 4034   3.811   1.477   3.349
 1045SOL    HW2 4035   3.667   1.554   3.334
 1046SOL     OW 4036   3.896   1.021   1.865
 1046SOL    HW1 4037   3.988   1.058   1.857
 1046SOL    HW2 4038   3.837   1.088   1.910
 1047SOL     OW 4039   0.553   5.126   1.882
 1047SOL    HW1 4040   0.458   5.098   1.869
 1047SOL    HW2 4041   0.610   5.084   1.811
 1048SOL     OW 4042   6.533   4.469   5.086
 1048SOL    HW1 4043   6.542   4.370   5.093
 1048SOL    HW2 4044   6.436   4.494   5.082
 1049SOL     OW 4045   0.971   3.143   5.093
 1049SOL    HW1 4046   1.038   3.092   5.038
 1049SOL    HW2 4047   1.008   3.234   5.114
 1050SOL     OW 4048   3.382   0.739   6.883
 1050SOL    HW1 4049   3.301   0.681   6.887
 1050SOL    HW2 4050   3.383   0.801   6.962
 1051SOL     OW 4051   4.806   5.274   1.936
 1051SOL    HW1 4052   4.716   5.243   1.906
 1051SOL    HW2 4053   4.818   5.371   1.914
 1052SOL     OW 4054   3.186   6.847   4.233
 1052SOL    HW1 4055   3.226   6.775   4.289
 1052SOL    HW2 4056   3.109   6.810   4.181
 1053SOL     OW 4057   4.196   4.668   3.236
 1053SOL    HW1 4058   4.186   4.570   3.224
 1053SOL    HW2 4059   4.113   4.714   3.204
 1054SOL     OW 4060   3.773   6.329   3.861
 1054SOL    HW1 4061   3.817   6.311   3.773
 1054SOL    HW2 4062   3.829   6.291   3.935
 1055SOL     OW 4063   4.453   5.422   4.564
 1055SOL    HW1 4064   4.468   5.324   4.565
 1055SOL    HW2 4065   4.540   5.470   4.575
 1056SOL     OW 4066   1.348   5.887   5.364
 1056SOL    HW1 4067   1.383   5.812   5.420
 1056SOL    HW2 4068   1.254   5.867   5.337
 1057SOL     OW 4069   3.643   4.249   1.305
 1057SOL    HW1 4070   3.619   4.232   1.401
 1057SOL    HW2 4071   3.560   4.245   1.249
 1058SOL     OW 4072   3.667   0.332   1.372
 1058SOL    HW1 4073   3.629   0.307   1.283
 1058SOL    HW2 4074   3.592   0.343   1.438
 1059SOL     OW 4075   3.192   1.367   1.174
 1059SOL    HW1 4076   3.146   1.420   1.103
 1059SOL    HW2 4077   3.205   1.425   1.255
 1060SOL     OW 4078   2.418   2.217   5.079
 1060SOL    HW1 4079   2.330   2.265   5.077
 1060SOL    HW2 4080   2.411   2.138   5.140
 1061SOL     OW 4081   3.172   6.302   1.430
 1061SOL    HW1 4082   3.240   6.236   1.460
 1061SOL    HW2 4083   3.120   6.335   1.509
 1062SOL     OW 4084   4.961   4.281   5.489
 1062SOL    HW1 4085   4.950   4.361   5.547
 1062SOL    HW2 4086   5.054   4.279   5.452
 1063SOL     OW 4087   2.322   2.502   5.759
 1063SOL    HW1 4088   2.334   2.525   5.856
 1063SOL    HW2 4089   2.401   2.535   5.707
 1064SOL     OW 4090   0.269   3.980   1.525
 1064SOL    HW1 4091   0.331   3.903   1.536
 1064SOL    HW2 4092   0.185   3.949   1.482
 1065SOL     OW 4093   5.358   5.512   5.224
 1065SOL    HW1 4094   5.354   5.607   5.194
 1065SOL    HW2 4095   5.310   5.454   5.158
 1066SOL     OW 4096   3.878   0.220   3.661
 1066SOL    HW1 4097   3.978   0.210   3.666
 1066SOL    HW2 4098   3.847   0.268   3.743
 1067SOL     OW 4099   1.750   3.098   1.507
 1067SOL    HW1 4100   1.685   3.171   1.483
 1067SOL    HW2 4101   1.703   3.010   1.505
 1068SOL     OW 4102   0.776   3.905   0.946
 1068SOL    HW1 4103   0.697   3.898   1.007
 1068SOL    HW2 4104   0.848   3.842   0.976
 1069SOL     OW 4105   3.714   3.949   1.295
 1069SOL    HW1 4106   3.705   4.047   1.314
 1069SOL    HW2 4107   3.810   3.928   1.275
 1070SOL     OW 4108   2.416   0.098   0.329
 1070SOL    HW1 4109   2.384   0.192   0.335
 1070SOL    HW2 4110   2.463   0.083   0.243
 1071SOL     OW 4111   4.534   6.324   3.837
 1071SOL    HW1 4112   4.481   6.246   3.803
 1071SOL    HW2 4113   4.599   6.352   3.767
 1072SOL     OW 4114   3.740   5.713   3.023
 1072SOL    HW1 4115   3.648   5.718   3.062
 1072SOL    HW2 4116   3.755   5.792   2.964
 1073SOL     OW 4117   2.713   5.170   2.753
 1073SOL    HW1 4118   2.768   5.234   2.700
 1073SOL    HW2 4119   2.678   5.216   2.835
 1074SOL     OW 4120   1.404   5.496   2.286
 1074SOL    HW1 4121   1.341   5.533   2.354
 1074SOL    HW2 4122   1.488   5.465   2.331
 1075SOL     OW 4123   0.065   4.168   2.797
 1075SOL    HW1 4124   0.159   4.191   2.771
 1075SOL    HW2 4125   0.050   4.193   2.893
 1076SOL     OW 4126   0.321   4.361   3.412
 1076SOL    HW1 4127   0.340   4.302   3.333
 1076SOL    HW2 4128   0.241   4.418   3.392
 1077SOL     OW 4129   4.743   0.906   0.939
 1077SOL    HW1 4130   4.749   0.814   0.978
 1077SOL    HW2 4131   4.655   0.916   0.892
 1078SOL     OW 4132   0.604   3.125   1.716
 1078SOL    HW1 4133   0.580   3.054   1.782
 1078SOL    HW2 4134   0.574   3.214   1.751
 1079SOL     OW 4135   2.447   5.329   2.531
 1079SOL    HW1 4136   2.486   5.255   2.476
 1079SOL    HW2 4137   2.348   5.318   2.536
 1080SOL     OW 4138   1.313   5.540   4.222
 1080SOL    HW1 4139   1.379   5.508   4.290
 1080SOL    HW2 4140   1.221   5.537   4.261
 1081SOL     OW 4141   1.188   1.275   0.269
 1081SOL    HW1 4142   1.187   1.306   0.174
 1081SOL    HW2 4143   1.273   1.226   0.288
 1082SOL     OW 4144   2.040   6.936   0.020
 1082SOL    HW1 4145   2.021   6.999   6.970
 1082SOL    HW2 4146   1.955   6.909   0.065
 1083SOL     OW 4147   3.915   2.598   1.608
 1083SOL    HW1 4148   3.890   2.505   1.582
 1083SOL    HW2 4149   3.834   2.646   1.642
 1084SOL     OW 4150   6.132   3.515   0.217
 1084SOL    HW1 4151   6.166   3.434   0.264
 1084SOL    HW2 4152   6.033   3.524   0.232
 1085SOL     OW 4153   2.470   4.577   3.363
 1085SOL    HW1 4154   2.407   4.648   3.330
 1085SOL    HW2 4155   2.564   4.613   3.361
 1086SOL     OW 4156   4.240   5.232   1.778
 1086SOL    HW1 4157   4.199   5.258   1.865
 1086SOL    HW2 4158   4.290   5.310   1.740
 1087SOL     OW 4159   3.671   3.283   5.275
 1087SOL    HW1 4160   3.727   3.313   5.198
 1087SOL    HW2 4161   3.578   3.263   5.244
 1088SOL     OW 4162   5.726   4.454   3.226
 1088SOL    HW1 4163   5.662   4.507   3.281
 1088SOL    HW2 4164   5.811   4.506   3.215
 1089SOL     OW 4165   5.938   0.331   3.257
 1089SOL    HW1 4166   6.000   0.346   3.334
 1089SOL    HW2 4167   5.972   0.255   3.201
 1090SOL     OW 4168   1.252   1.907   5.340
 1090SOL    HW1 4169   1.260   1.941   5.434
 1090SOL    HW2 4170   1.293   1.973   5.277
 1091SOL     OW 4171   0.714   2.518   4.922
 1091SOL    HW1 4172   0.620   2.528   4.889
 1091SOL    HW2 4173   0.767   2.598   4.896
 1092SOL     OW 4174   2.053   4.515   1.324
 1092SOL    HW1 4175   2.018   4.605   1.298
 1092SOL    HW2 4176   2.144   4.502   1.285
 1093SOL     OW 4177   0.509   1.770   2.609
 1093SOL    HW1 4178   0.497   1.862   2.571
 1093SOL    HW2 4179   0.421   1.735   2.640
 1094SOL     OW 4180   0.647   6.256   2.094
 1094SOL    HW1 4181   0.699   6.172   2.081
 1094SOL    HW2 4182   0.685   6.328   2.034
 1095SOL     OW 4183   5.681   3.424   6.056
 1095SOL    HW1 4184   5.664   3.473   5.971
 1095SOL    HW2 4185   5.627   3.465   6.130
 1096SOL     OW 4186   3.837   4.429   1.408
 1096SOL    HW1 4187   3.787   4.345   1.383
 1096SOL    HW2 4188   3.901   4.409   1.482
 1097SOL     OW 4189   2.003   4.607   5.300
 1097SOL    HW1 4190   1.927   4.571   5.245
 1097SOL    HW2 4191   1.994   4.574   5.394
 1098SOL     OW 4192   4.060   1.014   3.129
 1098SOL    HW1 4193   4.142   0.974   3.170
 1098SOL    HW2 4194   4.033   0.961   3.048
 1099SOL     OW 4195   3.779   1.786   2.465
 1099SOL    HW1 4196   3.732   1.699   2.448
 1099SOL    HW2 4197   3.833   1.810   2.384
 1100SOL     OW 4198   0.558   0.528   0.806
 1100SOL    HW1 4199   0.646   0.572   0.821
 1100SOL    HW2 4200   0.499   0.590   0.753
 1101SOL     OW 4201   5.911   2.613   1.124
 1101SOL    HW1 4202   5.952   2.704   1.117
 1101SOL    HW2 4203   5.903   2.573   1.032
 1102SOL     OW 4204   0.440   4.564   3.972
 1102SOL    HW1 4205   0.404   4.607   4.055
 1102SOL    HW2 4206   0.501   4.489   3.997
 1103SOL     OW 4207   0.433   3.364   1.304
 1103SOL    HW1 4208   0.483   3.382   1.219
 1103SOL    HW2 4209   0.494   3.320   1.370
 1104SOL     OW 4210   2.860   5.172   5.778
 1104SOL    HW1 4211   2.784   5.167   5.713
 1104SOL    HW2 4212   2.945   5.147   5.733
 1105SOL     OW 4213   4.350   5.574   0.597
 1105SOL    HW1 4214   4.332   5.599   0.503
 1105SOL    HW2 4215   4.382   5.479   0.601
 1106SOL     OW 4216   1.572   1.251   5.597
 1106SOL    HW1 4217   1.611   1.333   5.554
 1106SOL    HW2 4218   1.556   1.269   5.694
 1107SOL     OW 4219   0.985   0.116   1.855
 1107SOL    HW1 4220   0.892   0.152   1.846
 1107SOL    HW2 4221   0.986   0.019   1.832
 1108SOL     OW 4222   1.707   1.474   5.899
 1108SOL    HW1 4223   1.642   1.398   5.906
 1108SOL    HW2 4224   1.663   1.559   5.928
 1109SOL     OW 4225   4.649   1.217   3.705
 1109SOL    HW1 4226   4.664   1.125   3.742
 1109SOL    HW2 4227   4.714   1.280   3.746
 1110SOL     OW 4228   3.533   2.828   2.172
 1110SOL    HW1 4229   3.551   2.729   2.178
 1110SOL    HW2 4230   3.568   2.862   2.085
 1111SOL     OW 4231   5.650   6.817   6.833
 1111SOL    HW1 4232   5.605   6.747   6.888
 1111SOL    HW2 4233   5.587   6.851   6.763
 1112SOL     OW 4234   0.138   1.268   2.861
 1112SOL    HW1 4235   0.097   1.314   2.940
 1112SOL    HW2 4236   0.236   1.285   2.859
 1113SOL     OW 4237   6.245   3.745   1.778
 1113SOL    HW1 4238   6.190   3.791   1.848
 1113SOL    HW2 4239   6.200   3.661   1.748
 1114SOL     OW 4240   5.955   1.496   5.288
 1114SOL    HW1 4241   5.951   1.564   5.216
 1114SOL    HW2 4242   5.911   1.532   5.371
 1115SOL     OW 4243   3.083   3.614   0.255
 1115SOL    HW1 4244   3.022   3.612   0.335
 1115SOL    HW2 4245   3.094   3.708   0.224
 1116SOL     OW 4246   4.119   5.496   5.603
 1116SOL    HW1 4247   4.148   5.400   5.606
 1116SOL    HW2 4248   4.188   5.553   5.647
 1117SOL     OW 4249   2.324   3.285   0.742
 1117SOL    HW1 4250   2.349   3.323   0.831
 1117SOL    HW2 4251   2.375   3.334   0.671
 1118SOL     OW 4252   1.957   3.371   3.171
 1118SOL    HW1 4253   1.908   3.290   3.140
 1118SOL    HW2 4254   1.943   3.446   3.105
 1119SOL     OW 4255   3.054   3.711   2.485
 1119SOL    HW1 4256   3.076   3.618   2.516
 1119SOL    HW2 4257   3.131   3.750   2.436
 1120SOL     OW 4258   4.676   0.217   4.123
 1120SOL    HW1 4259   4.665   0.130   4.074
 1120SOL    HW2 4260   4.623   0.288   4.077
 1121SOL     OW 4261   5.172   3.231   2.308
 1121SOL    HW1 4262   5.199   3.175   2.229
 1121SOL    HW2 4263   5.134   3.172   2.379
 1122SOL     OW 4264   4.790   5.056   0.127
 1122SOL    HW1 4265   4.710   5.032   0.181
 1122SOL    HW2 4266   4.804   4.988   0.056
 1123SOL     OW 4267   3.785   0.803   1.951
 1123SOL    HW1 4268   3.788   0.737   1.876
 1123SOL    HW2 4269   3.852   0.875   1.935
 1124SOL     OW 4270   0.657   4.710   4.831
 1124SOL    HW1 4271   0.662   4.670   4.739
 1124SOL    HW2 4272   0.603   4.651   4.891
 1125SOL     OW 4273   3.928   3.559   4.805
 1125SOL    HW1 4274   3.997   3.565   4.733
 1125SOL    HW2 4275   3.849   3.616   4.780
 1126SOL     OW 4276   5.679   0.271   2.538
 1126SOL    HW1 4277   5.638   0.279   2.447
 1126SOL    HW2 4278   5.671   0.176   2.570
 1127SOL     OW 4279   1.127   4.991   6.538
 1127SOL    HW1 4280   1.106   4.923   6.468
 1127SOL    HW2 4281   1.162   4.945   6.620
 1128SOL     OW 4282   2.825   1.615   4.534
 1128SOL    HW1 4283   2.796   1.634   4.441
 1128SOL    HW2 4284   2.746   1.593   4.590
 1129SOL     OW 4285   5.436   0.090   7.006
 1129SOL    HW1 4286   5.459   0.187   6.997
 1129SOL    HW2 4287   5.361   0.068   6.943
 1130SOL     OW 4288   0.420   4.714   5.660
 1130SOL    HW1 4289   0.339   4.706   5.717
 1130SOL    HW2 4290   0.444   4.811   5.649
 1131SOL     OW 4291   0.500   4.961   5.664
 1131SOL    HW1 4292   0.587   5.006   5.680
 1131SOL    HW2 4293   0.445   4.964   5.748
 1132SOL     OW 4294   5.070   0.436   5.272
 1132SOL    HW1 4295   5.005   0.376   5.226
 1132SOL    HW2 4296   5.110   0.499   5.205
 1133SOL     OW 4297   0.750   2.517   0.820
 1133SOL    HW1 4298   0.849   2.516   0.806
 1133SOL    HW2 4299   0.723   2.607   0.855
 1134SOL     OW 4300   6.620   2.928   5.893
 1134SOL    HW1 4301   6.642   2.838   5.855
 1134SOL    HW2 4302   6.538   2.964   5.850
 1135SOL     OW 4303   5.271   1.858   3.054
 1135SOL    HW1 4304   5.253   1.895   2.963
 1135SOL    HW2 4305   5.355   1.899   3.090
 1136SOL     OW 4306   3.817   5.396   4.300
 1136SOL    HW1 4307   3.741   5.331   4.308
 1136SOL    HW2 4308   3.883   5.380   4.373
 1137SOL     OW 4309   1.959   1.216   5.553
 1137SOL    HW1 4310   1.951   1.139   5.617
 1137SOL    HW2 4311   2.030   1.195   5.486
 1138SOL     OW 4312   0.614   4.291   5.700
 1138SOL    HW1 4313   0.551   4.363   5.730
 1138SOL    HW2 4314   0.696   4.334   5.661
 1139SOL     OW 4315   1.239   6.365   1.073
 1139SOL    HW1 4316   1.149   6.343   1.110
 1139SOL    HW2 4317   1.243   6.340   0.977
 1140SOL     OW 4318   3.835   1.542   3.700
 1140SOL    HW1 4319   3.809   1.463   3.644
 1140SOL    HW2 4320   3.911   1.517   3.759
 1141SOL     OW 4321   6.631   6.251   5.978
 1141SOL    HW1 4322   6.705   6.243   6.045
 1141SOL    HW2 4323   6.552   6.296   6.020
 1142SOL     OW 4324   5.785   0.760   4.237
 1142SOL    HW1 4325   5.850   0.761   4.160
 1142SOL    HW2 4326   5.696   0.793   4.206
 1143SOL     OW 4327   4.079   2.202   2.462
 1143SOL    HW1 4328   4.091   2.109   2.497
 1143SOL    HW2 4329   3.990   2.209   2.416
 1144SOL     OW 4330   1.397   6.581   5.702
 1144SOL    HW1 4331   1.450   6.626   5.631
 1144SOL    HW2 4332   1.375   6.488   5.673
 1145SOL     OW 4333   1.478   5.076   5.025
 1145SOL    HW1 4334   1.576   5.057   5.020
 1145SOL    HW2 4335   1.452   5.089   5.121
 1146SOL     OW 4336   6.000   2.218   0.710
 1146SOL    HW1 4337   6.002   2.119   0.725
 1146SOL    HW2 4338   5.939   2.239   0.634
 1147SOL     OW 4339   5.833   2.687   1.755
 1147SOL    HW1 4340   5.834   2.786   1.748
 1147SOL    HW2 4341   5.777   2.648   1.682
 1148SOL     OW 4342   4.193   0.498   0.319
 1148SOL    HW1 4343   4.094   0.504   0.308
 1148SOL    HW2 4344   4.230   0.431   0.255
 1149SOL     OW 4345   6.802   2.961   2.719
 1149SOL    HW1 4346   6.709   2.985   2.748
 1149SOL    HW2 4347   6.863   3.039   2.737
 1150SOL     OW 4348   0.943   4.841   5.594
 1150SOL    HW1 4349   0.958   4.773   5.665
 1150SOL    HW2 4350   1.029   4.858   5.545
 1151SOL     OW 4351   4.371   5.926   6.913
 1151SOL    HW1 4352   4.434   5.862   6.869
 1151SOL    HW2 4353   4.421   5.982   6.979
 1152SOL     OW 4354   0.596   0.778   4.932
 1152SOL    HW1 4355   0.504   0.808   4.907
 1152SOL    HW2 4356   0.657   0.858   4.936
 1153SOL     OW 4357   2.043   5.282   1.891
 1153SOL    HW1 4358   2.133   5.297   1.849
 1153SOL    HW2 4359   2.052   5.282   1.990
 1154SOL     OW 4360   2.121   4.324   1.713
 1154SOL    HW1 4361   2.023   4.320   1.736
 1154SOL    HW2 4362   2.175   4.314   1.797
 1155SOL     OW 4363   3.220   5.487   2.076
 1155SOL    HW1 4364   3.260   5.571   2.036
 1155SOL    HW2 4365   3.125   5.505   2.101
 1156SOL     OW 4366   1.746   1.223   4.067
 1156SOL    HW1 4367   1.837   1.224   4.108
 1156SOL    HW2 4368   1.729   1.133   4.025
 1157SOL     OW 4369   0.997   2.603   4.316
 1157SOL    HW1 4370   1.086   2.643   4.339
 1157SOL    HW2 4371   0.927   2.641   4.376
 1158SOL     OW 4372   4.686   5.307   5.704
 1158SOL    HW1 4373   4.694   5.397   5.747
 1158SOL    HW2 4374   4.658   5.319   5.608
 1159SOL     OW 4375   5.082   5.492   3.492
 1159SOL    HW1 4376   5.181   5.498   3.485
 1159SOL    HW2 4377   5.057   5.451   3.580
 1160SOL     OW 4378   2.253   2.648   0.402
 1160SOL    HW1 4379   2.312   2.719   0.441
 1160SOL    HW2 4380   2.217   2.679   0.314
 1161SOL     OW 4381   4.021   6.986   4.280
 1161SOL    HW1 4382   4.025   6.901   4.333
 1161SOL    HW2 4383   4.067   6.972   4.193
 1162SOL     OW 4384   3.890   4.647   1.734
 1162SOL    HW1 4385   3.921   4.713   1.802
 1162SOL    HW2 4386   3.965   4.585   1.710
 1163SOL     OW 4387   4.783   2.017   2.328
 1163SOL    HW1 4388   4.683   2.010   2.327
 1163SOL    HW2 4389   4.823   1.926   2.331
 1164SOL     OW 4390   5.625   3.719   3.922
 1164SOL    HW1 4391   5.649   3.810   3.955
 1164SOL    HW2 4392   5.542   3.724   3.867
 1165SOL     OW 4393   1.524   4.448   2.302
 1165SOL    HW1 4394   1.595   4.404   2.357
 1165SOL    HW2 4395   1.438   4.447   2.353
 1166SOL     OW 4396   3.735   3.069   6.614
 1166SOL    HW1 4397   3.766   3.029   6.700
 1166SOL    HW2 4398   3.769   3.014   6.538
 1167SOL     OW 4399   4.772   1.823   4.633
 1167SOL    HW1 4400   4.848   1.815   4.697
 1167SOL    HW2 4401   4.709   1.894   4.665
 1168SOL     OW 4402   6.288   6.351   3.601
 1168SOL    HW1 4403   6.252   6.343   3.508
 1168SOL    HW2 4404   6.224   6.309   3.665
 1169SOL     OW 4405   0.638   3.893   1.449
 1169SOL    HW1 4406   0.651   3.978   1.397
 1169SOL    HW2 4407   0.699   3.893   1.529
 1170SOL     OW 4408   2.697   0.663   0.624
 1170SOL    HW1 4409   2.684   0.718   0.707
 1170SOL    HW2 4410   2.619   0.676   0.563
 1171SOL     OW 4411   2.368   6.836   0.520
 1171SOL    HW1 4412   2.384   6.788   0.606
 1171SOL    HW2 4413   2.407   6.928   0.525
 1172SOL     OW 4414   2.967   3.243   4.780
 1172SOL    HW1 4415   2.986   3.176   4.852
 1172SOL    HW2 4416   2.982   3.201   4.690
 1173SOL     OW 4417   5.217   0.479   6.184
 1173SOL    HW1 4418   5.202   0.383   6.161
 1173SOL    HW2 4419   5.270   0.485   6.268
 1174SOL     OW 4420   3.427   6.733   0.714
 1174SOL    HW1 4421   3.424   6.818   0.767
 1174SOL    HW2 4422   3.490   6.744   0.637
 1175SOL     OW 4423   6.645   5.252   4.784
 1175SOL    HW1 4424   6.612   5.247   4.878
 1175SOL    HW2 4425   6.677   5.162   4.754
 1176SOL     OW 4426   6.668   3.698   0.983
 1176SOL    HW1 4427   6.765   3.699   1.008
 1176SOL    HW2 4428   6.660   3.699   0.884
 1177SOL     OW 4429   6.181   3.352   6.871
 1177SOL    HW1 4430   6.145   3.352   6.778
 1177SOL    HW2 4431   6.170   3.261   6.911
 1178SOL     OW 4432   5.349   4.102   1.831
 1178SOL    HW1 4433   5.253   4.085   1.852
 1178SOL    HW2 4434   5.376   4.193   1.864
 1179SOL     OW 4435   2.494   5.766   6.138
 1179SOL    HW1 4436   2.476   5.736   6.044
 1179SOL    HW2 4437   2.583   5.812   6.142
 1180SOL     OW 4438   2.769   1.670   3.934
 1180SOL    HW1 4439   2.703   1.626   3.994
 1180SOL    HW2 4440   2.722   1.732   3.870
 1181SOL     OW 4441   2.066   4.434   3.107
 1181SOL    HW1 4442   2.122   4.364   3.062
 1181SOL    HW2 4443   2.103   4.454   3.198
 1182SOL     OW 4444   1.071   4.324   3.074
 1182SOL    HW1 4445   1.019   4.409   3.076
 1182SOL    HW2 4446   1.159   4.340   3.029
 1183SOL     OW 4447   4.623   5.620   0.655
 1183SOL    HW1 4448   4.525   5.607   0.642
 1183SOL    HW2 4449   4.660   5.547   0.712
 1184SOL     OW 4450   3.178   2.787   5.399
 1184SOL    HW1 4451   3.146   2.694   5.386
 1184SOL    HW2 4452   3.136   2.826   5.481
 1185SOL     OW 4453   2.270   1.790   0.199
 1185SOL    HW1 4454   2.243   1.707   0.151
 1185SOL    HW2 4455   2.335   1.767   0.272
 1186SOL     OW 4456   4.424   0.810   4.988
 1186SOL    HW1 4457   4.510   0.780   5.029
 1186SOL    HW2 4458   4.348   0.786   5.048
 1187SOL     OW 4459   0.428   0.935   5.737
 1187SOL    HW1 4460   0.528   0.936   5.746
 1187SOL    HW2 4461   0.397   1.024   5.703
 1188SOL     OW 4462   1.554   6.682   5.518
 1188SOL    HW1 4463   1.589   6.773   5.543
 1188SOL    HW2 4464   1.588   6.657   5.428
 1189SOL     OW 4465   6.849   1.028   1.443
 1189SOL    HW1 4466   6.856   0.996   1.348
 1189SOL    HW2 4467   6.798   0.960   1.497
 1190SOL     OW 4468   4.138   4.676   2.874
 1190SOL    HW1 4469   4.114   4.758   2.926
 1190SOL    HW2 4470   4.110   4.688   2.779
 1191SOL     OW 4471   3.277   4.866   0.345
 1191SOL    HW1 4472   3.177   4.867   0.340
 1191SOL    HW2 4473   3.305   4.896   0.436
 1192SOL     OW 4474   4.482   5.308   2.390
 1192SOL    HW1 4475   4.486   5.336   2.294
 1192SOL    HW2 4476   4.568   5.332   2.435
 1193SOL     OW 4477   3.943   6.794   3.882
 1193SOL    HW1 4478   3.939   6.882   3.930
 1193SOL    HW2 4479   3.961   6.721   3.948
 1194SOL     OW 4480   6.239   0.604   1.488
 1194SOL    HW1 4481   6.264   0.591   1.392
 1194SOL    HW2 4482   6.141   0.625   1.494
 1195SOL     OW 4483   3.797   6.958   6.850
 1195SOL    HW1 4484   3.712   6.908   6.867
 1195SOL    HW2 4485   3.777   0.016   6.798
 1196SOL     OW 4486   0.431   5.451   2.956
 1196SOL    HW1 4487   0.336   5.450   2.988
 1196SOL    HW2 4488   0.436   5.405   2.867
 1197SOL     OW 4489   3.188   5.308   6.457
 1197SOL    HW1 4490   3.182   5.245   6.534
 1197SOL    HW2 4491   3.281   5.345   6.451
 1198SOL     OW 4492   3.378   1.649   2.719
 1198SOL    HW1 4493   3.314   1.685   2.788
 1198SOL    HW2 4494   3.466   1.695   2.729
 1199SOL     OW 4495   3.236   4.116   3.432
 1199SOL    HW1 4496   3.208   4.034   3.481
 1199SOL    HW2 4497   3.245   4.192   3.496
 1200SOL     OW 4498   3.946   3.480   0.521
 1200SOL    HW1 4499   3.968   3.571   0.486
 1200SOL    HW2 4500   3.848   3.462   0.509
 1201SOL     OW 4501   1.637   0.774   4.562
 1201SOL    HW1 4502   1.635   0.782   4.462
 1201SOL    HW2 4503   1.722   0.812   4.597
 1202SOL     OW 4504   5.900   0.456   5.345
 1202SOL    HW1 4505   5.883   0.390   5.271
 1202SOL    HW2 4506   5.916   0.547   5.306
 1203SOL     OW 4507   6.218   6.609   1.876
 1203SOL    HW1 4508   6.292   6.558   1.832
 1203SOL    HW2 4509   6.207   6.697   1.829
 1204SOL     OW 4510   2.876   6.634   6.806
 1204SOL    HW1 4511   2.779   6.610   6.807
 1204SOL    HW2 4512   2.926   6.568   6.863
 1205SOL     OW 4513   0.603   2.086   5.283
 1205SOL    HW1 4514   0.634   2.119   5.194
 1205SOL    HW2 4515   0.527   2.022   5.271
 1206SOL     OW 4516   0.341   1.876   4.558
 1206SOL    HW1 4517   0.322   1.886   4.461
 1206SOL    HW2 4518   0.440   1.878   4.573
 1207SOL     OW 4519   5.933   6.002   6.448
 1207SOL    HW1 4520   5.858   5.936   6.459
 1207SOL    HW2 4521   5.929   6.069   6.521
 1208SOL     OW 4522   3.742   3.967   3.738
 1208SOL    HW1 4523   3.813   3.974   3.667
 1208SOL    HW2 4524   3.666   3.914   3.703
 1209SOL     OW 4525   6.541   4.054   5.209
 1209SOL    HW1 4526   6.523   3.977   5.147
 1209SOL    HW2 4527   6.575   4.018   5.296
 1210SOL     OW 4528   2.956   6.572   2.774
 1210SOL    HW1 4529   2.893   6.589   2.850
 1210SOL    HW2 4530   2.979   6.658   2.729
 1211SOL     OW 4531   1.565   3.346   3.586
 1211SOL    HW1 4532   1.507   3.394   3.651
 1211SOL    HW2 4533   1.571   3.398   3.501
 1212SOL     OW 4534   2.181   4.340   4.636
 1212SOL    HW1 4535   2.109   4.409   4.632
 1212SOL    HW2 4536   2.228   4.346   4.724
 1213SOL     OW 4537   6.129   2.713   5.481
 1213SOL    HW1 4538   6.093   2.794   5.528
 1213SOL    HW2 4539   6.056   2.670   5.427
 1214SOL     OW 4540   1.524   2.879   2.608
 1214SOL    HW1 4541   1.475   2.948   2.662
 1214SOL    HW2 4542   1.461   2.805   2.585
 1215SOL     OW 4543   0.083   5.341   1.926
 1215SOL    HW1 4544   0.059   5.438   1.934
 1215SOL    HW2 4545   0.171   5.325   1.970
 1216SOL     OW 4546   3.234   0.482   1.788
 1216SOL    HW1 4547   3.166   0.458   1.857
 1216SOL    HW2 4548   3.256   0.402   1.734
 1217SOL     OW 4549   1.616   1.680   2.728
 1217SOL    HW1 4550   1.621   1.718   2.636
 1217SOL    HW2 4551   1.584   1.586   2.724
 1218SOL     OW 4552   0.619   3.593   3.657
 1218SOL    HW1 4553   0.610   3.493   3.648
 1218SOL    HW2 4554   0.706   3.613   3.702
 1219SOL     OW 4555   2.606   6.117   3.654
 1219SOL    HW1 4556   2.519   6.072   3.673
 1219SOL    HW2 4557   2.672   6.049   3.622
 1220SOL     OW 4558   6.291   4.136   2.785
 1220SOL    HW1 4559   6.330   4.212   2.837
 1220SOL    HW2 4560   6.289   4.160   2.688
 1221SOL     OW 4561   4.946   3.674   6.710
 1221SOL    HW1 4562   5.010   3.625   6.650
 1221SOL    HW2 4563   4.927   3.618   6.791
 1222SOL     OW 4564   5.166   5.513   1.180
 1222SOL    HW1 4565   5.253   5.557   1.201
 1222SOL    HW2 4566   5.163   5.490   1.082
 1223SOL     OW 4567   5.751   4.645   4.657
 1223SOL    HW1 4568   5.671   4.597   4.621
 1223SOL    HW2 4569   5.763   4.624   4.754
 1224SOL     OW 4570   4.509   5.469   2.125
 1224SOL    HW1 4571   4.467   5.553   2.158
 1224SOL    HW2 4572   4.604   5.487   2.100
 1225SOL     OW 4573   4.374   1.232   0.560
 1225SOL    HW1 4574   4.389   1.259   0.465
 1225SOL    HW2 4575   4.461   1.202   0.599
 1226SOL     OW 4576   5.272   5.023   0.529
 1226SOL    HW1 4577   5.314   4.945   0.575
 1226SOL    HW2 4578   5.176   5.003   0.511
 1227SOL     OW 4579   5.086   4.718   6.955
 1227SOL    HW1 4580   5.154   4.773   6.905
 1227SOL    HW2 4581   4.996   4.760   6.947
 1228SOL     OW 4582   4.061   3.833   4.261
 1228SOL    HW1 4583   4.095   3.771   4.191
 1228SOL    HW2 4584   3.991   3.892   4.221
 1229SOL     OW 4585   2.205   5.581   2.657
 1229SOL    HW1 4586   2.196   5.483   2.672
 1229SOL    HW2 4587   2.225   5.599   2.561
 1230SOL     OW 4588   5.663   4.899   1.947
 1230SOL    HW1 4589   5.669   4.803   1.920
 1230SOL    HW2 4590   5.689   4.957   1.870
 1231SOL     OW 4591   2.132   1.951   6.876
 1231SOL    HW1 4592   2.092   2.041   6.859
 1231SOL    HW2 4593   2.229   1.953   6.851
 1232SOL     OW 4594   3.168   1.082   4.992
 1232SOL    HW1 4595   3.246   1.130   5.031
 1232SOL    HW2 4596   3.137   1.130   4.909
 1233SOL     OW 4597   0.054   5.811   4.920
 1233SOL    HW1 4598   0.083   5.829   5.014
 1233SOL    HW2 4599   7.004   5.873   4.896
 1234SOL     OW 4600   6.239   3.755   6.761
 1234SOL    HW1 4601   6.226   3.752   6.860
 1234SOL    HW2 4602   6.272   3.845   6.734
 1235SOL     OW 4603   6.350   5.168   1.200
 1235SOL    HW1 4604   6.336   5.157   1.299
 1235SOL    HW2 4605   6.445   5.143   1.178
 1236SOL     OW 4606   1.465   1.674   2.381
 1236SOL    HW1 4607   1.372   1.694   2.412
 1236SOL    HW2 4608   1.498   1.591   2.427
 1237SOL     OW 4609   1.020   6.872   4.842
 1237SOL    HW1 4610   1.115   6.849   4.865
 1237SOL    HW2 4611   1.013   6.971   4.826
 1238SOL     OW 4612   0.742   0.740   4.488
 1238SOL    HW1 4613   0.824   0.727   4.545
 1238SOL    HW2 4614   0.750   0.826   4.437
 1239SOL     OW 4615   4.981   4.597   3.659
 1239SOL    HW1 4616   4.925   4.678   3.641
 1239SOL    HW2 4617   5.029   4.571   3.575
 1240SOL     OW 4618   0.817   3.657   2.088
 1240SOL    HW1 4619   0.889   3.606   2.040
 1240SOL    HW2 4620   0.852   3.688   2.177
 1241SOL     OW 4621   3.919   5.723   5.644
 1241SOL    HW1 4622   4.013   5.754   5.656
 1241SOL    HW2 4623   3.894   5.729   5.547
 1242SOL     OW 4624   2.287   4.458   1.177
 1242SOL    HW1 4625   2.312   4.551   1.152
 1242SOL    HW2 4626   2.293   4.399   1.097
 1243SOL     OW 4627   0.875   3.718   3.752
 1243SOL    HW1 4628   0.922   3.635   3.783
 1243SOL    HW2 4629   0.897   3.735   3.656
 1244SOL     OW 4630   6.533   0.111   5.816
 1244SOL    HW1 4631   6.476   0.030   5.800
 1244SOL    HW2 4632   6.541   0.163   5.731
 1245SOL     OW 4633   4.573   6.317   1.188
 1245SOL    HW1 4634   4.526   6.378   1.252
 1245SOL    HW2 4635   4.672   6.330   1.195
 1246SOL     OW 4636   5.208   1.008   0.888
 1246SOL    HW1 4637   5.263   0.975   0.965
 1246SOL    HW2 4638   5.154   0.933   0.850
 1247SOL     OW 4639   6.761   0.432   3.593
 1247SOL    HW1 4640   6.782   0.343   3.634
 1247SOL    HW2 4641   6.837   0.461   3.534
 1248SOL     OW 4642   1.052   6.701   4.453
 1248SOL    HW1 4643   1.018   6.793   4.469
 1248SOL    HW2 4644   1.100   6.669   4.535
 1249SOL     OW 4645   6.101   5.633   6.413
 1249SOL    HW1 4646   6.021   5.690   6.429
 1249SOL    HW2 4647   6.157   5.629   6.496
 1250SOL     OW 4648   0.467   3.065   5.048
 1250SOL    HW1 4649   0.538   3.018   4.995
 1250SOL    HW2 4650   0.476   3.164   5.037
 1251SOL     OW 4651   2.746   0.775   2.548
 1251SOL    HW1 4652   2.733   0.874   2.544
 1251SOL    HW2 4653   2.665   0.733   2.590
 1252SOL     OW 4654   1.948   5.878   6.377
 1252SOL    HW1 4655   2.004   5.798   6.397
 1252SOL    HW2 4656   1.944   5.892   6.278
 1253SOL     OW 4657   3.550   6.770   6.802
 1253SOL    HW1 4658   3.510   6.687   6.765
 1253SOL    HW2 4659   3.479   6.826   6.844
 1254SOL     OW 4660   5.738   0.726   3.153
 1254SOL    HW1 4661   5.784   0.744   3.240
 1254SOL    HW2 4662   5.767   0.794   3.086
 1255SOL     OW 4663   5.759   1.132   5.718
 1255SOL    HW1 4664   5.719   1.080   5.793
 1255SOL    HW2 4665   5.701   1.123   5.637
 1256SOL     OW 4666   7.000   5.641   4.555
 1256SOL    HW1 4667   0.005   5.616   4.647
 1256SOL    HW2 4668   0.056   5.648   4.495
 1257SOL     OW 4669   0.102   6.081   3.299
 1257SOL    HW1 4670   0.101   6.031   3.385
 1257SOL    HW2 4671   0.091   6.179   3.317
 1258SOL     OW 4672   4.330   5.870   6.064
 1258SOL    HW1 4673   4.426   5.867   6.039
 1258SOL    HW2 4674   4.279   5.804   6.009
 1259SOL     OW 4675   5.730   0.334   5.556
 1259SOL    HW1 4676   5.779   0.412   5.516
 1259SOL    HW2 4677   5.658   0.305   5.493
 1260SOL     OW 4678   3.053   1.295   1.501
 1260SOL    HW1 4679   3.139   1.265   1.543
 1260SOL    HW2 4680   3.044   1.394   1.511
 1261SOL     OW 4681   6.865   4.810   4.995
 1261SOL    HW1 4682   6.854   4.823   5.094
 1261SOL    HW2 4683   6.790   4.754   4.961
 1262SOL     OW 4684   4.014   4.940   1.398
 1262SOL    HW1 4685   3.982   4.846   1.399
 1262SOL    HW2 4686   3.978   4.989   1.478
 1263SOL     OW 4687   6.239   2.281   0.858
 1263SOL    HW1 4688   6.197   2.305   0.945
 1263SOL    HW2 4689   6.168   2.261   0.791
 1264SOL     OW 4690   6.528   2.451   4.325
 1264SOL    HW1 4691   6.510   2.495   4.237
 1264SOL    HW2 4692   6.512   2.353   4.317
 1265SOL     OW 4693   6.824   5.860   4.577
 1265SOL    HW1 4694   6.834   5.905   4.665
 1265SOL    HW2 4695   6.858   5.766   4.583
 1266SOL     OW 4696   2.317   1.343   4.562
 1266SOL    HW1 4697   2.218   1.331   4.553
 1266SOL    HW2 4698   2.337   1.389   4.648
 1267SOL     OW 4699   6.322   5.023   2.636
 1267SOL    HW1 4700   6.236   5.071   2.623
 1267SOL    HW2 4701   6.346   5.023   2.733
 1268SOL     OW 4702   5.757   3.344   0.269
 1268SOL    HW1 4703   5.801   3.264   0.311
 1268SOL    HW2 4704   5.757   3.333   0.169
 1269SOL     OW 4705   6.929   5.397   6.162
 1269SOL    HW1 4706   6.935   5.304   6.127
 1269SOL    HW2 4707   7.022   5.435   6.173
 1270SOL     OW 4708   1.577   2.242   5.094
 1270SOL    HW1 4709   1.645   2.224   5.165
 1270SOL    HW2 4710   1.613   2.311   5.031
 1271SOL     OW 4711   4.969   2.242   2.998
 1271SOL    HW1 4712   4.905   2.309   2.960
 1271SOL    HW2 4713   5.055   2.245   2.946
 1272SOL     OW 4714   6.844   6.663   1.611
 1272SOL    HW1 4715   6.924   6.719   1.630
 1272SOL    HW2 4716   6.780   6.669   1.688
 1273SOL     OW 4717   2.542   6.418   6.657
 1273SOL    HW1 4718   2.550   6.449   6.752
 1273SOL    HW2 4719   2.445   6.413   6.632
 1274SOL     OW 4720   6.174   2.683   1.464
 1274SOL    HW1 4721   6.195   2.746   1.539
 1274SOL    HW2 4722   6.227   2.599   1.474
 1275SOL     OW 4723   4.032   1.906   3.901
 1275SOL    HW1 4724   4.031   1.927   3.803
 1275SOL    HW2 4725   3.941   1.875   3.930
 1276SOL     OW 4726   6.342   0.271   3.225
 1276SOL    HW1 4727   6.311   0.308   3.138
 1276SOL    HW2 4728   6.313   0.175   3.232
 1277SOL     OW 4729   0.350   1.035   5.116
 1277SOL    HW1 4730   0.256   1.010   5.140
 1277SOL    HW2 4731   0.361   1.134   5.128
 1278SOL     OW 4732   3.124   1.862   5.360
 1278SOL    HW1 4733   3.144   1.959   5.357
 1278SOL    HW2 4734   3.167   1.816   5.282
 1279SOL     OW 4735   3.142   5.182   0.389
 1279SOL    HW1 4736   3.105   5.140   0.472
 1279SOL    HW2 4737   3.108   5.276   0.382
 1280SOL     OW 4738   1.700   6.427   3.361
 1280SOL    HW1 4739   1.726   6.463   3.272
 1280SOL    HW2 4740   1.692   6.327   3.356
 1281SOL     OW 4741   1.040   6.650   4.005
 1281SOL    HW1 4742   0.964   6.587   4.021
 1281SOL    HW2 4743   1.028   6.695   3.917
 1282SOL     OW 4744   1.229   0.569   2.591
 1282SOL    HW1 4745   1.215   0.474   2.621
 1282SOL    HW2 4746   1.197   0.579   2.496
 1283SOL     OW 4747   4.910   4.826   5.471
 1283SOL    HW1 4748   4.957   4.750   5.428
 1283SOL    HW2 4749   4.857   4.876   5.403
 1284SOL     OW 4750   2.654   2.098   2.580
 1284SOL    HW1 4751   2.689   2.179   2.628
 1284SOL    HW2 4752   2.580   2.126   2.519
 1285SOL     OW 4753   5.268   2.463   5.719
 1285SOL    HW1 4754   5.185   2.446   5.771
 1285SOL    HW2 4755   5.247   2.520   5.640
 1286SOL     OW 4756   6.179   5.591   1.689
 1286SOL    HW1 4757   6.139   5.542   1.767
 1286SOL    HW2 4758   6.106   5.627   1.631
 1287SOL     OW 4759   6.046   5.279   6.187
 1287SOL    HW1 4760   6.061   5.254   6.283
 1287SOL    HW2 4761   6.120   5.242   6.131
 1288SOL     OW 4762   6.613   2.656   2.753
 1288SOL    HW1 4763   6.514   2.646   2.738
 1288SOL    HW2 4764   6.655   2.697   2.672
 1289SOL     OW 4765   6.242   5.611   2.477
 1289SOL    HW1 4766   6.285   5.589   2.389
 1289SOL    HW2 4767   6.207   5.527   2.518
 1290SOL     OW 4768   0.632   6.709   1.669
 1290SOL    HW1 4769   0.664   6.769   1.743
 1290SOL    HW2 4770   0.616   6.764   1.587
 1291SOL     OW 4771   2.127   0.116   0.568
 1291SOL    HW1 4772   2.071   0.102   0.650
 1291SOL    HW2 4773   2.133   0.030   0.517
 1292SOL     OW 4774   1.352   6.171   6.793
 1292SOL    HW1 4775   1.268   6.204   6.836
 1292SOL    HW2 4776   1.340   6.168   6.694
 1293SOL     OW 4777   0.216   2.534   5.863
 1293SOL    HW1 4778   0.300   2.479   5.854
 1293SOL    HW2 4779   0.140   2.474   5.886
 1294SOL     OW 4780   6.772   1.536   2.752
 1294SOL    HW1 4781   6.788   1.508   2.657
 1294SOL    HW2 4782   6.860   1.562   2.794
 1295SOL     OW 4783   6.165   3.426   2.050
 1295SOL    HW1 4784   6.249   3.473   2.021
 1295SOL    HW2 4785   6.177   3.327   2.041
 1296SOL     OW 4786   3.719   2.761   6.543
 1296SOL    HW1 4787   3.813   2.736   6.563
 1296SOL    HW2 4788   3.657   2.718   6.609
 1297SOL     OW 4789   6.820   1.308   6.774
 1297SOL    HW1 4790   6.815   1.237   6.704
 1297SOL    HW2 4791   6.841   1.396   6.732
 1298SOL     OW 4792   6.243   3.314   3.467
 1298SOL    HW1 4793   6.225   3.362   3.554
 1298SOL    HW2 4794   6.315   3.246   3.481
 1299SOL     OW 4795   1.272   3.888   4.235
 1299SOL    HW1 4796   1.346   3.953   4.253
 1299SOL    HW2 4797   1.301   3.823   4.164
 1300SOL     OW 4798   2.716   3.185   1.495
 1300SOL    HW1 4799   2.682   3.262   1.442
 1300SOL    HW2 4800   2.763   3.121   1.434
 1301SOL     OW 4801   0.574   0.323   3.291
 1301SOL    HW1 4802   0.646   0.254   3.284
 1301SOL    HW2 4803   0.562   0.368   3.203
 1302SOL     OW 4804   2.367   5.683   4.951
 1302SOL    HW1 4805   2.381   5.620   5.027
 1302SOL    HW2 4806   2.317   5.637   4.878
 1303SOL     OW 4807   3.660   1.052   1.722
 1303SOL    HW1 4808   3.751   1.027   1.755
 1303SOL    HW2 4809   3.593   1.034   1.794
 1304SOL     OW 4810   3.102   0.692   6.222
 1304SOL    HW1 4811   3.052   0.725   6.302
 1304SOL    HW2 4812   3.133   0.771   6.169
 1305SOL     OW 4813   5.264   6.828   4.894
 1305SOL    HW1 4814   5.188   6.833   4.959
 1305SOL    HW2 4815   5.329   6.901   4.914
 1306SOL     OW 4816   0.751   4.409   3.897
 1306SOL    HW1 4817   0.798   4.355   3.827
 1306SOL    HW2 4818   0.796   4.396   3.985
 1307SOL     OW 4819   2.035   1.781   4.216
 1307SOL    HW1 4820   2.024   1.682   4.214
 1307SOL    HW2 4821   1.975   1.821   4.286
 1308SOL     OW 4822   4.960   5.577   2.754
 1308SOL    HW1 4823   4.866   5.592   2.722
 1308SOL    HW2 4824   4.987   5.653   2.812
 1309SOL     OW 4825   5.851   2.376   4.653
 1309SOL    HW1 4826   5.789   2.422   4.716
 1309SOL    HW2 4827   5.846   2.420   4.563
 1310SOL     OW 4828   4.885   3.571   5.508
 1310SOL    HW1 4829   4.925   3.479   5.507
 1310SOL    HW2 4830   4.903   3.614   5.597
 1311SOL     OW 4831   5.061   5.773   5.515
 1311SOL    HW1 4832   5.154   5.738   5.503
 1311SOL    HW2 4833   5.062   5.847   5.582
 1312SOL     OW 4834   0.415   6.638   1.264
 1312SOL    HW1 4835   0.437   6.542   1.282
 1312SOL    HW2 4836   0.349   6.643   1.189
 1313SOL     OW 4837   3.491   4.928   5.220
 1313SOL    HW1 4838   3.474   4.849   5.279
 1313SOL    HW2 4839   3.411   4.943   5.160
 1314SOL     OW 4840   5.930   1.388   4.763
 1314SOL    HW1 4841   5.929   1.289   4.751
 1314SOL    HW2 4842   6.024   1.421   4.770
 1315SOL     OW 4843   1.742   1.107   2.950
 1315SOL    HW1 4844   1.782   1.016   2.963
 1315SOL    HW2 4845   1.695   1.110   2.861
 1316SOL     OW 4846   2.776   6.783   2.494
 1316SOL    HW1 4847   2.704   6.714   2.495
 1316SOL    HW2 4848   2.760   6.847   2.419
 1317SOL     OW 4849   0.053   5.370   3.594
 1317SOL    HW1 4850   0.030   5.367   3.497
 1317SOL    HW2 4851   0.137   5.318   3.611
 1318SOL     OW 4852   0.282   6.430   0.806
 1318SOL    HW1 4853   0.374   6.465   0.789
 1318SOL    HW2 4854   0.229   6.499   0.856
 1319SOL     OW 4855   6.628   1.235   0.537
 1319SOL    HW1 4856   6.550   1.281   0.494
 1319SOL    HW2 4857   6.630   1.255   0.635
 1320SOL     OW 4858   5.415   5.503   6.064
 1320SOL    HW1 4859   5.424   5.445   5.983
 1320SOL    HW2 4860   5.319   5.506   6.092
 1321SOL     OW 4861   3.885   2.455   6.364
 1321SOL    HW1 4862   3.819   2.420   6.431
 1321SOL    HW2 4863   3.963   2.495   6.412
 1322SOL     OW 4864   6.041   1.191   5.029
 1322SOL    HW1 4865   6.135   1.211   5.055
 1322SOL    HW2 4866   5.984   1.184   5.111
 1323SOL     OW 4867   5.918   1.065   4.535
 1323SOL    HW1 4868   5.951   1.136   4.473
 1323SOL    HW2 4869   5.935   1.092   4.629
 1324SOL     OW 4870   0.825   3.730   0.520
 1324SOL    HW1 4871   0.916   3.698   0.546
 1324SOL    HW2 4872   0.832   3.794   0.444
 1325SOL     OW 4873   3.370   5.531   2.959
 1325SOL    HW1 4874   3.367   5.596   2.883
 1325SOL    HW2 4875   3.309   5.454   2.939
 1326SOL     OW 4876   5.222   3.741   4.034
 1326SOL    HW1 4877   5.132   3.783   4.051
 1326SOL    HW2 4878   5.247   3.755   3.938
 1327SOL     OW 4879   3.094   5.427   2.931
 1327SOL    HW1 4880   3.070   5.420   3.028
 1327SOL    HW2 4881   3.011   5.419   2.876
 1328SOL     OW 4882   1.838   2.478   6.667
 1328SOL    HW1 4883   1.937   2.486   6.674
 1328SOL    HW2 4884   1.798   2.476   6.759
 1329SOL     OW 4885   1.205   0.507   1.784
 1329SOL    HW1 4886   1.296   0.527   1.747
 1329SOL    HW2 4887   1.136   0.530   1.716
 1330SOL     OW 4888   5.882   6.549   1.070
 1330SOL    HW1 4889   5.868   6.637   1.024
 1330SOL    HW2 4890   5.815   6.538   1.143
 1331SOL     OW 4891   6.331   0.338   2.601
 1331SOL    HW1 4892   6.277   0.321   2.518
 1331SOL    HW2 4893   6.279   0.394   2.665
 1332SOL     OW 4894   4.594   1.674   1.579
 1332SOL    HW1 4895   4.496   1.657   1.569
 1332SOL    HW2 4896   4.611   1.720   1.666
 1333SOL     OW 4897   3.680   4.159   5.335
 1333SOL    HW1 4898   3.678   4.091   5.262
 1333SOL    HW2 4899   3.710   4.116   5.420
 1334SOL     OW 4900   0.777   4.049   3.932
 1334SOL    HW1 4901   0.698   3.993   3.907
 1334SOL    HW2 4902   0.817   4.089   3.849
 1335SOL     OW 4903   2.352   4.617   2.527
 1335SOL    HW1 4904   2.308   4.587   2.443
 1335SOL    HW2 4905   2.450   4.623   2.513
 1336SOL     OW 4906   0.855   0.427   5.391
 1336SOL    HW1 4907   0.757   0.428   5.410
 1336SOL    HW2 4908   0.904   0.390   5.470
 1337SOL     OW 4909   2.908   0.968   6.027
 1337SOL    HW1 4910   2.889   0.961   5.929
 1337SOL    HW2 4911   2.977   0.901   6.052
 1338SOL     OW 4912   3.641   5.934   0.537
 1338SOL    HW1 4913   3.709   5.949   0.608
 1338SOL    HW2 4914   3.686   5.897   0.456
 1339SOL     OW 4915   0.024   4.829   4.793
 1339SOL    HW1 4916   6.984   4.821   4.869
 1339SOL    HW2 4917   0.040   4.738   4.753
 1340SOL     OW 4918   2.100   1.536   6.071
 1340SOL    HW1 4919   2.022   1.555   6.130
 1340SOL    HW2 4920   2.166   1.480   6.120
 1341SOL     OW 4921   4.641   1.541   3.540
 1341SOL    HW1 4922   4.652   1.639   3.529
 1341SOL    HW2 4923   4.730   1.496   3.534
 1342SOL     OW 4924   0.451   6.186   0.824
 1342SOL    HW1 4925   0.401   6.269   0.802
 1342SOL    HW2 4926   0.387   6.109   0.832
 1343SOL     OW 4927   3.984   4.834   3.034
 1343SOL    HW1 4928   3.922   4.803   2.962
 1343SOL    HW2 4929   3.943   4.910   3.084
 1344SOL     OW 4930   5.829   1.502   2.493
 1344SOL    HW1 4931   5.917   1.455   2.502
 1344SOL    HW2 4932   5.755   1.442   2.525
 1345SOL     OW 4933   1.089   6.952   3.578
 1345SOL    HW1 4934   1.186   6.950   3.600
 1345SOL    HW2 4935   1.076   6.923   3.483
 1346SOL     OW 4936   0.222   0.859   4.087
 1346SOL    HW1 4937   0.175   0.858   4.175
 1346SOL    HW2 4938   0.154   0.864   4.014
 1347SOL     OW 4939   5.858   0.530   2.852
 1347SOL    HW1 4940   5.776   0.472   2.847
 1347SOL    HW2 4941   5.862   0.588   2.771
 1348SOL     OW 4942   4.470   5.490   4.276
 1348SOL    HW1 4943   4.476   5.503   4.375
 1348SOL    HW2 4944   4.420   5.566   4.235
 1349SOL     OW 4945   4.578   2.525   0.134
 1349SOL    HW1 4946   4.487   2.540   0.172
 1349SOL    HW2 4947   4.623   2.613   0.118
 1350SOL     OW 4948   3.313   6.762   5.760
 1350SOL    HW1 4949   3.320   6.675   5.711
 1350SOL    HW2 4950   3.231   6.762   5.816
 1351SOL     OW 4951   0.815   0.999   4.372
 1351SOL    HW1 4952   0.722   1.021   4.342
 1351SOL    HW2 4953   0.879   1.066   4.335
 1352SOL     OW 4954   0.217   7.020   3.900
 1352SOL    HW1 4955   0.205   6.980   3.991
 1352SOL    HW2 4956   0.314   0.003   3.879
 1353SOL     OW 4957   1.698   3.922   3.705
 1353SOL    HW1 4958   1.748   3.854   3.758
 1353SOL    HW2 4959   1.620   3.879   3.660
 1354SOL     OW 4960   0.014   0.430   1.299
 1354SOL    HW1 4961   0.047   0.344   1.260
 1354SOL    HW2 4962   0.044   0.438   1.394
 1355SOL     OW 4963   4.836   3.033   0.033
 1355SOL    HW1 4964   4.851   3.120   0.081
 1355SOL    HW2 4965   4.849   3.047   6.960
 1356SOL     OW 4966   3.181   3.978   1.997
 1356SOL    HW1 4967   3.225   3.890   1.981
 1356SOL    HW2 4968   3.098   3.985   1.942
 1357SOL     OW 4969   2.974   2.880   5.877
 1357SOL    HW1 4970   2.985   2.789   5.917
 1357SOL    HW2 4971   2.889   2.921   5.911
 1358SOL     OW 4972   2.832   2.721   5.437
 1358SOL    HW1 4973   2.748   2.767   5.412
 1358SOL    HW2 4974   2.831   2.627   5.401
 1359SOL     OW 4975   6.834   1.317   0.293
 1359SOL    HW1 4976   6.751   1.343   0.243
 1359SOL    HW2 4977   6.823   1.339   0.390
 1360SOL     OW 4978   2.972   3.563   3.931
 1360SOL    HW1 4979   2.948   3.652   3.968
 1360SOL    HW2 4980   3.070   3.560   3.911
 1361SOL     OW 4981   1.222   5.934   0.929
 1361SOL    HW1 4982   1.161   6.013   0.918
 1361SOL    HW2 4983   1.195   5.862   0.866
 1362SOL     OW 4984   3.299   2.784   6.191
 1362SOL    HW1 4985   3.274   2.707   6.133
 1362SOL    HW2 4986   3.391   2.771   6.227
 1363SOL     OW 4987   6.235   6.650   2.152
 1363SOL    HW1 4988   6.214   6.565   2.200
 1363SOL    HW2 4989   6.277   6.628   2.064
 1364SOL     OW 4990   0.636   3.800   0.715
 1364SOL    HW1 4991   0.685   3.802   0.802
 1364SOL    HW2 4992   0.700   3.776   0.641
 1365SOL     OW 4993   0.566   3.909   5.186
 1365SOL    HW1 4994   0.573   3.832   5.123
 1365SOL    HW2 4995   0.516   3.881   5.268
 1366SOL     OW 4996   5.173   0.486   1.123
 1366SOL    HW1 4997   5.093   0.462   1.068
 1366SOL    HW2 4998   5.244   0.524   1.064
 1367SOL     OW 4999   0.978   6.381   4.590
 1367SOL    HW1 5000   1.044   6.456   4.593
 1367SOL    HW2 5001   0.948   6.360   4.683
 1368SOL     OW 5002   1.277   6.348   5.390
 1368SOL    HW1 5003   1.335   6.346   5.472
 1368SOL    HW2 5004   1.183   6.368   5.418
 1369SOL     OW 5005   2.628   6.483   3.382
 1369SOL    HW1 5006   2.718   6.487   3.425
 1369SOL    HW2 5007   2.566   6.431   3.441
 1370SOL     OW 5008   6.871   2.086   2.403
 1370SOL    HW1 5009   6.889   2.027   2.324
 1370SOL    HW2 5010   6.797   2.149   2.381
 1371SOL     OW 5011   6.140   2.149   5.875
 1371SOL    HW1 5012   6.044   2.176   5.868
 1371SOL    HW2 5013   6.191   2.220   5.924
 1372SOL     OW 5014   6.629   2.876   0.479
 1372SOL    HW1 5015   6.701   2.824   0.525
 1372SOL    HW2 5016   6.663   2.908   0.390
 1373SOL     OW 5017   5.491   1.991   1.371
 1373SOL    HW1 5018   5.454   1.914   1.424
 1373SOL    HW2 5019   5.508   2.068   1.432
 1374SOL     OW 5020   4.091   3.835   0.882
 1374SOL    HW1 5021   3.996   3.818   0.856
 1374SOL    HW2 5022   4.107   3.934   0.887
 1375SOL     OW 5023   5.808   5.324   3.591
 1375SOL    HW1 5024   5.813   5.308   3.492
 1375SOL    HW2 5025   5.725   5.375   3.612
 1376SOL     OW 5026   2.718   4.943   6.195
 1376SOL    HW1 5027   2.799   4.919   6.248
 1376SOL    HW2 5028   2.655   4.995   6.252
 1377SOL     OW 5029   1.730   1.378   2.682
 1377SOL    HW1 5030   1.755   1.281   2.678
 1377SOL    HW2 5031   1.811   1.433   2.701
 1378SOL     OW 5032   4.943   2.483   4.457
 1378SOL    HW1 5033   4.887   2.402   4.473
 1378SOL    HW2 5034   5.033   2.455   4.424
 1379SOL     OW 5035   4.745   5.839   1.420
 1379SOL    HW1 5036   4.821   5.828   1.356
 1379SOL    HW2 5037   4.712   5.749   1.448
 1380SOL     OW 5038   6.997   6.183   2.360
 1380SOL    HW1 5039   6.928   6.235   2.311
 1380SOL    HW2 5040   0.016   6.117   2.299
 1381SOL     OW 5041   6.632   2.651   5.813
 1381SOL    HW1 5042   6.700   2.589   5.772
 1381SOL    HW2 5043   6.552   2.657   5.753
 1382SOL     OW 5044   4.889   2.573   0.171
 1382SOL    HW1 5045   4.852   2.662   0.197
 1382SOL    HW2 5046   4.835   2.536   0.095
 1383SOL     OW 5047   0.352   1.541   1.766
 1383SOL    HW1 5048   0.418   1.469   1.787
 1383SOL    HW2 5049   0.336   1.544   1.667
 1384SOL     OW 5050   6.166   1.610   1.932
 1384SOL    HW1 5051   6.126   1.650   2.014
 1384SOL    HW2 5052   6.114   1.530   1.904
 1385SOL     OW 5053   0.697   5.633   0.887
 1385SOL    HW1 5054   0.728   5.542   0.858
 1385SOL    HW2 5055   0.717   5.645   0.985
 1386SOL     OW 5056   1.879   5.678   3.927
 1386SOL    HW1 5057   1.931   5.687   3.842
 1386SOL    HW2 5058   1.937   5.639   3.998
 1387SOL     OW 5059   2.691   5.989   1.962
 1387SOL    HW1 5060   2.715   5.957   1.870
 1387SOL    HW2 5061   2.766   5.968   2.025
 1388SOL     OW 5062   6.741   0.587   1.864
 1388SOL    HW1 5063   6.643   0.577   1.881
 1388SOL    HW2 5064   6.784   0.628   1.944
 1389SOL     OW 5065   6.110   0.808   2.901
 1389SOL    HW1 5066   6.206   0.823   2.926
 1389SOL    HW2 5067   6.051   0.839   2.975
 1390SOL     OW 5068   1.350   1.694   6.046
 1390SOL    HW1 5069   1.351   1.676   5.948
 1390SOL    HW2 5070   1.377   1.611   6.095
 1391SOL     OW 5071   0.688   3.152   3.472
 1391SOL    HW1 5072   0.706   3.095   3.552
 1391SOL    HW2 5073   0.738   3.117   3.393
 1392SOL     OW 5074   4.868   4.583   5.305
 1392SOL    HW1 5075   4.881   4.554   5.400
 1392SOL    HW2 5076   4.854   4.502   5.247
 1393SOL     OW 5077   3.358   6.436   5.681
 1393SOL    HW1 5078   3.348   6.351   5.732
 1393SOL    HW2 5079   3.456   6.456   5.667
 1394SOL     OW 5080   1.713   6.201   6.195
 1394SOL    HW1 5081   1.650   6.138   6.240
 1394SOL    HW2 5082   1.682   6.295   6.209
 1395SOL     OW 5083   3.572   4.257   5.642
 1395SOL    HW1 5084   3.524   4.178   5.681
 1395SOL    HW2 5085   3.525   4.341   5.669
 1396SOL     OW 5086   5.499   5.591   3.824
 1396SOL    HW1 5087   5.592   5.567   3.796
 1396SOL    HW2 5088   5.503   5.665   3.891
 1397SOL     OW 5089   4.295   6.250   5.141
 1397SOL    HW1 5090   4.225   6.234   5.071
 1397SOL    HW2 5091   4.256   6.231   5.231
 1398SOL     OW 5092   1.809   1.744   4.441
 1398SOL    HW1 5093   1.752   1.805   4.496
 1398SOL    HW2 5094   1.824   1.659   4.491
 1399SOL     OW 5095   2.933   6.614   1.342
 1399SOL    HW1 5096   2.944   6.519   1.372
 1399SOL    HW2 5097   2.903   6.615   1.246
 1400SOL     OW 5098   0.916   6.765   2.061
 1400SOL    HW1 5099   0.899   6.765   2.160
 1400SOL    HW2 5100   1.008   6.799   2.044
 1401SOL     OW 5101   6.602   1.255   4.843
 1401SOL    HW1 5102   6.592   1.172   4.897
 1401SOL    HW2 5103   6.629   1.231   4.750
 1402SOL     OW 5104   6.793   3.322   0.194
 1402SOL    HW1 5105   6.880   3.360   0.160
 1402SOL    HW2 5106   6.808   3.279   0.283
 1403SOL     OW 5107   2.686   1.342   2.401
 1403SOL    HW1 5108   2.684   1.423   2.342
 1403SOL    HW2 5109   2.695   1.260   2.344
 1404SOL     OW 5110   5.572   0.649   0.420
 1404SOL    HW1 5111   5.502   0.710   0.457
 1404SOL    HW2 5112   5.557   0.636   0.322
 1405SOL     OW 5113   2.308   3.751   0.989
 1405SOL    HW1 5114   2.382   3.818   0.992
 1405SOL    HW2 5115   2.221   3.796   1.011
 1406SOL     OW 5116   1.395   4.285   1.101
 1406SOL    HW1 5117   1.312   4.335   1.125
 1406SOL    HW2 5118   1.402   4.204   1.159
 1407SOL     OW 5119   6.397   2.309   2.521
 1407SOL    HW1 5120   6.408   2.405   2.546
 1407SOL    HW2 5121   6.424   2.296   2.425
 1408SOL     OW 5122   6.373   0.636   6.927
 1408SOL    HW1 5123   6.292   0.639   6.987
 1408SOL    HW2 5124   6.412   0.728   6.919
 1409SOL     OW 5125   0.600   1.063   4.712
 1409SOL    HW1 5126   0.531   0.999   4.679
 1409SOL    HW2 5127   0.691   1.025   4.697
 1410SOL     OW 5128   0.632   2.692   7.004
 1410SOL    HW1 5129   0.596   2.724   6.916
 1410SOL    HW2 5130   0.555   2.666   0.039
 1411SOL     OW 5131   2.107   6.845   1.178
 1411SOL    HW1 5132   2.187   6.897   1.209
 1411SOL    HW2 5133   2.135   6.780   1.107
 1412SOL     OW 5134   1.103   2.963   6.831
 1412SOL    HW1 5135   1.022   2.912   6.860
 1412SOL    HW2 5136   1.116   2.952   6.733
 1413SOL     OW 5137   2.466   0.384   3.883
 1413SOL    HW1 5138   2.410   0.335   3.950
 1413SOL    HW2 5139   2.444   0.353   3.791
 1414SOL     OW 5140   1.781   1.889   1.767
 1414SOL    HW1 5141   1.728   1.959   1.814
 1414SOL    HW2 5142   1.848   1.849   1.831
 1415SOL     OW 5143   4.250   5.815   5.714
 1415SOL    HW1 5144   4.330   5.758   5.731
 1415SOL    HW2 5145   4.184   5.803   5.788
 1416SOL     OW 5146   4.367   5.466   1.714
 1416SOL    HW1 5147   4.466   5.464   1.704
 1416SOL    HW2 5148   4.340   5.547   1.767
 1417SOL     OW 5149   3.179   1.796   5.734
 1417SOL    HW1 5150   3.146   1.816   5.826
 1417SOL    HW2 5151   3.104   1.804   5.669
 1418SOL     OW 5152   3.859   3.845   2.380
 1418SOL    HW1 5153   3.838   3.759   2.333
 1418SOL    HW2 5154   3.777   3.878   2.427
 1419SOL     OW 5155   4.334   6.693   4.844
 1419SOL    HW1 5156   4.332   6.623   4.915
 1419SOL    HW2 5157   4.289   6.776   4.877
 1420SOL     OW 5158   0.730   5.988   2.309
 1420SOL    HW1 5159   0.734   5.984   2.210
 1420SOL    HW2 5160   0.796   6.056   2.343
 1421SOL     OW 5161   3.414   1.488   2.498
 1421SOL    HW1 5162   3.405   1.540   2.583
 1421SOL    HW2 5163   3.374   1.541   2.423
 1422SOL     OW 5164   2.743   5.606   0.377
 1422SOL    HW1 5165   2.766   5.614   0.474
 1422SOL    HW2 5166   2.723   5.697   0.340
 1423SOL     OW 5167   4.925   0.046   2.812
 1423SOL    HW1 5168   5.018   0.027   2.780
 1423SOL    HW2 5169   4.883   0.116   2.754
 1424SOL     OW 5170   6.487   4.869   4.779
 1424SOL    HW1 5171   6.509   4.951   4.833
 1424SOL    HW2 5172   6.409   4.822   4.819
 1425SOL     OW 5173   2.757   6.891   4.005
 1425SOL    HW1 5174   2.699   6.859   4.079
 1425SOL    HW2 5175   2.702   6.938   3.936
 1426SOL     OW 5176   1.077   1.633   5.479
 1426SOL    HW1 5177   1.004   1.571   5.451
 1426SOL    HW2 5178   1.165   1.601   5.444
 1427SOL     OW 5179   6.038   0.818   4.499
 1427SOL    HW1 5180   5.976   0.760   4.551
 1427SOL    HW2 5181   5.999   0.910   4.493
 1428SOL     OW 5182   5.562   1.343   6.333
 1428SOL    HW1 5183   5.629   1.392   6.389
 1428SOL    HW2 5184   5.479   1.399   6.324
 1429SOL     OW 5185   0.192   0.996   0.597
 1429SOL    HW1 5186   0.289   0.989   0.572
 1429SOL    HW2 5187   0.155   0.905   0.615
 1430SOL     OW 5188   1.903   5.198   3.400
 1430SOL    HW1 5189   1.837   5.192   3.325
 1430SOL    HW2 5190   1.996   5.202   3.364
 1431SOL     OW 5191   1.757   1.015   0.781
 1431SOL    HW1 5192   1.819   0.963   0.839
 1431SOL    HW2 5193   1.805   1.093   0.741
 1432SOL     OW 5194   1.854   1.588   2.113
 1432SOL    HW1 5195   1.783   1.654   2.087
 1432SOL    HW2 5196   1.813   1.515   2.168
 1433SOL     OW 5197   4.269   0.971   4.340
 1433SOL    HW1 5198   4.345   1.013   4.389
 1433SOL    HW2 5199   4.211   0.921   4.405
 1434SOL     OW 5200   1.635   0.983   5.545
 1434SOL    HW1 5201   1.632   1.074   5.585
 1434SOL    HW2 5202   1.571   0.978   5.468
 1435SOL     OW 5203   6.405   1.786   2.719
 1435SOL    HW1 5204   6.459   1.723   2.775
 1435SOL    HW2 5205   6.440   1.785   2.625
 1436SOL     OW 5206   4.250   3.714   1.048
 1436SOL    HW1 5207   4.199   3.665   1.118
 1436SOL    HW2 5208   4.187   3.769   0.994
 1437SOL     OW 5209   3.501   0.987   2.240
 1437SOL    HW1 5210   3.569   1.026   2.301
 1437SOL    HW2 5211   3.528   1.002   2.145
 1438SOL     OW 5212   2.738   6.950   0.822
 1438SOL    HW1 5213   2.712   6.859   0.788
 1438SOL    HW2 5214   2.751   7.012   0.746
 1439SOL     OW 5215   0.502   5.734   2.705
 1439SOL    HW1 5216   0.425   5.796   2.720
 1439SOL    HW2 5217   0.532   5.742   2.610
 1440SOL     OW 5218   3.228   3.596   1.529
 1440SOL    HW1 5219   3.264   3.535   1.600
 1440SOL    HW2 5220   3.143   3.637   1.561
 1441SOL     OW 5221   5.770   6.319   0.943
 1441SOL    HW1 5222   5.748   6.334   0.846
 1441SOL    HW2 5223   5.804   6.404   0.983
 1442SOL     OW 5224   5.962   5.489   0.598
 1442SOL    HW1 5225   6.013   5.411   0.563
 1442SOL    HW2 5226   5.973   5.495   0.697
 1443SOL     OW 5227   0.409   2.756   2.918
 1443SOL    HW1 5228   0.357   2.755   2.833
 1443SOL    HW2 5229   0.375   2.686   2.980
 1444SOL     OW 5230   6.012   5.461   0.028
 1444SOL    HW1 5231   6.017   5.529   0.102
 1444SOL    HW2 5232   6.060   5.378   0.056
 1445SOL     OW 5233   1.265   3.370   2.397
 1445SOL    HW1 5234   1.258   3.404   2.303
 1445SOL    HW2 5235   1.233   3.276   2.400
 1446SOL     OW 5236   6.916   0.282   6.997
 1446SOL    HW1 5237   6.955   0.339   0.045
 1446SOL    HW2 5238   6.831   0.323   6.965
 1447SOL     OW 5239   6.259   5.102   4.873
 1447SOL    HW1 5240   6.187   5.058   4.820
 1447SOL    HW2 5241   6.313   5.161   4.813
 1448SOL     OW 5242   1.318   3.208   5.814
 1448SOL    HW1 5243   1.397   3.260   5.782
 1448SOL    HW2 5244   1.242   3.271   5.830
 1449SOL     OW 5245   2.146   3.752   4.024
 1449SOL    HW1 5246   2.181   3.683   4.087
 1449SOL    HW2 5247   2.134   3.712   3.933
 1450SOL     OW 5248   2.196   2.791   4.245
 1450SOL    HW1 5249   2.116   2.752   4.201
 1450SOL    HW2 5250   2.274   2.788   4.182
 1451SOL     OW 5251   2.184   0.634   1.896
 1451SOL    HW1 5252   2.267   0.688   1.905
 1451SOL    HW2 5253   2.155   0.602   1.986
 1452SOL     OW 5254   5.094   3.069   6.121
 1452SOL    HW1 5255   5.040   3.123   6.058
 1452SOL    HW2 5256   5.188   3.102   6.122
 1453SOL     OW 5257   6.950   5.091   5.302
 1453SOL    HW1 5258   7.010   5.022   5.262
 1453SOL    HW2 5259   6.990   5.123   5.389
 1454SOL     OW 5260   3.790   1.887   4.066
 1454SOL    HW1 5261   3.776   1.978   4.026
 1454SOL    HW2 5262   3.706   1.857   4.109
 1455SOL     OW 5263   1.133   6.008   1.559
 1455SOL    HW1 5264   1.086   6.097   1.560
 1455SOL    HW2 5265   1.090   5.950   1.490
 1456SOL     OW 5266   6.098   5.222   5.059
 1456SOL    HW1 5267   6.159   5.170   4.999
 1456SOL    HW2 5268   6.013   5.171   5.072
 1457SOL     OW 5269   1.012   4.317   6.081
 1457SOL    HW1 5270   0.923   4.274   6.098
 1457SOL    HW2 5271   1.036   4.374   6.159
 1458SOL     OW 5272   4.877   5.573   5.173
 1458SOL    HW1 5273   4.955   5.599   5.231
 1458SOL    HW2 5274   4.797   5.626   5.200
 1459SOL     OW 5275   4.783   6.298   4.694
 1459SOL    HW1 5276   4.817   6.227   4.633
 1459SOL    HW2 5277   4.842   6.305   4.775
 1460SOL     OW 5278   1.402   6.270   5.656
 1460SOL    HW1 5279   1.442   6.279   5.747
 1460SOL    HW2 5280   1.447   6.195   5.606
 1461SOL     OW 5281   6.742   3.137   3.520
 1461SOL    HW1 5282   6.644   3.156   3.517
 1461SOL    HW2 5283   6.792   3.224   3.526
 1462SOL     OW 5284   0.806   0.377   1.290
 1462SOL    HW1 5285   0.831   0.404   1.383
 1462SOL    HW2 5286   0.784   0.458   1.236
 1463SOL     OW 5287   2.100   5.578   0.242
 1463SOL    HW1 5288   2.024   5.519   0.271
 1463SOL    HW2 5289   2.078   5.618   0.153
 1464SOL     OW 5290   0.890   4.177   3.719
 1464SOL    HW1 5291   0.981   4.201   3.751
 1464SOL    HW2 5292   0.882   4.198   3.621
 1465SOL     OW 5293   1.298   2.502   3.527
 1465SOL    HW1 5294   1.222   2.529   3.586
 1465SOL    HW2 5295   1.344   2.422   3.566
 1466SOL     OW 5296   4.924   2.130   1.887
 1466SOL    HW1 5297   4.986   2.129   1.810
 1466SOL    HW2 5298   4.832   2.155   1.856
 1467SOL     OW 5299   1.269   1.411   4.324
 1467SOL    HW1 5300   1.173   1.406   4.352
 1467SOL    HW2 5301   1.288   1.340   4.256
 1468SOL     OW 5302   2.594   5.494   2.713
 1468SOL    HW1 5303   2.536   5.414   2.700
 1468SOL    HW2 5304   2.607   5.541   2.626
 1469SOL     OW 5305   6.346   4.261   3.319
 1469SOL    HW1 5306   6.319   4.245   3.414
 1469SOL    HW2 5307   6.344   4.175   3.268
 1470SOL     OW 5308   6.519   1.772   0.824
 1470SOL    HW1 5309   6.569   1.826   0.757
 1470SOL    HW2 5310   6.478   1.692   0.780
 1471SOL     OW 5311   5.383   6.883   1.708
 1471SOL    HW1 5312   5.408   6.914   1.616
 1471SOL    HW2 5313   5.441   6.805   1.733
 1472SOL     OW 5314   1.774   6.805   6.075
 1472SOL    HW1 5315   1.732   6.807   6.166
 1472SOL    HW2 5316   1.858   6.750   6.078
 1473SOL     OW 5317   2.079   5.709   4.143
 1473SOL    HW1 5318   2.131   5.742   4.222
 1473SOL    HW2 5319   2.053   5.787   4.086
 1474SOL     OW 5320   3.380   4.911   1.513
 1474SOL    HW1 5321   3.373   4.981   1.442
 1474SOL    HW2 5322   3.376   4.955   1.603
 1475SOL     OW 5323   5.096   0.021   0.163
 1475SOL    HW1 5324   5.067   0.017   0.067
 1475SOL    HW2 5325   5.153   0.102   0.177
 1476SOL     OW 5326   4.950   0.566   1.572
 1476SOL    HW1 5327   5.030   0.573   1.513
 1476SOL    HW2 5328   4.920   0.657   1.600
 1477SOL     OW 5329   3.698   4.845   1.548
 1477SOL    HW1 5330   3.694   4.900   1.464
 1477SOL    HW2 5331   3.634   4.883   1.615
 1478SOL     OW 5332   5.258   5.428   6.323
 1478SOL    HW1 5333   5.264   5.378   6.409
 1478SOL    HW2 5334   5.351   5.447   6.289
 1479SOL     OW 5335   3.809   3.734   1.068
 1479SOL    HW1 5336   3.835   3.641   1.095
 1479SOL    HW2 5337   3.862   3.799   1.122
 1480SOL     OW 5338   3.176   0.461   4.887
 1480SOL    HW1 5339   3.170   0.402   4.806
 1480SOL    HW2 5340   3.085   0.478   4.923
 1481SOL     OW 5341   5.203   2.652   6.253
 1481SOL    HW1 5342   5.129   2.673   6.189
 1481SOL    HW2 5343   5.260   2.733   6.266
 1482SOL     OW 5344   4.931   1.161   0.616
 1482SOL    HW1 5345   5.015   1.212   0.635
 1482SOL    HW2 5346   4.944   1.065   0.640
 1483SOL     OW 5347   5.526   1.419   5.889
 1483SOL    HW1 5348   5.444   1.366   5.871
 1483SOL    HW2 5349   5.501   1.507   5.928
 1484SOL     OW 5350   3.219   5.847   4.705
 1484SOL    HW1 5351   3.307   5.807   4.730
 1484SOL    HW2 5352   3.232   5.909   4.627
 1485SOL     OW 5353   5.325   2.277   3.232
 1485SOL    HW1 5354   5.370   2.326   3.157
 1485SOL    HW2 5355   5.226   2.288   3.224
 1486SOL     OW 5356   5.187   6.961   3.931
 1486SOL    HW1 5357   5.287   6.963   3.942
 1486SOL    HW2 5358   5.164   6.981   3.835
 1487SOL     OW 5359   6.602   0.540   1.137
 1487SOL    HW1 5360   6.616   0.563   1.041
 1487SOL    HW2 5361   6.675   0.580   1.192
 1488SOL     OW 5362   5.844   1.130   2.711
 1488SOL    HW1 5363   5.783   1.203   2.680
 1488SOL    HW2 5364   5.916   1.168   2.768
 1489SOL     OW 5365   3.733   4.379   0.046
 1489SOL    HW1 5366   3.716   4.475   0.071
 1489SOL    HW2 5367   3.831   4.361   0.049
 1490SOL     OW 5368   6.707   2.301   2.440
 1490SOL    HW1 5369   6.741   2.346   2.522
 1490SOL    HW2 5370   6.635   2.357   2.399
 1491SOL     OW 5371   6.444   2.679   3.366
 1491SOL    HW1 5372   6.471   2.711   3.457
 1491SOL    HW2 5373   6.395   2.592   3.375
 1492SOL     OW 5374   5.915   1.282   3.064
 1492SOL    HW1 5375   5.987   1.310   3.127
 1492SOL    HW2 5376   5.831   1.263   3.115
 1493SOL     OW 5377   4.587   2.627   5.720
 1493SOL    HW1 5378   4.548   2.535   5.725
 1493SOL    HW2 5379   4.687   2.622   5.726
 1494SOL     OW 5380   6.475   4.264   5.379
 1494SOL    HW1 5381   6.493   4.210   5.297
 1494SOL    HW2 5382   6.432   4.351   5.353
 1495SOL     OW 5383   6.399   4.030   4.487
 1495SOL    HW1 5384   6.494   4.038   4.457
 1495SOL    HW2 5385   6.390   4.072   4.577
 1496SOL     OW 5386   6.485   5.335   6.301
 1496SOL    HW1 5387   6.526   5.395   6.232
 1496SOL    HW2 5388   6.557   5.282   6.346
 1497SOL     OW 5389   5.764   3.008   2.916
 1497SOL    HW1 5390   5.798   3.094   2.954
 1497SOL    HW2 5391   5.689   3.026   2.853
 1498SOL     OW 5392   3.394   4.408   0.635
 1498SOL    HW1 5393   3.325   4.338   0.616
 1498SOL    HW2 5394   3.373   4.491   0.582
 1499SOL     OW 5395   0.878   4.167   4.849
 1499SOL    HW1 5396   0.814   4.098   4.883
 1499SOL    HW2 5397   0.869   4.251   4.902
 1500SOL     OW 5398   1.083   5.724   1.835
 1500SOL    HW1 5399   1.149   5.689   1.769
 1500SOL    HW2 5400   1.093   5.823   1.844
 1501SOL     OW 5401   5.604   2.172   0.065
 1501SOL    HW1 5402   5.598   2.257   0.118
 1501SOL    HW2 5403   5.544   2.103   0.105
 1502SOL     OW 5404   6.400   0.113   6.466
 1502SOL    HW1 5405   6.418   0.026   6.422
 1502SOL    HW2 5406   6.456   0.122   6.549
 1503SOL     OW 5407   0.064   4.701   2.121
 1503SOL    HW1 5408   0.001   4.624   2.111
 1503SOL    HW2 5409   0.086   4.738   2.031
 1504SOL     OW 5410   0.826   0.390   2.374
 1504SOL    HW1 5411   0.842   0.345   2.286
 1504SOL    HW2 5412   0.891   0.355   2.441
 1505SOL     OW 5413   4.917   6.287   4.969
 1505SOL    HW1 5414   4.851   6.319   5.038
 1505SOL    HW2 5415   4.899   6.191   4.948
 1506SOL     OW 5416   0.984   1.541   1.197
 1506SOL    HW1 5417   0.890   1.542   1.164
 1506SOL    HW2 5418   0.998   1.618   1.259
 1507SOL     OW 5419   1.459   3.016   4.501
 1507SOL    HW1 5420   1.359   3.017   4.492
 1507SOL    HW2 5421   1.496   2.945   4.441
 1508SOL     OW 5422   1.285   0.726   0.823
 1508SOL    HW1 5423   1.335   0.705   0.739
 1508SOL    HW2 5424   1.190   0.696   0.814
 1509SOL     OW 5425   5.014   0.883   4.242
 1509SOL    HW1 5426   4.947   0.812   4.262
 1509SOL    HW2 5427   5.060   0.911   4.326
 1510SOL     OW 5428   3.802   5.660   4.259
 1510SOL    HW1 5429   3.808   5.561   4.268
 1510SOL    HW2 5430   3.731   5.695   4.320
 1511SOL     OW 5431   3.603   3.379   4.626
 1511SOL    HW1 5432   3.689   3.331   4.605
 1511SOL    HW2 5433   3.619   3.477   4.622
 1512SOL     OW 5434   6.080   6.058   0.842
 1512SOL    HW1 5435   6.155   6.089   0.783
 1512SOL    HW2 5436   6.117   5.995   0.910
 1513SOL     OW 5437   2.860   6.730   6.071
 1513SOL    HW1 5438   2.869   6.794   5.995
 1513SOL    HW2 5439   2.872   6.779   6.157
 1514SOL     OW 5440   3.001   2.495   5.617
 1514SOL    HW1 5441   3.084   2.492   5.674
 1514SOL    HW2 5442   3.025   2.528   5.526
 1515SOL     OW 5443   5.302   1.925   1.885
 1515SOL    HW1 5444   5.311   1.911   1.983
 1515SOL    HW2 5445   5.260   1.845   1.843
 1516SOL     OW 5446   6.023   0.184   4.910
 1516SOL    HW1 5447   5.965   0.121   4.962
 1516SOL    HW2 5448   6.031   0.152   4.815
 1517SOL     OW 5449   4.259   6.311   3.548
 1517SOL    HW1 5450   4.354   6.342   3.547
 1517SOL    HW2 5451   4.236   6.270   3.460
 1518SOL     OW 5452   0.443   2.655   0.162
 1518SOL    HW1 5453   0.343   2.653   0.165
 1518SOL    HW2 5454   0.477   2.734   0.212
 1519SOL     OW 5455   0.091   4.420   6.825
 1519SOL    HW1 5456   0.138   4.467   6.750
 1519SOL    HW2 5457   0.133   4.330   6.838
 1520SOL     OW 5458   0.246   6.177   2.706
 1520SOL    HW1 5459   0.296   6.260   2.681
 1520SOL    HW2 5460   0.175   6.160   2.637
 1521SOL     OW 5461   1.838   5.417   6.168
 1521SOL    HW1 5462   1.791   5.505   6.162
 1521SOL    HW2 5463   1.921   5.428   6.224
 1522SOL     OW 5464   4.653   5.943   4.440
 1522SOL    HW1 5465   4.696   5.899   4.362
 1522SOL    HW2 5466   4.617   5.873   4.502
 1523SOL     OW 5467   4.016   6.379   0.469
 1523SOL    HW1 5468   3.927   6.399   0.509
 1523SOL    HW2 5469   4.068   6.319   0.530
 1524SOL     OW 5470   2.277   1.829   2.629
 1524SOL    HW1 5471   2.362   1.843   2.680
 1524SOL    HW2 5472   2.268   1.732   2.606
 1525SOL     OW 5473   5.723   2.371   6.348
 1525SOL    HW1 5474   5.720   2.432   6.269
 1525SOL    HW2 5475   5.657   2.402   6.417
 1526SOL     OW 5476   1.019   1.267   0.510
 1526SOL    HW1 5477   1.057   1.189   0.560
 1526SOL    HW2 5478   1.090   1.304   0.449
 1527SOL     OW 5479   3.818   1.210   3.761
 1527SOL    HW1 5480   3.817   1.185   3.664
 1527SOL    HW2 5481   3.900   1.262   3.781
 1528SOL     OW 5482   4.310   3.937   1.270
 1528SOL    HW1 5483   4.272   3.848   1.295
 1528SOL    HW2 5484   4.262   4.008   1.321
 1529SOL     OW 5485   4.688   1.013   5.513
 1529SOL    HW1 5486   4.629   1.040   5.590
 1529SOL    HW2 5487   4.631   0.984   5.436
 1530SOL     OW 5488   3.604   6.358   1.352
 1530SOL    HW1 5489   3.558   6.436   1.310
 1530SOL    HW2 5490   3.671   6.390   1.419
 1531SOL     OW 5491   3.766   6.616   3.701
 1531SOL    HW1 5492   3.810   6.677   3.767
 1531SOL    HW2 5493   3.765   6.522   3.738
 1532SOL     OW 5494   2.846   5.415   6.553
 1532SOL    HW1 5495   2.801   5.337   6.510
 1532SOL    HW2 5496   2.779   5.486   6.572
 1533SOL     OW 5497   6.101   5.240   1.653
 1533SOL    HW1 5498   6.167   5.213   1.583
 1533SOL    HW2 5499   6.023   5.286   1.610
 1534SOL     OW 5500   3.537   5.600   6.194
 1534SOL    HW1 5501   3.487   5.600   6.107
 1534SOL    HW2 5502   3.529   5.690   6.237
 1535SOL     OW 5503   5.813   6.378   4.533
 1535SOL    HW1 5504   5.873   6.459   4.531
 1535SOL    HW2 5505   5.866   6.297   4.507
 1536SOL     OW 5506   4.308   3.857   6.497
 1536SOL    HW1 5507   4.359   3.915   6.433
 1536SOL    HW2 5508   4.352   3.768   6.504
 1537SOL     OW 5509   3.394   5.220   3.606
 1537SOL    HW1 5510   3.408   5.134   3.557
 1537SOL    HW2 5511   3.297   5.244   3.604
 1538SOL     OW 5512   3.184   1.721   6.835
 1538SOL    HW1 5513   3.220   1.645   6.889
 1538SOL    HW2 5514   3.209   1.808   6.878
 1539SOL     OW 5515   6.126   3.401   0.581
 1539SOL    HW1 5516   6.129   3.501   0.588
 1539SOL    HW2 5517   6.087   3.363   0.664
 1540SOL     OW 5518   3.333   6.902   4.564
 1540SOL    HW1 5519   3.362   6.962   4.490
 1540SOL    HW2 5520   3.375   6.812   4.553
 1541SOL     OW 5521   3.259   3.135   4.764
 1541SOL    HW1 5522   3.177   3.190   4.776
 1541SOL    HW2 5523   3.274   3.077   4.844
 1542SOL     OW 5524   6.766   0.356   2.807
 1542SOL    HW1 5525   6.785   0.292   2.882
 1542SOL    HW2 5526   6.844   0.416   2.794
 1543SOL     OW 5527   2.594   4.353   6.764
 1543SOL    HW1 5528   2.547   4.406   6.834
 1543SOL    HW2 5529   2.527   4.301   6.711
 1544SOL     OW 5530   4.156   3.577   4.583
 1544SOL    HW1 5531   4.162   3.534   4.493
 1544SOL    HW2 5532   4.171   3.675   4.574
 1545SOL     OW 5533   6.094   6.549   2.476
 1545SOL    HW1 5534   6.015   6.509   2.522
 1545SOL    HW2 5535   6.128   6.486   2.406
 1546SOL     OW 5536   5.579   6.658   5.858
 1546SOL    HW1 5537   5.511   6.646   5.786
 1546SOL    HW2 5538   5.548   6.729   5.922
 1547SOL     OW 5539   1.734   3.419   6.918
 1547SOL    HW1 5540   1.677   3.494   6.883
 1547SOL    HW2 5541   1.745   3.350   6.846
 1548SOL     OW 5542   6.531   2.265   6.471
 1548SOL    HW1 5543   6.444   2.295   6.433
 1548SOL    HW2 5544   6.599   2.336   6.459
 1549SOL     OW 5545   4.814   0.735   4.891
 1549SOL    HW1 5546   4.722   0.723   4.928
 1549SOL    HW2 5547   4.810   0.783   4.804
 1550SOL     OW 5548   3.254   3.050   3.273
 1550SOL    HW1 5549   3.216   3.008   3.191
 1550SOL    HW2 5550   3.319   3.121   3.248
 1551SOL     OW 5551   6.636   4.747   6.446
 1551SOL    HW1 5552   6.589   4.832   6.470
 1551SOL    HW2 5553   6.717   4.737   6.503
 1552SOL     OW 5554   1.775   4.255   2.048
 1552SOL    HW1 5555   1.813   4.347   2.061
 1552SOL    HW2 5556   1.680   4.253   2.079
 1553SOL     OW 5557   0.966   1.613   5.909
 1553SOL    HW1 5558   0.943   1.703   5.872
 1553SOL    HW2 5559   1.042   1.574   5.857
 1554SOL     OW 5560   3.018   1.449   3.570
 1554SOL    HW1 5561   3.105   1.416   3.607
 1554SOL    HW2 5562   2.943   1.396   3.610
 1555SOL     OW 5563   6.703   3.761   6.347
 1555SOL    HW1 5564   6.662   3.755   6.256
 1555SOL    HW2 5565   6.751   3.676   6.368
 1556SOL     OW 5566   2.511   1.133   5.788
 1556SOL    HW1 5567   2.603   1.096   5.794
 1556SOL    HW2 5568   2.445   1.058   5.780
 1557SOL     OW 5569   0.472   2.771   6.267
 1557SOL    HW1 5570   0.394   2.748   6.325
 1557SOL    HW2 5571   0.482   2.870   6.263
 1558SOL     OW 5572   6.898   6.947   4.886
 1558SOL    HW1 5573   6.848   6.868   4.923
 1558SOL    HW2 5574   6.990   6.919   4.862
 1559SOL     OW 5575   1.085   1.938   6.346
 1559SOL    HW1 5576   1.127   1.998   6.414
 1559SOL    HW2 5577   1.142   1.937   6.264
 1560SOL     OW 5578   0.099   0.812   6.801
 1560SOL    HW1 5579   0.153   0.873   6.744
 1560SOL    HW2 5580   0.031   0.764   6.745
 1561SOL     OW 5581   5.580   5.780   2.930
 1561SOL    HW1 5582   5.493   5.736   2.954
 1561SOL    HW2 5583   5.587   5.867   2.978
 1562SOL     OW 5584   5.528   1.015   3.339
 1562SOL    HW1 5585   5.556   0.939   3.398
 1562SOL    HW2 5586   5.608   1.071   3.316
 1563SOL     OW 5587   4.051   0.374   5.228
 1563SOL    HW1 5588   3.955   0.358   5.250
 1563SOL    HW2 5589   4.090   0.439   5.292
 1564SOL     OW 5590   1.814   2.036   2.884
 1564SOL    HW1 5591   1.724   2.070   2.855
 1564SOL    HW2 5592   1.823   1.940   2.858
 1565SOL     OW 5593   5.237   3.863   2.074
 1565SOL    HW1 5594   5.180   3.861   1.992
 1565SOL    HW2 5595   5.179   3.870   2.155
 1566SOL     OW 5596   5.914   4.267   3.339
 1566SOL    HW1 5597   5.968   4.203   3.284
 1566SOL    HW2 5598   5.846   4.312   3.282
 1567SOL     OW 5599   6.747   5.518   5.699
 1567SOL    HW1 5600   6.736   5.431   5.747
 1567SOL    HW2 5601   6.743   5.503   5.601
 1568SOL     OW 5602   0.134   7.002   0.966
 1568SOL    HW1 5603   0.106   0.069   0.938
 1568SOL    HW2 5604   0.206   6.969   0.905
 1569SOL     OW 5605   3.594   6.084   5.199
 1569SOL    HW1 5606   3.661   6.020   5.162
 1569SOL    HW2 5607   3.512   6.034   5.226
 1570SOL     OW 5608   3.853   2.083   1.616
 1570SOL    HW1 5609   3.788   2.055   1.687
 1570SOL    HW2 5610   3.902   2.003   1.582
 1571SOL     OW 5611   6.432   4.537   1.780
 1571SOL    HW1 5612   6.499   4.605   1.808
 1571SOL    HW2 5613   6.348   4.583   1.749
 1572SOL     OW 5614   1.567   6.283   2.356
 1572SOL    HW1 5615   1.474   6.318   2.360
 1572SOL    HW2 5616   1.608   6.305   2.267
 1573SOL     OW 5617   3.916   0.205   1.273
 1573SOL    HW1 5618   3.828   0.243   1.299
 1573SOL    HW2 5619   3.927   0.114   1.314
 1574SOL     OW 5620   6.418   2.898   2.115
 1574SOL    HW1 5621   6.341   2.846   2.078
 1574SOL    HW2 5622   6.385   2.984   2.154
 1575SOL     OW 5623   2.412   2.864   0.417
 1575SOL    HW1 5624   2.356   2.947   0.428
 1575SOL    HW2 5625   2.487   2.882   0.354
 1576SOL     OW 5626   6.577   6.058   4.213
 1576SOL    HW1 5627   6.526   5.984   4.168
 1576SOL    HW2 5628   6.651   6.019   4.266
 1577SOL     OW 5629   2.231   0.266   0.114
 1577SOL    HW1 5630   2.153   0.248   0.055
 1577SOL    HW2 5631   2.237   0.364   0.133
 1578SOL     OW 5632   5.557   4.931   4.972
 1578SOL    HW1 5633   5.508   4.858   4.925
 1578SOL    HW2 5634   5.645   4.896   5.004
 1579SOL     OW 5635   0.879   0.369   3.979
 1579SOL    HW1 5636   0.940   0.446   4.000
 1579SOL    HW2 5637   0.864   0.365   3.880
 1580SOL     OW 5638   3.121   3.984   5.625
 1580SOL    HW1 5639   3.117   3.884   5.630
 1580SOL    HW2 5640   3.200   4.017   5.678
 1581SOL     OW 5641   6.856   3.705   4.608
 1581SOL    HW1 5642   6.848   3.680   4.512
 1581SOL    HW2 5643   6.783   3.660   4.660
 1582SOL     OW 5644   6.277   5.485   4.268
 1582SOL    HW1 5645   6.264   5.420   4.343
 1582SOL    HW2 5646   6.230   5.571   4.289
 1583SOL     OW 5647   1.832   2.727   2.972
 1583SOL    HW1 5648   1.802   2.757   2.881
 1583SOL    HW2 5649   1.926   2.694   2.966
 1584SOL     OW 5650   2.612   0.120   6.455
 1584SOL    HW1 5651   2.604   0.113   6.356
 1584SOL    HW2 5652   2.597   0.214   6.484
 1585SOL     OW 5653   5.514   1.666   5.648
 1585SOL    HW1 5654   5.578   1.743   5.637
 1585SOL    HW2 5655   5.535   1.595   5.580
 1586SOL     OW 5656   3.909   3.824   2.741
 1586SOL    HW1 5657   3.918   3.853   2.646
 1586SOL    HW2 5658   3.838   3.879   2.786
 1587SOL     OW 5659   2.682   6.302   6.949
 1587SOL    HW1 5660   2.736   6.314   0.008
 1587SOL    HW2 5661   2.740   6.319   6.869
 1588SOL     OW 5662   5.929   3.611   1.919
 1588SOL    HW1 5663   6.015   3.572   1.952
 1588SOL    HW2 5664   5.936   3.710   1.915
 1589SOL     OW 5665   5.447   3.814   4.174
 1589SOL    HW1 5666   5.479   3.902   4.140
 1589SOL    HW2 5667   5.359   3.792   4.133
 1590SOL     OW 5668   2.081   0.690   6.044
 1590SOL    HW1 5669   2.150   0.760   6.026
 1590SOL    HW2 5670   2.105   0.605   5.996
 1591SOL     OW 5671   0.910   4.685   1.714
 1591SOL    HW1 5672   0.906   4.607   1.776
 1591SOL    HW2 5673   0.906   4.770   1.767
 1592SOL     OW 5674   3.158   3.519   2.653
 1592SOL    HW1 5675   3.095   3.589   2.687
 1592SOL    HW2 5676   3.213   3.485   2.729
 1593SOL     OW 5677   0.799   5.437   5.184
 1593SOL    HW1 5678   0.859   5.393   5.252
 1593SOL    HW2 5679   0.855   5.483   5.116
 1594SOL     OW 5680   6.427   5.135   3.001
 1594SOL    HW1 5681   6.489   5.153   3.078
 1594SOL    HW2 5682   6.457   5.052   2.954
 1595SOL     OW 5683   6.928   4.465   5.866
 1595SOL    HW1 5684   6.959   4.547   5.819
 1595SOL    HW2 5685   6.834   4.444   5.839
 1596SOL     OW 5686   2.710   5.139   6.818
 1596SOL    HW1 5687   2.776   5.214   6.820
 1596SOL    HW2 5688   2.758   5.052   6.808
 1597SOL     OW 5689   2.581   0.115   1.395
 1597SOL    HW1 5690   2.541   0.147   1.309
 1597SOL    HW2 5691   2.571   0.185   1.465
 1598SOL     OW 5692   0.476   5.223   1.498
 1598SOL    HW1 5693   0.533   5.163   1.442
 1598SOL    HW2 5694   0.383   5.224   1.462
 1599SOL     OW 5695   3.619   4.828   6.823
 1599SOL    HW1 5696   3.645   4.912   6.775
 1599SOL    HW2 5697   3.562   4.851   6.902
 1600SOL     OW 5698   3.776   1.045   4.441
 1600SOL    HW1 5699   3.697   1.013   4.493
 1600SOL    HW2 5700   3.765   1.019   4.345
 1601SOL     OW 5701   0.685   4.715   3.466
 1601SOL    HW1 5702   0.719   4.630   3.426
 1601SOL    HW2 5703   0.649   4.697   3.558
 1602SOL     OW 5704   0.746   4.675   3.804
 1602SOL    HW1 5705   0.728   4.578   3.821
 1602SOL    HW2 5706   0.845   4.689   3.797
 1603SOL     OW 5707   6.592   6.672   1.181
 1603SOL    HW1 5708   6.647   6.702   1.259
 1603SOL    HW2 5709   6.496   6.664   1.209
 1604SOL     OW 5710   0.739   5.361   5.536
 1604SOL    HW1 5711   0.665   5.347   5.602
 1604SOL    HW2 5712   0.717   5.438   5.476
 1605SOL     OW 5713   5.291   6.431   3.154
 1605SOL    HW1 5714   5.202   6.394   3.129
 1605SOL    HW2 5715   5.300   6.523   3.116
 1606SOL     OW 5716   4.975   6.615   6.175
 1606SOL    HW1 5717   4.978   6.620   6.275
 1606SOL    HW2 5718   4.881   6.626   6.144
 1607SOL     OW 5719   4.029   2.334   0.648
 1607SOL    HW1 5720   3.949   2.344   0.707
 1607SOL    HW2 5721   4.090   2.412   0.661
 1608SOL     OW 5722   2.792   0.126   0.629
 1608SOL    HW1 5723   2.753   0.077   0.550
 1608SOL    HW2 5724   2.767   0.222   0.624
 1609SOL     OW 5725   4.854   1.870   5.605
 1609SOL    HW1 5726   4.843   1.968   5.587
 1609SOL    HW2 5727   4.780   1.839   5.665
 1610SOL     OW 5728   5.992   5.611   4.550
 1610SOL    HW1 5729   5.993   5.682   4.620
 1610SOL    HW2 5730   5.898   5.588   4.526
 1611SOL     OW 5731   2.650   3.424   1.320
 1611SOL    HW1 5732   2.576   3.485   1.290
 1611SOL    HW2 5733   2.733   3.446   1.269
 1612SOL     OW 5734   3.570   0.954   4.106
 1612SOL    HW1 5735   3.511   1.031   4.083
 1612SOL    HW2 5736   3.612   0.918   4.023
 1613SOL     OW 5737   1.729   6.233   0.637
 1613SOL    HW1 5738   1.649   6.217   0.695
 1613SOL    HW2 5739   1.698   6.258   0.545
 1614SOL     OW 5740   6.762   2.559   0.075
 1614SOL    HW1 5741   6.774   2.483   0.138
 1614SOL    HW2 5742   6.793   2.531   7.008
 1615SOL     OW 5743   6.500   4.978   6.470
 1615SOL    HW1 5744   6.419   5.017   6.512
 1615SOL    HW2 5745   6.559   5.052   6.437
 1616SOL     OW 5746   2.542   2.154   5.470
 1616SOL    HW1 5747   2.445   2.164   5.447
 1616SOL    HW2 5748   2.588   2.106   5.396
 1617SOL     OW 5749   4.450   0.827   3.796
 1617SOL    HW1 5750   4.376   0.880   3.837
 1617SOL    HW2 5751   4.414   0.771   3.721
 1618SOL     OW 5752   5.485   2.223   0.709
 1618SOL    HW1 5753   5.487   2.322   0.700
 1618SOL    HW2 5754   5.394   2.193   0.736
 1619SOL     OW 5755   1.685   3.451   4.575
 1619SOL    HW1 5756   1.636   3.425   4.491
 1619SOL    HW2 5757   1.745   3.376   4.602
 1620SOL     OW 5758   3.634   5.423   1.147
 1620SOL    HW1 5759   3.643   5.407   1.246
 1620SOL    HW2 5760   3.586   5.346   1.105
 1621SOL     OW 5761   1.650   1.199   1.669
 1621SOL    HW1 5762   1.636   1.108   1.707
 1621SOL    HW2 5763   1.739   1.203   1.623
 1622SOL     OW 5764   2.190   1.963   4.074
 1622SOL    HW1 5765   2.138   2.022   4.011
 1622SOL    HW2 5766   2.126   1.912   4.132
 1623SOL     OW 5767   2.631   2.149   4.915
 1623SOL    HW1 5768   2.669   2.228   4.866
 1623SOL    HW2 5769   2.550   2.178   4.966
 1624SOL     OW 5770   2.310   0.517   0.120
 1624SOL    HW1 5771   2.244   0.592   0.132
 1624SOL    HW2 5772   2.398   0.543   0.160
 1625SOL     OW 5773   6.984   5.189   2.142
 1625SOL    HW1 5774   7.022   5.215   2.053
 1625SOL    HW2 5775   6.989   5.266   2.205
 1626SOL     OW 5776   2.044   2.551   6.193
 1626SOL    HW1 5777   1.968   2.510   6.141
 1626SOL    HW2 5778   2.012   2.635   6.236
 1627SOL     OW 5779   5.167   2.990   4.126
 1627SOL    HW1 5780   5.218   3.075   4.138
 1627SOL    HW2 5781   5.177   2.933   4.208
 1628SOL     OW 5782   3.046   2.959   0.043
 1628SOL    HW1 5783   2.965   2.988   0.093
 1628SOL    HW2 5784   3.025   2.955   6.970
 1629SOL     OW 5785   4.647   2.445   3.551
 1629SOL    HW1 5786   4.688   2.373   3.607
 1629SOL    HW2 5787   4.637   2.528   3.607
 1630SOL     OW 5788   0.139   4.973   4.398
 1630SOL    HW1 5789   0.206   5.009   4.333
 1630SOL    HW2 5790   0.182   4.963   4.488
 1631SOL     OW 5791   0.776   6.676   5.790
 1631SOL    HW1 5792   0.833   6.596   5.814
 1631SOL    HW2 5793   0.811   6.756   5.838
 1632SOL     OW 5794   6.221   0.734   1.757
 1632SOL    HW1 5795   6.197   0.761   1.664
 1632SOL    HW2 5796   6.145   0.686   1.799
 1633SOL     OW 5797   5.421   3.157   3.607
 1633SOL    HW1 5798   5.520   3.144   3.604
 1633SOL    HW2 5799   5.385   3.121   3.693
 1634SOL     OW 5800   3.602   0.807   6.728
 1634SOL    HW1 5801   3.538   0.744   6.770
 1634SOL    HW2 5802   3.624   0.881   6.792
 1635SOL     OW 5803   0.542   5.461   4.122
 1635SOL    HW1 5804   0.458   5.485   4.074
 1635SOL    HW2 5805   0.614   5.525   4.096
 1636SOL     OW 5806   1.987   5.879   1.335
 1636SOL    HW1 5807   2.015   5.785   1.316
 1636SOL    HW2 5808   1.973   5.928   1.250
 1637SOL     OW 5809   0.268   3.041   2.445
 1637SOL    HW1 5810   0.257   2.977   2.369
 1637SOL    HW2 5811   0.325   3.000   2.516
 1638SOL     OW 5812   1.454   3.041   5.207
 1638SOL    HW1 5813   1.522   3.111   5.185
 1638SOL    HW2 5814   1.424   3.052   5.301
 1639SOL     OW 5815   4.848   4.761   2.289
 1639SOL    HW1 5816   4.793   4.770   2.372
 1639SOL    HW2 5817   4.942   4.736   2.314
 1640SOL     OW 5818   5.886   0.391   1.452
 1640SOL    HW1 5819   5.931   0.480   1.445
 1640SOL    HW2 5820   5.945   0.328   1.502
 1641SOL     OW 5821   6.338   2.694   5.654
 1641SOL    HW1 5822   6.304   2.615   5.704
 1641SOL    HW2 5823   6.276   2.716   5.579
 1642SOL     OW 5824   0.496   2.578   1.806
 1642SOL    HW1 5825   0.520   2.564   1.902
 1642SOL    HW2 5826   0.467   2.673   1.792
 1643SOL     OW 5827   4.109   0.570   5.390
 1643SOL    HW1 5828   4.094   0.564   5.489
 1643SOL    HW2 5829   4.040   0.631   5.350
 1644SOL     OW 5830   3.080   0.797   1.129
 1644SOL    HW1 5831   3.176   0.792   1.157
 1644SOL    HW2 5832   3.051   0.709   1.093
 1645SOL     OW 5833   2.162   6.901   6.366
 1645SOL    HW1 5834   2.210   6.861   6.288
 1645SOL    HW2 5835   2.167   7.001   6.360
 1646SOL     OW 5836   1.378   3.414   1.143
 1646SOL    HW1 5837   1.444   3.390   1.072
 1646SOL    HW2 5838   1.352   3.332   1.194
 1647SOL     OW 5839   5.911   2.663   3.968
 1647SOL    HW1 5840   5.897   2.714   3.884
 1647SOL    HW2 5841   5.841   2.688   4.035
 1648SOL     OW 5842   4.129   6.854   2.598
 1648SOL    HW1 5843   4.185   6.790   2.650
 1648SOL    HW2 5844   4.045   6.809   2.567
 1649SOL     OW 5845   3.279   0.791   3.169
 1649SOL    HW1 5846   3.227   0.719   3.124
 1649SOL    HW2 5847   3.239   0.811   3.258
 1650SOL     OW 5848   2.480   6.359   3.577
 1650SOL    HW1 5849   2.381   6.372   3.586
 1650SOL    HW2 5850   2.511   6.290   3.642
 1651SOL     OW 5851   1.536   6.714   0.994
 1651SOL    HW1 5852   1.516   6.796   1.046
 1651SOL    HW2 5853   1.592   6.738   0.914
 1652SOL     OW 5854   2.927   2.897   1.396
 1652SOL    HW1 5855   3.007   2.903   1.336
 1652SOL    HW2 5856   2.957   2.889   1.491
 1653SOL     OW 5857   1.198   5.496   0.944
 1653SOL    HW1 5858   1.193   5.397   0.960
 1653SOL    HW2 5859   1.203   5.543   1.032
 1654SOL     OW 5860   6.784   2.914   3.170
 1654SOL    HW1 5861   6.799   2.864   3.085
 1654SOL    HW2 5862   6.871   2.924   3.219
 1655SOL     OW 5863   4.576   4.834   5.724
 1655SOL    HW1 5864   4.603   4.859   5.817
 1655SOL    HW2 5865   4.476   4.838   5.716
 1656SOL     OW 5866   0.693   4.610   3.162
 1656SOL    HW1 5867   0.691   4.532   3.224
 1656SOL    HW2 5868   0.779   4.660   3.174
 1657SOL     OW 5869   1.314   0.378   5.816
 1657SOL    HW1 5870   1.256   0.451   5.779
 1657SOL    HW2 5871   1.356   0.328   5.740
 1658SOL     OW 5872   6.099   5.926   2.926
 1658SOL    HW1 5873   6.052   5.922   2.838
 1658SOL    HW2 5874   6.087   6.018   2.965
 1659SOL     OW 5875   4.360   2.210   5.597
 1659SOL    HW1 5876   4.370   2.141   5.525
 1659SOL    HW2 5877   4.265   2.243   5.598
 1660SOL     OW 5878   1.786   5.635   3.169
 1660SOL    HW1 5879   1.821   5.651   3.077
 1660SOL    HW2 5880   1.706   5.575   3.165
 1661SOL     OW 5881   2.593   0.297   2.616
 1661SOL    HW1 5882   2.665   0.367   2.621
 1661SOL    HW2 5883   2.535   0.303   2.697
 1662SOL     OW 5884   0.734   0.476   3.467
 1662SOL    HW1 5885   0.683   0.543   3.520
 1662SOL    HW2 5886   0.675   0.439   3.395
 1663SOL     OW 5887   3.071   0.030   3.498
 1663SOL    HW1 5888   3.084   7.022   3.592
 1663SOL    HW2 5889   3.136   7.010   3.437
 1664SOL     OW 5890   2.134   5.712   4.649
 1664SOL    HW1 5891   2.172   5.624   4.679
 1664SOL    HW2 5892   2.199   5.757   4.588
 1665SOL     OW 5893   0.362   7.010   4.910
 1665SOL    HW1 5894   0.339   6.994   5.006
 1665SOL    HW2 5895   0.462   7.016   4.901
 1666SOL     OW 5896   6.181   2.731   6.092
 1666SOL    HW1 5897   6.272   2.748   6.130
 1666SOL    HW2 5898   6.115   2.723   6.167
 1667SOL     OW 5899   6.772   0.704   6.403
 1667SOL    HW1 5900   6.760   0.672   6.497
 1667SOL    HW2 5901   6.850   0.658   6.361
 1668SOL     OW 5902   3.476   1.075   5.034
 1668SOL    HW1 5903   3.557   1.046   5.084
 1668SOL    HW2 5904   3.459   1.172   5.052
 1669SOL     OW 5905   6.085   6.948   6.499
 1669SOL    HW1 5906   5.987   6.931   6.503
 1669SOL    HW2 5907   6.101   0.019   6.476
 1670SOL     OW 5908   5.472   4.451   5.727
 1670SOL    HW1 5909   5.474   4.520   5.799
 1670SOL    HW2 5910   5.428   4.368   5.761
 1671SOL     OW 5911   5.490   3.914   0.178
 1671SOL    HW1 5912   5.429   3.925   0.100
 1671SOL    HW2 5913   5.524   4.003   0.207
 1672SOL     OW 5914   1.699   5.685   2.473
 1672SOL    HW1 5915   1.690   5.607   2.411
 1672SOL    HW2 5916   1.646   5.763   2.438
 1673SOL     OW 5917   6.636   1.947   4.429
 1673SOL    HW1 5918   6.641   1.881   4.504
 1673SOL    HW2 5919   6.610   1.899   4.345
 1674SOL     OW 5920   0.714   4.663   6.254
 1674SOL    HW1 5921   0.652   4.730   6.213
 1674SOL    HW2 5922   0.796   4.655   6.198
 1675SOL     OW 5923   4.815   2.425   6.752
 1675SOL    HW1 5924   4.743   2.494   6.756
 1675SOL    HW2 5925   4.902   2.466   6.779
 1676SOL     OW 5926   1.807   0.843   3.306
 1676SOL    HW1 5927   1.718   0.826   3.347
 1676SOL    HW2 5928   1.877   0.792   3.355
 1677SOL     OW 5929   6.426   1.306   5.481
 1677SOL    HW1 5930   6.434   1.286   5.578
 1677SOL    HW2 5931   6.443   1.403   5.465
 1678SOL     OW 5932   5.573   6.661   1.578
 1678SOL    HW1 5933   5.518   6.719   1.517
 1678SOL    HW2 5934   5.650   6.715   1.613
 1679SOL     OW 5935   6.979   3.780   0.045
 1679SOL    HW1 5936   6.912   3.837   7.022
 1679SOL    HW2 5937   0.035   3.769   7.013
 1680SOL     OW 5938   1.233   1.825   4.318
 1680SOL    HW1 5939   1.244   1.921   4.343
 1680SOL    HW2 5940   1.254   1.814   4.221
 1681SOL     OW 5941   5.952   5.288   1.413
 1681SOL    HW1 5942   5.943   5.216   1.344
 1681SOL    HW2 5943   6.027   5.349   1.387
 1682SOL     OW 5944   6.483   3.399   5.470
 1682SOL    HW1 5945   6.547   3.394   5.547
 1682SOL    HW2 5946   6.415   3.470   5.488
 1683SOL     OW 5947   5.414   5.773   0.366
 1683SOL    HW1 5948   5.437   5.698   0.304
 1683SOL    HW2 5949   5.315   5.772   0.384
 1684SOL     OW 5950   0.537   5.725   4.708
 1684SOL    HW1 5951   0.451   5.766   4.738
 1684SOL    HW2 5952   0.545   5.633   4.747
 1685SOL     OW 5953   1.119   1.953   0.112
 1685SOL    HW1 5954   1.038   2.008   0.135
 1685SOL    HW2 5955   1.201   2.010   0.122
 1686SOL     OW 5956   1.800   6.317   6.988
 1686SOL    HW1 5957   1.709   6.357   6.978
 1686SOL    HW2 5958   1.841   6.303   6.898
 1687SOL     OW 5959   1.512   0.329   1.751
 1687SOL    HW1 5960   1.475   0.288   1.835
 1687SOL    HW2 5961   1.528   0.257   1.683
 1688SOL     OW 5962   0.525   1.445   3.345
 1688SOL    HW1 5963   0.567   1.413   3.429
 1688SOL    HW2 5964   0.592   1.495   3.290
 1689SOL     OW 5965   2.261   1.537   2.298
 1689SOL    HW1 5966   2.317   1.470   2.251
 1689SOL    HW2 5967   2.258   1.622   2.245
 1690SOL     OW 5968   0.765   2.341   1.026
 1690SOL    HW1 5969   0.743   2.404   0.951
 1690SOL    HW2 5970   0.863   2.345   1.045
 1691SOL     OW 5971   5.020   5.227   2.608
 1691SOL    HW1 5972   5.017   5.263   2.701
 1691SOL    HW2 5973   5.082   5.149   2.603
 1692SOL     OW 5974   1.380   1.015   3.856
 1692SOL    HW1 5975   1.388   1.065   3.770
 1692SOL    HW2 5976   1.300   1.046   3.906
 1693SOL     OW 5977   2.687   2.404   3.448
 1693SOL    HW1 5978   2.625   2.441   3.517
 1693SOL    HW2 5979   2.661   2.439   3.357
 1694SOL     OW 5980   4.625   6.163   5.537
 1694SOL    HW1 5981   4.558   6.160   5.611
 1694SOL    HW2 5982   4.578   6.173   5.450
 1695SOL     OW 5983   2.553   2.016   5.953
 1695SOL    HW1 5984   2.627   2.083   5.961
 1695SOL    HW2 5985   2.543   1.988   5.857
 1696SOL     OW 5986   3.448   5.576   0.830
 1696SOL    HW1 5987   3.458   5.671   0.802
 1696SOL    HW2 5988   3.502   5.517   0.769
 1697SOL     OW 5989   1.097   1.300   2.150
 1697SOL    HW1 5990   1.021   1.328   2.092
 1697SOL    HW2 5991   1.180   1.290   2.095
 1698SOL     OW 5992   4.962   2.086   0.777
 1698SOL    HW1 5993   4.991   2.145   0.853
 1698SOL    HW2 5994   4.880   2.125   0.735
 1699SOL     OW 5995   2.194   3.630   0.759
 1699SOL    HW1 5996   2.196   3.716   0.708
 1699SOL    HW2 5997   2.254   3.638   0.839
 1700SOL     OW 5998   6.419   3.143   4.514
 1700SOL    HW1 5999   6.487   3.070   4.521
 1700SOL    HW2 6000   6.328   3.104   4.508
 1701SOL     OW 6001   5.675   3.601   4.647
 1701SOL    HW1 6002   5.742   3.674   4.631
 1701SOL    HW2 6003   5.584   3.641   4.653
 1702SOL     OW 6004   4.929   2.806   0.770
 1702SOL    HW1 6005   4.857   2.749   0.808
 1702SOL    HW2 6006   4.992   2.834   0.842
 1703SOL     OW 6007   2.104   3.988   0.373
 1703SOL    HW1 6008   2.154   4.058   0.423
 1703SOL    HW2 6009   2.034   4.031   0.316
 1704SOL     OW 6010   1.086   0.963   1.842
 1704SOL    HW1 6011   1.185   0.976   1.834
 1704SOL    HW2 6012   1.059   0.970   1.938
 1705SOL     OW 6013   3.675   3.263   1.922
 1705SOL    HW1 6014   3.707   3.317   1.844
 1705SOL    HW2 6015   3.708   3.169   1.912
 1706SOL     OW 6016   3.088   0.748   6.615
 1706SOL    HW1 6017   3.071   0.795   6.701
 1706SOL    HW2 6018   3.069   0.809   6.538
 1707SOL     OW 6019   5.973   1.702   3.076
 1707SOL    HW1 6020   5.965   1.802   3.079
 1707SOL    HW2 6021   6.014   1.669   3.160
 1708SOL     OW 6022   6.987   4.630   2.365
 1708SOL    HW1 6023   7.023   4.573   2.439
 1708SOL    HW2 6024   0.011   4.718   2.364
 1709SOL     OW 6025   3.456   6.067   3.417
 1709SOL    HW1 6026   3.555   6.063   3.432
 1709SOL    HW2 6027   3.415   6.132   3.480
 1710SOL     OW 6028   6.654   6.048   3.700
 1710SOL    HW1 6029   6.617   6.139   3.680
 1710SOL    HW2 6030   6.631   5.986   3.625
 1711SOL     OW 6031   1.749   4.803   5.957
 1711SOL    HW1 6032   1.701   4.717   5.939
 1711SOL    HW2 6033   1.844   4.795   5.926
 1712SOL     OW 6034   1.421   5.117   0.902
 1712SOL    HW1 6035   1.336   5.157   0.938
 1712SOL    HW2 6036   1.499   5.157   0.949
 1713SOL     OW 6037   1.547   3.382   0.583
 1713SOL    HW1 6038   1.469   3.366   0.523
 1713SOL    HW2 6039   1.604   3.455   0.544
 1714SOL     OW 6040   3.596   1.391   0.429
 1714SOL    HW1 6041   3.660   1.314   0.433
 1714SOL    HW2 6042   3.529   1.382   0.502
 1715SOL     OW 6043   0.162   3.292   3.963
 1715SOL    HW1 6044   0.094   3.218   3.966
 1715SOL    HW2 6045   0.253   3.252   3.961
 1716SOL     OW 6046   0.815   0.063   0.356
 1716SOL    HW1 6047   0.868   7.015   0.398
 1716SOL    HW2 6048   0.793   0.039   0.262
 1717SOL     OW 6049   3.606   0.499   0.063
 1717SOL    HW1 6050   3.569   0.554   0.137
 1717SOL    HW2 6051   3.531   0.460   0.009
 1718SOL     OW 6052   1.177   4.850   5.436
 1718SOL    HW1 6053   1.129   4.855   5.348
 1718SOL    HW2 6054   1.234   4.769   5.439
 1719SOL     OW 6055   2.147   3.283   1.552
 1719SOL    HW1 6056   2.200   3.240   1.624
 1719SOL    HW2 6057   2.102   3.212   1.497
 1720SOL     OW 6058   6.999   1.621   1.395
 1720SOL    HW1 6059   6.975   1.631   1.492
 1720SOL    HW2 6060   0.072   1.636   1.383
 1721SOL     OW 6061   1.828   6.162   3.922
 1721SOL    HW1 6062   1.767   6.230   3.963
 1721SOL    HW2 6063   1.793   6.070   3.939
 1722SOL     OW 6064   5.964   6.614   1.971
 1722SOL    HW1 6065   6.060   6.605   1.943
 1722SOL    HW2 6066   5.936   6.709   1.962
 1723SOL     OW 6067   6.405   1.262   1.948
 1723SOL    HW1 6068   6.450   1.352   1.944
 1723SOL    HW2 6069   6.311   1.274   1.983
 1724SOL     OW 6070   4.825   0.413   0.178
 1724SOL    HW1 6071   4.822   0.505   0.137
 1724SOL    HW2 6072   4.826   0.422   0.278
 1725SOL     OW 6073   4.150   4.798   1.619
 1725SOL    HW1 6074   4.173   4.783   1.715
 1725SOL    HW2 6075   4.104   4.886   1.609
 1726SOL     OW 6076   0.456   4.881   4.890
 1726SOL    HW1 6077   0.540   4.833   4.864
 1726SOL    HW2 6078   0.453   4.970   4.844
 1727SOL     OW 6079   3.270   3.942   5.292
 1727SOL    HW1 6080   3.347   3.952   5.354
 1727SOL    HW2 6081   3.189   3.988   5.330
 1728SOL     OW 6082   4.671   4.205   3.330
 1728SOL    HW1 6083   4.726   4.276   3.374
 1728SOL    HW2 6084   4.604   4.246   3.268
 1729SOL     OW 6085   1.840   3.572   2.981
 1729SOL    HW1 6086   1.745   3.601   2.969
 1729SOL    HW2 6087   1.901   3.645   2.951
 1730SOL     OW 6088   5.741   2.434   5.179
 1730SOL    HW1 6089   5.702   2.400   5.264
 1730SOL    HW2 6090   5.697   2.389   5.101
 1731SOL     OW 6091   1.542   5.020   0.398
 1731SOL    HW1 6092   1.628   5.071   0.393
 1731SOL    HW2 6093   1.490   5.050   0.478
 1732SOL     OW 6094   0.532   4.749   0.081
 1732SOL    HW1 6095   0.434   4.760   0.101
 1732SOL    HW2 6096   0.583   4.744   0.167
 1733SOL     OW 6097   1.524   4.068   0.608
 1733SOL    HW1 6098   1.526   4.135   0.682
 1733SOL    HW2 6099   1.463   3.992   0.634
 1734SOL     OW 6100   4.978   3.083   0.690
 1734SOL    HW1 6101   4.969   3.005   0.752
 1734SOL    HW2 6102   4.910   3.152   0.713
 1735SOL     OW 6103   5.661   5.669   1.681
 1735SOL    HW1 6104   5.697   5.580   1.653
 1735SOL    HW2 6105   5.632   5.664   1.777
 1736SOL     OW 6106   3.455   3.913   0.540
 1736SOL    HW1 6107   3.451   4.001   0.494
 1736SOL    HW2 6108   3.428   3.841   0.476
 1737SOL     OW 6109   1.657   6.273   3.716
 1737SOL    HW1 6110   1.750   6.263   3.750
 1737SOL    HW2 6111   1.640   6.369   3.691
 1738SOL     OW 6112   1.244   2.670   1.987
 1738SOL    HW1 6113   1.254   2.627   1.897
 1738SOL    HW2 6114   1.331   2.710   2.015
 1739SOL     OW 6115   3.980   1.778   5.316
 1739SOL    HW1 6116   3.927   1.771   5.401
 1739SOL    HW2 6117   4.014   1.688   5.290
 1740SOL     OW 6118   1.012   1.113   5.901
 1740SOL    HW1 6119   1.008   1.183   5.829
 1740SOL    HW2 6120   0.944   1.134   5.971
 1741SOL     OW 6121   1.726   0.328   2.883
 1741SOL    HW1 6122   1.795   0.313   2.954
 1741SOL    HW2 6123   1.637   0.296   2.916
 1742SOL     OW 6124   5.837   0.409   4.582
 1742SOL    HW1 6125   5.760   0.359   4.620
 1742SOL    HW2 6126   5.885   0.352   4.515
 1743SOL     OW 6127   4.506   0.988   0.798
 1743SOL    HW1 6128   4.515   1.087   0.810
 1743SOL    HW2 6129   4.417   0.967   0.757
 1744SOL     OW 6130   2.672   0.710   1.657
 1744SOL    HW1 6131   2.601   0.678   1.594
 1744SOL    HW2 6132   2.761   0.680   1.624
 1745SOL     OW 6133   6.896   2.333   4.255
 1745SOL    HW1 6134   6.850   2.420   4.272
 1745SOL    HW2 6135   6.859   2.263   4.318
 1746SOL     OW 6136   3.332   0.218   5.916
 1746SOL    HW1 6137   3.425   0.202   5.883
 1746SOL    HW2 6138   3.299   0.136   5.964
 1747SOL     OW 6139   4.206   0.622   1.143
 1747SOL    HW1 6140   4.144   0.557   1.186
 1747SOL    HW2 6141   4.240   0.686   1.212
 1748SOL     OW 6142   5.803   2.158   1.943
 1748SOL    HW1 6143   5.851   2.244   1.927
 1748SOL    HW2 6144   5.799   2.105   1.859
 1749SOL     OW 6145   4.514   6.762   5.889
 1749SOL    HW1 6146   4.414   6.767   5.897
 1749SOL    HW2 6147   4.538   6.701   5.814
 1750SOL     OW 6148   5.293   0.540   3.920
 1750SOL    HW1 6149   5.384   0.539   3.878
 1750SOL    HW2 6150   5.262   0.446   3.936
 1751SOL     OW 6151   1.779   5.616   3.627
 1751SOL    HW1 6152   1.839   5.682   3.672
 1751SOL    HW2 6153   1.814   5.597   3.535
 1752SOL     OW 6154   6.171   2.423   0.338
 1752SOL    HW1 6155   6.100   2.362   0.302
 1752SOL    HW2 6156   6.250   2.369   0.366
 1753SOL     OW 6157   2.100   0.423   2.367
 1753SOL    HW1 6158   2.052   0.404   2.452
 1753SOL    HW2 6159   2.187   0.374   2.365
 1754SOL     OW 6160   3.904   2.981   0.667
 1754SOL    HW1 6161   3.838   2.908   0.647
 1754SOL    HW2 6162   3.901   3.003   0.764
 1755SOL     OW 6163   5.188   3.877   0.470
 1755SOL    HW1 6164   5.281   3.905   0.493
 1755SOL    HW2 6165   5.168   3.789   0.513
 1756SOL     OW 6166   6.170   5.706   4.372
 1756SOL    HW1 6167   6.091   5.691   4.431
 1756SOL    HW2 6168   6.222   5.785   4.405
 1757SOL     OW 6169   2.951   6.215   4.083
 1757SOL    HW1 6170   3.029   6.278   4.086
 1757SOL    HW2 6171   2.918   6.208   3.988
 1758SOL     OW 6172   2.400   1.106   3.507
 1758SOL    HW1 6173   2.495   1.112   3.476
 1758SOL    HW2 6174   2.369   1.011   3.504
 1759SOL     OW 6175   0.355   5.424   6.008
 1759SOL    HW1 6176   0.337   5.357   6.081
 1759SOL    HW2 6177   0.452   5.446   6.007
 1760SOL     OW 6178   5.910   0.380   2.452
 1760SOL    HW1 6179   5.816   0.360   2.479
 1760SOL    HW2 6180   5.947   0.453   2.510
 1761SOL     OW 6181   6.558   2.792   1.240
 1761SOL    HW1 6182   6.540   2.872   1.183
 1761SOL    HW2 6183   6.471   2.751   1.268
 1762SOL     OW 6184   6.131   1.813   6.560
 1762SOL    HW1 6185   6.090   1.765   6.482
 1762SOL    HW2 6186   6.094   1.905   6.567
 1763SOL     OW 6187   2.181   3.981   3.791
 1763SOL    HW1 6188   2.181   4.035   3.707
 1763SOL    HW2 6189   2.206   3.886   3.770
 1764SOL     OW 6190   6.470   2.992   4.031
 1764SOL    HW1 6191   6.377   2.969   4.061
 1764SOL    HW2 6192   6.531   2.991   4.110
 1765SOL     OW 6193   2.996   2.625   6.027
 1765SOL    HW1 6194   2.962   2.640   6.120
 1765SOL    HW2 6195   3.071   2.559   6.030
 1766SOL     OW 6196   5.468   3.310   5.198
 1766SOL    HW1 6197   5.467   3.355   5.288
 1766SOL    HW2 6198   5.558   3.269   5.183
 1767SOL     OW 6199   5.600   3.368   2.061
 1767SOL    HW1 6200   5.648   3.312   2.128
 1767SOL    HW2 6201   5.604   3.464   2.089
 1768SOL     OW 6202   5.884   6.817   4.335
 1768SOL    HW1 6203   5.933   6.771   4.409
 1768SOL    HW2 6204   5.804   6.864   4.373
 1769SOL     OW 6205   5.184   1.521   2.679
 1769SOL    HW1 6206   5.173   1.541   2.777
 1769SOL    HW2 6207   5.096   1.525   2.634
 1770SOL     OW 6208   2.633   5.552   5.276
 1770SOL    HW1 6209   2.651   5.510   5.187
 1770SOL    HW2 6210   2.619   5.651   5.264
 1771SOL     OW 6211   4.861   5.792   6.326
 1771SOL    HW1 6212   4.929   5.845   6.276
 1771SOL    HW2 6213   4.777   5.845   6.338
 1772SOL     OW 6214   3.173   6.749   2.917
 1772SOL    HW1 6215   3.149   6.660   2.956
 1772SOL    HW2 6216   3.091   6.806   2.913
 1773SOL     OW 6217   0.626   5.343   0.059
 1773SOL    HW1 6218   0.677   5.383   7.008
 1773SOL    HW2 6219   0.576   5.263   0.026
 1774SOL     OW 6220   3.609   5.471   1.716
 1774SOL    HW1 6221   3.691   5.521   1.744
 1774SOL    HW2 6222   3.609   5.380   1.757
 1775SOL     OW 6223   0.693   4.633   1.998
 1775SOL    HW1 6224   0.672   4.698   2.071
 1775SOL    HW2 6225   0.792   4.615   1.998
 1776SOL     OW 6226   2.737   5.738   4.831
 1776SOL    HW1 6227   2.695   5.672   4.895
 1776SOL    HW2 6228   2.806   5.791   4.879
 1777SOL     OW 6229   4.099   6.277   0.933
 1777SOL    HW1 6230   4.197   6.294   0.920
 1777SOL    HW2 6231   4.087   6.197   0.991
 1778SOL     OW 6232   5.446   3.820   5.577
 1778SOL    HW1 6233   5.406   3.904   5.541
 1778SOL    HW2 6234   5.437   3.820   5.677
 1779SOL     OW 6235   2.863   6.328   5.065
 1779SOL    HW1 6236   2.939   6.274   5.028
 1779SOL    HW2 6237   2.859   6.314   5.164
 1780SOL     OW 6238   3.164   3.244   6.710
 1780SOL    HW1 6239   3.238   3.305   6.738
 1780SOL    HW2 6240   3.203   3.161   6.670
 1781SOL     OW 6241   3.562   5.309   3.374
 1781SOL    HW1 6242   3.620   5.381   3.335
 1781SOL    HW2 6243   3.488   5.350   3.427
 1782SOL     OW 6244   3.435   1.736   3.995
 1782SOL    HW1 6245   3.436   1.728   4.095
 1782SOL    HW2 6246   3.388   1.820   3.968
 1783SOL     OW 6247   1.861   5.540   0.403
 1783SOL    HW1 6248   1.904   5.625   0.432
 1783SOL    HW2 6249   1.777   5.561   0.353
 1784SOL     OW 6250   3.417   6.647   4.921
 1784SOL    HW1 6251   3.388   6.698   5.002
 1784SOL    HW2 6252   3.336   6.617   4.870
 1785SOL     OW 6253   6.509   4.011   2.619
 1785SOL    HW1 6254   6.540   4.041   2.709
 1785SOL    HW2 6255   6.456   3.927   2.628
 1786SOL     OW 6256   3.134   2.662   1.144
 1786SOL    HW1 6257   3.068   2.665   1.069
 1786SOL    HW2 6258   3.108   2.727   1.215
 1787SOL     OW 6259   3.808   0.491   5.841
 1787SOL    HW1 6260   3.752   0.539   5.774
 1787SOL    HW2 6261   3.862   0.420   5.794
 1788SOL     OW 6262   1.787   5.073   5.016
 1788SOL    HW1 6263   1.771   5.071   5.115
 1788SOL    HW2 6264   1.885   5.078   4.998
 1789SOL     OW 6265   6.414   1.564   0.304
 1789SOL    HW1 6266   6.360   1.627   0.360
 1789SOL    HW2 6267   6.507   1.599   0.296
 1790SOL     OW 6268   3.751   6.838   3.515
 1790SOL    HW1 6269   3.694   6.815   3.437
 1790SOL    HW2 6270   3.789   6.754   3.555
 1791SOL     OW 6271   0.069   6.597   2.607
 1791SOL    HW1 6272   0.033   6.688   2.586
 1791SOL    HW2 6273   0.067   6.583   2.706
 1792SOL     OW 6274   1.210   3.019   4.783
 1792SOL    HW1 6275   1.250   3.106   4.810
 1792SOL    HW2 6276   1.249   2.945   4.839
 1793SOL     OW 6277   0.054   0.398   3.974
 1793SOL    HW1 6278   0.064   0.312   4.024
 1793SOL    HW2 6279   0.128   0.460   4.000
 1794SOL     OW 6280   4.234   5.452   6.045
 1794SOL    HW1 6281   4.162   5.422   6.108
 1794SOL    HW2 6282   4.217   5.415   5.954
 1795SOL     OW 6283   0.759   2.825   0.697
 1795SOL    HW1 6284   0.858   2.810   0.688
 1795SOL    HW2 6285   0.713   2.799   0.613
 1796SOL     OW 6286   3.481   0.681   6.359
 1796SOL    HW1 6287   3.424   0.653   6.283
 1796SOL    HW2 6288   3.430   0.744   6.418
 1797SOL     OW 6289   1.056   6.686   0.930
 1797SOL    HW1 6290   1.025   6.779   0.948
 1797SOL    HW2 6291   1.151   6.676   0.961
 1798SOL     OW 6292   5.047   2.308   3.242
 1798SOL    HW1 6293   5.022   2.266   3.154
 1798SOL    HW2 6294   4.966   2.346   3.285
 1799SOL     OW 6295   1.522   1.906   6.718
 1799SOL    HW1 6296   1.573   1.934   6.799
 1799SOL    HW2 6297   1.425   1.896   6.741
 1800SOL     OW 6298   4.033   5.078   1.632
 1800SOL    HW1 6299   4.093   5.147   1.673
 1800SOL    HW2 6300   3.975   5.038   1.703
 1801SOL     OW 6301   6.316   6.496   1.134
 1801SOL    HW1 6302   6.223   6.501   1.170
 1801SOL    HW2 6303   6.321   6.422   1.067
 1802SOL     OW 6304   4.998   5.598   4.333
 1802SOL    HW1 6305   5.034   5.591   4.425
 1802SOL    HW2 6306   5.020   5.687   4.294
 1803SOL     OW 6307   0.072   5.524   1.315
 1803SOL    HW1 6308   0.013   5.501   1.238
 1803SOL    HW2 6309   0.167   5.500   1.293
 1804SOL     OW 6310   2.915   3.408   5.189
 1804SOL    HW1 6311   2.927   3.327   5.247
 1804SOL    HW2 6312   2.829   3.453   5.212
 1805SOL     OW 6313   4.840   3.045   6.776
 1805SOL    HW1 6314   4.746   3.077   6.775
 1805SOL    HW2 6315   4.843   2.947   6.756
 1806SOL     OW 6316   0.296   6.571   1.625
 1806SOL    HW1 6317   0.376   6.626   1.603
 1806SOL    HW2 6318   0.325   6.480   1.655
 1807SOL     OW 6319   5.963   1.132   5.311
 1807SOL    HW1 6320   6.053   1.121   5.353
 1807SOL    HW2 6321   5.909   1.196   5.365
 1808SOL     OW 6322   1.882   4.755   4.006
 1808SOL    HW1 6323   1.860   4.661   4.033
 1808SOL    HW2 6324   1.894   4.812   4.088
 1809SOL     OW 6325   3.817   1.079   6.359
 1809SOL    HW1 6326   3.724   1.046   6.349
 1809SOL    HW2 6327   3.823   1.173   6.324
 1810SOL     OW 6328   2.990   6.223   2.987
 1810SOL    HW1 6329   2.922   6.263   3.049
 1810SOL    HW2 6330   3.018   6.292   2.920
 1811SOL     OW 6331   6.190   5.280   3.669
 1811SOL    HW1 6332   6.133   5.198   3.676
 1811SOL    HW2 6333   6.261   5.277   3.739
 1812SOL     OW 6334   4.128   5.388   6.461
 1812SOL    HW1 6335   4.227   5.384   6.474
 1812SOL    HW2 6336   4.106   5.366   6.366
 1813SOL     OW 6337   6.316   4.896   5.968
 1813SOL    HW1 6338   6.353   4.877   6.059
 1813SOL    HW2 6339   6.290   4.809   5.924
 1814SOL     OW 6340   4.272   6.641   2.703
 1814SOL    HW1 6341   4.355   6.674   2.749
 1814SOL    HW2 6342   4.284   6.546   2.675
 1815SOL     OW 6343   0.407   0.393   3.513
 1815SOL    HW1 6344   0.457   0.366   3.430
 1815SOL    HW2 6345   0.312   0.362   3.505
 1816SOL     OW 6346   0.884   4.132   0.112
 1816SOL    HW1 6347   0.958   4.141   0.179
 1816SOL    HW2 6348   0.835   4.047   0.128
 1817SOL     OW 6349   2.276   5.911   2.246
 1817SOL    HW1 6350   2.258   5.945   2.153
 1817SOL    HW2 6351   2.347   5.840   2.242
 1818SOL     OW 6352   2.148   1.334   3.134
 1818SOL    HW1 6353   2.053   1.330   3.102
 1818SOL    HW2 6354   2.203   1.269   3.082
 1819SOL     OW 6355   1.733   5.347   1.931
 1819SOL    HW1 6356   1.825   5.323   1.900
 1819SOL    HW2 6357   1.677   5.264   1.937
 1820SOL     OW 6358   4.802   0.237   2.633
 1820SOL    HW1 6359   4.840   0.269   2.546
 1820SOL    HW2 6360   4.780   0.315   2.691
 1821SOL     OW 6361   3.251   1.980   2.655
 1821SOL    HW1 6362   3.324   2.006   2.592
 1821SOL    HW2 6363   3.172   2.040   2.642
 1822SOL     OW 6364   3.300   3.208   1.764
 1822SOL    HW1 6365   3.302   3.283   1.830
 1822SOL    HW2 6366   3.222   3.148   1.784
 1823SOL     OW 6367   3.779   6.722   2.657
 1823SOL    HW1 6368   3.809   6.682   2.570
 1823SOL    HW2 6369   3.773   6.651   2.726
 1824SOL     OW 6370   5.118   2.641   1.458
 1824SOL    HW1 6371   5.024   2.660   1.486
 1824SOL    HW2 6372   5.164   2.589   1.530
 1825SOL     OW 6373   1.172   0.645   2.037
 1825SOL    HW1 6374   1.176   0.609   1.944
 1825SOL    HW2 6375   1.077   0.653   2.065
 1826SOL     OW 6376   3.834   6.397   6.433
 1826SOL    HW1 6377   3.934   6.397   6.424
 1826SOL    HW2 6378   3.808   6.443   6.517
 1827SOL     OW 6379   6.550   6.316   1.180
 1827SOL    HW1 6380   6.646   6.336   1.199
 1827SOL    HW2 6381   6.502   6.401   1.156
 1828SOL     OW 6382   1.446   2.117   6.589
 1828SOL    HW1 6383   1.525   2.175   6.609
 1828SOL    HW2 6384   1.464   2.024   6.621
 1829SOL     OW 6385   5.266   5.463   1.984
 1829SOL    HW1 6386   5.319   5.409   2.050
 1829SOL    HW2 6387   5.259   5.557   2.016
 1830SOL     OW 6388   4.933   6.489   3.724
 1830SOL    HW1 6389   4.943   6.588   3.719
 1830SOL    HW2 6390   4.989   6.454   3.799
 1831SOL     OW 6391   5.184   6.989   2.722
 1831SOL    HW1 6392   5.244   0.014   2.660
 1831SOL    HW2 6393   5.239   6.932   2.784
 1832SOL     OW 6394   4.735   2.881   0.591
 1832SOL    HW1 6395   4.815   2.867   0.649
 1832SOL    HW2 6396   4.695   2.970   0.609
 1833SOL     OW 6397   5.475   1.383   5.594
 1833SOL    HW1 6398   5.552   1.406   5.652
 1833SOL    HW2 6399   5.392   1.425   5.631
 1834SOL     OW 6400   2.610   3.184   0.827
 1834SOL    HW1 6401   2.619   3.267   0.772
 1834SOL    HW2 6402   2.553   3.202   0.907
 1835SOL     OW 6403   1.777   4.736   0.374
 1835SOL    HW1 6404   1.798   4.833   0.372
 1835SOL    HW2 6405   1.679   4.723   0.362
 1836SOL     OW 6406   0.603   6.490   0.490
 1836SOL    HW1 6407   0.639   6.402   0.522
 1836SOL    HW2 6408   0.632   6.562   0.553
 1837SOL     OW 6409   0.854   2.332   4.736
 1837SOL    HW1 6410   0.845   2.417   4.789
 1837SOL    HW2 6411   0.950   2.306   4.731
 1838SOL     OW 6412   6.486   2.170   4.304
 1838SOL    HW1 6413   6.521   2.152   4.213
 1838SOL    HW2 6414   6.541   2.119   4.371
 1839SOL     OW 6415   0.258   2.250   5.604
 1839SOL    HW1 6416   0.249   2.151   5.594
 1839SOL    HW2 6417   0.212   2.295   5.527
 1840SOL     OW 6418   1.898   5.520   1.005
 1840SOL    HW1 6419   1.892   5.591   0.935
 1840SOL    HW2 6420   1.886   5.430   0.963
 1841SOL     OW 6421   1.583   2.873   3.425
 1841SOL    HW1 6422   1.549   2.929   3.500
 1841SOL    HW2 6423   1.527   2.790   3.417
 1842SOL     OW 6424   0.966   4.608   7.018
 1842SOL    HW1 6425   0.957   4.576   0.088
 1842SOL    HW2 6426   1.047   4.666   7.010
 1843SOL     OW 6427   2.841   2.225   4.550
 1843SOL    HW1 6428   2.770   2.155   4.552
 1843SOL    HW2 6429   2.851   2.261   4.457
 1844SOL     OW 6430   4.795   2.977   3.786
 1844SOL    HW1 6431   4.893   2.978   3.763
 1844SOL    HW2 6432   4.757   3.068   3.775
 1845SOL     OW 6433   4.038   0.713   6.973
 1845SOL    HW1 6434   3.961   0.699   0.011
 1845SOL    HW2 6435   4.124   0.690   7.020
 1846SOL     OW 6436   3.386   1.277   5.627
 1846SOL    HW1 6437   3.358   1.245   5.536
 1846SOL    HW2 6438   3.313   1.259   5.693
 1847SOL     OW 6439   0.183   0.361   0.631
 1847SOL    HW1 6440   0.269   0.411   0.615
 1847SOL    HW2 6441   0.169   0.296   0.557
 1848SOL     OW 6442   2.747   6.913   2.256
 1848SOL    HW1 6443   2.697   6.998   2.273
 1848SOL    HW2 6444   2.684   6.843   2.224
 1849SOL     OW 6445   2.947   1.577   6.742
 1849SOL    HW1 6446   2.887   1.585   6.823
 1849SOL    HW2 6447   3.027   1.634   6.755
 1850SOL     OW 6448   6.019   2.472   2.408
 1850SOL    HW1 6449   5.990   2.380   2.435
 1850SOL    HW2 6450   5.940   2.533   2.410
 1851SOL     OW 6451   6.725   2.410   2.723
 1851SOL    HW1 6452   6.684   2.500   2.736
 1851SOL    HW2 6453   6.812   2.405   2.772
 1852SOL     OW 6454   5.146   2.885   0.339
 1852SOL    HW1 6455   5.171   2.968   0.390
 1852SOL    HW2 6456   5.198   2.808   0.375
 1853SOL     OW 6457   1.237   4.740   0.774
 1853SOL    HW1 6458   1.156   4.791   0.745
 1853SOL    HW2 6459   1.305   4.743   0.701
 1854SOL     OW 6460   2.412   5.715   4.524
 1854SOL    HW1 6461   2.458   5.755   4.604
 1854SOL    HW2 6462   2.446   5.622   4.509
 1855SOL     OW 6463   4.961   4.964   1.558
 1855SOL    HW1 6464   4.968   4.909   1.475
 1855SOL    HW2 6465   5.021   5.044   1.550
 1856SOL     OW 6466   5.021   2.113   5.545
 1856SOL    HW1 6467   5.018   2.213   5.542
 1856SOL    HW2 6468   5.104   2.084   5.593
 1857SOL     OW 6469   4.448   0.985   3.523
 1857SOL    HW1 6470   4.461   0.886   3.512
 1857SOL    HW2 6471   4.522   1.033   3.476
 1858SOL     OW 6472   4.975   3.551   3.418
 1858SOL    HW1 6473   4.953   3.457   3.392
 1858SOL    HW2 6474   4.944   3.568   3.512
 1859SOL     OW 6475   4.856   1.704   3.325
 1859SOL    HW1 6476   4.942   1.751   3.343
 1859SOL    HW2 6477   4.779   1.765   3.345
 1860SOL     OW 6478   5.274   1.272   4.593
 1860SOL    HW1 6479   5.244   1.313   4.679
 1860SOL    HW2 6480   5.358   1.220   4.609
 1861SOL     OW 6481   5.736   6.612   2.780
 1861SOL    HW1 6482   5.746   6.711   2.764
 1861SOL    HW2 6483   5.715   6.596   2.877
 1862SOL     OW 6484   2.150   1.508   0.043
 1862SOL    HW1 6485   2.071   1.447   0.048
 1862SOL    HW2 6486   2.145   1.562   6.984
 1863SOL     OW 6487   3.162   2.963   1.236
 1863SOL    HW1 6488   3.224   2.952   1.158
 1863SOL    HW2 6489   3.177   3.052   1.279
 1864SOL     OW 6490   1.480   6.511   4.107
 1864SOL    HW1 6491   1.513   6.515   4.201
 1864SOL    HW2 6492   1.395   6.460   4.104
 1865SOL     OW 6493   4.559   2.443   6.498
 1865SOL    HW1 6494   4.497   2.489   6.434
 1865SOL    HW2 6495   4.530   2.348   6.509
 1866SOL     OW 6496   4.565   5.083   2.776
 1866SOL    HW1 6497   4.507   5.002   2.769
 1866SOL    HW2 6498   4.638   5.067   2.842
 1867SOL     OW 6499   0.711   4.162   6.737
 1867SOL    HW1 6500   0.720   4.138   6.640
 1867SOL    HW2 6501   0.786   4.123   6.788
 1868SOL     OW 6502   6.042   4.138   5.686
 1868SOL    HW1 6503   6.116   4.133   5.618
 1868SOL    HW2 6504   6.032   4.048   5.730
 1869SOL     OW 6505   6.238   1.086   5.408
 1869SOL    HW1 6506   6.313   1.030   5.375
 1869SOL    HW2 6507   6.270   1.179   5.425
 1870SOL     OW 6508   1.754   5.592   4.279
 1870SOL    HW1 6509   1.819   5.596   4.354
 1870SOL    HW2 6510   1.791   5.535   4.206
 1871SOL     OW 6511   1.645   0.130   1.085
 1871SOL    HW1 6512   1.700   0.050   1.060
 1871SOL    HW2 6513   1.625   0.183   1.002
 1872SOL     OW 6514   2.423   4.443   6.978
 1872SOL    HW1 6515   2.365   4.361   6.976
 1872SOL    HW2 6516   2.463   4.453   0.045
 1873SOL     OW 6517   4.696   1.589   6.740
 1873SOL    HW1 6518   4.600   1.601   6.715
 1873SOL    HW2 6519   4.721   1.492   6.732
 1874SOL     OW 6520   1.246   2.220   2.780
 1874SOL    HW1 6521   1.253   2.314   2.813
 1874SOL    HW2 6522   1.253   2.220   2.680
 1875SOL     OW 6523   0.385   6.800   0.421
 1875SOL    HW1 6524   0.390   6.900   0.424
 1875SOL    HW2 6525   0.457   6.764   0.362
 1876SOL     OW 6526   2.812   0.379   4.307
 1876SOL    HW1 6527   2.763   0.292   4.296
 1876SOL    HW2 6528   2.902   0.372   4.263
 1877SOL     OW 6529   0.768   0.108   3.339
 1877SOL    HW1 6530   0.744   0.039   3.271
 1877SOL    HW2 6531   0.750   0.072   3.430
 1878SOL     OW 6532   6.445   2.367   5.580
 1878SOL    HW1 6533   6.381   2.401   5.649
 1878SOL    HW2 6534   6.401   2.366   5.491
 1879SOL     OW 6535   1.060   4.129   5.508
 1879SOL    HW1 6536   0.970   4.168   5.524
 1879SOL    HW2 6537   1.084   4.140   5.411
 1880SOL     OW 6538   6.319   0.378   5.802
 1880SOL    HW1 6539   6.396   0.433   5.834
 1880SOL    HW2 6540   6.245   0.438   5.772
 1881SOL     OW 6541   6.794   2.331   0.240
 1881SOL    HW1 6542   6.879   2.279   0.246
 1881SOL    HW2 6543   6.753   2.338   0.331
 1882SOL     OW 6544   0.578   4.788   5.981
 1882SOL    HW1 6545   0.541   4.880   5.994
 1882SOL    HW2 6546   0.528   4.743   5.907
 1883SOL     OW 6547   0.103   2.146   3.888
 1883SOL    HW1 6548   0.057   2.201   3.818
 1883SOL    HW2 6549   0.176   2.199   3.930
 1884SOL     OW 6550   0.419   2.634   1.159
 1884SOL    HW1 6551   0.461   2.680   1.081
 1884SOL    HW2 6552   0.379   2.702   1.220
 1885SOL     OW 6553   1.725   2.287   4.633
 1885SOL    HW1 6554   1.662   2.226   4.585
 1885SOL    HW2 6555   1.703   2.382   4.612
 1886SOL     OW 6556   1.183   6.512   3.304
 1886SOL    HW1 6557   1.125   6.551   3.376
 1886SOL    HW2 6558   1.271   6.560   3.303
 1887SOL     OW 6559   1.802   6.075   6.545
 1887SOL    HW1 6560   1.766   6.113   6.460
 1887SOL    HW2 6561   1.880   6.016   6.524
 1888SOL     OW 6562   2.694   0.883   1.856
 1888SOL    HW1 6563   2.723   0.976   1.835
 1888SOL    HW2 6564   2.673   0.834   1.772
 1889SOL     OW 6565   0.415   3.250   3.420
 1889SOL    HW1 6566   0.501   3.200   3.429
 1889SOL    HW2 6567   0.344   3.188   3.386
 1890SOL     OW 6568   0.132   5.988   3.607
 1890SOL    HW1 6569   0.060   5.991   3.677
 1890SOL    HW2 6570   0.171   6.079   3.597
 1891SOL     OW 6571   3.316   3.307   2.834
 1891SOL    HW1 6572   3.288   3.336   2.926
 1891SOL    HW2 6573   3.240   3.259   2.790
 1892SOL     OW 6574   0.330   0.733   2.425
 1892SOL    HW1 6575   0.334   0.790   2.343
 1892SOL    HW2 6576   0.339   0.636   2.400
 1893SOL     OW 6577   3.250   3.125   3.795
 1893SOL    HW1 6578   3.247   3.108   3.697
 1893SOL    HW2 6579   3.288   3.045   3.841
 1894SOL     OW 6580   2.903   3.760   4.106
 1894SOL    HW1 6581   2.934   3.688   4.168
 1894SOL    HW2 6582   2.876   3.840   4.160
 1895SOL     OW 6583   2.548   6.142   6.782
 1895SOL    HW1 6584   2.590   6.217   6.834
 1895SOL    HW2 6585   2.454   6.128   6.812
 1896SOL     OW 6586   5.283   2.601   0.867
 1896SOL    HW1 6587   5.305   2.678   0.927
 1896SOL    HW2 6588   5.243   2.527   0.922
 1897SOL     OW 6589   2.016   4.760   4.397
 1897SOL    HW1 6590   2.061   4.836   4.352
 1897SOL    HW2 6591   2.081   4.684   4.408
 1898SOL     OW 6592   1.299   5.971   3.486
 1898SOL    HW1 6593   1.317   5.898   3.420
 1898SOL    HW2 6594   1.285   6.057   3.437
 1899SOL     OW 6595   7.017   0.288   2.398
 1899SOL    HW1 6596   6.947   0.224   2.429
 1899SOL    HW2 6597   0.026   0.341   2.475
 1900SOL     OW 6598   2.854   6.769   0.090
 1900SOL    HW1 6599   2.815   6.816   0.011
 1900SOL    HW2 6600   2.939   6.815   0.118
 1901SOL     OW 6601   2.904   3.578   1.241
 1901SOL    HW1 6602   2.871   3.635   1.316
 1901SOL    HW2 6603   2.942   3.636   1.169
 1902SOL     OW 6604   1.162   0.014   4.272
 1902SOL    HW1 6605   1.210   6.955   4.247
 1902SOL    HW2 6606   1.145   0.068   4.189
 1903SOL     OW 6607   0.837   2.734   4.524
 1903SOL    HW1 6608   0.881   2.819   4.553
 1903SOL    HW2 6609   0.738   2.743   4.533
 1904SOL     OW 6610   5.464   5.677   2.322
 1904SOL    HW1 6611   5.559   5.648   2.311
 1904SOL    HW2 6612   5.450   5.764   2.275
 1905SOL     OW 6613   6.833   0.459   4.132
 1905SOL    HW1 6614   6.867   0.499   4.216
 1905SOL    HW2 6615   6.869   0.509   4.053
 1906SOL     OW 6616   1.604   6.973   5.536
 1906SOL    HW1 6617   1.582   6.987   5.632
 1906SOL    HW2 6618   1.558   0.018   5.480
 1907SOL     OW 6619   5.951   2.529   0.025
 1907SOL    HW1 6620   6.010   2.522   0.106
 1907SOL    HW2 6621   5.991   2.594   6.985
 1908SOL     OW 6622   3.283   1.124   1.297
 1908SOL    HW1 6623   3.252   1.190   1.228
 1908SOL    HW2 6624   3.274   1.164   1.388
 1909SOL     OW 6625   6.663   4.628   4.908
 1909SOL    HW1 6626   6.586   4.675   4.865
 1909SOL    HW2 6627   6.629   4.571   4.984
 1910SOL     OW 6628   6.912   6.313   5.836
 1910SOL    HW1 6629   6.919   6.374   5.758
 1910SOL    HW2 6630   6.994   6.321   5.893
 1911SOL     OW 6631   6.873   4.914   3.958
 1911SOL    HW1 6632   6.937   4.844   3.989
 1911SOL    HW2 6633   6.885   4.997   4.013
 1912SOL     OW 6634   2.748   5.435   1.967
 1912SOL    HW1 6635   2.691   5.372   2.020
 1912SOL    HW2 6636   2.776   5.391   1.881
 1913SOL     OW 6637   2.739   4.532   5.998
 1913SOL    HW1 6638   2.694   4.611   5.957
 1913SOL    HW2 6639   2.751   4.460   5.929
 1914SOL     OW 6640   2.197   4.948   6.350
 1914SOL    HW1 6641   2.177   4.925   6.445
 1914SOL    HW2 6642   2.182   5.046   6.336
 1915SOL     OW 6643   4.137   2.323   5.550
 1915SOL    HW1 6644   4.045   2.286   5.535
 1915SOL    HW2 6645   4.129   2.418   5.581
 1916SOL     OW 6646   4.087   0.748   1.968
 1916SOL    HW1 6647   4.181   0.781   1.977
 1916SOL    HW2 6648   4.036   0.768   2.052
 1917SOL     OW 6649   2.259   3.947   1.624
 1917SOL    HW1 6650   2.228   4.021   1.565
 1917SOL    HW2 6651   2.180   3.898   1.660
 1918SOL     OW 6652   5.538   2.671   4.162
 1918SOL    HW1 6653   5.543   2.582   4.117
 1918SOL    HW2 6654   5.629   2.696   4.196
 1919SOL     OW 6655   0.275   2.406   1.068
 1919SOL    HW1 6656   0.322   2.471   1.127
 1919SOL    HW2 6657   0.341   2.364   1.005
 1920SOL     OW 6658   5.110   2.622   0.660
 1920SOL    HW1 6659   5.186   2.642   0.722
 1920SOL    HW2 6660   5.040   2.693   0.670
 1921SOL     OW 6661   1.764   2.776   0.023
 1921SOL    HW1 6662   1.754   2.810   0.117
 1921SOL    HW2 6663   1.856   2.799   7.015
 1922SOL     OW 6664   3.536   3.175   2.346
 1922SOL    HW1 6665   3.597   3.098   2.365
 1922SOL    HW2 6666   3.445   3.140   2.321
 1923SOL     OW 6667   3.955   0.411   4.975
 1923SOL    HW1 6668   4.041   0.430   4.929
 1923SOL    HW2 6669   3.973   0.393   5.072
 1924SOL     OW 6670   3.913   0.404   0.196
 1924SOL    HW1 6671   3.891   0.333   0.262
 1924SOL    HW2 6672   3.902   0.368   0.103
 1925SOL     OW 6673   1.464   4.387   0.690
 1925SOL    HW1 6674   1.548   4.427   0.653
 1925SOL    HW2 6675   1.489   4.320   0.760
 1926SOL     OW 6676   3.505   0.180   2.202
 1926SOL    HW1 6677   3.513   0.257   2.140
 1926SOL    HW2 6678   3.513   0.094   2.151
 1927SOL     OW 6679   2.294   5.290   1.786
 1927SOL    HW1 6680   2.298   5.220   1.715
 1927SOL    HW2 6681   2.335   5.374   1.752
 1928SOL     OW 6682   5.232   4.112   3.236
 1928SOL    HW1 6683   5.171   4.036   3.214
 1928SOL    HW2 6684   5.315   4.105   3.180
 1929SOL     OW 6685   3.556   0.038   3.147
 1929SOL    HW1 6686   3.556   0.123   3.201
 1929SOL    HW2 6687   3.646   0.027   3.104
 1930SOL     OW 6688   4.417   3.048   6.917
 1930SOL    HW1 6689   4.379   2.966   6.960
 1930SOL    HW2 6690   4.475   3.022   6.840
 1931SOL     OW 6691   0.129   1.536   4.746
 1931SOL    HW1 6692   0.104   1.622   4.790
 1931SOL    HW2 6693   0.046   1.487   4.719
 1932SOL     OW 6694   4.352   2.367   1.684
 1932SOL    HW1 6695   4.401   2.370   1.772
 1932SOL    HW2 6696   4.269   2.423   1.690
 1933SOL     OW 6697   1.087   0.832   1.333
 1933SOL    HW1 6698   1.008   0.819   1.392
 1933SOL    HW2 6699   1.164   0.865   1.388
 1934SOL     OW 6700   0.165   0.598   6.980
 1934SOL    HW1 6701   0.148   0.676   6.920
 1934SOL    HW2 6702   0.079   0.552   7.000
 1935SOL     OW 6703   6.435   4.991   4.188
 1935SOL    HW1 6704   6.343   5.026   4.169
 1935SOL    HW2 6705   6.448   4.905   4.140
 1936SOL     OW 6706   4.589   2.908   5.841
 1936SOL    HW1 6707   4.592   2.824   5.786
 1936SOL    HW2 6708   4.632   2.982   5.791
 1937SOL     OW 6709   5.446   4.871   6.177
 1937SOL    HW1 6710   5.352   4.896   6.200
 1937SOL    HW2 6711   5.478   4.798   6.238
 1938SOL     OW 6712   6.991   3.521   6.385
 1938SOL    HW1 6713   0.052   3.469   6.382
 1938SOL    HW2 6714   6.971   3.548   6.479
 1939SOL     OW 6715   1.138   0.498   5.007
 1939SOL    HW1 6716   1.204   0.563   5.044
 1939SOL    HW2 6717   1.175   0.457   4.923
 1940SOL     OW 6718   6.731   5.000   0.642
 1940SOL    HW1 6719   6.777   4.923   0.598
 1940SOL    HW2 6720   6.654   4.967   0.697
 1941SOL     OW 6721   5.758   1.757   4.564
 1941SOL    HW1 6722   5.659   1.756   4.579
 1941SOL    HW2 6723   5.778   1.788   4.471
 1942SOL     OW 6724   6.356   3.777   2.705
 1942SOL    HW1 6725   6.326   3.733   2.620
 1942SOL    HW2 6726   6.304   3.741   2.782
 1943SOL     OW 6727   0.863   2.183   2.514
 1943SOL    HW1 6728   0.928   2.240   2.564
 1943SOL    HW2 6729   0.861   2.092   2.555
 1944SOL     OW 6730   6.870   2.409   3.360
 1944SOL    HW1 6731   6.829   2.488   3.314
 1944SOL    HW2 6732   6.816   2.386   3.441
 1945SOL     OW 6733   4.751   1.436   1.627
 1945SOL    HW1 6734   4.696   1.405   1.705
 1945SOL    HW2 6735   4.705   1.512   1.582
 1946SOL     OW 6736   6.442   5.020   0.938
 1946SOL    HW1 6737   6.479   5.112   0.925
 1946SOL    HW2 6738   6.411   5.009   1.033
 1947SOL     OW 6739   6.204   4.659   3.668
 1947SOL    HW1 6740   6.118   4.702   3.639
 1947SOL    HW2 6741   6.265   4.650   3.590
 1948SOL     OW 6742   4.974   3.503   2.995
 1948SOL    HW1 6743   4.957   3.593   2.953
 1948SOL    HW2 6744   4.935   3.502   3.087
 1949SOL     OW 6745   3.454   5.145   6.974
 1949SOL    HW1 6746   3.380   5.206   6.944
 1949SOL    HW2 6747   3.460   5.146   0.049
 1950SOL     OW 6748   3.350   3.855   3.282
 1950SOL    HW1 6749   3.342   3.954   3.278
 1950SOL    HW2 6750   3.259   3.815   3.297
 1951SOL     OW 6751   5.911   4.633   5.247
 1951SOL    HW1 6752   5.936   4.541   5.218
 1951SOL    HW2 6753   5.982   4.697   5.220
 1952SOL     OW 6754   5.816   5.096   0.459
 1952SOL    HW1 6755   5.874   5.177   0.467
 1952SOL    HW2 6756   5.720   5.125   0.450
 1953SOL     OW 6757   0.824   1.560   6.726
 1953SOL    HW1 6758   0.887   1.541   6.802
 1953SOL    HW2 6759   0.857   1.514   6.644
 1954SOL     OW 6760   4.335   7.024   2.047
 1954SOL    HW1 6761   4.405   6.966   2.089
 1954SOL    HW2 6762   4.272   6.967   1.994
 1955SOL     OW 6763   0.079   1.988   3.374
 1955SOL    HW1 6764   0.001   2.050   3.363
 1955SOL    HW2 6765   0.066   1.909   3.314
 1956SOL     OW 6766   5.883   0.359   1.818
 1956SOL    HW1 6767   5.817   0.434   1.815
 1956SOL    HW2 6768   5.835   0.272   1.825
 1957SOL     OW 6769   5.800   2.130   4.815
 1957SOL    HW1 6770   5.892   2.089   4.814
 1957SOL    HW2 6771   5.802   2.216   4.764
 1958SOL     OW 6772   4.356   1.906   0.312
 1958SOL    HW1 6773   4.454   1.890   0.324
 1958SOL    HW2 6774   4.341   1.965   0.233
 1959SOL     OW 6775   0.624   1.064   4.992
 1959SOL    HW1 6776   0.605   1.105   4.903
 1959SOL    HW2 6777   0.539   1.037   5.036
 1960SOL     OW 6778   5.873   4.299   4.227
 1960SOL    HW1 6779   5.954   4.295   4.169
 1960SOL    HW2 6780   5.834   4.391   4.224
 1961SOL     OW 6781   0.318   3.521   4.198
 1961SOL    HW1 6782   0.297   3.586   4.125
 1961SOL    HW2 6783   0.239   3.462   4.214
 1962SOL     OW 6784   1.063   0.463   2.887
 1962SOL    HW1 6785   1.009   0.499   2.811
 1962SOL    HW2 6786   1.069   0.531   2.960
 1963SOL     OW 6787   0.272   2.867   1.014
 1963SOL    HW1 6788   0.272   2.853   1.113
 1963SOL    HW2 6789   0.303   2.960   0.994
 1964SOL     OW 6790   5.968   3.659   1.177
 1964SOL    HW1 6791   5.909   3.615   1.244
 1964SOL    HW2 6792   6.063   3.654   1.208
 1965SOL     OW 6793   6.888   4.158   4.059
 1965SOL    HW1 6794   6.904   4.170   3.961
 1965SOL    HW2 6795   6.790   4.151   4.077
 1966SOL     OW 6796   1.591   4.836   0.114
 1966SOL    HW1 6797   1.559   4.775   0.186
 1966SOL    HW2 6798   1.544   4.925   0.122
 1967SOL     OW 6799   6.270   3.259   3.860
 1967SOL    HW1 6800   6.176   3.292   3.873
 1967SOL    HW2 6801   6.268   3.172   3.812
 1968SOL     OW 6802   2.727   1.638   4.936
 1968SOL    HW1 6803   2.697   1.733   4.941
 1968SOL    HW2 6804   2.823   1.632   4.962
 1969SOL     OW 6805   2.257   6.396   0.473
 1969SOL    HW1 6806   2.322   6.466   0.444
 1969SOL    HW2 6807   2.175   6.400   0.416
 1970SOL     OW 6808   5.667   5.442   4.905
 1970SOL    HW1 6809   5.733   5.498   4.856
 1970SOL    HW2 6810   5.661   5.352   4.861
 1971SOL     OW 6811   1.678   5.341   4.951
 1971SOL    HW1 6812   1.722   5.260   4.988
 1971SOL    HW2 6813   1.581   5.341   4.977
 1972SOL     OW 6814   6.003   2.926   2.588
 1972SOL    HW1 6815   5.989   2.902   2.684
 1972SOL    HW2 6816   6.096   2.900   2.560
 1973SOL     OW 6817   2.262   2.945   0.705
 1973SOL    HW1 6818   2.183   2.964   0.762
 1973SOL    HW2 6819   2.346   2.957   0.759
 1974SOL     OW 6820   2.494   5.851   4.755
 1974SOL    HW1 6821   2.590   5.855   4.784
 1974SOL    HW2 6822   2.440   5.807   4.826
 1975SOL     OW 6823   2.011   2.601   3.236
 1975SOL    HW1 6824   2.087   2.662   3.259
 1975SOL    HW2 6825   1.925   2.653   3.235
 1976SOL     OW 6826   0.407   0.043   6.012
 1976SOL    HW1 6827   0.453   0.023   5.926
 1976SOL    HW2 6828   0.423   6.993   6.077
 1977SOL     OW 6829   1.969   4.594   5.578
 1977SOL    HW1 6830   2.005   4.687   5.586
 1977SOL    HW2 6831   1.874   4.597   5.548
 1978SOL     OW 6832   3.061   0.250   1.766
 1978SOL    HW1 6833   3.119   0.180   1.725
 1978SOL    HW2 6834   2.968   0.216   1.773
 1979SOL     OW 6835   6.447   4.869   6.193
 1979SOL    HW1 6836   6.409   4.875   6.286
 1979SOL    HW2 6837   6.543   4.897   6.194
 1980SOL     OW 6838   3.272   1.494   0.921
 1980SOL    HW1 6839   3.371   1.504   0.910
 1980SOL    HW2 6840   3.249   1.397   0.919
 1981SOL     OW 6841   3.553   1.934   3.000
 1981SOL    HW1 6842   3.561   1.973   3.092
 1981SOL    HW2 6843   3.563   2.008   2.932
 1982SOL     OW 6844   0.829   2.873   5.106
 1982SOL    HW1 6845   0.872   2.795   5.060
 1982SOL    HW2 6846   0.759   2.840   5.169
 1983SOL     OW 6847   0.147   0.532   2.255
 1983SOL    HW1 6848   0.151   0.512   2.157
 1983SOL    HW2 6849   0.139   0.446   2.305
 1984SOL     OW 6850   4.496   2.812   6.068
 1984SOL    HW1 6851   4.517   2.829   5.972
 1984SOL    HW2 6852   4.405   2.850   6.089
 1985SOL     OW 6853   6.456   3.371   2.496
 1985SOL    HW1 6854   6.376   3.391   2.552
 1985SOL    HW2 6855   6.526   3.440   2.512
 1986SOL     OW 6856   3.641   2.897   1.943
 1986SOL    HW1 6857   3.648   2.822   1.877
 1986SOL    HW2 6858   3.730   2.942   1.952
 1987SOL     OW 6859   2.720   1.234   1.056
 1987SOL    HW1 6860   2.759   1.156   1.006
 1987SOL    HW2 6861   2.701   1.207   1.150
 1988SOL     OW 6862   0.257   2.170   1.491
 1988SOL    HW1 6863   0.301   2.133   1.409
 1988SOL    HW2 6864   0.324   2.220   1.546
 1989SOL     OW 6865   3.141   4.963   4.709
 1989SOL    HW1 6866   3.076   4.925   4.776
 1989SOL    HW2 6867   3.102   4.957   4.618
 1990SOL     OW 6868   3.864   0.633   0.331
 1990SOL    HW1 6869   3.881   0.547   0.282
 1990SOL    HW2 6870   3.769   0.660   0.319
 1991SOL     OW 6871   2.984   4.808   0.956
 1991SOL    HW1 6872   2.890   4.802   0.921
 1991SOL    HW2 6873   3.018   4.901   0.945
 1992SOL     OW 6874   0.239   6.374   1.969
 1992SOL    HW1 6875   0.289   6.308   2.026
 1992SOL    HW2 6876   0.287   6.385   1.882
 1993SOL     OW 6877   2.504   2.230   2.856
 1993SOL    HW1 6878   2.512   2.319   2.812
 1993SOL    HW2 6879   2.508   2.242   2.956
 1994SOL     OW 6880   3.277   3.033   0.993
 1994SOL    HW1 6881   3.365   3.062   1.030
 1994SOL    HW2 6882   3.289   2.945   0.946
 1995SOL     OW 6883   5.493   1.686   4.579
 1995SOL    HW1 6884   5.548   1.611   4.617
 1995SOL    HW2 6885   5.408   1.695   4.631
 1996SOL     OW 6886   4.290   1.064   1.046
 1996SOL    HW1 6887   4.360   1.004   1.085
 1996SOL    HW2 6888   4.333   1.149   1.016
 1997SOL     OW 6889   3.904   0.482   4.122
 1997SOL    HW1 6890   3.879   0.569   4.079
 1997SOL    HW2 6891   3.862   0.475   4.212
 1998SOL     OW 6892   1.934   3.539   1.474
 1998SOL    HW1 6893   1.889   3.595   1.404
 1998SOL    HW2 6894   1.864   3.495   1.530
 1999SOL     OW 6895   1.383   0.068   1.163
 1999SOL    HW1 6896   1.470   0.116   1.165
 1999SOL    HW2 6897   1.399   6.995   1.175
 2000SOL     OW 6898   3.957   4.280   5.983
 2000SOL    HW1 6899   3.929   4.314   5.893
 2000SOL    HW2 6900   3.924   4.187   5.996
 2001SOL     OW 6901   2.159   1.750   0.736
 2001SOL    HW1 6902   2.118   1.841   0.727
 2001SOL    HW2 6903   2.202   1.742   0.826
 2002SOL     OW 6904   0.094   5.119   0.277
 2002SOL    HW1 6905   0.052   5.136   0.366
 2002SOL    HW2 6906   0.024   5.089   0.212
 2003SOL     OW 6907   6.264   4.451   2.622
 2003SOL    HW1 6908   6.318   4.422   2.701
 2003SOL    HW2 6909   6.168   4.427   2.637
 2004SOL     OW 6910   3.930   6.863   3.281
 2004SOL    HW1 6911   3.916   6.938   3.346
 2004SOL    HW2 6912   4.009   6.882   3.224
 2005SOL     OW 6913   1.521   6.355   6.960
 2005SOL    HW1 6914   1.524   6.325   6.864
 2005SOL    HW2 6915   1.483   6.447   6.965
 2006SOL     OW 6916   5.754   6.000   2.465
 2006SOL    HW1 6917   5.688   5.942   2.513
 2006SOL    HW2 6918   5.710   6.086   2.440
 2007SOL     OW 6919   5.376   4.561   0.053
 2007SOL    HW1 6920   5.445   4.549   0.124
 2007SOL    HW2 6921   5.348   4.657   0.050
 2008SOL     OW 6922   2.078   3.290   3.654
 2008SOL    HW1 6923   1.979   3.287   3.640
 2008SOL    HW2 6924   2.119   3.352   3.588
 2009SOL     OW 6925   6.455   0.148   2.764
 2009SOL    HW1 6926   6.444   0.227   2.703
 2009SOL    HW2 6927   6.431   0.064   2.715
 2010SOL     OW 6928   0.447   2.150   1.298
 2010SOL    HW1 6929   0.420   2.156   1.202
 2010SOL    HW2 6930   0.545   2.164   1.306
 2011SOL     OW 6931   1.385   6.858   5.127
 2011SOL    HW1 6932   1.365   6.826   5.219
 2011SOL    HW2 6933   1.380   6.958   5.124
 2012SOL     OW 6934   1.416   3.107   2.082
 2012SOL    HW1 6935   1.378   3.155   2.003
 2012SOL    HW2 6936   1.509   3.077   2.062
 2013SOL     OW 6937   0.811   3.432   1.759
 2013SOL    HW1 6938   0.726   3.407   1.805
 2013SOL    HW2 6939   0.880   3.455   1.828
 2014SOL     OW 6940   3.866   0.682   4.716
 2014SOL    HW1 6941   3.933   0.649   4.650
 2014SOL    HW2 6942   3.810   0.605   4.747
 2015SOL     OW 6943   4.050   0.336   1.840
 2015SOL    HW1 6944   3.990   0.363   1.764
 2015SOL    HW2 6945   4.133   0.392   1.838
 2016SOL     OW 6946   1.734   0.427   4.797
 2016SOL    HW1 6947   1.815   0.425   4.739
 2016SOL    HW2 6948   1.731   0.344   4.854
 2017SOL     OW 6949   4.163   6.276   3.804
 2017SOL    HW1 6950   4.122   6.192   3.841
 2017SOL    HW2 6951   4.209   6.255   3.718
 2018SOL     OW 6952   1.310   0.772   4.281
 2018SOL    HW1 6953   1.404   0.806   4.272
 2018SOL    HW2 6954   1.276   0.792   4.373
 2019SOL     OW 6955   5.703   5.265   6.379
 2019SOL    HW1 6956   5.681   5.205   6.301
 2019SOL    HW2 6957   5.801   5.282   6.381
 2020SOL     OW 6958   2.361   6.388   0.083
 2020SOL    HW1 6959   2.297   6.451   0.039
 2020SOL    HW2 6960   2.450   6.432   0.093
 2021SOL     OW 6961   6.865   5.938   4.313
 2021SOL    HW1 6962   6.859   5.917   4.410
 2021SOL    HW2 6963   6.856   5.854   4.260
 2022SOL     OW 6964   2.045   4.030   4.462
 2022SOL    HW1 6965   2.109   4.022   4.539
 2022SOL    HW2 6966   2.067   3.962   4.393
 2023SOL     OW 6967   6.967   6.894   0.474
 2023SOL    HW1 6968   0.029   6.844   0.482
 2023SOL    HW2 6969   6.938   6.895   0.379
 2024SOL     OW 6970   0.444   6.086   4.217
 2024SOL    HW1 6971   0.524   6.064   4.161
 2024SOL    HW2 6972   0.383   6.007   4.219
 2025SOL     OW 6973   1.455   6.235   4.289
 2025SOL    HW1 6974   1.432   6.179   4.209
 2025SOL    HW2 6975   1.372   6.260   4.338
 2026SOL     OW 6976   0.163   0.187   6.030
 2026SOL    HW1 6977   0.245   0.133   6.009
 2026SOL    HW2 6978   0.164   0.213   6.126
 2027SOL     OW 6979   6.688   6.064   1.853
 2027SOL    HW1 6980   6.751   6.119   1.906
 2027SOL    HW2 6981   6.631   6.009   1.914
 2028SOL     OW 6982   3.255   5.436   4.617
 2028SOL    HW1 6983   3.303   5.445   4.704
 2028SOL    HW2 6984   3.198   5.354   4.619
 2029SOL     OW 6985   6.626   2.655   6.603
 2029SOL    HW1 6986   6.685   2.735   6.591
 2029SOL    HW2 6987   6.677   2.572   6.583
 2030SOL     OW 6988   2.227   0.225   1.859
 2030SOL    HW1 6989   2.303   0.280   1.893
 2030SOL    HW2 6990   2.226   0.137   1.905
 2031SOL     OW 6991   0.128   5.955   4.254
 2031SOL    HW1 6992   0.167   5.971   4.163
 2031SOL    HW2 6993   0.030   5.937   4.245
 2032SOL     OW 6994   2.292   2.407   6.069
 2032SOL    HW1 6995   2.371   2.388   6.128
 2032SOL    HW2 6996   2.277   2.330   6.007
 2033SOL     OW 6997   2.768   2.042   0.747
 2033SOL    HW1 6998   2.839   1.974   0.764
 2033SOL    HW2 6999   2.693   2.001   0.695
 2034SOL     OW 7000   0.473   3.898   4.841
 2034SOL    HW1 7001   0.512   3.866   4.755
 2034SOL    HW2 7002   0.536   3.879   4.916
 2035SOL     OW 7003   5.092   7.014   3.254
 2035SOL    HW1 7004   5.008   6.964   3.234
 2035SOL    HW2 7005   5.071   0.072   3.306
 2036SOL     OW 7006   0.370   4.780   6.716
 2036SOL    HW1 7007   0.427   4.849   6.761
 2036SOL    HW2 7008   0.273   4.799   6.735
 2037SOL     OW 7009   0.857   2.492   6.828
 2037SOL    HW1 7010   0.841   2.543   6.743
 2037SOL    HW2 7011   0.771   2.450   6.858
 2038SOL     OW 7012   0.979   1.004   6.430
 2038SOL    HW1 7013   1.041   0.995   6.351
 2038SOL    HW2 7014   1.001   1.087   6.480
 2039SOL     OW 7015   5.326   6.562   3.521
 2039SOL    HW1 7016   5.233   6.539   3.493
 2039SOL    HW2 7017   5.360   6.639   3.465
 2040SOL     OW 7018   2.271   2.344   0.263
 2040SOL    HW1 7019   2.210   2.420   0.286
 2040SOL    HW2 7020   2.228   2.257   0.289
 2041SOL     OW 7021   2.850   0.815   6.452
 2041SOL    HW1 7022   2.775   0.777   6.398
 2041SOL    HW2 7023   2.846   0.915   6.450
 2042SOL     OW 7024   6.371   1.192   5.749
 2042SOL    HW1 7025   6.391   1.106   5.702
 2042SOL    HW2 7026   6.457   1.239   5.770
 2043SOL     OW 7027   0.571   3.835   1.103
 2043SOL    HW1 7028   0.477   3.856   1.130
 2043SOL    HW2 7029   0.613   3.776   1.172
 2044SOL     OW 7030   4.292   0.812   1.310
 2044SOL    HW1 7031   4.390   0.820   1.329
 2044SOL    HW2 7032   4.248   0.902   1.321
 2045SOL     OW 7033   1.363   6.279   4.689
 2045SOL    HW1 7034   1.340   6.346   4.760
 2045SOL    HW2 7035   1.458   6.292   4.660
 2046SOL     OW 7036   0.683   2.144   4.999
 2046SOL    HW1 7037   0.618   2.144   4.923
 2046SOL    HW2 7038   0.683   2.233   5.043
 2047SOL     OW 7039   0.334   0.678   0.691
 2047SOL    HW1 7040   0.405   0.749   0.694
 2047SOL    HW2 7041   0.304   0.665   0.597
 2048SOL     OW 7042   1.046   2.369   3.825
 2048SOL    HW1 7043   1.088   2.278   3.827
 2048SOL    HW2 7044   1.117   2.439   3.825
 2049SOL     OW 7045   4.628   2.309   4.745
 2049SOL    HW1 7046   4.614   2.211   4.748
 2049SOL    HW2 7047   4.542   2.355   4.723
 2050SOL     OW 7048   0.866   1.264   4.134
 2050SOL    HW1 7049   0.880   1.264   4.035
 2050SOL    HW2 7050   0.953   1.280   4.180
 2051SOL     OW 7051   2.584   6.584   0.103
 2051SOL    HW1 7052   2.652   6.641   0.057
 2051SOL    HW2 7053   2.578   6.613   0.199
 2052SOL     OW 7054   0.985   4.238   6.885
 2052SOL    HW1 7055   1.074   4.283   6.877
 2052SOL    HW2 7056   0.978   4.194   6.974
 2053SOL     OW 7057   6.695   5.409   3.182
 2053SOL    HW1 7058   6.639   5.365   3.252
 2053SOL    HW2 7059   6.775   5.451   3.224
 2054SOL     OW 7060   3.068   4.004   3.049
 2054SOL    HW1 7061   3.145   4.042   3.100
 2054SOL    HW2 7062   3.084   4.017   2.951
 2055SOL     OW 7063   3.854   2.341   5.506
 2055SOL    HW1 7064   3.850   2.410   5.434
 2055SOL    HW2 7065   3.808   2.377   5.588
 2056SOL     OW 7066   3.364   4.721   1.311
 2056SOL    HW1 7067   3.314   4.638   1.338
 2056SOL    HW2 7068   3.371   4.782   1.390
 2057SOL     OW 7069   5.200   3.051   4.589
 2057SOL    HW1 7070   5.150   3.026   4.671
 2057SOL    HW2 7071   5.295   3.019   4.597
 2058SOL     OW 7072   6.768   6.975   3.378
 2058SOL    HW1 7073   6.804   6.938   3.464
 2058SOL    HW2 7074   6.682   6.929   3.355
 2059SOL     OW 7075   1.486   1.144   5.238
 2059SOL    HW1 7076   1.579   1.179   5.244
 2059SOL    HW2 7077   1.429   1.191   5.306
 2060SOL     OW 7078   1.939   3.091   6.991
 2060SOL    HW1 7079   1.949   3.062   0.062
 2060SOL    HW2 7080   1.842   3.094   6.968
 2061SOL     OW 7081   1.733   2.742   2.701
 2061SOL    HW1 7082   1.808   2.741   2.634
 2061SOL    HW2 7083   1.658   2.797   2.665
 2062SOL     OW 7084   0.078   5.148   4.929
 2062SOL    HW1 7085   7.005   5.162   4.913
 2062SOL    HW2 7086   0.119   5.106   4.848
 2063SOL     OW 7087   1.049   1.717   4.486
 2063SOL    HW1 7088   1.118   1.759   4.427
 2063SOL    HW2 7089   1.004   1.788   4.541
 2064SOL     OW 7090   1.000   3.453   3.820
 2064SOL    HW1 7091   0.921   3.393   3.809
 2064SOL    HW2 7092   1.084   3.403   3.798
 2065SOL     OW 7093   4.027   3.705   5.635
 2065SOL    HW1 7094   4.014   3.609   5.610
 2065SOL    HW2 7095   3.982   3.763   5.567
 2066SOL     OW 7096   1.070   3.307   5.921
 2066SOL    HW1 7097   1.023   3.377   5.866
 2066SOL    HW2 7098   1.027   3.218   5.905
 2067SOL     OW 7099   6.308   5.210   1.463
 2067SOL    HW1 7100   6.365   5.141   1.507
 2067SOL    HW2 7101   6.343   5.301   1.485
 2068SOL     OW 7102   4.367   0.563   4.694
 2068SOL    HW1 7103   4.408   0.652   4.714
 2068SOL    HW2 7104   4.364   0.549   4.596
 2069SOL     OW 7105   0.133   0.955   3.410
 2069SOL    HW1 7106   0.154   1.007   3.328
 2069SOL    HW2 7107   0.081   1.012   3.474
 2070SOL     OW 7108   1.254   5.046   1.315
 2070SOL    HW1 7109   1.194   5.123   1.296
 2070SOL    HW2 7110   1.216   4.963   1.273
 2071SOL     OW 7111   0.413   1.878   5.242
 2071SOL    HW1 7112   0.445   1.784   5.225
 2071SOL    HW2 7113   0.370   1.915   5.160
 2072SOL     OW 7114   5.222   4.321   5.453
 2072SOL    HW1 7115   5.246   4.391   5.520
 2072SOL    HW2 7116   5.277   4.239   5.469
 2073SOL     OW 7117   3.204   5.262   6.879
 2073SOL    HW1 7118   3.213   5.341   6.819
 2073SOL    HW2 7119   3.164   5.289   6.966
 2074SOL     OW 7120   1.394   4.888   6.131
 2074SOL    HW1 7121   1.372   4.856   6.039
 2074SOL    HW2 7122   1.490   4.915   6.135
 2075SOL     OW 7123   5.899   3.015   1.324
 2075SOL    HW1 7124   5.830   2.957   1.280
 2075SOL    HW2 7125   5.961   3.052   1.256
 2076SOL     OW 7126   6.213   6.964   4.558
 2076SOL    HW1 7127   6.181   7.004   4.472
 2076SOL    HW2 7128   6.242   0.012   4.620
 2077SOL     OW 7129   6.492   4.713   1.111
 2077SOL    HW1 7130   6.502   4.614   1.120
 2077SOL    HW2 7131   6.573   4.758   1.149
 2078SOL     OW 7132   0.750   3.111   5.670
 2078SOL    HW1 7133   0.771   3.173   5.594
 2078SOL    HW2 7134   0.732   3.019   5.634
 2079SOL     OW 7135   5.333   0.925   2.661
 2079SOL    HW1 7136   5.306   0.835   2.696
 2079SOL    HW2 7137   5.432   0.935   2.670
 2080SOL     OW 7138   2.555   3.558   6.071
 2080SOL    HW1 7139   2.512   3.493   6.135
 2080SOL    HW2 7140   2.654   3.551   6.078
 2081SOL     OW 7141   5.684   6.204   2.124
 2081SOL    HW1 7142   5.741   6.136   2.078
 2081SOL    HW2 7143   5.739   6.285   2.144
 2082SOL     OW 7144   6.437   6.271   4.314
 2082SOL    HW1 7145   6.480   6.303   4.398
 2082SOL    HW2 7146   6.484   6.188   4.282
 2083SOL     OW 7147   0.130   6.640   3.873
 2083SOL    HW1 7148   0.049   6.591   3.840
 2083SOL    HW2 7149   0.152   6.608   3.965
 2084SOL     OW 7150   6.481   2.240   0.777
 2084SOL    HW1 7151   6.384   2.253   0.798
 2084SOL    HW2 7152   6.503   2.284   0.690
 2085SOL     OW 7153   6.200   5.920   1.053
 2085SOL    HW1 7154   6.245   5.993   1.105
 2085SOL    HW2 7155   6.264   5.844   1.041
 2086SOL     OW 7156   4.566   0.865   6.980
 2086SOL    HW1 7157   4.623   0.821   0.023
 2086SOL    HW2 7158   4.607   0.953   6.954
 2087SOL     OW 7159   4.371   1.674   7.019
 2087SOL    HW1 7160   4.331   1.762   6.991
 2087SOL    HW2 7161   4.298   1.611   0.020
 2088SOL     OW 7162   0.977   5.307   5.390
 2088SOL    HW1 7163   0.904   5.322   5.457
 2088SOL    HW2 7164   0.953   5.229   5.332
 2089SOL     OW 7165   2.464   3.161   6.570
 2089SOL    HW1 7166   2.468   3.177   6.472
 2089SOL    HW2 7167   2.545   3.199   6.614
 2090SOL     OW 7168   5.375   2.946   5.805
 2090SOL    HW1 7169   5.350   2.920   5.712
 2090SOL    HW2 7170   5.365   2.867   5.866
 2091SOL     OW 7171   5.384   6.137   1.179
 2091SOL    HW1 7172   5.330   6.054   1.168
 2091SOL    HW2 7173   5.341   6.196   1.247
 2092SOL     OW 7174   3.889   3.537   1.400
 2092SOL    HW1 7175   3.921   3.467   1.464
 2092SOL    HW2 7176   3.817   3.592   1.444
 2093SOL     OW 7177   4.146   1.393   1.457
 2093SOL    HW1 7178   4.106   1.336   1.528
 2093SOL    HW2 7179   4.175   1.336   1.380
 2094SOL     OW 7180   5.794   1.781   6.723
 2094SOL    HW1 7181   5.763   1.735   6.806
 2094SOL    HW2 7182   5.771   1.725   6.643
 2095SOL     OW 7183   4.974   5.794   3.848
 2095SOL    HW1 7184   5.023   5.722   3.897
 2095SOL    HW2 7185   4.978   5.879   3.901
 2096SOL     OW 7186   3.793   6.438   1.546
 2096SOL    HW1 7187   3.728   6.490   1.602
 2096SOL    HW2 7188   3.874   6.494   1.528
 2097SOL     OW 7189   0.860   5.682   6.102
 2097SOL    HW1 7190   0.938   5.625   6.128
 2097SOL    HW2 7191   0.843   5.673   6.004
 2098SOL     OW 7192   2.808   5.976   3.599
 2098SOL    HW1 7193   2.871   5.973   3.521
 2098SOL    HW2 7194   2.853   6.022   3.676
 2099SOL     OW 7195   4.534   2.071   6.234
 2099SOL    HW1 7196   4.517   2.127   6.315
 2099SOL    HW2 7197   4.555   1.978   6.262
 2100SOL     OW 7198   5.135   6.715   1.622
 2100SOL    HW1 7199   5.213   6.703   1.684
 2100SOL    HW2 7200   5.137   6.806   1.582
 2101SOL     OW 7201   0.805   0.448   3.105
 2101SOL    HW1 7202   0.776   0.405   3.019
 2101SOL    HW2 7203   0.868   0.387   3.152
 2102SOL     OW 7204   3.638   2.057   1.112
 2102SOL    HW1 7205   3.606   2.151   1.123
 2102SOL    HW2 7206   3.693   2.032   1.192
 2103SOL     OW 7207   2.012   6.627   0.704
 2103SOL    HW1 7208   2.034   6.617   0.607
 2103SOL    HW2 7209   1.965   6.546   0.737
 2104SOL     OW 7210   1.940   4.316   3.464
 2104SOL    HW1 7211   1.914   4.332   3.369
 2104SOL    HW2 7212   1.877   4.365   3.525
 2105SOL     OW 7213   5.425   6.600   4.928
 2105SOL    HW1 7214   5.393   6.693   4.913
 2105SOL    HW2 7215   5.385   6.563   5.012
 2106SOL     OW 7216   4.279   3.072   1.385
 2106SOL    HW1 7217   4.369   3.037   1.412
 2106SOL    HW2 7218   4.290   3.159   1.338
 2107SOL     OW 7219   4.926   5.057   4.935
 2107SOL    HW1 7220   4.942   5.109   4.851
 2107SOL    HW2 7221   5.001   5.075   5.000
 2108SOL     OW 7222   4.905   0.313   5.034
 2108SOL    HW1 7223   4.977   0.250   5.005
 2108SOL    HW2 7224   4.852   0.342   4.954
 2109SOL     OW 7225   2.928   6.459   2.395
 2109SOL    HW1 7226   3.015   6.498   2.423
 2109SOL    HW2 7227   2.868   6.449   2.474
 2110SOL     OW 7228   3.110   6.125   0.080
 2110SOL    HW1 7229   3.101   6.061   0.156
 2110SOL    HW2 7230   3.120   6.218   0.116
 2111SOL     OW 7231   1.018   2.311   5.697
 2111SOL    HW1 7232   1.060   2.401   5.708
 2111SOL    HW2 7233   1.076   2.242   5.740
 2112SOL     OW 7234   1.282   0.395   0.062
 2112SOL    HW1 7235   1.282   0.478   0.007
 2112SOL    HW2 7236   1.354   0.334   0.030
 2113SOL     OW 7237   6.674   1.140   4.611
 2113SOL    HW1 7238   6.769   1.112   4.594
 2113SOL    HW2 7239   6.636   1.180   4.527
 2114SOL     OW 7240   2.166   1.435   5.832
 2114SOL    HW1 7241   2.225   1.362   5.866
 2114SOL    HW2 7242   2.136   1.492   5.909
 2115SOL     OW 7243   6.214   6.361   3.324
 2115SOL    HW1 7244   6.117   6.373   3.307
 2115SOL    HW2 7245   6.267   6.416   3.259
 2116SOL     OW 7246   2.079   1.684   6.872
 2116SOL    HW1 7247   2.065   1.660   6.776
 2116SOL    HW2 7248   2.103   1.781   6.879
 2117SOL     OW 7249   6.258   1.416   2.696
 2117SOL    HW1 7250   6.198   1.336   2.694
 2117SOL    HW2 7251   6.266   1.449   2.790
 2118SOL     OW 7252   6.882   2.055   2.770
 2118SOL    HW1 7253   6.842   1.964   2.782
 2118SOL    HW2 7254   6.808   2.121   2.754
 2119SOL     OW 7255   1.085   1.705   0.588
 2119SOL    HW1 7256   0.987   1.686   0.591
 2119SOL    HW2 7257   1.132   1.635   0.534
 2120SOL     OW 7258   5.499   1.602   0.639
 2120SOL    HW1 7259   5.514   1.692   0.681
 2120SOL    HW2 7260   5.479   1.535   0.710
 2121SOL     OW 7261   1.727   0.215   0.474
 2121SOL    HW1 7262   1.710   0.119   0.452
 2121SOL    HW2 7263   1.824   0.236   0.457
 2122SOL     OW 7264   6.422   0.295   4.580
 2122SOL    HW1 7265   6.386   0.338   4.497
 2122SOL    HW2 7266   6.425   0.362   4.654
 2123SOL     OW 7267   1.513   5.245   2.673
 2123SOL    HW1 7268   1.486   5.152   2.646
 2123SOL    HW2 7269   1.431   5.302   2.681
 2124SOL     OW 7270   4.254   3.929   7.000
 2124SOL    HW1 7271   4.302   3.864   0.033
 2124SOL    HW2 7272   4.302   3.937   6.912
 2125SOL     OW 7273   1.495   5.873   4.425
 2125SOL    HW1 7274   1.527   5.849   4.334
 2125SOL    HW2 7275   1.395   5.872   4.426
 2126SOL     OW 7276   2.788   3.914   6.750
 2126SOL    HW1 7277   2.733   3.830   6.751
 2126SOL    HW2 7278   2.844   3.917   6.667
 2127SOL     OW 7279   0.891   3.089   4.423
 2127SOL    HW1 7280   0.942   3.154   4.367
 2127SOL    HW2 7281   0.908   3.107   4.520
 2128SOL     OW 7282   5.263   3.031   2.076
 2128SOL    HW1 7283   5.333   3.004   2.009
 2128SOL    HW2 7284   5.186   3.072   2.028
 2129SOL     OW 7285   5.375   4.804   4.313
 2129SOL    HW1 7286   5.401   4.858   4.233
 2129SOL    HW2 7287   5.346   4.865   4.386
 2130SOL     OW 7288   2.933   1.224   1.245
 2130SOL    HW1 7289   2.996   1.232   1.322
 2130SOL    HW2 7290   2.839   1.216   1.279
 2131SOL     OW 7291   5.391   0.389   5.589
 2131SOL    HW1 7292   5.448   0.416   5.666
 2131SOL    HW2 7293   5.304   0.437   5.594
 2132SOL     OW 7294   2.403   2.424   0.049
 2132SOL    HW1 7295   2.341   2.379   0.114
 2132SOL    HW2 7296   2.449   2.500   0.094
 2133SOL     OW 7297   3.115   2.509   1.624
 2133SOL    HW1 7298   3.045   2.504   1.553
 2133SOL    HW2 7299   3.071   2.513   1.714
 2134SOL     OW 7300   2.410   6.302   5.474
 2134SOL    HW1 7301   2.342   6.279   5.542
 2134SOL    HW2 7302   2.407   6.401   5.455
 2135SOL     OW 7303   0.774   5.860   3.478
 2135SOL    HW1 7304   0.814   5.915   3.551
 2135SOL    HW2 7305   0.821   5.879   3.392
 2136SOL     OW 7306   1.385   4.547   3.535
 2136SOL    HW1 7307   1.377   4.632   3.481
 2136SOL    HW2 7308   1.334   4.557   3.620
 2137SOL     OW 7309   1.382   1.470   4.570
 2137SOL    HW1 7310   1.317   1.450   4.643
 2137SOL    HW2 7311   1.341   1.449   4.482
 2138SOL     OW 7312   1.135   2.562   5.741
 2138SOL    HW1 7313   1.126   2.600   5.833
 2138SOL    HW2 7314   1.200   2.618   5.689
 2139SOL     OW 7315   2.716   0.275   4.880
 2139SOL    HW1 7316   2.758   0.364   4.898
 2139SOL    HW2 7317   2.745   0.209   4.949
 2140SOL     OW 7318   1.748   5.848   3.347
 2140SOL    HW1 7319   1.777   5.791   3.270
 2140SOL    HW2 7320   1.668   5.806   3.391
 2141SOL     OW 7321   0.197   1.596   0.236
 2141SOL    HW1 7322   0.162   1.502   0.236
 2141SOL    HW2 7323   0.203   1.629   0.331
 2142SOL     OW 7324   2.547   1.412   3.641
 2142SOL    HW1 7325   2.483   1.355   3.692
 2142SOL    HW2 7326   2.613   1.354   3.594
 2143SOL     OW 7327   3.939   6.279   6.741
 2143SOL    HW1 7328   4.009   6.281   6.670
 2143SOL    HW2 7329   3.982   6.282   6.831
 2144SOL     OW 7330   0.198   0.798   2.188
 2144SOL    HW1 7331   0.130   0.865   2.216
 2144SOL    HW2 7332   0.169   0.707   2.215
 2145SOL     OW 7333   4.028   5.737   3.102
 2145SOL    HW1 7334   4.043   5.730   3.200
 2145SOL    HW2 7335   4.013   5.833   3.077
 2146SOL     OW 7336   3.318   2.757   0.898
 2146SOL    HW1 7337   3.354   2.673   0.939
 2146SOL    HW2 7338   3.268   2.735   0.814
 2147SOL     OW 7339   0.251   0.687   5.653
 2147SOL    HW1 7340   0.151   0.689   5.647
 2147SOL    HW2 7341   0.285   0.777   5.678
 2148SOL     OW 7342   5.643   3.239   3.279
 2148SOL    HW1 7343   5.665   3.184   3.360
 2148SOL    HW2 7344   5.572   3.193   3.225
 2149SOL     OW 7345   3.245   0.674   2.874
 2149SOL    HW1 7346   3.336   0.706   2.903
 2149SOL    HW2 7347   3.225   0.709   2.783
 2150SOL     OW 7348   3.749   1.196   2.031
 2150SOL    HW1 7349   3.656   1.164   2.011
 2150SOL    HW2 7350   3.782   1.151   2.113
 2151SOL     OW 7351   3.469   3.274   5.644
 2151SOL    HW1 7352   3.483   3.363   5.600
 2151SOL    HW2 7353   3.387   3.231   5.607
 2152SOL     OW 7354   5.830   6.272   1.778
 2152SOL    HW1 7355   5.887   6.204   1.731
 2152SOL    HW2 7356   5.826   6.250   1.875
 2153SOL     OW 7357   4.880   2.467   2.520
 2153SOL    HW1 7358   4.795   2.460   2.573
 2153SOL    HW2 7359   4.942   2.394   2.548
 2154SOL     OW 7360   3.853   6.227   5.300
 2154SOL    HW1 7361   3.765   6.192   5.332
 2154SOL    HW2 7362   3.879   6.180   5.216
 2155SOL     OW 7363   5.802   3.732   6.620
 2155SOL    HW1 7364   5.738   3.656   6.617
 2155SOL    HW2 7365   5.895   3.697   6.629
 2156SOL     OW 7366   0.619   0.783   1.433
 2156SOL    HW1 7367   0.590   0.787   1.338
 2156SOL    HW2 7368   0.551   0.732   1.486
 2157SOL     OW 7369   6.573   1.301   4.411
 2157SOL    HW1 7370   6.574   1.232   4.339
 2157SOL    HW2 7371   6.626   1.381   4.381
 2158SOL     OW 7372   4.163   6.320   2.847
 2158SOL    HW1 7373   4.228   6.370   2.904
 2158SOL    HW2 7374   4.137   6.375   2.768
 2159SOL     OW 7375   2.207   6.783   5.211
 2159SOL    HW1 7376   2.163   6.737   5.134
 2159SOL    HW2 7377   2.228   6.716   5.282
 2160SOL     OW 7378   2.858   3.009   0.944
 2160SOL    HW1 7379   2.925   3.060   0.891
 2160SOL    HW2 7380   2.766   3.030   0.911
 2161SOL     OW 7381   4.876   2.144   4.039
 2161SOL    HW1 7382   4.901   2.144   3.942
 2161SOL    HW2 7383   4.781   2.175   4.049
 2162SOL     OW 7384   1.948   1.265   0.361
 2162SOL    HW1 7385   1.922   1.359   0.379
 2162SOL    HW2 7386   2.030   1.242   0.415
 2163SOL     OW 7387   2.617   1.537   1.352
 2163SOL    HW1 7388   2.616   1.485   1.438
 2163SOL    HW2 7389   2.558   1.617   1.361
 2164SOL     OW 7390   0.421   0.642   1.855
 2164SOL    HW1 7391   0.397   0.696   1.774
 2164SOL    HW2 7392   0.512   0.669   1.887
 2165SOL     OW 7393   3.203   0.038   1.633
 2165SOL    HW1 7394   3.253   6.998   1.575
 2165SOL    HW2 7395   3.115   7.022   1.659
 2166SOL     OW 7396   6.388   2.816   6.291
 2166SOL    HW1 7397   6.401   2.834   6.388
 2166SOL    HW2 7398   6.443   2.881   6.237
 2167SOL     OW 7399   2.718   0.613   2.320
 2167SOL    HW1 7400   2.726   0.663   2.406
 2167SOL    HW2 7401   2.768   0.527   2.327
 2168SOL     OW 7402   5.801   5.920   5.090
 2168SOL    HW1 7403   5.735   5.991   5.069
 2168SOL    HW2 7404   5.753   5.835   5.113
 2169SOL     OW 7405   6.416   1.569   5.434
 2169SOL    HW1 7406   6.386   1.659   5.403
 2169SOL    HW2 7407   6.430   1.570   5.533
 2170SOL     OW 7408   5.786   4.979   4.294
 2170SOL    HW1 7409   5.825   5.070   4.282
 2170SOL    HW2 7410   5.752   4.946   4.205
 2171SOL     OW 7411   0.001   2.911   0.217
 2171SOL    HW1 7412   6.952   2.852   0.251
 2171SOL    HW2 7413   6.998   2.950   0.129
 2172SOL     OW 7414   2.755   0.670   0.955
 2172SOL    HW1 7415   2.709   0.736   0.897
 2172SOL    HW2 7416   2.687   0.620   1.010
 2173SOL     OW 7417   5.145   1.986   5.180
 2173SOL    HW1 7418   5.065   1.973   5.121
 2173SOL    HW2 7419   5.225   1.944   5.137
 2174SOL     OW 7420   1.545   5.557   4.698
 2174SOL    HW1 7421   1.608   5.633   4.709
 2174SOL    HW2 7422   1.592   5.471   4.717
 2175SOL     OW 7423   1.793   6.139   5.714
 2175SOL    HW1 7424   1.740   6.081   5.652
 2175SOL    HW2 7425   1.816   6.087   5.797
 2176SOL     OW 7426   1.980   2.789   2.561
 2176SOL    HW1 7427   1.981   2.727   2.482
 2176SOL    HW2 7428   2.008   2.880   2.532
 2177SOL     OW 7429   6.861   1.277   2.298
 2177SOL    HW1 7430   6.958   1.254   2.302
 2177SOL    HW2 7431   6.806   1.193   2.310
 2178SOL     OW 7432   0.365   5.320   1.043
 2178SOL    HW1 7433   0.465   5.319   1.039
 2178SOL    HW2 7434   0.329   5.245   0.989
 2179SOL     OW 7435   1.432   4.132   4.135
 2179SOL    HW1 7436   1.513   4.120   4.193
 2179SOL    HW2 7437   1.445   4.085   4.048
 2180SOL     OW 7438   4.069   2.863   1.260
 2180SOL    HW1 7439   4.128   2.926   1.310
 2180SOL    HW2 7440   4.097   2.769   1.278
 2181SOL     OW 7441   4.116   6.682   1.062
 2181SOL    HW1 7442   4.036   6.709   1.008
 2181SOL    HW2 7443   4.199   6.695   1.007
 2182SOL     OW 7444   5.554   1.915   0.534
 2182SOL    HW1 7445   5.544   1.894   0.631
 2182SOL    HW2 7446   5.478   1.875   0.482
 2183SOL     OW 7447   2.794   2.437   0.382
 2183SOL    HW1 7448   2.695   2.433   0.393
 2183SOL    HW2 7449   2.821   2.528   0.352
 2184SOL     OW 7450   4.327   3.053   6.275
 2184SOL    HW1 7451   4.319   3.153   6.284
 2184SOL    HW2 7452   4.292   3.025   6.186
 2185SOL     OW 7453   0.724   0.157   1.735
 2185SOL    HW1 7454   0.713   0.096   1.657
 2185SOL    HW2 7455   0.643   0.214   1.745
 2186SOL     OW 7456   0.096   4.919   2.854
 2186SOL    HW1 7457   0.059   4.954   2.940
 2186SOL    HW2 7458   0.182   4.871   2.872
 2187SOL     OW 7459   6.443   1.396   6.813
 2187SOL    HW1 7460   6.385   1.477   6.820
 2187SOL    HW2 7461   6.504   1.405   6.734
 2188SOL     OW 7462   4.910   1.131   3.479
 2188SOL    HW1 7463   4.849   1.193   3.430
 2188SOL    HW2 7464   4.950   1.178   3.557
 2189SOL     OW 7465   3.273   0.259   6.229
 2189SOL    HW1 7466   3.210   0.188   6.196
 2189SOL    HW2 7467   3.355   0.260   6.172
 2190SOL     OW 7468   5.215   2.007   1.205
 2190SOL    HW1 7469   5.212   1.911   1.180
 2190SOL    HW2 7470   5.178   2.020   1.297
 2191SOL     OW 7471   3.269   1.531   7.010
 2191SOL    HW1 7472   3.268   1.530   0.085
 2191SOL    HW2 7473   3.355   1.492   6.977
 2192SOL     OW 7474   3.807   5.860   3.248
 2192SOL    HW1 7475   3.851   5.799   3.314
 2192SOL    HW2 7476   3.826   5.828   3.155
 2193SOL     OW 7477   6.766   5.633   5.155
 2193SOL    HW1 7478   6.751   5.617   5.058
 2193SOL    HW2 7479   6.864   5.627   5.176
 2194SOL     OW 7480   3.224   7.014   1.275
 2194SOL    HW1 7481   3.126   7.024   1.290
 2194SOL    HW2 7482   3.257   0.063   1.217
 2195SOL     OW 7483   1.163   4.992   2.886
 2195SOL    HW1 7484   1.147   5.084   2.850
 2195SOL    HW2 7485   1.117   4.925   2.827
 2196SOL     OW 7486   4.561   2.935   6.706
 2196SOL    HW1 7487   4.596   2.983   6.625
 2196SOL    HW2 7488   4.582   2.837   6.697
 2197SOL     OW 7489   4.489   4.624   6.807
 2197SOL    HW1 7490   4.547   4.588   6.734
 2197SOL    HW2 7491   4.420   4.685   6.767
 2198SOL     OW 7492   6.578   4.458   0.668
 2198SOL    HW1 7493   6.565   4.412   0.580
 2198SOL    HW2 7494   6.526   4.543   0.670
 2199SOL     OW 7495   4.246   0.714   2.291
 2199SOL    HW1 7496   4.228   0.643   2.359
 2199SOL    HW2 7497   4.159   0.751   2.258
 2200SOL     OW 7498   2.014   6.648   4.234
 2200SOL    HW1 7499   1.926   6.695   4.229
 2200SOL    HW2 7500   2.000   6.550   4.219
 2201SOL     OW 7501   4.770   3.983   3.469
 2201SOL    HW1 7502   4.738   3.982   3.564
 2201SOL    HW2 7503   4.736   4.065   3.423
 2202SOL     OW 7504   4.726   6.126   3.890
 2202SOL    HW1 7505   4.690   6.189   3.959
 2202SOL    HW2 7506   4.826   6.128   3.892
 2203SOL     OW 7507   3.346   1.750   3.059
 2203SOL    HW1 7508   3.268   1.762   2.997
 2203SOL    HW2 7509   3.420   1.810   3.030
 2204SOL     OW 7510   2.526   2.857   1.147
 2204SOL    HW1 7511   2.605   2.843   1.206
 2204SOL    HW2 7512   2.454   2.905   1.199
 2205SOL     OW 7513   2.135   0.913   1.727
 2205SOL    HW1 7514   2.139   0.896   1.826
 2205SOL    HW2 7515   2.139   0.825   1.679
 2206SOL     OW 7516   2.437   3.286   0.159
 2206SOL    HW1 7517   2.455   3.298   0.061
 2206SOL    HW2 7518   2.339   3.273   0.172
 2207SOL     OW 7519   0.840   4.591   4.346
 2207SOL    HW1 7520   0.881   4.559   4.261
 2207SOL    HW2 7521   0.796   4.515   4.393
 2208SOL     OW 7522   6.641   4.800   2.223
 2208SOL    HW1 7523   6.688   4.715   2.245
 2208SOL    HW2 7524   6.707   4.875   2.219
 2209SOL     OW 7525   1.608   6.617   1.536
 2209SOL    HW1 7526   1.531   6.555   1.518
 2209SOL    HW2 7527   1.662   6.581   1.612
 2210SOL     OW 7528   1.916   5.153   3.686
 2210SOL    HW1 7529   2.014   5.156   3.706
 2210SOL    HW2 7530   1.902   5.149   3.587
 2211SOL     OW 7531   6.731   1.345   5.603
 2211SOL    HW1 7532   6.726   1.393   5.515
 2211SOL    HW2 7533   6.740   1.412   5.677
 2212SOL     OW 7534   2.106   7.000   6.087
 2212SOL    HW1 7535   2.020   6.962   6.121
 2212SOL    HW2 7536   2.144   6.939   6.018
 2213SOL     OW 7537   3.593   0.602   3.185
 2213SOL    HW1 7538   3.620   0.511   3.154
 2213SOL    HW2 7539   3.563   0.597   3.281
 2214SOL     OW 7540   3.901   6.954   5.484
 2214SOL    HW1 7541   3.874   6.866   5.446
 2214SOL    HW2 7542   3.899   6.948   5.584
 2215SOL     OW 7543   5.917   2.666   5.325
 2215SOL    HW1 7544   5.859   2.667   5.406
 2215SOL    HW2 7545   5.865   2.633   5.247
 2216SOL     OW 7546   2.634   1.093   2.540
 2216SOL    HW1 7547   2.665   1.188   2.536
 2216SOL    HW2 7548   2.541   1.087   2.504
 2217SOL     OW 7549   4.534   1.083   1.906
 2217SOL    HW1 7550   4.563   1.169   1.947
 2217SOL    HW2 7551   4.500   1.100   1.813
 2218SOL     OW 7552   1.254   6.793   3.101
 2218SOL    HW1 7553   1.304   6.862   3.049
 2218SOL    HW2 7554   1.319   6.741   3.158
 2219SOL     OW 7555   1.533   2.383   2.841
 2219SOL    HW1 7556   1.527   2.283   2.841
 2219SOL    HW2 7557   1.625   2.411   2.869
 2220SOL     OW 7558   0.505   0.175   1.452
 2220SOL    HW1 7559   0.423   0.147   1.503
 2220SOL    HW2 7560   0.481   0.248   1.388
 2221SOL     OW 7561   1.152   1.641   6.736
 2221SOL    HW1 7562   1.119   1.679   6.822
 2221SOL    HW2 7563   1.105   1.685   6.660
 2222SOL     OW 7564   6.304   6.084   2.684
 2222SOL    HW1 7565   6.292   6.019   2.609
 2222SOL    HW2 7566   6.258   6.049   2.766
 2223SOL     OW 7567   6.428   5.663   1.798
 2223SOL    HW1 7568   6.347   5.642   1.743
 2223SOL    HW2 7569   6.404   5.662   1.895
 2224SOL     OW 7570   0.993   4.944   2.102
 2224SOL    HW1 7571   0.961   4.934   2.008
 2224SOL    HW2 7572   1.093   4.942   2.104
 2225SOL     OW 7573   0.236   4.658   1.140
 2225SOL    HW1 7574   0.141   4.658   1.109
 2225SOL    HW2 7575   0.278   4.570   1.119
 2226SOL     OW 7576   4.285   3.642   1.545
 2226SOL    HW1 7577   4.363   3.684   1.591
 2226SOL    HW2 7578   4.215   3.618   1.612
 2227SOL     OW 7579   0.461   3.114   4.494
 2227SOL    HW1 7580   0.417   3.077   4.576
 2227SOL    HW2 7581   0.536   3.175   4.522
 2228SOL     OW 7582   3.412   5.030   4.598
 2228SOL    HW1 7583   3.321   5.020   4.638
 2228SOL    HW2 7584   3.414   5.112   4.541
 2229SOL     OW 7585   5.677   0.169   3.566
 2229SOL    HW1 7586   5.618   0.120   3.629
 2229SOL    HW2 7587   5.627   0.186   3.481
 2230SOL     OW 7588   2.640   5.456   1.587
 2230SOL    HW1 7589   2.652   5.370   1.636
 2230SOL    HW2 7590   2.624   5.437   1.490
 2231SOL     OW 7591   2.698   5.676   1.180
 2231SOL    HW1 7592   2.718   5.755   1.122
 2231SOL    HW2 7593   2.759   5.676   1.259
 2232SOL     OW 7594   5.223   3.071   3.851
 2232SOL    HW1 7595   5.232   3.028   3.941
 2232SOL    HW2 7596   5.257   3.165   3.855
 2233SOL     OW 7597   2.478   2.141   6.302
 2233SOL    HW1 7598   2.564   2.173   6.263
 2233SOL    HW2 7599   2.467   2.044   6.282
 2234SOL     OW 7600   3.558   2.329   1.125
 2234SOL    HW1 7601   3.580   2.322   1.222
 2234SOL    HW2 7602   3.622   2.392   1.080
 2235SOL     OW 7603   2.541   1.426   0.968
 2235SOL    HW1 7604   2.599   1.357   1.011
 2235SOL    HW2 7605   2.461   1.444   1.024
 2236SOL     OW 7606   0.438   4.477   5.796
 2236SOL    HW1 7607   0.341   4.455   5.807
 2236SOL    HW2 7608   0.447   4.558   5.739
 2237SOL     OW 7609   6.193   3.246   4.288
 2237SOL    HW1 7610   6.277   3.206   4.252
 2237SOL    HW2 7611   6.147   3.179   4.346
 2238SOL     OW 7612   6.443   6.033   1.445
 2238SOL    HW1 7613   6.514   6.075   1.500
 2238SOL    HW2 7614   6.430   6.084   1.361
 2239SOL     OW 7615   5.548   5.836   2.607
 2239SOL    HW1 7616   5.454   5.840   2.575
 2239SOL    HW2 7617   5.552   5.867   2.702
 2240SOL     OW 7618   5.643   3.660   2.023
 2240SOL    HW1 7619   5.619   3.704   1.937
 2240SOL    HW2 7620   5.742   3.645   2.027
 2241SOL     OW 7621   0.973   0.011   2.282
 2241SOL    HW1 7622   0.964   6.946   2.325
 2241SOL    HW2 7623   0.961   0.082   2.352
 2242SOL     OW 7624   4.074   1.887   2.920
 2242SOL    HW1 7625   4.057   1.794   2.888
 2242SOL    HW2 7626   3.988   1.938   2.921
 2243SOL     OW 7627   2.648   6.506   5.372
 2243SOL    HW1 7628   2.598   6.550   5.446
 2243SOL    HW2 7629   2.698   6.427   5.407
 2244SOL     OW 7630   3.485   0.847   4.906
 2244SOL    HW1 7631   3.469   0.934   4.952
 2244SOL    HW2 7632   3.433   0.775   4.952
 2245SOL     OW 7633   0.513   2.146   2.140
 2245SOL    HW1 7634   0.436   2.209   2.154
 2245SOL    HW2 7635   0.539   2.146   2.044
 2246SOL     OW 7636   1.515   4.809   4.692
 2246SOL    HW1 7637   1.593   4.811   4.754
 2246SOL    HW2 7638   1.440   4.863   4.731
 2247SOL     OW 7639   2.078   1.603   4.849
 2247SOL    HW1 7640   2.057   1.574   4.943
 2247SOL    HW2 7641   2.166   1.564   4.821
 2248SOL     OW 7642   4.408   4.118   5.408
 2248SOL    HW1 7643   4.388   4.090   5.502
 2248SOL    HW2 7644   4.483   4.184   5.409
 2249SOL     OW 7645   3.906   4.963   4.746
 2249SOL    HW1 7646   3.819   4.956   4.698
 2249SOL    HW2 7647   3.943   5.055   4.734
 2250SOL     OW 7648   5.085   4.985   0.824
 2250SOL    HW1 7649   5.038   4.912   0.874
 2250SOL    HW2 7650   5.072   4.971   0.725
 2251SOL     OW 7651   0.375   0.438   6.362
 2251SOL    HW1 7652   0.353   0.534   6.343
 2251SOL    HW2 7653   0.399   0.393   6.276
 2252SOL     OW 7654   3.491   0.945   6.132
 2252SOL    HW1 7655   3.487   1.032   6.082
 2252SOL    HW2 7656   3.552   0.882   6.083
 2253SOL     OW 7657   1.469   2.747   6.146
 2253SOL    HW1 7658   1.397   2.778   6.084
 2253SOL    HW2 7659   1.524   2.676   6.101
 2254SOL     OW 7660   1.560   3.967   5.723
 2254SOL    HW1 7661   1.632   3.957   5.655
 2254SOL    HW2 7662   1.492   4.033   5.691
 2255SOL     OW 7663   5.314   3.382   0.431
 2255SOL    HW1 7664   5.365   3.366   0.346
 2255SOL    HW2 7665   5.303   3.481   0.445
 2256SOL     OW 7666   3.333   4.890   2.076
 2256SOL    HW1 7667   3.333   4.988   2.092
 2256SOL    HW2 7668   3.427   4.857   2.064
 2257SOL     OW 7669   2.177   3.597   4.253
 2257SOL    HW1 7670   2.274   3.575   4.237
 2257SOL    HW2 7671   2.123   3.514   4.245
 2258SOL     OW 7672   1.826   5.008   5.284
 2258SOL    HW1 7673   1.780   4.923   5.260
 2258SOL    HW2 7674   1.925   4.994   5.287
 2259SOL     OW 7675   6.271   3.275   6.469
 2259SOL    HW1 7676   6.356   3.223   6.465
 2259SOL    HW2 7677   6.209   3.243   6.397
 2260SOL     OW 7678   4.771   3.697   1.049
 2260SOL    HW1 7679   4.681   3.723   1.083
 2260SOL    HW2 7680   4.840   3.719   1.118
 2261SOL     OW 7681   3.430   6.324   4.774
 2261SOL    HW1 7682   3.400   6.282   4.860
 2261SOL    HW2 7683   3.529   6.315   4.765
 2262SOL     OW 7684   3.497   1.800   3.514
 2262SOL    HW1 7685   3.596   1.804   3.527
 2262SOL    HW2 7686   3.453   1.772   3.600
 2263SOL     OW 7687   0.232   3.741   5.107
 2263SOL    HW1 7688   0.247   3.673   5.036
 2263SOL    HW2 7689   0.316   3.754   5.160
 2264SOL     OW 7690   3.268   4.116   3.167
 2264SOL    HW1 7691   3.288   4.096   3.263
 2264SOL    HW2 7692   3.255   4.215   3.155
 2265SOL     OW 7693   0.567   6.854   3.346
 2265SOL    HW1 7694   0.542   6.857   3.249
 2265SOL    HW2 7695   0.499   6.904   3.400
 2266SOL     OW 7696   6.348   0.474   6.713
 2266SOL    HW1 7697   6.275   0.496   6.648
 2266SOL    HW2 7698   6.365   0.553   6.772
 2267SOL     OW 7699   6.079   2.132   5.586
 2267SOL    HW1 7700   6.133   2.178   5.656
 2267SOL    HW2 7701   5.992   2.180   5.573
 2268SOL     OW 7702   6.391   4.997   0.015
 2268SOL    HW1 7703   6.405   5.091   0.047
 2268SOL    HW2 7704   6.480   4.953   0.004
 2269SOL     OW 7705   0.255   5.894   3.169
 2269SOL    HW1 7706   0.329   5.884   3.236
 2269SOL    HW2 7707   0.185   5.954   3.207
 2270SOL     OW 7708   3.689   2.934   2.707
 2270SOL    HW1 7709   3.676   2.922   2.609
 2270SOL    HW2 7710   3.786   2.950   2.726
 2271SOL     OW 7711   0.302   4.007   2.573
 2271SOL    HW1 7712   0.316   3.946   2.651
 2271SOL    HW2 7713   0.205   4.012   2.552
 2272SOL     OW 7714   5.411   2.193   6.090
 2272SOL    HW1 7715   5.488   2.132   6.108
 2272SOL    HW2 7716   5.333   2.140   6.060
 2273SOL     OW 7717   0.601   0.697   3.593
 2273SOL    HW1 7718   0.534   0.702   3.518
 2273SOL    HW2 7719   0.553   0.704   3.680
 2274SOL     OW 7720   0.949   3.876   2.873
 2274SOL    HW1 7721   0.973   3.971   2.851
 2274SOL    HW2 7722   1.026   3.816   2.852
 2275SOL     OW 7723   4.561   6.341   3.523
 2275SOL    HW1 7724   4.637   6.289   3.562
 2275SOL    HW2 7725   4.590   6.382   3.436
 2276SOL     OW 7726   3.229   5.682   1.559
 2276SOL    HW1 7727   3.284   5.755   1.520
 2276SOL    HW2 7728   3.288   5.612   1.599
 2277SOL     OW 7729   3.267   3.827   0.967
 2277SOL    HW1 7730   3.297   3.760   0.899
 2277SOL    HW2 7731   3.338   3.840   1.036
 2278SOL     OW 7732   5.082   6.058   1.321
 2278SOL    HW1 7733   5.135   6.082   1.402
 2278SOL    HW2 7734   5.050   5.963   1.329
 2279SOL     OW 7735   5.609   4.055   5.409
 2279SOL    HW1 7736   5.611   4.135   5.348
 2279SOL    HW2 7737   5.589   4.084   5.502
 2280SOL     OW 7738   6.040   6.617   6.069
 2280SOL    HW1 7739   6.008   6.606   5.975
 2280SOL    HW2 7740   6.019   6.534   6.121
 2281SOL     OW 7741   3.315   2.227   0.416
 2281SOL    HW1 7742   3.333   2.130   0.434
 2281SOL    HW2 7743   3.258   2.264   0.489
 2282SOL     OW 7744   4.383   5.703   2.214
 2282SOL    HW1 7745   4.327   5.778   2.180
 2282SOL    HW2 7746   4.474   5.737   2.237
 2283SOL     OW 7747   7.002   3.973   2.021
 2283SOL    HW1 7748   7.006   4.072   2.009
 2283SOL    HW2 7749   0.031   3.946   2.101
 2284SOL     OW 7750   2.708   2.265   2.193
 2284SOL    HW1 7751   2.696   2.176   2.149
 2284SOL    HW2 7752   2.778   2.318   2.145
 2285SOL     OW 7753   1.757   3.985   6.529
 2285SOL    HW1 7754   1.743   4.019   6.622
 2285SOL    HW2 7755   1.706   4.042   6.465
 2286SOL     OW 7756   5.823   0.031   4.629
 2286SOL    HW1 7757   5.854   0.106   4.569
 2286SOL    HW2 7758   5.731   0.052   4.662
 2287SOL     OW 7759   2.206   2.252   1.027
 2287SOL    HW1 7760   2.251   2.191   0.961
 2287SOL    HW2 7761   2.247   2.343   1.021
 2288SOL     OW 7762   1.726   5.759   4.796
 2288SOL    HW1 7763   1.812   5.808   4.812
 2288SOL    HW2 7764   1.657   5.822   4.760
 2289SOL     OW 7765   4.545   1.116   0.226
 2289SOL    HW1 7766   4.517   1.033   0.177
 2289SOL    HW2 7767   4.479   1.189   0.207
 2290SOL     OW 7768   3.221   3.399   3.510
 2290SOL    HW1 7769   3.277   3.368   3.586
 2290SOL    HW2 7770   3.215   3.499   3.511
 2291SOL     OW 7771   1.130   2.380   6.192
 2291SOL    HW1 7772   1.138   2.376   6.093
 2291SOL    HW2 7773   1.063   2.312   6.223
 2292SOL     OW 7774   4.888   1.782   2.876
 2292SOL    HW1 7775   4.819   1.712   2.858
 2292SOL    HW2 7776   4.922   1.819   2.790
 2293SOL     OW 7777   0.780   0.926   0.289
 2293SOL    HW1 7778   0.830   0.970   0.364
 2293SOL    HW2 7779   0.682   0.930   0.308
 2294SOL     OW 7780   0.073   0.865   6.055
 2294SOL    HW1 7781   0.130   0.911   5.988
 2294SOL    HW2 7782   0.049   0.929   6.128
 2295SOL     OW 7783   5.805   5.630   1.034
 2295SOL    HW1 7784   5.719   5.644   0.985
 2295SOL    HW2 7785   5.873   5.590   0.972
 2296SOL     OW 7786   4.280   5.072   4.169
 2296SOL    HW1 7787   4.203   5.098   4.226
 2296SOL    HW2 7788   4.249   5.015   4.093
 2297SOL     OW 7789   5.298   4.004   5.401
 2297SOL    HW1 7790   5.384   3.996   5.351
 2297SOL    HW2 7791   5.222   4.007   5.337
 2298SOL     OW 7792   2.988   3.888   4.742
 2298SOL    HW1 7793   3.051   3.954   4.785
 2298SOL    HW2 7794   2.947   3.831   4.812
 2299SOL     OW 7795   5.369   2.827   4.288
 2299SOL    HW1 7796   5.393   2.762   4.216
 2299SOL    HW2 7797   5.272   2.817   4.312
 2300SOL     OW 7798   4.794   6.832   2.026
 2300SOL    HW1 7799   4.852   6.885   2.088
 2300SOL    HW2 7800   4.810   6.862   1.932
 2301SOL     OW 7801   3.922   3.258   4.820
 2301SOL    HW1 7802   3.915   3.357   4.811
 2301SOL    HW2 7803   3.913   3.216   4.729
 2302SOL     OW 7804   6.269   3.167   5.984
 2302SOL    HW1 7805   6.217   3.088   5.953
 2302SOL    HW2 7806   6.313   3.211   5.906
 2303SOL     OW 7807   2.875   2.615   0.047
 2303SOL    HW1 7808   2.944   2.611   6.999
 2303SOL    HW2 7809   2.800   2.553   0.025
 2304SOL     OW 7810   6.673   6.093   2.367
 2304SOL    HW1 7811   6.699   6.189   2.362
 2304SOL    HW2 7812   6.653   6.069   2.462
 2305SOL     OW 7813   2.506   6.763   5.041
 2305SOL    HW1 7814   2.540   6.838   4.985
 2305SOL    HW2 7815   2.415   6.736   5.011
 2306SOL     OW 7816   1.783   4.945   4.529
 2306SOL    HW1 7817   1.686   4.970   4.530
 2306SOL    HW2 7818   1.829   4.989   4.606
 2307SOL     OW 7819   6.191   3.307   5.078
 2307SOL    HW1 7820   6.093   3.292   5.062
 2307SOL    HW2 7821   6.205   3.400   5.113
 2308SOL     OW 7822   1.354   5.442   2.001
 2308SOL    HW1 7823   1.387   5.432   2.095
 2308SOL    HW2 7824   1.258   5.468   2.001
 2309SOL     OW 7825   1.947   0.328   4.632
 2309SOL    HW1 7826   1.909   0.304   4.542
 2309SOL    HW2 7827   2.039   0.366   4.620
 2310SOL     OW 7828   4.407   6.968   1.268
 2310SOL    HW1 7829   4.348   6.899   1.308
 2310SOL    HW2 7830   4.454   7.018   1.341
 2311SOL     OW 7831   2.224   4.919   1.036
 2311SOL    HW1 7832   2.293   4.930   1.107
 2311SOL    HW2 7833   2.269   4.907   0.947
 2312SOL     OW 7834   3.394   4.652   1.645
 2312SOL    HW1 7835   3.378   4.738   1.595
 2312SOL    HW2 7836   3.440   4.672   1.731
 2313SOL     OW 7837   4.974   5.087   1.179
 2313SOL    HW1 7838   5.044   5.134   1.232
 2313SOL    HW2 7839   4.978   5.118   1.084
 2314SOL     OW 7840   2.734   4.801   4.257
 2314SOL    HW1 7841   2.644   4.756   4.262
 2314SOL    HW2 7842   2.777   4.781   4.169
 2315SOL     OW 7843   4.353   2.555   6.348
 2315SOL    HW1 7844   4.375   2.652   6.338
 2315SOL    HW2 7845   4.265   2.545   6.394
 2316SOL     OW 7846   5.386   3.665   2.135
 2316SOL    HW1 7847   5.337   3.744   2.099
 2316SOL    HW2 7848   5.477   3.660   2.093
 2317SOL     OW 7849   0.266   5.867   2.669
 2317SOL    HW1 7850   0.168   5.859   2.687
 2317SOL    HW2 7851   0.282   5.940   2.602
 2318SOL     OW 7852   6.886   1.018   4.217
 2318SOL    HW1 7853   6.851   0.983   4.131
 2318SOL    HW2 7854   6.969   0.969   4.242
 2319SOL     OW 7855   1.068   5.438   2.362
 2319SOL    HW1 7856   1.086   5.384   2.280
 2319SOL    HW2 7857   1.002   5.390   2.420
 2320SOL     OW 7858   6.255   4.546   5.076
 2320SOL    HW1 7859   6.226   4.626   5.129
 2320SOL    HW2 7860   6.217   4.464   5.118
 2321SOL     OW 7861   3.680   4.919   4.565
 2321SOL    HW1 7862   3.687   4.840   4.505
 2321SOL    HW2 7863   3.617   4.986   4.525
 2322SOL     OW 7864   2.937   0.447   4.983
 2322SOL    HW1 7865   2.920   0.531   5.035
 2322SOL    HW2 7866   2.914   0.368   5.039
 2323SOL     OW 7867   5.173   3.540   2.699
 2323SOL    HW1 7868   5.169   3.593   2.614
 2323SOL    HW2 7869   5.101   3.471   2.699
 2324SOL     OW 7870   0.218   4.841   3.218
 2324SOL    HW1 7871   0.216   4.900   3.299
 2324SOL    HW2 7872   0.296   4.779   3.223
 2325SOL     OW 7873   0.538   2.512   0.627
 2325SOL    HW1 7874   0.569   2.580   0.561
 2325SOL    HW2 7875   0.595   2.516   0.709
 2326SOL     OW 7876   0.860   4.136   0.546
 2326SOL    HW1 7877   0.850   4.156   0.644
 2326SOL    HW2 7878   0.771   4.112   0.508
 2327SOL     OW 7879   5.436   1.862   3.836
 2327SOL    HW1 7880   5.417   1.951   3.878
 2327SOL    HW2 7881   5.468   1.877   3.742
 2328SOL     OW 7882   6.033   6.703   3.409
 2328SOL    HW1 7883   6.012   6.617   3.363
 2328SOL    HW2 7884   6.076   6.685   3.497
 2329SOL     OW 7885   6.404   5.573   3.094
 2329SOL    HW1 7886   6.450   5.659   3.115
 2329SOL    HW2 7887   6.310   5.591   3.065
 2330SOL     OW 7888   0.340   4.107   1.319
 2330SOL    HW1 7889   0.318   4.072   1.410
 2330SOL    HW2 7890   0.324   4.036   1.251
 2331SOL     OW 7891   1.019   4.633   5.772
 2331SOL    HW1 7892   0.991   4.631   5.868
 2331SOL    HW2 7893   1.117   4.615   5.765
 2332SOL     OW 7894   5.209   2.243   5.147
 2332SOL    HW1 7895   5.146   2.278   5.077
 2332SOL    HW2 7896   5.193   2.145   5.159
 2333SOL     OW 7897   2.501   4.737   3.655
 2333SOL    HW1 7898   2.576   4.722   3.591
 2333SOL    HW2 7899   2.435   4.663   3.645
 2334SOL     OW 7900   2.745   0.098   0.055
 2334SOL    HW1 7901   2.740   0.010   0.008
 2334SOL    HW2 7902   2.653   0.128   0.081
 2335SOL     OW 7903   4.462   5.760   4.758
 2335SOL    HW1 7904   4.530   5.688   4.740
 2335SOL    HW2 7905   4.376   5.736   4.714
 2336SOL     OW 7906   3.892   2.747   5.658
 2336SOL    HW1 7907   3.794   2.757   5.637
 2336SOL    HW2 7908   3.921   2.824   5.715
 2337SOL     OW 7909   6.244   0.703   4.364
 2337SOL    HW1 7910   6.173   0.748   4.418
 2337SOL    HW2 7911   6.332   0.747   4.381
 2338SOL     OW 7912   1.195   0.380   6.568
 2338SOL    HW1 7913   1.264   0.343   6.507
 2338SOL    HW2 7914   1.202   0.479   6.572
 2339SOL     OW 7915   4.011   5.060   6.281
 2339SOL    HW1 7916   4.054   5.127   6.340
 2339SOL    HW2 7917   3.941   5.105   6.225
 2340SOL     OW 7918   4.169   4.914   3.645
 2340SOL    HW1 7919   4.151   5.012   3.637
 2340SOL    HW2 7920   4.097   4.862   3.600
 2341SOL     OW 7921   5.547   4.676   6.353
 2341SOL    HW1 7922   5.507   4.608   6.290
 2341SOL    HW2 7923   5.644   4.657   6.365
 2342SOL     OW 7924   6.978   6.977   5.646
 2342SOL    HW1 7925   6.987   6.954   5.549
 2342SOL    HW2 7926   6.882   6.981   5.671
 2343SOL     OW 7927   0.992   0.196   0.980
 2343SOL    HW1 7928   0.893   0.206   0.976
 2343SOL    HW2 7929   1.022   0.194   1.076
 2344SOL     OW 7930   2.922   1.681   3.140
 2344SOL    HW1 7931   2.913   1.590   3.101
 2344SOL    HW2 7932   2.963   1.675   3.231
 2345SOL     OW 7933   1.072   1.913   3.169
 2345SOL    HW1 7934   1.141   1.985   3.168
 2345SOL    HW2 7935   1.023   1.913   3.082
 2346SOL     OW 7936   4.695   3.120   5.366
 2346SOL    HW1 7937   4.780   3.113   5.313
 2346SOL    HW2 7938   4.666   3.216   5.370
 2347SOL     OW 7939   1.564   3.305   0.959
 2347SOL    HW1 7940   1.609   3.389   0.930
 2347SOL    HW2 7941   1.550   3.245   0.881
 2348SOL     OW 7942   2.678   6.410   1.799
 2348SOL    HW1 7943   2.615   6.337   1.771
 2348SOL    HW2 7944   2.724   6.447   1.718
 2349SOL     OW 7945   4.145   4.613   6.348
 2349SOL    HW1 7946   4.225   4.608   6.289
 2349SOL    HW2 7947   4.136   4.706   6.385
 2350SOL     OW 7948   2.035   5.726   5.377
 2350SOL    HW1 7949   2.072   5.775   5.456
 2350SOL    HW2 7950   1.952   5.771   5.346
 2351SOL     OW 7951   2.287   5.126   3.017
 2351SOL    HW1 7952   2.210   5.123   2.953
 2351SOL    HW2 7953   2.346   5.046   3.004
 2352SOL     OW 7954   6.105   4.350   1.243
 2352SOL    HW1 7955   6.026   4.340   1.303
 2352SOL    HW2 7956   6.174   4.406   1.288
 2353SOL     OW 7957   2.515   3.889   6.483
 2353SOL    HW1 7958   2.471   3.816   6.431
 2353SOL    HW2 7959   2.452   3.925   6.552
 2354SOL     OW 7960   4.119   2.473   1.726
 2354SOL    HW1 7961   4.061   2.522   1.661
 2354SOL    HW2 7962   4.066   2.449   1.807
 2355SOL     OW 7963   6.975   1.428   1.600
 2355SOL    HW1 7964   6.983   1.431   1.501
 2355SOL    HW2 7965   6.981   1.333   1.631
 2356SOL     OW 7966   3.130   5.309   3.617
 2356SOL    HW1 7967   3.098   5.372   3.546
 2356SOL    HW2 7968   3.065   5.309   3.693
 2357SOL     OW 7969   7.011   4.589   1.061
 2357SOL    HW1 7970   6.934   4.580   1.125
 2357SOL    HW2 7971   6.998   4.527   0.984
 2358SOL     OW 7972   3.459   1.305   5.173
 2358SOL    HW1 7973   3.551   1.344   5.166
 2358SOL    HW2 7974   3.396   1.361   5.119
 2359SOL     OW 7975   2.303   1.676   5.783
 2359SOL    HW1 7976   2.235   1.741   5.819
 2359SOL    HW2 7977   2.276   1.583   5.809
 2360SOL     OW 7978   3.220   5.095   0.097
 2360SOL    HW1 7979   3.220   5.122   0.193
 2360SOL    HW2 7980   3.283   5.019   0.084
 2361SOL     OW 7981   3.452   5.811   1.396
 2361SOL    HW1 7982   3.528   5.869   1.366
 2361SOL    HW2 7983   3.411   5.766   1.317
 2362SOL     OW 7984   3.548   4.909   3.733
 2362SOL    HW1 7985   3.610   4.854   3.790
 2362SOL    HW2 7986   3.557   5.005   3.757
 2363SOL     OW 7987   1.936   3.448   0.111
 2363SOL    HW1 7988   1.876   3.435   0.032
 2363SOL    HW2 7989   1.915   3.535   0.154
 2364SOL     OW 7990   3.979   1.714   2.652
 2364SOL    HW1 7991   3.974   1.637   2.715
 2364SOL    HW2 7992   3.897   1.715   2.595
 2365SOL     OW 7993   5.083   3.898   3.091
 2365SOL    HW1 7994   5.107   3.965   3.021
 2365SOL    HW2 7995   4.984   3.897   3.104
 2366SOL     OW 7996   2.763   5.026   5.423
 2366SOL    HW1 7997   2.812   5.101   5.467
 2366SOL    HW2 7998   2.673   5.015   5.467
 2367SOL     OW 7999   5.984   4.833   5.561
 2367SOL    HW1 8000   5.968   4.891   5.641
 2367SOL    HW2 8001   5.936   4.746   5.573
 2368SOL     OW 8002   5.859   0.060   5.207
 2368SOL    HW1 8003   5.935   0.005   5.240
 2368SOL    HW2 8004   5.773   0.019   5.239
 2369SOL     OW 8005   3.800   2.154   4.185
 2369SOL    HW1 8006   3.847   2.068   4.205
 2369SOL    HW2 8007   3.764   2.193   4.270
 2370SOL     OW 8008   5.315   2.101   1.696
 2370SOL    HW1 8009   5.220   2.091   1.667
 2370SOL    HW2 8010   5.329   2.053   1.782
 2371SOL     OW 8011   0.951   6.211   1.889
 2371SOL    HW1 8012   0.973   6.276   1.961
 2371SOL    HW2 8013   0.973   6.251   1.800
 2372SOL     OW 8014   6.645   6.589   0.024
 2372SOL    HW1 8015   6.559   6.633   0.049
 2372SOL    HW2 8016   6.629   6.528   6.971
 2373SOL     OW 8017   6.307   4.432   6.527
 2373SOL    HW1 8018   6.247   4.378   6.587
 2373SOL    HW2 8019   6.394   4.448   6.573
 2374SOL     OW 8020   5.832   7.024   2.432
 2374SOL    HW1 8021   5.851   6.942   2.378
 2374SOL    HW2 8022   5.802   0.073   2.372
 2375SOL     OW 8023   2.113   0.578   4.622
 2375SOL    HW1 8024   2.106   0.592   4.721
 2375SOL    HW2 8025   2.037   0.624   4.576
 2376SOL     OW 8026   5.193   2.324   2.831
 2376SOL    HW1 8027   5.215   2.271   2.749
 2376SOL    HW2 8028   5.263   2.394   2.846
 2377SOL     OW 8029   4.692   3.655   5.853
 2377SOL    HW1 8030   4.698   3.665   5.952
 2377SOL    HW2 8031   4.714   3.561   5.827
 2378SOL     OW 8032   0.514   1.272   0.476
 2378SOL    HW1 8033   0.494   1.357   0.428
 2378SOL    HW2 8034   0.608   1.244   0.455
 2379SOL     OW 8035   7.005   5.368   2.376
 2379SOL    HW1 8036   6.931   5.407   2.323
 2379SOL    HW2 8037   0.020   5.438   2.436
 2380SOL     OW 8038   4.826   5.517   6.363
 2380SOL    HW1 8039   4.872   5.486   6.446
 2380SOL    HW2 8040   4.846   5.614   6.349
 2381SOL     OW 8041   2.270   4.192   3.944
 2381SOL    HW1 8042   2.238   4.107   3.904
 2381SOL    HW2 8043   2.291   4.178   4.041
 2382SOL     OW 8044   6.599   4.900   2.925
 2382SOL    HW1 8045   6.615   4.970   2.855
 2382SOL    HW2 8046   6.675   4.901   2.991
 2383SOL     OW 8047   5.258   4.299   5.963
 2383SOL    HW1 8048   5.232   4.395   5.969
 2383SOL    HW2 8049   5.192   4.249   5.907
 2384SOL     OW 8050   6.998   1.720   2.877
 2384SOL    HW1 8051   0.022   1.742   2.961
 2384SOL    HW2 8052   0.035   1.675   2.813
 2385SOL     OW 8053   0.414   1.080   0.814
 2385SOL    HW1 8054   0.404   1.170   0.771
 2385SOL    HW2 8055   0.336   1.064   0.875
 2386SOL     OW 8056   5.928   6.096   4.909
 2386SOL    HW1 8057   5.896   6.023   4.971
 2386SOL    HW2 8058   5.849   6.137   4.863
 2387SOL     OW 8059   1.154   1.658   3.814
 2387SOL    HW1 8060   1.188   1.751   3.824
 2387SOL    HW2 8061   1.054   1.658   3.814
 2388SOL     OW 8062   0.436   2.914   5.593
 2388SOL    HW1 8063   0.530   2.880   5.598
 2388SOL    HW2 8064   0.436   3.013   5.606
 2389SOL     OW 8065   3.925   5.029   3.369
 2389SOL    HW1 8066   3.949   5.117   3.410
 2389SOL    HW2 8067   3.910   5.040   3.271
 2390SOL     OW 8068   4.612   2.575   6.151
 2390SOL    HW1 8069   4.550   2.651   6.132
 2390SOL    HW2 8070   4.631   2.570   6.249
 2391SOL     OW 8071   3.518   4.402   6.323
 2391SOL    HW1 8072   3.438   4.345   6.308
 2391SOL    HW2 8073   3.597   4.364   6.274
 2392SOL     OW 8074   4.298   4.062   5.676
 2392SOL    HW1 8075   4.320   3.972   5.715
 2392SOL    HW2 8076   4.255   4.118   5.746
 2393SOL     OW 8077   4.753   4.578   0.868
 2393SOL    HW1 8078   4.753   4.578   0.968
 2393SOL    HW2 8079   4.772   4.486   0.835
 2394SOL     OW 8080   0.311   1.722   3.217
 2394SOL    HW1 8081   0.304   1.674   3.304
 2394SOL    HW2 8082   0.377   1.796   3.225
 2395SOL     OW 8083   1.153   3.024   4.139
 2395SOL    HW1 8084   1.107   2.947   4.095
 2395SOL    HW2 8085   1.228   3.056   4.082
 2396SOL     OW 8086   0.995   0.276   6.261
 2396SOL    HW1 8087   0.917   0.313   6.211
 2396SOL    HW2 8088   0.962   0.221   6.338
 2397SOL     OW 8089   0.557   3.678   5.015
 2397SOL    HW1 8090   0.635   3.620   4.990
 2397SOL    HW2 8091   0.475   3.647   4.967
 2398SOL     OW 8092   4.141   6.921   3.739
 2398SOL    HW1 8093   4.062   6.880   3.784
 2398SOL    HW2 8094   4.134   6.908   3.640
 2399SOL     OW 8095   3.418   2.049   3.262
 2399SOL    HW1 8096   3.513   2.082   3.262
 2399SOL    HW2 8097   3.356   2.127   3.269
 2400SOL     OW 8098   1.543   3.711   0.684
 2400SOL    HW1 8099   1.453   3.667   0.678
 2400SOL    HW2 8100   1.567   3.749   0.595
 2401SOL     OW 8101   1.574   6.998   6.679
 2401SOL    HW1 8102   1.632   6.952   6.746
 2401SOL    HW2 8103   1.492   6.943   6.663
 2402SOL     OW 8104   0.669   4.050   2.211
 2402SOL    HW1 8105   0.697   4.011   2.123
 2402SOL    HW2 8106   0.636   3.977   2.271
 2403SOL     OW 8107   3.595   3.968   4.530
 2403SOL    HW1 8108   3.529   3.960   4.604
 2403SOL    HW2 8109   3.610   3.878   4.489
 2404SOL     OW 8110   5.782   1.618   0.878
 2404SOL    HW1 8111   5.792   1.540   0.939
 2404SOL    HW2 8112   5.772   1.585   0.784
 2405SOL     OW 8113   0.921   3.210   0.579
 2405SOL    HW1 8114   0.941   3.125   0.628
 2405SOL    HW2 8115   0.897   3.282   0.645
 2406SOL     OW 8116   2.717   5.881   4.323
 2406SOL    HW1 8117   2.699   5.918   4.415
 2406SOL    HW2 8118   2.630   5.868   4.275
 2407SOL     OW 8119   2.969   0.800   3.344
 2407SOL    HW1 8120   2.997   0.780   3.438
 2407SOL    HW2 8121   2.982   0.719   3.287
 2408SOL     OW 8122   2.940   6.080   5.612
 2408SOL    HW1 8123   2.965   6.120   5.700
 2408SOL    HW2 8124   3.015   6.090   5.548
 2409SOL     OW 8125   1.077   3.474   0.310
 2409SOL    HW1 8126   1.106   3.385   0.344
 2409SOL    HW2 8127   1.156   3.535   0.305
 2410SOL     OW 8128   0.097   2.477   4.354
 2410SOL    HW1 8129   0.055   2.547   4.412
 2410SOL    HW2 8130   0.037   2.458   4.276
 2411SOL     OW 8131   3.502   2.108   6.807
 2411SOL    HW1 8132   3.435   2.182   6.800
 2411SOL    HW2 8133   3.456   2.020   6.796
 2412SOL     OW 8134   3.099   1.499   5.534
 2412SOL    HW1 8135   3.135   1.486   5.441
 2412SOL    HW2 8136   3.135   1.585   5.571
 2413SOL     OW 8137   0.389   3.008   7.018
 2413SOL    HW1 8138   0.403   3.054   0.081
 2413SOL    HW2 8139   0.293   2.981   7.009
 2414SOL     OW 8140   6.599   1.477   5.015
 2414SOL    HW1 8141   6.600   1.427   4.929
 2414SOL    HW2 8142   6.538   1.431   5.080
 2415SOL     OW 8143   2.549   5.060   6.533
 2415SOL    HW1 8144   2.523   5.123   6.459
 2415SOL    HW2 8145   2.631   5.095   6.579
 2416SOL     OW 8146   0.234   2.577   3.053
 2416SOL    HW1 8147   0.255   2.498   3.111
 2416SOL    HW2 8148   0.165   2.634   3.098
 2417SOL     OW 8149   2.638   2.798   1.706
 2417SOL    HW1 8150   2.722   2.744   1.696
 2417SOL    HW2 8151   2.563   2.752   1.659
 2418SOL     OW 8152   4.860   3.932   6.603
 2418SOL    HW1 8153   4.883   3.984   6.685
 2418SOL    HW2 8154   4.887   3.836   6.616
 2419SOL     OW 8155   3.018   0.772   3.614
 2419SOL    HW1 8156   3.006   0.708   3.689
 2419SOL    HW2 8157   2.950   0.845   3.620
 2420SOL     OW 8158   1.338   4.198   2.467
 2420SOL    HW1 8159   1.278   4.136   2.518
 2420SOL    HW2 8160   1.386   4.147   2.396
 2421SOL     OW 8161   2.851   6.594   3.551
 2421SOL    HW1 8162   2.944   6.625   3.529
 2421SOL    HW2 8163   2.793   6.673   3.570
 2422SOL     OW 8164   4.283   4.934   1.305
 2422SOL    HW1 8165   4.279   4.886   1.217
 2422SOL    HW2 8166   4.192   4.940   1.345
 2423SOL     OW 8167   2.245   5.843   2.798
 2423SOL    HW1 8168   2.312   5.828   2.871
 2423SOL    HW2 8169   2.233   5.758   2.746
 2424SOL     OW 8170   5.254   6.969   6.413
 2424SOL    HW1 8171   5.273   6.952   6.316
 2424SOL    HW2 8172   5.281   6.888   6.466
 2425SOL     OW 8173   4.758   5.575   4.924
 2425SOL    HW1 8174   4.832   5.565   4.991
 2425SOL    HW2 8175   4.690   5.503   4.939
 2426SOL     OW 8176   2.024   2.623   5.124
 2426SOL    HW1 8177   2.077   2.708   5.125
 2426SOL    HW2 8178   1.981   2.610   5.214
 2427SOL     OW 8179   5.338   0.730   0.613
 2427SOL    HW1 8180   5.263   0.673   0.646
 2427SOL    HW2 8181   5.301   0.811   0.567
 2428SOL     OW 8182   1.061   1.286   2.694
 2428SOL    HW1 8183   1.089   1.349   2.621
 2428SOL    HW2 8184   1.128   1.212   2.700
 2429SOL     OW 8185   5.799   5.318   1.836
 2429SOL    HW1 8186   5.830   5.240   1.783
 2429SOL    HW2 8187   5.711   5.297   1.879
 2430SOL     OW 8188   6.176   0.801   6.705
 2430SOL    HW1 8189   6.160   0.852   6.620
 2430SOL    HW2 8190   6.162   0.862   6.783
 2431SOL     OW 8191   0.421   3.739   1.559
 2431SOL    HW1 8192   0.505   3.792   1.545
 2431SOL    HW2 8193   0.404   3.682   1.479
 2432SOL     OW 8194   1.929   5.220   1.658
 2432SOL    HW1 8195   1.960   5.225   1.753
 2432SOL    HW2 8196   1.985   5.280   1.601
 2433SOL     OW 8197   0.066   3.926   5.052
 2433SOL    HW1 8198   0.126   3.847   5.062
 2433SOL    HW2 8199   7.015   3.918   5.116
 2434SOL     OW 8200   4.200   0.494   2.468
 2434SOL    HW1 8201   4.169   0.564   2.533
 2434SOL    HW2 8202   4.190   0.404   2.510
 2435SOL     OW 8203   6.038   0.031   6.874
 2435SOL    HW1 8204   5.997   0.112   6.915
 2435SOL    HW2 8205   6.138   0.040   6.875
 2436SOL     OW 8206   1.140   2.454   1.590
 2436SOL    HW1 8207   1.055   2.404   1.571
 2436SOL    HW2 8208   1.182   2.418   1.673
 2437SOL     OW 8209   6.702   3.910   2.840
 2437SOL    HW1 8210   6.709   3.888   2.743
 2437SOL    HW2 8211   6.673   3.829   2.891
 2438SOL     OW 8212   4.083   1.810   4.732
 2438SOL    HW1 8213   4.130   1.852   4.655
 2438SOL    HW2 8214   4.147   1.756   4.786
 2439SOL     OW 8215   1.502   5.802   1.311
 2439SOL    HW1 8216   1.593   5.768   1.289
 2439SOL    HW2 8217   1.508   5.899   1.335
 2440SOL     OW 8218   6.153   1.552   5.640
 2440SOL    HW1 8219   6.252   1.554   5.654
 2440SOL    HW2 8220   6.115   1.641   5.663
 2441SOL     OW 8221   6.076   0.221   0.606
 2441SOL    HW1 8222   6.148   0.240   0.540
 2441SOL    HW2 8223   6.025   0.139   0.577
 2442SOL     OW 8224   5.400   3.065   1.319
 2442SOL    HW1 8225   5.360   3.147   1.360
 2442SOL    HW2 8226   5.333   2.990   1.321
 2443SOL     OW 8227   1.030   3.155   1.975
 2443SOL    HW1 8228   1.122   3.194   1.976
 2443SOL    HW2 8229   1.022   3.087   2.047
 2444SOL     OW 8230   3.169   5.787   2.223
 2444SOL    HW1 8231   3.072   5.779   2.198
 2444SOL    HW2 8232   3.214   5.850   2.160
 2445SOL     OW 8233   0.825   2.424   1.701
 2445SOL    HW1 8234   0.849   2.491   1.771
 2445SOL    HW2 8235   0.805   2.336   1.744
 2446SOL     OW 8236   0.962   5.387   1.902
 2446SOL    HW1 8237   1.001   5.478   1.897
 2446SOL    HW2 8238   0.872   5.392   1.946
 2447SOL     OW 8239   2.248   6.785   6.986
 2447SOL    HW1 8240   2.333   6.802   0.011
 2447SOL    HW2 8241   2.182   6.857   7.006
 2448SOL     OW 8242   5.488   1.140   4.695
 2448SOL    HW1 8243   5.529   1.096   4.615
 2448SOL    HW2 8244   5.560   1.170   4.757
 2449SOL     OW 8245   1.234   4.356   1.950
 2449SOL    HW1 8246   1.162   4.346   2.018
 2449SOL    HW2 8247   1.199   4.333   1.859
 2450SOL     OW 8248   1.030   6.659   5.299
 2450SOL    HW1 8249   0.985   6.633   5.384
 2450SOL    HW2 8250   1.022   6.758   5.286
 2451SOL     OW 8251   1.060   6.338   5.033
 2451SOL    HW1 8252   1.124   6.303   5.102
 2451SOL    HW2 8253   1.041   6.435   5.052
 2452SOL     OW 8254   2.569   2.087   3.125
 2452SOL    HW1 8255   2.526   2.068   3.037
 2452SOL    HW2 8256   2.627   2.010   3.151
 2453SOL     OW 8257   0.971   1.142   5.484
 2453SOL    HW1 8258   1.021   1.168   5.567
 2453SOL    HW2 8259   1.033   1.094   5.421
 2454SOL     OW 8260   3.461   5.817   0.742
 2454SOL    HW1 8261   3.515   5.872   0.678
 2454SOL    HW2 8262   3.370   5.858   0.751
 2455SOL     OW 8263   4.050   2.526   0.383
 2455SOL    HW1 8264   3.969   2.528   0.442
 2455SOL    HW2 8265   4.068   2.432   0.355
 2456SOL     OW 8266   0.775   2.887   5.999
 2456SOL    HW1 8267   0.693   2.853   5.952
 2456SOL    HW2 8268   0.780   2.847   6.090
 2457SOL     OW 8269   4.628   2.220   5.270
 2457SOL    HW1 8270   4.622   2.142   5.332
 2457SOL    HW2 8271   4.703   2.279   5.298
 2458SOL     OW 8272   0.824   0.435   2.696
 2458SOL    HW1 8273   0.835   0.530   2.725
 2458SOL    HW2 8274   0.756   0.390   2.754
 2459SOL     OW 8275   2.490   6.864   0.054
 2459SOL    HW1 8276   2.524   6.838   0.144
 2459SOL    HW2 8277   2.466   6.961   0.055
 2460SOL     OW 8278   1.251   1.312   4.771
 2460SOL    HW1 8279   1.271   1.357   4.858
 2460SOL    HW2 8280   1.167   1.258   4.779
 2461SOL     OW 8281   4.705   0.364   3.722
 2461SOL    HW1 8282   4.788   0.381   3.775
 2461SOL    HW2 8283   4.641   0.309   3.776
 2462SOL     OW 8284   0.254   4.699   0.072
 2462SOL    HW1 8285   0.180   4.720   0.008
 2462SOL    HW2 8286   0.238   4.609   0.113
 2463SOL     OW 8287   6.583   0.783   0.406
 2463SOL    HW1 8288   6.562   0.877   0.378
 2463SOL    HW2 8289   6.497   0.733   0.422
 2464SOL     OW 8290   0.792   2.550   4.070
 2464SOL    HW1 8291   0.724   2.525   4.139
 2464SOL    HW2 8292   0.883   2.523   4.101
 2465SOL     OW 8293   0.444   6.697   6.069
 2465SOL    HW1 8294   0.471   6.693   5.973
 2465SOL    HW2 8295   0.520   6.669   6.127
 2466SOL     OW 8296   0.798   2.223   1.876
 2466SOL    HW1 8297   0.851   2.139   1.884
 2466SOL    HW2 8298   0.794   2.269   1.965
 2467SOL     OW 8299   6.174   2.478   5.719
 2467SOL    HW1 8300   6.108   2.548   5.746
 2467SOL    HW2 8301   6.137   2.426   5.643
 2468SOL     OW 8302   3.427   6.835   5.152
 2468SOL    HW1 8303   3.365   6.894   5.101
 2468SOL    HW2 8304   3.387   6.812   5.241
 2469SOL     OW 8305   3.447   1.774   5.659
 2469SOL    HW1 8306   3.470   1.866   5.625
 2469SOL    HW2 8307   3.356   1.776   5.701
 2470SOL     OW 8308   2.764   4.756   6.479
 2470SOL    HW1 8309   2.853   4.792   6.450
 2470SOL    HW2 8310   2.725   4.701   6.404
 2471SOL     OW 8311   2.954   5.522   2.135
 2471SOL    HW1 8312   2.916   5.609   2.167
 2471SOL    HW2 8313   2.888   5.478   2.074
 2472SOL     OW 8314   5.281   1.657   3.498
 2472SOL    HW1 8315   5.350   1.730   3.501
 2472SOL    HW2 8316   5.212   1.679   3.429
 2473SOL     OW 8317   0.469   4.244   4.338
 2473SOL    HW1 8318   0.532   4.320   4.321
 2473SOL    HW2 8319   0.455   4.234   4.436
 2474SOL     OW 8320   1.531   6.168   1.641
 2474SOL    HW1 8321   1.549   6.158   1.544
 2474SOL    HW2 8322   1.599   6.230   1.682
 2475SOL     OW 8323   5.101   0.647   0.728
 2475SOL    HW1 8324   5.093   0.675   0.823
 2475SOL    HW2 8325   5.061   0.556   0.717
 2476SOL     OW 8326   5.345   0.926   0.202
 2476SOL    HW1 8327   5.253   0.888   0.212
 2476SOL    HW2 8328   5.338   1.021   0.172
 2477SOL     OW 8329   3.976   0.253   3.185
 2477SOL    HW1 8330   4.024   0.332   3.149
 2477SOL    HW2 8331   4.017   0.225   3.272
 2478SOL     OW 8332   4.486   6.879   4.690
 2478SOL    HW1 8333   4.454   6.948   4.754
 2478SOL    HW2 8334   4.450   6.789   4.718
 2479SOL     OW 8335   5.831   3.143   6.831
 2479SOL    HW1 8336   5.868   3.094   6.752
 2479SOL    HW2 8337   5.892   3.132   6.909
 2480SOL     OW 8338   3.366   2.584   1.521
 2480SOL    HW1 8339   3.374   2.682   1.535
 2480SOL    HW2 8340   3.303   2.546   1.589
 2481SOL     OW 8341   3.193   0.439   1.190
 2481SOL    HW1 8342   3.134   0.407   1.265
 2481SOL    HW2 8343   3.136   0.480   1.119
 2482SOL     OW 8344   6.079   2.970   6.412
 2482SOL    HW1 8345   6.065   2.895   6.348
 2482SOL    HW2 8346   6.078   3.057   6.362
 2483SOL     OW 8347   1.084   2.511   0.497
 2483SOL    HW1 8348   1.172   2.558   0.506
 2483SOL    HW2 8349   1.095   2.414   0.519
 2484SOL     OW 8350   5.367   0.771   1.288
 2484SOL    HW1 8351   5.382   0.805   1.381
 2484SOL    HW2 8352   5.270   0.776   1.266
 2485SOL     OW 8353   6.777   2.052   6.466
 2485SOL    HW1 8354   6.740   2.139   6.434
 2485SOL    HW2 8355   6.753   2.040   6.563
 2486SOL     OW 8356   6.782   4.870   5.297
 2486SOL    HW1 8357   6.822   4.962   5.306
 2486SOL    HW2 8358   6.688   4.877   5.265
 2487SOL     OW 8359   5.275   5.693   6.753
 2487SOL    HW1 8360   5.331   5.695   6.670
 2487SOL    HW2 8361   5.183   5.729   6.732
 2488SOL     OW 8362   6.455   3.889   0.937
 2488SOL    HW1 8363   6.514   3.821   0.979
 2488SOL    HW2 8364   6.457   3.879   0.837
 2489SOL     OW 8365   7.007   6.214   4.521
 2489SOL    HW1 8366   0.031   6.143   4.469
 2489SOL    HW2 8367   0.045   6.254   4.588
 2490SOL     OW 8368   2.423   5.887   2.558
 2490SOL    HW1 8369   2.451   5.791   2.562
 2490SOL    HW2 8370   2.421   5.925   2.650
 2491SOL     OW 8371   3.606   4.578   1.416
 2491SOL    HW1 8372   3.614   4.652   1.350
 2491SOL    HW2 8373   3.673   4.507   1.396
 2492SOL     OW 8374   6.765   4.493   1.990
 2492SOL    HW1 8375   6.852   4.506   1.942
 2492SOL    HW2 8376   6.739   4.396   1.985
 2493SOL     OW 8377   6.148   6.864   1.144
 2493SOL    HW1 8378   6.073   6.930   1.140
 2493SOL    HW2 8379   6.214   6.883   1.072
 2494SOL     OW 8380   6.404   3.629   2.094
 2494SOL    HW1 8381   6.309   3.638   2.123
 2494SOL    HW2 8382   6.462   3.685   2.153
 2495SOL     OW 8383   6.447   4.656   3.471
 2495SOL    HW1 8384   6.416   4.661   3.376
 2495SOL    HW2 8385   6.540   4.617   3.473
 2496SOL     OW 8386   6.124   4.984   6.158
 2496SOL    HW1 8387   6.172   4.943   6.081
 2496SOL    HW2 8388   6.032   4.946   6.164
 2497SOL     OW 8389   0.451   0.318   2.178
 2497SOL    HW1 8390   0.354   0.303   2.159
 2497SOL    HW2 8391   0.461   0.380   2.255
 2498SOL     OW 8392   1.961   3.672   6.308
 2498SOL    HW1 8393   2.010   3.649   6.224
 2498SOL    HW2 8394   1.862   3.670   6.290
 2499SOL     OW 8395   6.749   3.729   1.728
 2499SOL    HW1 8396   6.688   3.650   1.731
 2499SOL    HW2 8397   6.758   3.768   1.819
 2500SOL     OW 8398   4.039   4.125   6.863
 2500SOL    HW1 8399   4.029   4.178   6.948
 2500SOL    HW2 8400   4.025   4.028   6.883
 2501SOL     OW 8401   5.908   5.738   0.231
 2501SOL    HW1 8402   5.992   5.776   0.193
 2501SOL    HW2 8403   5.903   5.759   0.329
 2502SOL     OW 8404   2.906   5.159   4.315
 2502SOL    HW1 8405   2.893   5.258   4.302
 2502SOL    HW2 8406   2.871   5.110   4.235
 2503SOL     OW 8407   2.408   6.479   5.804
 2503SOL    HW1 8408   2.331   6.542   5.805
 2503SOL    HW2 8409   2.378   6.390   5.837
 2504SOL     OW 8410   3.121   6.175   3.227
 2504SOL    HW1 8411   3.100   6.190   3.130
 2504SOL    HW2 8412   3.190   6.242   3.256
 2505SOL     OW 8413   0.097   5.414   3.203
 2505SOL    HW1 8414   0.168   5.473   3.243
 2505SOL    HW2 8415   0.077   5.445   3.110
 2506SOL     OW 8416   5.167   5.679   5.992
 2506SOL    HW1 8417   5.085   5.629   5.966
 2506SOL    HW2 8418   5.202   5.729   5.912
 2507SOL     OW 8419   6.651   3.546   0.321
 2507SOL    HW1 8420   6.704   3.475   0.274
 2507SOL    HW2 8421   6.582   3.582   0.258
 2508SOL     OW 8422   4.491   2.176   4.167
 2508SOL    HW1 8423   4.480   2.237   4.088
 2508SOL    HW2 8424   4.485   2.081   4.136
 2509SOL     OW 8425   0.395   3.841   5.386
 2509SOL    HW1 8426   0.425   3.847   5.481
 2509SOL    HW2 8427   0.313   3.785   5.381
 2510SOL     OW 8428   3.403   4.115   1.902
 2510SOL    HW1 8429   3.470   4.142   1.971
 2510SOL    HW2 8430   3.327   4.067   1.947
 2511SOL     OW 8431   1.923   0.343   5.105
 2511SOL    HW1 8432   1.964   0.258   5.139
 2511SOL    HW2 8433   1.995   0.410   5.088
 2512SOL     OW 8434   3.884   5.161   4.045
 2512SOL    HW1 8435   3.791   5.162   4.083
 2512SOL    HW2 8436   3.892   5.087   3.978
 2513SOL     OW 8437   2.205   6.000   6.174
 2513SOL    HW1 8438   2.230   5.954   6.088
 2513SOL    HW2 8439   2.282   5.996   6.237
 2514SOL     OW 8440   1.359   2.944   3.054
 2514SOL    HW1 8441   1.441   2.890   3.037
 2514SOL    HW2 8442   1.379   3.018   3.118
 2515SOL     OW 8443   1.251   1.621   1.656
 2515SOL    HW1 8444   1.321   1.553   1.676
 2515SOL    HW2 8445   1.294   1.708   1.634
 2516SOL     OW 8446   5.813   1.933   4.043
 2516SOL    HW1 8447   5.749   1.861   4.018
 2516SOL    HW2 8448   5.772   2.022   4.023
 2517SOL     OW 8449   1.330   1.846   4.054
 2517SOL    HW1 8450   1.254   1.898   4.016
 2517SOL    HW2 8451   1.351   1.769   3.993
 2518SOL     OW 8452   2.766   4.126   1.459
 2518SOL    HW1 8453   2.737   4.175   1.541
 2518SOL    HW2 8454   2.849   4.074   1.479
 2519SOL     OW 8455   1.676   1.276   0.459
 2519SOL    HW1 8456   1.766   1.245   0.488
 2519SOL    HW2 8457   1.609   1.255   0.530
 2520SOL     OW 8458   3.110   2.382   0.889
 2520SOL    HW1 8459   3.187   2.344   0.940
 2520SOL    HW2 8460   3.140   2.463   0.839
 2521SOL     OW 8461   5.143   1.322   5.082
 2521SOL    HW1 8462   5.129   1.224   5.065
 2521SOL    HW2 8463   5.141   1.339   5.181
 2522SOL     OW 8464   0.573   1.783   6.025
 2522SOL    HW1 8465   0.558   1.827   5.936
 2522SOL    HW2 8466   0.537   1.841   6.097
 2523SOL     OW 8467   1.931   4.876   6.947
 2523SOL    HW1 8468   2.012   4.911   6.900
 2523SOL    HW2 8469   1.886   4.951   6.995
 2524SOL     OW 8470   1.304   6.752   3.911
 2524SOL    HW1 8471   1.229   6.691   3.933
 2524SOL    HW2 8472   1.385   6.727   3.964
 2525SOL     OW 8473   6.845   2.141   4.466
 2525SOL    HW1 8474   6.815   2.181   4.552
 2525SOL    HW2 8475   6.770   2.090   4.424
 2526SOL     OW 8476   1.122   6.463   0.749
 2526SOL    HW1 8477   1.167   6.541   0.791
 2526SOL    HW2 8478   1.027   6.457   0.781
 2527SOL     OW 8479   4.900   4.820   6.640
 2527SOL    HW1 8480   4.999   4.810   6.640
 2527SOL    HW2 8481   4.874   4.900   6.695
 2528SOL     OW 8482   4.687   5.246   6.321
 2528SOL    HW1 8483   4.718   5.340   6.307
 2528SOL    HW2 8484   4.708   5.218   6.415
 2529SOL     OW 8485   0.427   0.060   6.622
 2529SOL    HW1 8486   0.433   0.160   6.615
 2529SOL    HW2 8487   0.402   0.034   6.715
 2530SOL     OW 8488   2.020   5.638   5.839
 2530SOL    HW1 8489   2.064   5.548   5.840
 2530SOL    HW2 8490   2.079   5.704   5.793
 2531SOL     OW 8491   6.320   5.585   5.893
 2531SOL    HW1 8492   6.346   5.490   5.877
 2531SOL    HW2 8493   6.237   5.606   5.840
 2532SOL     OW 8494   6.717   6.501   1.002
 2532SOL    HW1 8495   6.653   6.559   1.053
 2532SOL    HW2 8496   6.774   6.559   0.942
 2533SOL     OW 8497   5.126   0.963   3.156
 2533SOL    HW1 8498   5.214   0.919   3.169
 2533SOL    HW2 8499   5.060   0.925   3.221
 2534SOL     OW 8500   4.708   1.868   2.565
 2534SOL    HW1 8501   4.616   1.844   2.597
 2534SOL    HW2 8502   4.704   1.950   2.508
 2535SOL     OW 8503   3.624   2.951   5.931
 2535SOL    HW1 8504   3.604   2.907   5.844
 2535SOL    HW2 8505   3.551   3.015   5.953
 2536SOL     OW 8506   1.541   0.607   6.810
 2536SOL    HW1 8507   1.443   0.598   6.832
 2536SOL    HW2 8508   1.594   0.548   6.870
 2537SOL     OW 8509   4.113   0.978   7.016
 2537SOL    HW1 8510   4.038   1.043   7.006
 2537SOL    HW2 8511   4.083   0.887   6.988
 2538SOL     OW 8512   6.958   3.470   4.146
 2538SOL    HW1 8513   6.935   3.493   4.051
 2538SOL    HW2 8514   6.889   3.408   4.182
 2539SOL     OW 8515   4.964   1.628   5.044
 2539SOL    HW1 8516   4.919   1.539   5.044
 2539SOL    HW2 8517   5.036   1.628   5.113
 2540SOL     OW 8518   3.697   1.528   2.414
 2540SOL    HW1 8519   3.631   1.496   2.345
 2540SOL    HW2 8520   3.668   1.498   2.505
 2541SOL     OW 8521   3.537   6.346   5.158
 2541SOL    HW1 8522   3.451   6.331   5.109
 2541SOL    HW2 8523   3.566   6.261   5.201
 2542SOL     OW 8524   0.855   4.957   6.292
 2542SOL    HW1 8525   0.937   4.902   6.273
 2542SOL    HW2 8526   0.818   4.931   6.381
 2543SOL     OW 8527   1.716   1.561   4.225
 2543SOL    HW1 8528   1.766   1.602   4.302
 2543SOL    HW2 8529   1.618   1.578   4.236
 2544SOL     OW 8530   0.705   5.287   0.324
 2544SOL    HW1 8531   0.659   5.357   0.379
 2544SOL    HW2 8532   0.721   5.321   0.232
 2545SOL     OW 8533   1.959   6.437   2.714
 2545SOL    HW1 8534   2.029   6.475   2.653
 2545SOL    HW2 8535   1.887   6.394   2.659
 2546SOL     OW 8536   6.256   1.983   0.870
 2546SOL    HW1 8537   6.248   2.076   0.906
 2546SOL    HW2 8538   6.350   1.950   0.881
 2547SOL     OW 8539   0.335   3.526   4.926
 2547SOL    HW1 8540   0.276   3.473   4.986
 2547SOL    HW2 8541   0.323   3.495   4.832
 2548SOL     OW 8542   0.236   5.989   4.006
 2548SOL    HW1 8543   0.238   6.080   3.964
 2548SOL    HW2 8544   0.264   5.921   3.938
 2549SOL     OW 8545   0.677   1.174   0.743
 2549SOL    HW1 8546   0.758   1.168   0.801
 2549SOL    HW2 8547   0.611   1.105   0.772
 2550SOL     OW 8548   5.688   6.371   0.688
 2550SOL    HW1 8549   5.738   6.443   0.641
 2550SOL    HW2 8550   5.595   6.364   0.651
 2551SOL     OW 8551   1.478   4.242   6.548
 2551SOL    HW1 8552   1.425   4.310   6.497
 2551SOL    HW2 8553   1.531   4.187   6.484
 2552SOL     OW 8554   2.091   5.890   3.096
 2552SOL    HW1 8555   2.097   5.807   3.151
 2552SOL    HW2 8556   2.153   5.883   3.018
 2553SOL     OW 8557   4.080   3.730   6.709
 2553SOL    HW1 8558   4.029   3.770   6.633
 2553SOL    HW2 8559   4.134   3.652   6.676
 2554SOL     OW 8560   1.615   1.450   0.256
 2554SOL    HW1 8561   1.646   1.409   0.171
 2554SOL    HW2 8562   1.639   1.391   0.333
 2555SOL     OW 8563   6.089   2.509   6.442
 2555SOL    HW1 8564   6.083   2.429   6.501
 2555SOL    HW2 8565   6.058   2.485   6.350
 2556SOL     OW 8566   3.507   6.295   1.006
 2556SOL    HW1 8567   3.488   6.199   0.984
 2556SOL    HW2 8568   3.425   6.338   1.044
 2557SOL     OW 8569   1.684   4.147   6.842
 2557SOL    HW1 8570   1.781   4.123   6.851
 2557SOL    HW2 8571   1.628   4.066   6.861
 2558SOL     OW 8572   4.616   0.768   5.841
 2558SOL    HW1 8573   4.664   0.739   5.758
 2558SOL    HW2 8574   4.681   0.808   5.905
 2559SOL     OW 8575   0.514   4.495   4.930
 2559SOL    HW1 8576   0.457   4.454   5.001
 2559SOL    HW2 8577   0.467   4.487   4.841
 2560SOL     OW 8578   5.996   1.986   6.044
 2560SOL    HW1 8579   6.009   2.021   6.137
 2560SOL    HW2 8580   6.064   2.027   5.983
 2561SOL     OW 8581   2.640   5.495   5.004
 2561SOL    HW1 8582   2.558   5.451   4.967
 2561SOL    HW2 8583   2.721   5.447   4.971
 2562SOL     OW 8584   1.619   3.794   0.144
 2562SOL    HW1 8585   1.561   3.869   0.175
 2562SOL    HW2 8586   1.658   3.816   0.055
 2563SOL     OW 8587   2.849   1.267   6.704
 2563SOL    HW1 8588   2.828   1.237   6.610
 2563SOL    HW2 8589   2.878   1.363   6.702
 2564SOL     OW 8590   1.411   5.444   1.736
 2564SOL    HW1 8591   1.403   5.439   1.836
 2564SOL    HW2 8592   1.448   5.534   1.711
 2565SOL     OW 8593   1.396   0.651   1.535
 2565SOL    HW1 8594   1.467   0.599   1.489
 2565SOL    HW2 8595   1.417   0.659   1.632
 2566SOL     OW 8596   1.893   6.599   6.919
 2566SOL    HW1 8597   1.850   6.572   7.005
 2566SOL    HW2 8598   1.844   6.677   6.880
 2567SOL     OW 8599   1.249   6.241   0.364
 2567SOL    HW1 8600   1.348   6.233   0.365
 2567SOL    HW2 8601   1.221   6.315   0.426
 2568SOL     OW 8602   4.637   2.254   0.082
 2568SOL    HW1 8603   4.613   2.349   0.101
 2568SOL    HW2 8604   4.710   2.225   0.143
 2569SOL     OW 8605   3.329   0.178   3.554
 2569SOL    HW1 8606   3.247   0.120   3.547
 2569SOL    HW2 8607   3.366   0.194   3.463
 2570SOL     OW 8608   5.291   1.547   6.244
 2570SOL    HW1 8609   5.297   1.601   6.328
 2570SOL    HW2 8610   5.197   1.543   6.213
 2571SOL     OW 8611   1.034   4.772   3.838
 2571SOL    HW1 8612   1.002   4.717   3.915
 2571SOL    HW2 8613   1.055   4.865   3.869
 2572SOL     OW 8614   2.165   4.800   2.607
 2572SOL    HW1 8615   2.164   4.783   2.706
 2572SOL    HW2 8616   2.230   4.738   2.563
 2573SOL     OW 8617   0.325   0.389   1.422
 2573SOL    HW1 8618   0.254   0.410   1.489
 2573SOL    HW2 8619   0.282   0.364   1.335
 2574SOL     OW 8620   6.434   3.377   0.059
 2574SOL    HW1 8621   6.421   3.473   0.082
 2574SOL    HW2 8622   6.441   3.366   6.984
 2575SOL     OW 8623   6.938   5.676   6.309
 2575SOL    HW1 8624   6.844   5.657   6.281
 2575SOL    HW2 8625   7.000   5.618   6.257
 2576SOL     OW 8626   4.714   6.354   4.059
 2576SOL    HW1 8627   4.790   6.418   4.052
 2576SOL    HW2 8628   4.672   6.342   3.970
 2577SOL     OW 8629   2.637   4.650   2.205
 2577SOL    HW1 8630   2.660   4.739   2.243
 2577SOL    HW2 8631   2.695   4.632   2.125
 2578SOL     OW 8632   4.101   1.913   3.572
 2578SOL    HW1 8633   4.164   1.924   3.496
 2578SOL    HW2 8634   4.078   2.003   3.609
 2579SOL     OW 8635   0.870   6.373   3.791
 2579SOL    HW1 8636   0.884   6.376   3.692
 2579SOL    HW2 8637   0.930   6.304   3.831
 2580SOL     OW 8638   2.225   2.920   0.138
 2580SOL    HW1 8639   2.252   2.992   0.073
 2580SOL    HW2 8640   2.137   2.943   0.178
 2581SOL     OW 8641   2.964   6.848   5.496
 2581SOL    HW1 8642   2.901   6.798   5.437
 2581SOL    HW2 8643   3.015   6.914   5.442
 2582SOL     OW 8644   0.191   3.146   1.367
 2582SOL    HW1 8645   0.139   3.225   1.399
 2582SOL    HW2 8646   0.286   3.173   1.351
 2583SOL     OW 8647   5.798   6.784   0.993
 2583SOL    HW1 8648   5.703   6.803   0.966
 2583SOL    HW2 8649   5.834   6.863   1.044
 2584SOL     OW 8650   4.480   4.796   5.313
 2584SOL    HW1 8651   4.444   4.878   5.357
 2584SOL    HW2 8652   4.550   4.822   5.246
 2585SOL     OW 8653   3.218   5.104   6.642
 2585SOL    HW1 8654   3.222   5.160   6.725
 2585SOL    HW2 8655   3.162   5.023   6.659
 2586SOL     OW 8656   2.205   0.626   4.871
 2586SOL    HW1 8657   2.166   0.596   4.958
 2586SOL    HW2 8658   2.261   0.553   4.832
 2587SOL     OW 8659   6.507   1.282   3.266
 2587SOL    HW1 8660   6.448   1.223   3.210
 2587SOL    HW2 8661   6.600   1.279   3.229
 2588SOL     OW 8662   4.543   0.901   5.319
 2588SOL    HW1 8663   4.446   0.907   5.343
 2588SOL    HW2 8664   4.558   0.820   5.262
 2589SOL     OW 8665   1.464   6.624   6.925
 2589SOL    HW1 8666   1.391   6.664   6.979
 2589SOL    HW2 8667   1.436   6.620   6.829
 2590SOL     OW 8668   2.962   5.004   0.539
 2590SOL    HW1 8669   2.884   5.053   0.577
 2590SOL    HW2 8670   3.022   4.975   0.614
 2591SOL     OW 8671   5.900   5.544   4.031
 2591SOL    HW1 8672   5.943   5.465   3.987
 2591SOL    HW2 8673   5.848   5.513   4.111
 2592SOL     OW 8674   2.424   4.797   0.168
 2592SOL    HW1 8675   2.406   4.762   0.259
 2592SOL    HW2 8676   2.376   4.741   0.100
 2593SOL     OW 8677   3.171   3.866   0.594
 2593SOL    HW1 8678   3.242   3.823   0.650
 2593SOL    HW2 8679   3.212   3.937   0.536
 2594SOL     OW 8680   1.819   4.163   4.440
 2594SOL    HW1 8681   1.752   4.115   4.496
 2594SOL    HW2 8682   1.911   4.130   4.463
 2595SOL     OW 8683   1.641   0.848   3.633
 2595SOL    HW1 8684   1.637   0.786   3.554
 2595SOL    HW2 8685   1.580   0.926   3.618
 2596SOL     OW 8686   1.191   2.432   0.085
 2596SOL    HW1 8687   1.224   2.343   0.117
 2596SOL    HW2 8688   1.182   2.432   7.011
 2597SOL     OW 8689   6.725   5.841   6.544
 2597SOL    HW1 8690   6.721   5.774   6.469
 2597SOL    HW2 8691   6.774   5.802   6.621
 2598SOL     OW 8692   5.631   2.934   2.374
 2598SOL    HW1 8693   5.615   2.948   2.277
 2598SOL    HW2 8694   5.657   2.839   2.391
 2599SOL     OW 8695   2.776   6.757   1.973
 2599SOL    HW1 8696   2.703   6.723   1.913
 2599SOL    HW2 8697   2.812   6.681   2.027
 2600SOL     OW 8698   6.254   3.970   4.206
 2600SOL    HW1 8699   6.347   3.975   4.242
 2600SOL    HW2 8700   6.235   3.876   4.178
 2601SOL     OW 8701   0.320   2.121   3.285
 2601SOL    HW1 8702   0.321   2.195   3.217
 2601SOL    HW2 8703   0.226   2.090   3.299
 2602SOL     OW 8704   1.783   4.992   3.890
 2602SOL    HW1 8705   1.836   4.910   3.909
 2602SOL    HW2 8706   1.823   5.039   3.811
 2603SOL     OW 8707   2.864   0.295   2.913
 2603SOL    HW1 8708   2.935   0.316   2.981
 2603SOL    HW2 8709   2.862   0.368   2.845
 2604SOL     OW 8710   4.533   2.306   2.783
 2604SOL    HW1 8711   4.541   2.329   2.880
 2604SOL    HW2 8712   4.471   2.228   2.773
 2605SOL     OW 8713   1.530   3.637   2.142
 2605SOL    HW1 8714   1.485   3.647   2.231
 2605SOL    HW2 8715   1.621   3.598   2.155
 2606SOL     OW 8716   4.513   3.764   1.106
 2606SOL    HW1 8717   4.484   3.833   1.172
 2606SOL    HW2 8718   4.433   3.710   1.079
 2607SOL     OW 8719   2.534   1.902   1.255
 2607SOL    HW1 8720   2.632   1.904   1.237
 2607SOL    HW2 8721   2.496   1.993   1.244
 2608SOL     OW 8722   2.424   5.381   5.729
 2608SOL    HW1 8723   2.324   5.371   5.734
 2608SOL    HW2 8724   2.463   5.374   5.821
 2609SOL     OW 8725   0.144   1.413   0.832
 2609SOL    HW1 8726   0.188   1.502   0.831
 2609SOL    HW2 8727   0.188   1.353   0.765
 2610SOL     OW 8728   1.258   4.630   4.426
 2610SOL    HW1 8729   1.351   4.592   4.423
 2610SOL    HW2 8730   1.205   4.582   4.496
 2611SOL     OW 8731   5.561   0.003   6.368
 2611SOL    HW1 8732   5.543   0.041   6.459
 2611SOL    HW2 8733   5.542   0.073   6.299
 2612SOL     OW 8734   6.347   6.941   5.785
 2612SOL    HW1 8735   6.260   6.911   5.825
 2612SOL    HW2 8736   6.353   6.909   5.691
 2613SOL     OW 8737   1.332   5.853   6.812
 2613SOL    HW1 8738   1.343   5.815   6.904
 2613SOL    HW2 8739   1.323   5.953   6.818
 2614SOL     OW 8740   6.887   1.267   6.466
 2614SOL    HW1 8741   6.930   1.184   6.501
 2614SOL    HW2 8742   6.951   1.343   6.475
 2615SOL     OW 8743   0.648   3.080   0.586
 2615SOL    HW1 8744   0.656   3.008   0.655
 2615SOL    HW2 8745   0.645   3.039   0.495
 2616SOL     OW 8746   1.506   0.145   5.361
 2616SOL    HW1 8747   1.448   0.140   5.279
 2616SOL    HW2 8748   1.559   0.230   5.360
 2617SOL     OW 8749   5.415   0.384   1.430
 2617SOL    HW1 8750   5.431   0.401   1.332
 2617SOL    HW2 8751   5.498   0.346   1.470
 2618SOL     OW 8752   1.098   6.474   6.186
 2618SOL    HW1 8753   1.025   6.496   6.121
 2618SOL    HW2 8754   1.130   6.381   6.170
 2619SOL     OW 8755   4.842   1.258   2.453
 2619SOL    HW1 8756   4.825   1.167   2.491
 2619SOL    HW2 8757   4.818   1.260   2.357
 2620SOL     OW 8758   6.292   0.798   1.060
 2620SOL    HW1 8759   6.285   0.860   0.982
 2620SOL    HW2 8760   6.294   0.850   1.145
 2621SOL     OW 8761   1.756   6.213   1.807
 2621SOL    HW1 8762   1.807   6.167   1.735
 2621SOL    HW2 8763   1.732   6.146   1.878
 2622SOL     OW 8764   3.327   3.217   6.408
 2622SOL    HW1 8765   3.289   3.141   6.356
 2622SOL    HW2 8766   3.258   3.289   6.417
 2623SOL     OW 8767   0.997   6.628   3.519
 2623SOL    HW1 8768   0.932   6.552   3.514
 2623SOL    HW2 8769   0.959   6.708   3.472
 2624SOL     OW 8770   0.416   1.542   4.998
 2624SOL    HW1 8771   0.466   1.595   4.930
 2624SOL    HW2 8772   0.445   1.569   5.090
 2625SOL     OW 8773   2.112   5.222   6.275
 2625SOL    HW1 8774   2.138   5.272   6.192
 2625SOL    HW2 8775   2.116   5.284   6.354
 2626SOL     OW 8776   6.726   5.523   6.662
 2626SOL    HW1 8777   6.785   5.446   6.637
 2626SOL    HW2 8778   6.637   5.512   6.618
 2627SOL     OW 8779   1.871   6.876   5.485
 2627SOL    HW1 8780   1.877   6.900   5.388
 2627SOL    HW2 8781   1.802   6.934   5.529
 2628SOL     OW 8782   0.350   4.967   2.590
 2628SOL    HW1 8783   0.335   5.039   2.657
 2628SOL    HW2 8784   0.325   4.878   2.629
 2629SOL     OW 8785   3.353   3.828   2.821
 2629SOL    HW1 8786   3.283   3.898   2.810
 2629SOL    HW2 8787   3.354   3.797   2.917
 2630SOL     OW 8788   4.014   0.831   3.590
 2630SOL    HW1 8789   4.086   0.887   3.631
 2630SOL    HW2 8790   4.054   0.755   3.539
 2631SOL     OW 8791   6.263   0.355   6.979
 2631SOL    HW1 8792   6.323   0.420   6.931
 2631SOL    HW2 8793   6.268   0.373   0.053
 2632SOL     OW 8794   5.193   4.379   2.126
 2632SOL    HW1 8795   5.235   4.421   2.046
 2632SOL    HW2 8796   5.098   4.353   2.104
 2633SOL     OW 8797   0.347   3.422   5.931
 2633SOL    HW1 8798   0.373   3.418   6.027
 2633SOL    HW2 8799   0.258   3.466   5.921
 2634SOL     OW 8800   0.477   1.091   5.999
 2634SOL    HW1 8801   0.388   1.046   5.990
 2634SOL    HW2 8802   0.475   1.178   5.949
 2635SOL     OW 8803   5.469   5.026   3.273
 2635SOL    HW1 8804   5.502   5.092   3.205
 2635SOL    HW2 8805   5.487   5.061   3.365
 2636SOL     OW 8806   3.680   5.778   5.298
 2636SOL    HW1 8807   3.581   5.795   5.299
 2636SOL    HW2 8808   3.716   5.796   5.207
 2637SOL     OW 8809   0.453   1.658   3.665
 2637SOL    HW1 8810   0.495   1.576   3.703
 2637SOL    HW2 8811   0.391   1.699   3.732
 2638SOL     OW 8812   0.779   6.375   4.128
 2638SOL    HW1 8813   0.842   6.410   4.198
 2638SOL    HW2 8814   0.822   6.299   4.080
 2639SOL     OW 8815   4.154   4.836   5.203
 2639SOL    HW1 8816   4.078   4.781   5.236
 2639SOL    HW2 8817   4.156   4.923   5.253
 2640SOL     OW 8818   1.583   6.971   3.796
 2640SOL    HW1 8819   1.485   6.950   3.790
 2640SOL    HW2 8820   1.632   6.921   3.724
 2641SOL     OW 8821   5.853   2.831   6.959
 2641SOL    HW1 8822   5.820   2.895   6.889
 2641SOL    HW2 8823   5.903   2.757   6.915
 2642SOL     OW 8824   6.113   1.492   3.731
 2642SOL    HW1 8825   6.089   1.428   3.658
 2642SOL    HW2 8826   6.071   1.462   3.816
 2643SOL     OW 8827   2.115   4.821   3.879
 2643SOL    HW1 8828   2.044   4.780   3.935
 2643SOL    HW2 8829   2.203   4.817   3.927
 2644SOL     OW 8830   4.547   5.380   4.984
 2644SOL    HW1 8831   4.604   5.298   4.986
 2644SOL    HW2 8832   4.495   5.382   4.899
 2645SOL     OW 8833   4.824   5.602   3.684
 2645SOL    HW1 8834   4.870   5.684   3.649
 2645SOL    HW2 8835   4.892   5.536   3.715
 2646SOL     OW 8836   0.815   2.488   6.295
 2646SOL    HW1 8837   0.813   2.448   6.204
 2646SOL    HW2 8838   0.853   2.422   6.360
 2647SOL     OW 8839   5.420   0.554   1.822
 2647SOL    HW1 8840   5.454   0.520   1.910
 2647SOL    HW2 8841   5.440   0.652   1.815
 2648SOL     OW 8842   0.882   0.466   6.862
 2648SOL    HW1 8843   0.787   0.494   6.875
 2648SOL    HW2 8844   0.903   0.461   6.764
 2649SOL     OW 8845   4.919   1.878   1.985
 2649SOL    HW1 8846   4.917   1.819   1.904
 2649SOL    HW2 8847   4.918   1.974   1.956
 2650SOL     OW 8848   2.588   6.475   4.211
 2650SOL    HW1 8849   2.543   6.498   4.298
 2650SOL    HW2 8850   2.687   6.493   4.219
 2651SOL     OW 8851   4.430   2.345   4.367
 2651SOL    HW1 8852   4.466   2.437   4.352
 2651SOL    HW2 8853   4.448   2.289   4.286
 2652SOL     OW 8854   5.040   4.079   5.271
 2652SOL    HW1 8855   5.033   4.129   5.185
 2652SOL    HW2 8856   4.949   4.070   5.312
 2653SOL     OW 8857   2.424   5.315   0.592
 2653SOL    HW1 8858   2.384   5.237   0.639
 2653SOL    HW2 8859   2.363   5.344   0.518
 2654SOL     OW 8860   6.508   1.128   0.062
 2654SOL    HW1 8861   6.438   1.106   7.019
 2654SOL    HW2 8862   6.560   1.208   0.031
 2655SOL     OW 8863   4.586   6.171   2.481
 2655SOL    HW1 8864   4.535   6.135   2.559
 2655SOL    HW2 8865   4.522   6.192   2.407
 2656SOL     OW 8866   3.718   6.482   3.292
 2656SOL    HW1 8867   3.676   6.427   3.219
 2656SOL    HW2 8868   3.646   6.517   3.352
 2657SOL     OW 8869   0.608   4.080   0.417
 2657SOL    HW1 8870   0.528   4.024   0.441
 2657SOL    HW2 8871   0.678   4.023   0.375
 2658SOL     OW 8872   3.571   5.356   0.226
 2658SOL    HW1 8873   3.492   5.331   0.282
 2658SOL    HW2 8874   3.639   5.402   0.282
 2659SOL     OW 8875   0.269   1.977   5.046
 2659SOL    HW1 8876   0.281   2.075   5.056
 2659SOL    HW2 8877   0.222   1.957   4.959
 2660SOL     OW 8878   0.648   1.906   1.958
 2660SOL    HW1 8879   0.659   1.919   2.056
 2660SOL    HW2 8880   0.735   1.924   1.911
 2661SOL     OW 8881   1.522   1.126   0.721
 2661SOL    HW1 8882   1.441   1.109   0.776
 2661SOL    HW2 8883   1.593   1.059   0.744
 2662SOL     OW 8884   2.715   1.578   2.247
 2662SOL    HW1 8885   2.696   1.525   2.164
 2662SOL    HW2 8886   2.782   1.650   2.227
 2663SOL     OW 8887   4.069   6.660   0.101
 2663SOL    HW1 8888   4.119   6.574   0.087
 2663SOL    HW2 8889   4.120   6.718   0.164
 2664SOL     OW 8890   4.612   3.906   5.454
 2664SOL    HW1 8891   4.617   4.004   5.472
 2664SOL    HW2 8892   4.569   3.860   5.532
 2665SOL     OW 8893   2.203   4.044   4.675
 2665SOL    HW1 8894   2.199   4.142   4.657
 2665SOL    HW2 8895   2.239   4.028   4.767
 2666SOL     OW 8896   2.116   3.865   2.178
 2666SOL    HW1 8897   2.149   3.897   2.266
 2666SOL    HW2 8898   2.160   3.918   2.105
 2667SOL     OW 8899   6.972   2.932   4.893
 2667SOL    HW1 8900   6.979   2.832   4.890
 2667SOL    HW2 8901   0.034   2.971   4.923
 2668SOL     OW 8902   6.361   0.513   3.584
 2668SOL    HW1 8903   6.359   0.567   3.500
 2668SOL    HW2 8904   6.360   0.575   3.663
 2669SOL     OW 8905   2.701   0.651   6.902
 2669SOL    HW1 8906   2.738   0.615   6.816
 2669SOL    HW2 8907   2.601   0.649   6.899
 2670SOL     OW 8908   0.626   0.524   6.884
 2670SOL    HW1 8909   0.624   0.496   6.980
 2670SOL    HW2 8910   0.534   0.521   6.847
 2671SOL     OW 8911   5.068   4.525   5.864
 2671SOL    HW1 8912   5.010   4.589   5.914
 2671SOL    HW2 8913   5.014   4.444   5.840
 2672SOL     OW 8914   3.563   1.350   2.220
 2672SOL    HW1 8915   3.614   1.396   2.148
 2672SOL    HW2 8916   3.472   1.325   2.186
 2673SOL     OW 8917   3.817   0.334   2.421
 2673SOL    HW1 8918   3.893   0.351   2.485
 2673SOL    HW2 8919   3.841   0.258   2.361
 2674SOL     OW 8920   0.256   5.212   2.724
 2674SOL    HW1 8921   0.227   5.229   2.818
 2674SOL    HW2 8922   0.296   5.296   2.686
 2675SOL     OW 8923   5.286   0.789   4.168
 2675SOL    HW1 8924   5.314   0.815   4.075
 2675SOL    HW2 8925   5.199   0.833   4.190
 2676SOL     OW 8926   4.110   3.676   3.222
 2676SOL    HW1 8927   4.127   3.596   3.279
 2676SOL    HW2 8928   4.077   3.751   3.280
 2677SOL     OW 8929   2.492   4.944   1.166
 2677SOL    HW1 8930   2.590   4.921   1.166
 2677SOL    HW2 8931   2.481   5.042   1.155
 2678SOL     OW 8932   4.374   1.821   3.037
 2678SOL    HW1 8933   4.309   1.822   2.961
 2678SOL    HW2 8934   4.386   1.728   3.071
 2679SOL     OW 8935   2.149   3.492   2.896
 2679SOL    HW1 8936   2.079   3.428   2.929
 2679SOL    HW2 8937   2.204   3.448   2.826
 2680SOL     OW 8938   5.943   1.577   0.096
 2680SOL    HW1 8939   6.039   1.603   0.082
 2680SOL    HW2 8940   5.934   1.478   0.088
 2681SOL     OW 8941   1.944   2.155   4.306
 2681SOL    HW1 8942   1.939   2.254   4.312
 2681SOL    HW2 8943   2.021   2.122   4.361
 2682SOL     OW 8944   4.002   3.971   1.698
 2682SOL    HW1 8945   4.067   3.940   1.629
 2682SOL    HW2 8946   4.042   4.045   1.751
 2683SOL     OW 8947   2.255   4.261   1.948
 2683SOL    HW1 8948   2.282   4.299   2.037
 2683SOL    HW2 8949   2.331   4.209   1.909
 2684SOL     OW 8950   6.783   6.784   4.213
 2684SOL    HW1 8951   6.808   6.867   4.163
 2684SOL    HW2 8952   6.782   6.804   4.311
 2685SOL     OW 8953   0.820   5.588   5.838
 2685SOL    HW1 8954   0.904   5.571   5.787
 2685SOL    HW2 8955   0.778   5.673   5.805
 2686SOL     OW 8956   0.367   1.384   5.434
 2686SOL    HW1 8957   0.336   1.445   5.507
 2686SOL    HW2 8958   0.365   1.289   5.466
 2687SOL     OW 8959   3.981   1.893   1.476
 2687SOL    HW1 8960   4.075   1.859   1.473
 2687SOL    HW2 8961   3.925   1.842   1.411
 2688SOL     OW 8962   3.920   2.994   6.323
 2688SOL    HW1 8963   3.906   3.083   6.279
 2688SOL    HW2 8964   3.935   2.925   6.253
 2689SOL     OW 8965   1.546   4.200   3.366
 2689SOL    HW1 8966   1.602   4.117   3.369
 2689SOL    HW2 8967   1.449   4.175   3.363
 2690SOL     OW 8968   4.239   1.660   5.763
 2690SOL    HW1 8969   4.301   1.674   5.685
 2690SOL    HW2 8970   4.221   1.562   5.773
 2691SOL     OW 8971   6.675   3.652   4.879
 2691SOL    HW1 8972   6.649   3.725   4.943
 2691SOL    HW2 8973   6.602   3.584   4.874
 2692SOL     OW 8974   2.547   6.432   2.158
 2692SOL    HW1 8975   2.647   6.438   2.150
 2692SOL    HW2 8976   2.515   6.349   2.112
 2693SOL     OW 8977   1.358   6.160   3.136
 2693SOL    HW1 8978   1.455   6.172   3.115
 2693SOL    HW2 8979   1.335   6.063   3.137
 2694SOL     OW 8980   2.768   0.473   2.709
 2694SOL    HW1 8981   2.858   0.515   2.720
 2694SOL    HW2 8982   2.708   0.535   2.658
 2695SOL     OW 8983   6.957   5.474   3.801
 2695SOL    HW1 8984   7.004   5.443   3.718
 2695SOL    HW2 8985   7.003   5.555   3.837
 2696SOL     OW 8986   5.336   4.601   5.944
 2696SOL    HW1 8987   5.360   4.682   5.891
 2696SOL    HW2 8988   5.242   4.574   5.924
 2697SOL     OW 8989   4.093   2.547   6.492
 2697SOL    HW1 8990   4.112   2.484   6.566
 2697SOL    HW2 8991   4.114   2.640   6.521
 2698SOL     OW 8992   1.644   4.958   5.746
 2698SOL    HW1 8993   1.667   4.911   5.831
 2698SOL    HW2 8994   1.575   5.028   5.765
 2699SOL     OW 8995   2.805   6.482   2.147
 2699SOL    HW1 8996   2.864   6.435   2.082
 2699SOL    HW2 8997   2.848   6.483   2.237
 2700SOL     OW 8998   3.844   1.904   1.861
 2700SOL    HW1 8999   3.876   1.820   1.818
 2700SOL    HW2 9000   3.923   1.957   1.893
 2701SOL     OW 9001   5.302   3.107   5.023
 2701SOL    HW1 9002   5.343   3.159   5.098
 2701SOL    HW2 9003   5.374   3.071   4.964
 2702SOL     OW 9004   2.561   0.935   5.082
 2702SOL    HW1 9005   2.630   0.978   5.141
 2702SOL    HW2 9006   2.552   0.988   4.998
 2703SOL     OW 9007   2.064   6.956   2.563
 2703SOL    HW1 9008   2.010   7.019   2.507
 2703SOL    HW2 9009   2.005   6.913   2.632
 2704SOL     OW 9010   5.435   0.978   3.716
 2704SOL    HW1 9011   5.502   0.907   3.694
 2704SOL    HW2 9012   5.362   0.939   3.772
 2705SOL     OW 9013   0.538   0.676   5.583
 2705SOL    HW1 9014   0.457   0.726   5.614
 2705SOL    HW2 9015   0.617   0.738   5.582
 2706SOL     OW 9016   6.914   3.961   3.595
 2706SOL    HW1 9017   6.868   3.881   3.634
 2706SOL    HW2 9018   6.923   3.948   3.496
 2707SOL     OW 9019   4.461   1.212   2.849
 2707SOL    HW1 9020   4.473   1.222   2.750
 2707SOL    HW2 9021   4.531   1.265   2.896
 2708SOL     OW 9022   5.529   3.631   6.189
 2708SOL    HW1 9023   5.612   3.652   6.240
 2708SOL    HW2 9024   5.517   3.697   6.115
 2709SOL     OW 9025   5.207   1.471   5.591
 2709SOL    HW1 9026   5.183   1.415   5.511
 2709SOL    HW2 9027   5.151   1.554   5.591
 2710SOL     OW 9028   0.605   2.606   4.276
 2710SOL    HW1 9029   0.580   2.698   4.244
 2710SOL    HW2 9030   0.617   2.607   4.375
 2711SOL     OW 9031   3.477   1.128   1.976
 2711SOL    HW1 9032   3.408   1.176   2.031
 2711SOL    HW2 9033   3.432   1.069   1.910
 2712SOL     OW 9034   3.518   6.158   2.000
 2712SOL    HW1 9035   3.601   6.149   2.056
 2712SOL    HW2 9036   3.520   6.091   1.926
 2713SOL     OW 9037   3.614   4.655   5.624
 2713SOL    HW1 9038   3.519   4.672   5.648
 2713SOL    HW2 9039   3.674   4.689   5.697
 2714SOL     OW 9040   3.272   4.748   6.433
 2714SOL    HW1 9041   3.225   4.831   6.401
 2714SOL    HW2 9042   3.359   4.774   6.475
 2715SOL     OW 9043   4.284   1.109   6.837
 2715SOL    HW1 9044   4.230   1.083   6.918
 2715SOL    HW2 9045   4.262   1.048   6.761
 2716SOL     OW 9046   4.015   1.520   2.874
 2716SOL    HW1 9047   4.063   1.435   2.891
 2716SOL    HW2 9048   3.922   1.514   2.911
 2717SOL     OW 9049   0.476   1.312   2.485
 2717SOL    HW1 9050   0.499   1.258   2.404
 2717SOL    HW2 9051   0.415   1.386   2.459
 2718SOL     OW 9052   0.513   0.546   5.814
 2718SOL    HW1 9053   0.516   0.597   5.728
 2718SOL    HW2 9054   0.425   0.500   5.823
 2719SOL     OW 9055   1.611   4.873   2.655
 2719SOL    HW1 9056   1.710   4.876   2.668
 2719SOL    HW2 9057   1.566   4.925   2.727
 2720SOL     OW 9058   2.139   6.244   6.327
 2720SOL    HW1 9059   2.209   6.308   6.358
 2720SOL    HW2 9060   2.179   6.182   6.260
 2721SOL     OW 9061   3.103   6.385   1.668
 2721SOL    HW1 9062   3.011   6.416   1.644
 2721SOL    HW2 9063   3.169   6.458   1.653
 2722SOL     OW 9064   4.077   5.749   7.025
 2722SOL    HW1 9065   4.151   5.751   0.067
 2722SOL    HW2 9066   4.101   5.686   6.951
 2723SOL     OW 9067   3.167   6.288   6.800
 2723SOL    HW1 9068   3.227   6.264   6.876
 2723SOL    HW2 9069   3.184   6.225   6.724
 2724SOL     OW 9070   0.814   6.473   1.370
 2724SOL    HW1 9071   0.718   6.458   1.348
 2724SOL    HW2 9072   0.842   6.562   1.335
 2725SOL     OW 9073   6.120   3.968   4.675
 2725SOL    HW1 9074   6.146   4.058   4.641
 2725SOL    HW2 9075   6.154   3.898   4.613
 2726SOL     OW 9076   5.946   1.979   2.614
 2726SOL    HW1 9077   5.984   1.977   2.706
 2726SOL    HW2 9078   5.993   1.911   2.557
 2727SOL     OW 9079   1.454   5.135   3.378
 2727SOL    HW1 9080   1.469   5.229   3.348
 2727SOL    HW2 9081   1.413   5.136   3.469
 2728SOL     OW 9082   4.658   5.367   5.448
 2728SOL    HW1 9083   4.719   5.326   5.380
 2728SOL    HW2 9084   4.588   5.421   5.402
 2729SOL     OW 9085   5.479   0.222   6.163
 2729SOL    HW1 9086   5.381   0.230   6.177
 2729SOL    HW2 9087   5.502   0.250   6.069
 2730SOL     OW 9088   1.132   6.001   1.824
 2730SOL    HW1 9089   1.135   6.020   1.726
 2730SOL    HW2 9090   1.087   6.076   1.872
 2731SOL     OW 9091   3.449   3.882   4.107
 2731SOL    HW1 9092   3.518   3.810   4.099
 2731SOL    HW2 9093   3.397   3.868   4.191
 2732SOL     OW 9094   5.607   0.502   2.019
 2732SOL    HW1 9095   5.669   0.508   2.098
 2732SOL    HW2 9096   5.653   0.540   1.939
 2733SOL     OW 9097   1.373   6.560   6.663
 2733SOL    HW1 9098   1.303   6.524   6.724
 2733SOL    HW2 9099   1.399   6.489   6.597
 2734SOL     OW 9100   3.136   6.637   2.418
 2734SOL    HW1 9101   3.084   6.690   2.485
 2734SOL    HW2 9102   3.203   6.696   2.373
 2735SOL     OW 9103   0.641   1.592   1.638
 2735SOL    HW1 9104   0.684   1.538   1.566
 2735SOL    HW2 9105   0.567   1.648   1.599
 2736SOL     OW 9106   5.066   4.481   2.899
 2736SOL    HW1 9107   5.141   4.451   2.839
 2736SOL    HW2 9108   5.013   4.552   2.854
 2737SOL     OW 9109   3.161   0.368   5.237
 2737SOL    HW1 9110   3.085   0.317   5.197
 2737SOL    HW2 9111   3.155   0.464   5.209
 2738SOL     OW 9112   5.016   6.267   1.825
 2738SOL    HW1 9113   5.018   6.218   1.912
 2738SOL    HW2 9114   5.064   6.354   1.835
 2739SOL     OW 9115   6.809   5.489   1.684
 2739SOL    HW1 9116   6.753   5.572   1.690
 2739SOL    HW2 9117   6.906   5.513   1.692
 2740SOL     OW 9118   6.613   5.795   3.486
 2740SOL    HW1 9119   6.523   5.771   3.450
 2740SOL    HW2 9120   6.656   5.713   3.524
 2741SOL     OW 9121   1.868   0.909   5.683
 2741SOL    HW1 9122   1.782   0.948   5.649
 2741SOL    HW2 9123   1.888   0.948   5.773
 2742SOL     OW 9124   2.974   5.673   1.629
 2742SOL    HW1 9125   2.969   5.710   1.722
 2742SOL    HW2 9126   3.069   5.677   1.597
 2743SOL     OW 9127   5.838   2.545   2.123
 2743SOL    HW1 9128   5.773   2.607   2.080
 2743SOL    HW2 9129   5.790   2.464   2.156
 2744SOL     OW 9130   3.416   3.856   2.518
 2744SOL    HW1 9131   3.385   3.808   2.600
 2744SOL    HW2 9132   3.368   3.819   2.438
 2745SOL     OW 9133   0.607   6.801   0.183
 2745SOL    HW1 9134   0.648   6.775   0.095
 2745SOL    HW2 9135   0.677   6.801   0.254
 2746SOL     OW 9136   0.927   1.380   3.692
 2746SOL    HW1 9137   0.943   1.423   3.781
 2746SOL    HW2 9138   1.012   1.381   3.639
 2747SOL     OW 9139   3.673   4.988   0.651
 2747SOL    HW1 9140   3.596   4.930   0.624
 2747SOL    HW2 9141   3.756   4.933   0.659
 2748SOL     OW 9142   3.937   0.033   0.803
 2748SOL    HW1 9143   3.949   0.117   0.856
 2748SOL    HW2 9144   4.024   0.008   0.760
 2749SOL     OW 9145   3.486   2.439   0.294
 2749SOL    HW1 9146   3.448   2.360   0.342
 2749SOL    HW2 9147   3.416   2.509   0.283
 2750SOL     OW 9148   2.905   5.781   2.169
 2750SOL    HW1 9149   2.834   5.813   2.232
 2750SOL    HW2 9150   2.937   5.856   2.113
 2751SOL     OW 9151   5.789   4.621   1.164
 2751SOL    HW1 9152   5.756   4.703   1.211
 2751SOL    HW2 9153   5.889   4.623   1.159
 2752SOL     OW 9154   3.715   5.163   6.913
 2752SOL    HW1 9155   3.733   5.085   6.854
 2752SOL    HW2 9156   3.617   5.167   6.934
 2753SOL     OW 9157   6.236   5.349   5.414
 2753SOL    HW1 9158   6.141   5.378   5.405
 2753SOL    HW2 9159   6.260   5.288   5.339
 2754SOL     OW 9160   1.392   6.613   6.241
 2754SOL    HW1 9161   1.298   6.627   6.273
 2754SOL    HW2 9162   1.394   6.616   6.141
 2755SOL     OW 9163   3.243   0.728   2.348
 2755SOL    HW1 9164   3.143   0.733   2.349
 2755SOL    HW2 9165   3.280   0.803   2.402
 2756SOL     OW 9166   4.872   6.407   0.737
 2756SOL    HW1 9167   4.787   6.372   0.697
 2756SOL    HW2 9168   4.877   6.378   0.833
 2757SOL     OW 9169   0.627   5.146   1.293
 2757SOL    HW1 9170   0.675   5.234   1.290
 2757SOL    HW2 9171   0.613   5.113   1.200
 2758SOL     OW 9172   4.808   0.555   6.033
 2758SOL    HW1 9173   4.723   0.504   6.020
 2758SOL    HW2 9174   4.787   0.653   6.040
 2759SOL     OW 9175   5.060   5.689   4.782
 2759SOL    HW1 9176   5.145   5.723   4.742
 2759SOL    HW2 9177   5.060   5.589   4.781
 2760SOL     OW 9178   2.634   5.481   3.468
 2760SOL    HW1 9179   2.704   5.435   3.414
 2760SOL    HW2 9180   2.671   5.500   3.559
 2761SOL     OW 9181   2.057   5.465   3.156
 2761SOL    HW1 9182   2.102   5.376   3.167
 2761SOL    HW2 9183   2.027   5.476   3.062
 2762SOL     OW 9184   1.269   6.785   4.898
 2762SOL    HW1 9185   1.339   6.729   4.854
 2762SOL    HW2 9186   1.297   6.805   4.992
 2763SOL     OW 9187   5.577   1.852   1.762
 2763SOL    HW1 9188   5.540   1.804   1.683
 2763SOL    HW2 9189   5.505   1.865   1.830
 2764SOL     OW 9190   6.487   0.971   1.909
 2764SOL    HW1 9191   6.461   1.063   1.882
 2764SOL    HW2 9192   6.463   0.956   2.005
 2765SOL     OW 9193   5.234   1.665   1.811
 2765SOL    HW1 9194   5.290   1.649   1.892
 2765SOL    HW2 9195   5.208   1.577   1.771
 2766SOL     OW 9196   5.877   0.613   2.590
 2766SOL    HW1 9197   5.913   0.699   2.627
 2766SOL    HW2 9198   5.799   0.634   2.531
 2767SOL     OW 9199   5.805   4.631   6.408
 2767SOL    HW1 9200   5.791   4.541   6.450
 2767SOL    HW2 9201   5.892   4.669   6.440
 2768SOL     OW 9202   6.099   1.141   6.702
 2768SOL    HW1 9203   6.005   1.110   6.691
 2768SOL    HW2 9204   6.129   1.189   6.620
 2769SOL     OW 9205   1.297   3.922   1.117
 2769SOL    HW1 9206   1.388   3.923   1.159
 2769SOL    HW2 9207   1.306   3.940   1.019
 2770SOL     OW 9208   6.787   5.592   1.402
 2770SOL    HW1 9209   6.873   5.593   1.351
 2770SOL    HW2 9210   6.803   5.560   1.495
 2771SOL     OW 9211   4.948   0.982   1.481
 2771SOL    HW1 9212   4.858   1.025   1.473
 2771SOL    HW2 9213   4.944   0.909   1.549
 2772SOL     OW 9214   3.458   2.617   5.822
 2772SOL    HW1 9215   3.413   2.705   5.838
 2772SOL    HW2 9216   3.467   2.568   5.908
 2773SOL     OW 9217   3.456   3.825   6.461
 2773SOL    HW1 9218   3.464   3.807   6.559
 2773SOL    HW2 9219   3.475   3.741   6.410
 2774SOL     OW 9220   5.620   3.617   2.549
 2774SOL    HW1 9221   5.697   3.649   2.494
 2774SOL    HW2 9222   5.552   3.574   2.489
 2775SOL     OW 9223   0.011   6.053   1.751
 2775SOL    HW1 9224   0.016   6.133   1.691
 2775SOL    HW2 9225   0.031   6.080   1.845
 2776SOL     OW 9226   3.284   5.899   6.089
 2776SOL    HW1 9227   3.229   5.941   6.017
 2776SOL    HW2 9228   3.250   5.807   6.108
 2777SOL     OW 9229   3.630   1.753   2.748
 2777SOL    HW1 9230   3.655   1.835   2.697
 2777SOL    HW2 9231   3.622   1.775   2.845
 2778SOL     OW 9232   2.472   1.782   5.385
 2778SOL    HW1 9233   2.567   1.748   5.385
 2778SOL    HW2 9234   2.415   1.720   5.440
 2779SOL     OW 9235   5.915   0.924   0.103
 2779SOL    HW1 9236   5.822   0.955   0.082
 2779SOL    HW2 9237   5.941   0.955   0.194
 2780SOL     OW 9238   5.064   5.062   6.980
 2780SOL    HW1 9239   5.081   5.160   6.995
 2780SOL    HW2 9240   5.149   5.011   6.991
 2781SOL     OW 9241   4.895   4.490   0.287
 2781SOL    HW1 9242   4.890   4.391   0.304
 2781SOL    HW2 9243   4.841   4.512   0.205
 2782SOL     OW 9244   3.030   2.554   6.369
 2782SOL    HW1 9245   3.031   2.465   6.325
 2782SOL    HW2 9246   2.945   2.602   6.346
 2783SOL     OW 9247   0.338   4.401   5.116
 2783SOL    HW1 9248   0.255   4.454   5.098
 2783SOL    HW2 9249   0.315   4.304   5.126
 2784SOL     OW 9250   2.086   1.968   2.097
 2784SOL    HW1 9251   2.124   2.009   2.180
 2784SOL    HW2 9252   2.110   2.025   2.018
 2785SOL     OW 9253   6.331   0.959   1.273
 2785SOL    HW1 9254   6.361   1.037   1.218
 2785SOL    HW2 9255   6.389   0.950   1.354
 2786SOL     OW 9256   3.982   6.939   1.379
 2786SOL    HW1 9257   3.980   6.920   1.477
 2786SOL    HW2 9258   3.893   6.917   1.339
 2787SOL     OW 9259   2.098   2.379   5.657
 2787SOL    HW1 9260   2.186   2.400   5.699
 2787SOL    HW2 9261   2.100   2.285   5.622
 2788SOL     OW 9262   1.278   3.707   0.637
 2788SOL    HW1 9263   1.208   3.638   0.619
 2788SOL    HW2 9264   1.294   3.761   0.554
 2789SOL     OW 9265   6.960   1.873   4.179
 2789SOL    HW1 9266   7.004   1.880   4.089
 2789SOL    HW2 9267   7.008   1.933   4.243
 2790SOL     OW 9268   3.967   5.330   3.385
 2790SOL    HW1 9269   3.964   5.332   3.285
 2790SOL    HW2 9270   3.889   5.381   3.421
 2791SOL     OW 9271   1.844   2.785   3.831
 2791SOL    HW1 9272   1.761   2.837   3.813
 2791SOL    HW2 9273   1.821   2.691   3.857
 2792SOL     OW 9274   0.847   2.352   5.475
 2792SOL    HW1 9275   0.884   2.308   5.393
 2792SOL    HW2 9276   0.909   2.336   5.551
 2793SOL     OW 9277   5.160   1.399   3.504
 2793SOL    HW1 9278   5.237   1.348   3.544
 2793SOL    HW2 9279   5.181   1.497   3.505
 2794SOL     OW 9280   1.161   0.590   1.216
 2794SOL    HW1 9281   1.130   0.680   1.247
 2794SOL    HW2 9282   1.082   0.531   1.202
 2795SOL     OW 9283   2.453   4.092   1.756
 2795SOL    HW1 9284   2.395   4.026   1.708
 2795SOL    HW2 9285   2.500   4.046   1.832
 2796SOL     OW 9286   5.210   4.116   2.588
 2796SOL    HW1 9287   5.195   4.018   2.582
 2796SOL    HW2 9288   5.263   4.137   2.671
 2797SOL     OW 9289   4.465   4.647   4.781
 2797SOL    HW1 9290   4.411   4.718   4.735
 2797SOL    HW2 9291   4.418   4.619   4.865
 2798SOL     OW 9292   1.625   3.735   4.290
 2798SOL    HW1 9293   1.699   3.739   4.357
 2798SOL    HW2 9294   1.568   3.655   4.307
 2799SOL     OW 9295   6.476   5.077   5.722
 2799SOL    HW1 9296   6.517   5.020   5.794
 2799SOL    HW2 9297   6.377   5.063   5.720
 2800SOL     OW 9298   2.934   3.391   6.625
 2800SOL    HW1 9299   2.928   3.475   6.678
 2800SOL    HW2 9300   3.022   3.347   6.642
 2801SOL     OW 9301   4.730   5.365   2.505
 2801SOL    HW1 9302   4.727   5.424   2.586
 2801SOL    HW2 9303   4.820   5.320   2.500
 2802SOL     OW 9304   5.008   0.781   6.174
 2802SOL    HW1 9305   5.013   0.807   6.271
 2802SOL    HW2 9306   5.023   0.683   6.165
 2803SOL     OW 9307   2.396   6.014   6.370
 2803SOL    HW1 9308   2.437   6.078   6.435
 2803SOL    HW2 9309   2.376   5.928   6.417
 2804SOL     OW 9310   6.881   4.497   3.253
 2804SOL    HW1 9311   6.879   4.578   3.195
 2804SOL    HW2 9312   6.809   4.434   3.225
 2805SOL     OW 9313   5.748   3.627   0.107
 2805SOL    HW1 9314   5.780   3.716   0.141
 2805SOL    HW2 9315   5.820   3.585   0.052
 2806SOL     OW 9316   6.236   6.045   3.647
 2806SOL    HW1 9317   6.258   6.063   3.551
 2806SOL    HW2 9318   6.137   6.051   3.660
 2807SOL     OW 9319   4.530   5.010   3.638
 2807SOL    HW1 9320   4.495   5.096   3.676
 2807SOL    HW2 9321   4.490   4.996   3.547
 2808SOL     OW 9322   4.981   0.009   4.092
 2808SOL    HW1 9323   4.990   0.106   4.070
 2808SOL    HW2 9324   5.059   6.984   4.053
 2809SOL     OW 9325   5.377   2.929   0.521
 2809SOL    HW1 9326   5.456   2.990   0.520
 2809SOL    HW2 9327   5.403   2.841   0.481
 2810SOL     OW 9328   1.785   7.012   5.193
 2810SOL    HW1 9329   1.732   0.041   5.258
 2810SOL    HW2 9330   1.873   0.032   5.176
 2811SOL     OW 9331   0.159   0.824   3.690
 2811SOL    HW1 9332   0.227   0.751   3.683
 2811SOL    HW2 9333   0.151   0.871   3.602
 2812SOL     OW 9334   4.936   3.832   2.633
 2812SOL    HW1 9335   4.964   3.786   2.548
 2812SOL    HW2 9336   5.010   3.824   2.700
 2813SOL     OW 9337   6.100   1.126   6.280
 2813SOL    HW1 9338   6.142   1.114   6.190
 2813SOL    HW2 9339   6.005   1.157   6.269
 2814SOL     OW 9340   4.799   3.889   5.271
 2814SOL    HW1 9341   4.751   3.905   5.357
 2814SOL    HW2 9342   4.787   3.969   5.211
 2815SOL     OW 9343   0.254   0.721   5.350
 2815SOL    HW1 9344   0.332   0.784   5.344
 2815SOL    HW2 9345   0.267   0.659   5.427
 2816SOL     OW 9346   5.567   0.096   3.155
 2816SOL    HW1 9347   5.546   0.172   3.216
 2816SOL    HW2 9348   5.591   0.016   3.209
 2817SOL     OW 9349   1.349   2.367   1.444
 2817SOL    HW1 9350   1.438   2.410   1.453
 2817SOL    HW2 9351   1.281   2.421   1.494
 2818SOL     OW 9352   0.100   4.558   5.032
 2818SOL    HW1 9353   0.080   4.652   5.004
 2818SOL    HW2 9354   0.023   4.499   5.007
 2819SOL     OW 9355   6.753   2.816   0.833
 2819SOL    HW1 9356   6.692   2.754   0.783
 2819SOL    HW2 9357   6.835   2.767   0.862
 2820SOL     OW 9358   6.628   3.012   4.613
 2820SOL    HW1 9359   6.631   2.916   4.585
 2820SOL    HW2 9360   6.665   3.020   4.706
 2821SOL     OW 9361   1.647   4.007   4.565
 2821SOL    HW1 9362   1.571   4.054   4.609
 2821SOL    HW2 9363   1.657   3.915   4.604
 2822SOL     OW 9364   3.979   1.615   0.203
 2822SOL    HW1 9365   4.011   1.705   0.177
 2822SOL    HW2 9366   3.889   1.623   0.246
 2823SOL     OW 9367   1.411   6.763   3.525
 2823SOL    HW1 9368   1.414   6.836   3.594
 2823SOL    HW2 9369   1.368   6.682   3.564
 2824SOL     OW 9370   3.117   1.664   4.560
 2824SOL    HW1 9371   3.139   1.762   4.568
 2824SOL    HW2 9372   3.022   1.649   4.585
 2825SOL     OW 9373   6.400   5.534   0.843
 2825SOL    HW1 9374   6.424   5.605   0.910
 2825SOL    HW2 9375   6.341   5.573   0.772
 2826SOL     OW 9376   4.866   2.019   4.484
 2826SOL    HW1 9377   4.818   1.949   4.537
 2826SOL    HW2 9378   4.889   1.982   4.394
 2827SOL     OW 9379   6.065   0.428   5.653
 2827SOL    HW1 9380   6.020   0.390   5.733
 2827SOL    HW2 9381   6.001   0.431   5.576
 2828SOL     OW 9382   3.549   1.526   5.558
 2828SOL    HW1 9383   3.499   1.607   5.590
 2828SOL    HW2 9384   3.522   1.447   5.613
 2829SOL     OW 9385   2.257   6.451   6.638
 2829SOL    HW1 9386   2.231   6.509   6.561
 2829SOL    HW2 9387   2.232   6.496   6.724
 2830SOL     OW 9388   3.737   3.860   6.648
 2830SOL    HW1 9389   3.761   3.848   6.744
 2830SOL    HW2 9390   3.638   3.874   6.641
 2831SOL     OW 9391   5.929   5.922   4.406
 2831SOL    HW1 9392   5.942   5.949   4.502
 2831SOL    HW2 9393   5.945   6.000   4.346
 2832SOL     OW 9394   0.128   1.168   1.810
 2832SOL    HW1 9395   0.127   1.146   1.713
 2832SOL    HW2 9396   0.206   1.123   1.854
 2833SOL     OW 9397   6.325   2.830   1.700
 2833SOL    HW1 9398   6.286   2.922   1.700
 2833SOL    HW2 9399   6.424   2.836   1.695
 2834SOL     OW 9400   3.659   0.914   5.577
 2834SOL    HW1 9401   3.574   0.903   5.527
 2834SOL    HW2 9402   3.724   0.967   5.523
 2835SOL     OW 9403   0.661   6.279   2.480
 2835SOL    HW1 9404   0.694   6.321   2.396
 2835SOL    HW2 9405   0.718   6.308   2.557
 2836SOL     OW 9406   6.887   0.863   1.167
 2836SOL    HW1 9407   6.928   0.873   1.076
 2836SOL    HW2 9408   6.900   0.770   1.200
 2837SOL     OW 9409   5.784   3.479   3.931
 2837SOL    HW1 9410   5.834   3.479   4.018
 2837SOL    HW2 9411   5.753   3.572   3.911
 2838SOL     OW 9412   3.224   5.155   3.227
 2838SOL    HW1 9413   3.299   5.089   3.228
 2838SOL    HW2 9414   3.147   5.118   3.280
 2839SOL     OW 9415   5.050   1.930   0.571
 2839SOL    HW1 9416   5.025   1.838   0.600
 2839SOL    HW2 9417   5.010   1.997   0.634
 2840SOL     OW 9418   6.746   1.395   5.294
 2840SOL    HW1 9419   6.734   1.491   5.268
 2840SOL    HW2 9420   6.676   1.339   5.249
 2841SOL     OW 9421   1.035   5.885   1.328
 2841SOL    HW1 9422   0.957   5.921   1.277
 2841SOL    HW2 9423   1.119   5.925   1.292
 2842SOL     OW 9424   6.565   2.956   3.322
 2842SOL    HW1 9425   6.526   2.864   3.316
 2842SOL    HW2 9426   6.658   2.955   3.286
 2843SOL     OW 9427   4.301   1.644   4.791
 2843SOL    HW1 9428   4.395   1.656   4.760
 2843SOL    HW2 9429   4.296   1.660   4.890
 2844SOL     OW 9430   0.052   4.242   5.669
 2844SOL    HW1 9431   0.097   4.212   5.753
 2844SOL    HW2 9432   0.085   4.333   5.644
 2845SOL     OW 9433   0.105   4.488   5.583
 2845SOL    HW1 9434   0.192   4.494   5.534
 2845SOL    HW2 9435   0.042   4.556   5.545
 2846SOL     OW 9436   4.680   1.832   6.344
 2846SOL    HW1 9437   4.627   1.788   6.416
 2846SOL    HW2 9438   4.764   1.869   6.383
 2847SOL     OW 9439   5.878   4.591   4.221
 2847SOL    HW1 9440   5.948   4.644   4.269
 2847SOL    HW2 9441   5.788   4.630   4.240
 2848SOL     OW 9442   0.704   5.322   4.298
 2848SOL    HW1 9443   0.657   5.235   4.313
 2848SOL    HW2 9444   0.651   5.378   4.236
 2849SOL     OW 9445   2.689   2.734   1.353
 2849SOL    HW1 9446   2.763   2.799   1.376
 2849SOL    HW2 9447   2.726   2.641   1.351
 2850SOL     OW 9448   3.907   1.213   0.030
 2850SOL    HW1 9449   3.871   1.122   0.049
 2850SOL    HW2 9450   3.939   1.255   0.115
 2851SOL     OW 9451   1.674   4.579   6.273
 2851SOL    HW1 9452   1.713   4.650   6.214
 2851SOL    HW2 9453   1.579   4.602   6.295
 2852SOL     OW 9454   0.232   3.411   6.404
 2852SOL    HW1 9455   0.276   3.480   6.461
 2852SOL    HW2 9456   0.275   3.322   6.421
 2853SOL     OW 9457   3.204   3.734   1.269
 2853SOL    HW1 9458   3.193   3.681   1.353
 2853SOL    HW2 9459   3.302   3.743   1.247
 2854SOL     OW 9460   2.368   1.772   3.963
 2854SOL    HW1 9461   2.445   1.792   4.023
 2854SOL    HW2 9462   2.288   1.825   3.992
 2855SOL     OW 9463   3.006   0.634   5.183
 2855SOL    HW1 9464   3.011   0.681   5.271
 2855SOL    HW2 9465   3.058   0.686   5.115
 2856SOL     OW 9466   2.321   2.712   4.987
 2856SOL    HW1 9467   2.258   2.764   5.044
 2856SOL    HW2 9468   2.400   2.684   5.041
 2857SOL     OW 9469   3.264   3.367   1.992
 2857SOL    HW1 9470   3.362   3.375   2.006
 2857SOL    HW2 9471   3.216   3.432   2.050
 2858SOL     OW 9472   6.591   3.577   2.891
 2858SOL    HW1 9473   6.600   3.639   2.969
 2858SOL    HW2 9474   6.611   3.484   2.920
 2859SOL     OW 9475   5.836   0.005   0.380
 2859SOL    HW1 9476   5.822   6.964   0.306
 2859SOL    HW2 9477   5.923   7.009   0.425
 2860SOL     OW 9478   4.233   1.353   1.786
 2860SOL    HW1 9479   4.306   1.289   1.764
 2860SOL    HW2 9480   4.147   1.304   1.794
 2861SOL     OW 9481   3.444   6.164   5.485
 2861SOL    HW1 9482   3.459   6.135   5.390
 2861SOL    HW2 9483   3.446   6.085   5.545
 2862SOL     OW 9484   5.618   1.254   4.428
 2862SOL    HW1 9485   5.657   1.171   4.466
 2862SOL    HW2 9486   5.593   1.239   4.333
 2863SOL     OW 9487   6.669   1.966   6.718
 2863SOL    HW1 9488   6.610   1.920   6.652
 2863SOL    HW2 9489   6.740   1.903   6.750
 2864SOL     OW 9490   3.675   1.509   6.873
 2864SOL    HW1 9491   3.731   1.443   6.823
 2864SOL    HW2 9492   3.631   1.463   6.951
 2865SOL     OW 9493   4.560   4.505   5.103
 2865SOL    HW1 9494   4.622   4.581   5.123
 2865SOL    HW2 9495   4.470   4.540   5.080
 2866SOL     OW 9496   0.311   6.766   6.891
 2866SOL    HW1 9497   0.311   6.744   6.988
 2866SOL    HW2 9498   0.350   6.858   6.878
 2867SOL     OW 9499   6.742   4.559   4.060
 2867SOL    HW1 9500   6.824   4.525   4.106
 2867SOL    HW2 9501   6.766   4.590   3.968
 2868SOL     OW 9502   1.544   4.410   5.787
 2868SOL    HW1 9503   1.575   4.389   5.694
 2868SOL    HW2 9504   1.551   4.328   5.843
 2869SOL     OW 9505   6.218   1.248   2.322
 2869SOL    HW1 9506   6.314   1.276   2.328
 2869SOL    HW2 9507   6.184   1.265   2.230
 2870SOL     OW 9508   5.366   1.908   2.145
 2870SOL    HW1 9509   5.444   1.921   2.207
 2870SOL    HW2 9510   5.293   1.971   2.170
 2871SOL     OW 9511   1.461   1.769   6.389
 2871SOL    HW1 9512   1.410   1.730   6.466
 2871SOL    HW2 9513   1.403   1.772   6.308
 2872SOL     OW 9514   2.685   0.032   3.713
 2872SOL    HW1 9515   2.741   0.108   3.748
 2872SOL    HW2 9516   2.589   0.061   3.708
 2873SOL     OW 9517   0.192   4.994   1.196
 2873SOL    HW1 9518   0.287   4.961   1.197
 2873SOL    HW2 9519   0.188   5.084   1.239
 2874SOL     OW 9520   5.628   2.637   2.427
 2874SOL    HW1 9521   5.652   2.678   2.515
 2874SOL    HW2 9522   5.539   2.672   2.396
 2875SOL     OW 9523   3.524   4.771   6.566
 2875SOL    HW1 9524   3.541   4.779   6.664
 2875SOL    HW2 9525   3.584   4.701   6.527
 2876SOL     OW 9526   0.216   1.435   2.032
 2876SOL    HW1 9527   0.309   1.473   2.029
 2876SOL    HW2 9528   0.165   1.466   1.952
 2877SOL     OW 9529   3.009   2.853   5.603
 2877SOL    HW1 9530   2.999   2.861   5.702
 2877SOL    HW2 9531   2.927   2.809   5.565
 2878SOL     OW 9532   2.848   4.500   6.647
 2878SOL    HW1 9533   2.788   4.528   6.572
 2878SOL    HW2 9534   2.798   4.507   6.733
 2879SOL     OW 9535   5.030   4.966   0.255
 2879SOL    HW1 9536   4.957   5.001   0.197
 2879SOL    HW2 9537   5.068   4.882   0.215
 2880SOL     OW 9538   1.235   6.057   1.176
 2880SOL    HW1 9539   1.235   6.013   1.086
 2880SOL    HW2 9540   1.210   6.153   1.166
 2881SOL     OW 9541   0.121   6.631   0.846
 2881SOL    HW1 9542   0.022   6.645   0.853
 2881SOL    HW2 9543   0.163   6.712   0.804
 2882SOL     OW 9544   0.052   2.954   3.559
 2882SOL    HW1 9545   0.106   3.018   3.613
 2882SOL    HW2 9546   6.979   2.976   3.569
 2883SOL     OW 9547   3.866   7.021   1.964
 2883SOL    HW1 9548   3.952   0.041   1.989
 2883SOL    HW2 9549   3.815   6.998   2.046
 2884SOL     OW 9550   0.899   6.339   3.119
 2884SOL    HW1 9551   0.818   6.375   3.165
 2884SOL    HW2 9552   0.949   6.279   3.182
 2885SOL     OW 9553   0.917   2.534   3.423
 2885SOL    HW1 9554   0.820   2.533   3.400
 2885SOL    HW2 9555   0.956   2.444   3.406
 2886SOL     OW 9556   2.295   1.967   6.064
 2886SOL    HW1 9557   2.392   1.959   6.041
 2886SOL    HW2 9558   2.241   1.909   6.003
 2887SOL     OW 9559   1.485   0.532   4.787
 2887SOL    HW1 9560   1.576   0.492   4.782
 2887SOL    HW2 9561   1.450   0.549   4.695
 2888SOL     OW 9562   5.908   5.320   6.843
 2888SOL    HW1 9563   5.984   5.284   6.788
 2888SOL    HW2 9564   5.945   5.377   6.917
 2889SOL     OW 9565   0.117   0.195   1.680
 2889SOL    HW1 9566   0.122   0.171   1.777
 2889SOL    HW2 9567   0.186   0.145   1.629
 2890SOL     OW 9568   4.154   0.241   1.411
 2890SOL    HW1 9569   4.246   0.227   1.375
 2890SOL    HW2 9570   4.088   0.240   1.336
 2891SOL     OW 9571   2.591   4.970   3.813
 2891SOL    HW1 9572   2.556   4.902   3.749
 2891SOL    HW2 9573   2.678   4.938   3.851
 2892SOL     OW 9574   4.861   3.981   6.031
 2892SOL    HW1 9575   4.867   3.910   6.102
 2892SOL    HW2 9576   4.774   3.970   5.981
 2893SOL     OW 9577   2.307   7.022   5.647
 2893SOL    HW1 9578   2.317   0.093   5.620
 2893SOL    HW2 9579   2.257   6.972   5.576
 2894SOL     OW 9580   3.928   3.064   0.398
 2894SOL    HW1 9581   3.965   2.975   0.372
 2894SOL    HW2 9582   3.912   3.066   0.497
 2895SOL     OW 9583   3.505   3.410   6.401
 2895SOL    HW1 9584   3.562   3.434   6.480
 2895SOL    HW2 9585   3.471   3.317   6.411
 2896SOL     OW 9586   3.008   4.765   1.281
 2896SOL    HW1 9587   3.068   4.831   1.237
 2896SOL    HW2 9588   3.048   4.673   1.273
 2897SOL     OW 9589   2.136   6.231   3.991
 2897SOL    HW1 9590   2.051   6.208   3.944
 2897SOL    HW2 9591   2.183   6.304   3.942
 2898SOL     OW 9592   3.031   5.129   2.060
 2898SOL    HW1 9593   3.032   5.030   2.047
 2898SOL    HW2 9594   2.982   5.172   1.985
 2899SOL     OW 9595   7.024   6.822   0.192
 2899SOL    HW1 9596   0.089   6.778   0.196
 2899SOL    HW2 9597   6.989   6.816   0.098
 2900SOL     OW 9598   1.946   5.272   5.215
 2900SOL    HW1 9599   2.039   5.288   5.248
 2900SOL    HW2 9600   1.901   5.360   5.200
 2901SOL     OW 9601   2.782   1.188   1.551
 2901SOL    HW1 9602   2.876   1.222   1.548
 2901SOL    HW2 9603   2.762   1.152   1.643
 2902SOL     OW 9604   5.525   6.010   1.641
 2902SOL    HW1 9605   5.613   6.028   1.685
 2902SOL    HW2 9606   5.540   5.981   1.546
 2903SOL     OW 9607   2.329   1.830   1.782
 2903SOL    HW1 9608   2.386   1.864   1.857
 2903SOL    HW2 9609   2.336   1.892   1.704
 2904SOL     OW 9610   1.721   2.942   4.911
 2904SOL    HW1 9611   1.690   2.871   4.975
 2904SOL    HW2 9612   1.821   2.942   4.908
 2905SOL     OW 9613   1.779   2.428   2.100
 2905SOL    HW1 9614   1.847   2.477   2.046
 2905SOL    HW2 9615   1.687   2.455   2.073
 2906SOL     OW 9616   5.699   5.782   2.192
 2906SOL    HW1 9617   5.650   5.852   2.244
 2906SOL    HW2 9618   5.797   5.805   2.189
 2907SOL     OW 9619   6.529   1.034   4.276
 2907SOL    HW1 9620   6.525   1.003   4.181
 2907SOL    HW2 9621   6.437   1.059   4.306
 2908SOL     OW 9622   3.490   6.458   4.504
 2908SOL    HW1 9623   3.506   6.502   4.593
 2908SOL    HW2 9624   3.423   6.385   4.515
 2909SOL     OW 9625   1.527   5.918   4.712
 2909SOL    HW1 9626   1.436   5.947   4.743
 2909SOL    HW2 9627   1.524   5.901   4.613
 2910SOL     OW 9628   5.849   6.209   6.595
 2910SOL    HW1 9629   5.802   6.166   6.673
 2910SOL    HW2 9630   5.898   6.290   6.627
 2911SOL     OW 9631   1.987   4.017   3.172
 2911SOL    HW1 9632   1.946   4.044   3.085
 2911SOL    HW2 9633   2.048   4.089   3.204
 2912SOL     OW 9634   2.648   5.902   0.976
 2912SOL    HW1 9635   2.582   5.953   1.031
 2912SOL    HW2 9636   2.600   5.844   0.911
 2913SOL     OW 9637   1.281   3.757   3.235
 2913SOL    HW1 9638   1.303   3.697   3.312
 2913SOL    HW2 9639   1.364   3.804   3.205
 2914SOL     OW 9640   5.870   5.610   5.979
 2914SOL    HW1 9641   5.906   5.610   6.072
 2914SOL    HW2 9642   5.777   5.646   5.978
 2915SOL     OW 9643   4.653   1.230   4.067
 2915SOL    HW1 9644   4.696   1.282   3.994
 2915SOL    HW2 9645   4.556   1.255   4.073
 2916SOL     OW 9646   5.833   5.637   4.821
 2916SOL    HW1 9647   5.773   5.715   4.801
 2916SOL    HW2 9648   5.903   5.666   4.887
 2917SOL     OW 9649   4.705   0.547   2.371
 2917SOL    HW1 9650   4.741   0.618   2.433
 2917SOL    HW2 9651   4.635   0.494   2.419
 2918SOL     OW 9652   0.368   4.167   3.680
 2918SOL    HW1 9653   0.398   4.241   3.620
 2918SOL    HW2 9654   0.268   4.164   3.682
 2919SOL     OW 9655   6.458   5.799   0.279
 2919SOL    HW1 9656   6.458   5.831   0.374
 2919SOL    HW2 9657   6.510   5.862   0.222
 2920SOL     OW 9658   4.230   2.290   3.398
 2920SOL    HW1 9659   4.278   2.239   3.326
 2920SOL    HW2 9660   4.157   2.233   3.436
 2921SOL     OW 9661   0.569   0.111   2.035
 2921SOL    HW1 9662   0.512   0.179   2.081
 2921SOL    HW2 9663   0.640   0.080   2.098
 2922SOL     OW 9664   4.301   6.525   5.312
 2922SOL    HW1 9665   4.233   6.452   5.309
 2922SOL    HW2 9666   4.265   6.603   5.363
 2923SOL     OW 9667   6.233   4.817   2.004
 2923SOL    HW1 9668   6.217   4.736   2.061
 2923SOL    HW2 9669   6.150   4.838   1.952
 2924SOL     OW 9670   6.988   0.964   5.377
 2924SOL    HW1 9671   0.008   0.973   5.288
 2924SOL    HW2 9672   0.031   0.977   5.450
 2925SOL     OW 9673   5.325   3.854   1.271
 2925SOL    HW1 9674   5.266   3.899   1.204
 2925SOL    HW2 9675   5.376   3.924   1.322
 2926SOL     OW 9676   0.478   1.419   4.589
 2926SOL    HW1 9677   0.543   1.350   4.557
 2926SOL    HW2 9678   0.396   1.417   4.532
 2927SOL     OW 9679   0.640   2.644   2.873
 2927SOL    HW1 9680   0.551   2.689   2.873
 2927SOL    HW2 9681   0.712   2.713   2.873
 2928SOL     OW 9682   6.392   6.378   0.715
 2928SOL    HW1 9683   6.480   6.347   0.679
 2928SOL    HW2 9684   6.369   6.467   0.677
 2929SOL     OW 9685   0.873   0.001   6.347
 2929SOL    HW1 9686   0.816   0.063   6.400
 2929SOL    HW2 9687   0.948   6.993   6.403
 2930SOL     OW 9688   3.575   6.631   4.706
 2930SOL    HW1 9689   3.669   6.597   4.716
 2930SOL    HW2 9690   3.529   6.629   4.795
 2931SOL     OW 9691   4.140   6.393   5.637
 2931SOL    HW1 9692   4.112   6.331   5.711
 2931SOL    HW2 9693   4.238   6.385   5.623
 2932SOL     OW 9694   0.858   4.598   1.466
 2932SOL    HW1 9695   0.866   4.637   1.558
 2932SOL    HW2 9696   0.949   4.580   1.429
 2933SOL     OW 9697   5.133   1.784   3.299
 2933SOL    HW1 9698   5.094   1.874   3.315
 2933SOL    HW2 9699   5.167   1.778   3.206
 2934SOL     OW 9700   2.591   0.481   0.209
 2934SOL    HW1 9701   2.659   0.464   0.138
 2934SOL    HW2 9702   2.608   0.421   0.287
 2935SOL     OW 9703   6.158   2.406   1.081
 2935SOL    HW1 9704   6.215   2.372   1.156
 2935SOL    HW2 9705   6.070   2.437   1.118
 2936SOL     OW 9706   4.728   5.909   0.649
 2936SOL    HW1 9707   4.684   5.963   0.578
 2936SOL    HW2 9708   4.685   5.819   0.655
 2937SOL     OW 9709   3.406   4.617   6.939
 2937SOL    HW1 9710   3.466   4.570   6.875
 2937SOL    HW2 9711   3.319   4.636   6.896
 2938SOL     OW 9712   4.760   5.591   5.601
 2938SOL    HW1 9713   4.737   5.527   5.528
 2938SOL    HW2 9714   4.778   5.682   5.562
 2939SOL     OW 9715   0.645   6.504   5.477
 2939SOL    HW1 9716   0.633   6.437   5.404
 2939SOL    HW2 9717   0.565   6.563   5.483
 2940SOL     OW 9718   4.816   6.845   5.202
 2940SOL    HW1 9719   4.750   6.830   5.129
 2940SOL    HW2 9720   4.780   6.811   5.289
 2941SOL     OW 9721   1.725   1.702   5.417
 2941SOL    HW1 9722   1.766   1.727   5.505
 2941SOL    HW2 9723   1.636   1.748   5.409
 2942SOL     OW 9724   3.342   6.396   3.273
 2942SOL    HW1 9725   3.379   6.412   3.365
 2942SOL    HW2 9726   3.417   6.387   3.208
 2943SOL     OW 9727   5.957   3.800   3.688
 2943SOL    HW1 9728   5.943   3.763   3.596
 2943SOL    HW2 9729   5.871   3.837   3.724
 2944SOL     OW 9730   4.121   5.746   5.939
 2944SOL    HW1 9731   4.145   5.659   5.980
 2944SOL    HW2 9732   4.055   5.794   5.998
 2945SOL     OW 9733   3.038   3.587   3.103
 2945SOL    HW1 9734   3.021   3.680   3.137
 2945SOL    HW2 9735   2.994   3.521   3.164
 2946SOL     OW 9736   6.935   6.093   6.869
 2946SOL    HW1 9737   6.946   6.163   6.940
 2946SOL    HW2 9738   6.974   6.006   6.902
 2947SOL     OW 9739   6.702   4.557   0.241
 2947SOL    HW1 9740   6.658   4.640   0.275
 2947SOL    HW2 9741   6.692   4.552   0.142
 2948SOL     OW 9742   6.153   4.391   4.431
 2948SOL    HW1 9743   6.064   4.434   4.445
 2948SOL    HW2 9744   6.198   4.431   4.351
 2949SOL     OW 9745   1.350   0.355   0.593
 2949SOL    HW1 9746   1.380   0.449   0.611
 2949SOL    HW2 9747   1.395   0.293   0.657
 2950SOL     OW 9748   4.955   3.464   4.400
 2950SOL    HW1 9749   4.874   3.517   4.423
 2950SOL    HW2 9750   4.972   3.396   4.471
 2951SOL     OW 9751   0.268   1.875   1.180
 2951SOL    HW1 9752   0.187   1.926   1.208
 2951SOL    HW2 9753   0.314   1.924   1.105
 2952SOL     OW 9754   1.884   3.900   2.349
 2952SOL    HW1 9755   1.892   3.999   2.337
 2952SOL    HW2 9756   1.959   3.855   2.302
 2953SOL     OW 9757   4.607   1.600   2.234
 2953SOL    HW1 9758   4.567   1.661   2.166
 2953SOL    HW2 9759   4.703   1.624   2.248
 2954SOL     OW 9760   6.212   6.294   1.906
 2954SOL    HW1 9761   6.171   6.285   1.815
 2954SOL    HW2 9762   6.312   6.297   1.898
 2955SOL     OW 9763   0.173   3.123   0.463
 2955SOL    HW1 9764   0.076   3.138   0.483
 2955SOL    HW2 9765   0.217   3.211   0.444
 2956SOL     OW 9766   6.745   5.485   2.338
 2956SOL    HW1 9767   6.709   5.530   2.419
 2956SOL    HW2 9768   6.721   5.388   2.339
 2957SOL     OW 9769   0.798   3.769   1.662
 2957SOL    HW1 9770   0.851   3.688   1.640
 2957SOL    HW2 9771   0.724   3.745   1.724
 2958SOL     OW 9772   2.262   4.690   6.185
 2958SOL    HW1 9773   2.232   4.620   6.120
 2958SOL    HW2 9774   2.184   4.748   6.209
 2959SOL     OW 9775   3.951   5.516   6.802
 2959SOL    HW1 9776   3.917   5.473   6.886
 2959SOL    HW2 9777   3.874   5.532   6.740
 2960SOL     OW 9778   1.902   1.825   0.335
 2960SOL    HW1 9779   1.951   1.873   0.263
 2960SOL    HW2 9780   1.927   1.863   0.424
 2961SOL     OW 9781   5.609   3.293   3.907
 2961SOL    HW1 9782   5.518   3.329   3.891
 2961SOL    HW2 9783   5.669   3.367   3.940
 2962SOL     OW 9784   4.744   0.776   3.576
 2962SOL    HW1 9785   4.765   0.855   3.519
 2962SOL    HW2 9786   4.689   0.805   3.654
 2963SOL     OW 9787   2.253   2.520   4.442
 2963SOL    HW1 9788   2.260   2.480   4.351
 2963SOL    HW2 9789   2.344   2.534   4.480
 2964SOL     OW 9790   3.636   6.510   0.832
 2964SOL    HW1 9791   3.582   6.586   0.795
 2964SOL    HW2 9792   3.591   6.476   0.915
 2965SOL     OW 9793   0.612   1.901   6.485
 2965SOL    HW1 9794   0.563   1.875   6.568
 2965SOL    HW2 9795   0.637   1.818   6.435
 2966SOL     OW 9796   4.553   4.434   3.960
 2966SOL    HW1 9797   4.610   4.448   4.041
 2966SOL    HW2 9798   4.597   4.474   3.880
 2967SOL     OW 9799   5.970   2.576   4.347
 2967SOL    HW1 9800   5.880   2.535   4.363
 2967SOL    HW2 9801   6.023   2.518   4.284
 2968SOL     OW 9802   0.160   4.045   3.423
 2968SOL    HW1 9803   0.239   4.103   3.404
 2968SOL    HW2 9804   0.185   3.949   3.408
 2969SOL     OW 9805   4.930   1.807   4.848
 2969SOL    HW1 9806   4.892   1.890   4.891
 2969SOL    HW2 9807   4.936   1.734   4.916
 2970SOL     OW 9808   0.730   4.449   6.036
 2970SOL    HW1 9809   0.738   4.384   6.112
 2970SOL    HW2 9810   0.633   4.465   6.016
 2971SOL     OW 9811   5.240   2.824   2.741
 2971SOL    HW1 9812   5.291   2.793   2.660
 2971SOL    HW2 9813   5.190   2.747   2.780
 2972SOL     OW 9814   0.190   3.677   5.379
 2972SOL    HW1 9815   0.162   3.645   5.469
 2972SOL    HW2 9816   0.187   3.602   5.314
 2973SOL     OW 9817   5.182   6.116   4.373
 2973SOL    HW1 9818   5.120   6.169   4.430
 2973SOL    HW2 9819   5.228   6.047   4.429
 2974SOL     OW 9820   0.165   3.732   2.498
 2974SOL    HW1 9821   0.155   3.796   2.422
 2974SOL    HW2 9822   0.087   3.744   2.561
 2975SOL     OW 9823   0.442   1.121   5.510
 2975SOL    HW1 9824   0.520   1.081   5.462
 2975SOL    HW2 9825   0.364   1.058   5.504
 2976SOL     OW 9826   3.458   0.390   2.030
 2976SOL    HW1 9827   3.432   0.468   2.087
 2976SOL    HW2 9828   3.380   0.330   2.017
 2977SOL     OW 9829   3.352   6.257   4.336
 2977SOL    HW1 9830   3.409   6.314   4.275
 2977SOL    HW2 9831   3.314   6.181   4.284
 2978SOL     OW 9832   4.706   5.492   6.906
 2978SOL    HW1 9833   4.738   5.418   6.966
 2978SOL    HW2 9834   4.629   5.459   6.851
 2979SOL     OW 9835   3.496   0.784   2.965
 2979SOL    HW1 9836   3.556   0.746   3.036
 2979SOL    HW2 9837   3.518   0.880   2.951
 2980SOL     OW 9838   0.287   6.321   4.217
 2980SOL    HW1 9839   0.224   6.329   4.140
 2980SOL    HW2 9840   0.329   6.231   4.217
 2981SOL     OW 9841   2.772   0.738   5.719
 2981SOL    HW1 9842   2.854   0.690   5.686
 2981SOL    HW2 9843   2.743   0.698   5.805
 2982SOL     OW 9844   4.977   6.627   2.393
 2982SOL    HW1 9845   5.077   6.636   2.389
 2982SOL    HW2 9846   4.941   6.682   2.468
 2983SOL     OW 9847   6.621   0.676   3.639
 2983SOL    HW1 9848   6.704   0.730   3.649
 2983SOL    HW2 9849   6.644   0.579   3.638
 2984SOL     OW 9850   5.304   5.639   1.523
 2984SOL    HW1 9851   5.253   5.724   1.535
 2984SOL    HW2 9852   5.360   5.645   1.441
 2985SOL     OW 9853   6.042   2.574   2.742
 2985SOL    HW1 9854   6.090   2.590   2.829
 2985SOL    HW2 9855   5.971   2.644   2.730
 2986SOL     OW 9856   2.130   3.699   5.438
 2986SOL    HW1 9857   2.153   3.636   5.363
 2986SOL    HW2 9858   2.152   3.792   5.411
 2987SOL     OW 9859   4.389   2.352   4.639
 2987SOL    HW1 9860   4.309   2.293   4.653
 2987SOL    HW2 9861   4.410   2.357   4.542
 2988SOL     OW 9862   0.700   0.663   1.910
 2988SOL    HW1 9863   0.762   0.710   1.847
 2988SOL    HW2 9864   0.698   0.566   1.889
 2989SOL     OW 9865   6.542   5.038   1.386
 2989SOL    HW1 9866   6.567   5.007   1.478
 2989SOL    HW2 9867   6.625   5.064   1.336
 2990SOL     OW 9868   3.761   1.003   1.472
 2990SOL    HW1 9869   3.699   1.012   1.550
 2990SOL    HW2 9870   3.725   1.054   1.394
 2991SOL     OW 9871   6.421   3.955   0.091
 2991SOL    HW1 9872   6.417   4.004   0.004
 2991SOL    HW2 9873   6.515   3.951   0.123
 2992SOL     OW 9874   3.788   4.801   6.203
 2992SOL    HW1 9875   3.809   4.895   6.230
 2992SOL    HW2 9876   3.873   4.753   6.181
 2993SOL     OW 9877   1.770   5.250   1.208
 2993SOL    HW1 9878   1.784   5.317   1.281
 2993SOL    HW2 9879   1.772   5.158   1.247
 2994SOL     OW 9880   4.686   6.627   0.025
 2994SOL    HW1 9881   4.646   6.549   0.074
 2994SOL    HW2 9882   4.784   6.629   0.041
 2995SOL     OW 9883   2.660   1.569   6.310
 2995SOL    HW1 9884   2.661   1.591   6.213
 2995SOL    HW2 9885   2.597   1.630   6.358
 2996SOL     OW 9886   3.883   5.363   5.717
 2996SOL    HW1 9887   3.810   5.416   5.759
 2996SOL    HW2 9888   3.944   5.424   5.666
 2997SOL     OW 9889   5.207   6.653   0.831
 2997SOL    HW1 9890   5.213   6.752   0.838
 2997SOL    HW2 9891   5.298   6.613   0.842
 2998SOL     OW 9892   6.760   5.853   5.593
 2998SOL    HW1 9893   6.724   5.848   5.499
 2998SOL    HW2 9894   6.736   5.941   5.633
 2999SOL     OW 9895   3.054   6.969   3.136
 2999SOL    HW1 9896   3.145   7.000   3.109
 2999SOL    HW2 9897   3.003   6.938   3.056
 3000SOL     OW 9898   1.096   2.851   5.196
 3000SOL    HW1 9899   1.118   2.913   5.272
 3000SOL    HW2 9900   1.001   2.865   5.168
 3001SOL     OW 9901   4.859   6.890   5.974
 3001SOL    HW1 9902   4.804   6.818   6.016
 3001SOL    HW2 9903   4.804   6.941   5.909
 3002SOL     OW 9904   3.942   0.323   5.605
 3002SOL    HW1 9905   4.001   0.252   5.566
 3002SOL    HW2 9906   3.858   0.282   5.640
 3003SOL     OW 9907   2.491   6.804   5.915
 3003SOL    HW1 9908   2.536   6.816   5.827
 3003SOL    HW2 9909   2.523   6.875   5.979
 3004SOL     OW 9910   5.964   2.769   4.557
 3004SOL    HW1 9911   5.969   2.721   4.469
 3004SOL    HW2 9912   5.877   2.749   4.601
 3005SOL     OW 9913   4.632   2.435   1.094
 3005SOL    HW1 9914   4.679   2.348   1.110
 3005SOL    HW2 9915   4.675   2.507   1.148
 3006SOL     OW 9916   5.708   0.612   1.805
 3006SOL    HW1 9917   5.760   0.697   1.816
 3006SOL    HW2 9918   5.688   0.598   1.708
 3007SOL     OW 9919   6.088   5.160   2.708
 3007SOL    HW1 9920   6.051   5.253   2.717
 3007SOL    HW2 9921   6.048   5.101   2.778
 3008SOL     OW 9922   3.086   6.096   6.348
 3008SOL    HW1 9923   3.111   6.120   6.255
 3008SOL    HW2 9924   3.046   6.004   6.349
 3009SOL     OW 9925   1.911   0.565   3.112
 3009SOL    HW1 9926   1.961   0.487   3.074
 3009SOL    HW2 9927   1.854   0.533   3.188
 3010SOL     OW 9928   3.544   6.627   2.387
 3010SOL    HW1 9929   3.464   6.675   2.351
 3010SOL    HW2 9930   3.555   6.648   2.485
 3011SOL     OW 9931   5.442   0.376   6.956
 3011SOL    HW1 9932   5.475   0.382   6.862
 3011SOL    HW2 9933   5.514   0.406   7.019
 3012SOL     OW 9934   6.876   3.587   3.425
 3012SOL    HW1 9935   6.835   3.497   3.411
 3012SOL    HW2 9936   6.848   3.647   3.350
 3013SOL     OW 9937   6.013   4.987   2.430
 3013SOL    HW1 9938   5.991   5.018   2.522
 3013SOL    HW2 9939   5.939   4.929   2.396
 3014SOL     OW 9940   4.686   0.865   4.672
 3014SOL    HW1 9941   4.591   0.835   4.666
 3014SOL    HW2 9942   4.725   0.874   4.581
 3015SOL     OW 9943   2.894   2.104   0.288
 3015SOL    HW1 9944   2.875   2.148   0.376
 3015SOL    HW2 9945   2.985   2.062   0.291
 3016SOL     OW 9946   3.980   6.609   3.352
 3016SOL    HW1 9947   3.897   6.568   3.315
 3016SOL    HW2 9948   3.975   6.708   3.346
 3017SOL     OW 9949   0.461   5.656   1.300
 3017SOL    HW1 9950   0.421   5.691   1.215
 3017SOL    HW2 9951   0.561   5.663   1.295
 3018SOL     OW 9952   3.840   6.351   0.182
 3018SOL    HW1 9953   3.760   6.308   0.224
 3018SOL    HW2 9954   3.832   6.450   0.189
 3019SOL     OW 9955   4.199   6.821   1.846
 3019SOL    HW1 9956   4.263   6.762   1.893
 3019SOL    HW2 9957   4.238   6.849   1.758
 3020SOL     OW 9958   1.697   2.467   0.858
 3020SOL    HW1 9959   1.598   2.459   0.849
 3020SOL    HW2 9960   1.730   2.397   0.922
 3021SOL     OW 9961   2.482   1.847   6.681
 3021SOL    HW1 9962   2.473   1.785   6.603
 3021SOL    HW2 9963   2.530   1.930   6.652
 3022SOL     OW 9964   4.859   6.871   3.234
 3022SOL    HW1 9965   4.798   6.884   3.312
 3022SOL    HW2 9966   4.924   6.798   3.254
 3023SOL     OW 9967   4.595   6.512   2.233
 3023SOL    HW1 9968   4.648   6.483   2.313
 3023SOL    HW2 9969   4.552   6.600   2.253
 3024SOL     OW 9970   3.431   6.544   6.579
 3024SOL    HW1 9971   3.346   6.562   6.629
 3024SOL    HW2 9972   3.448   6.446   6.576
 3025SOL     OW 9973   2.216   2.167   1.297
 3025SOL    HW1 9974   2.259   2.228   1.365
 3025SOL    HW2 9975   2.229   2.205   1.206
 3026SOL     OW 9976   2.070   4.160   0.818
 3026SOL    HW1 9977   2.043   4.065   0.810
 3026SOL    HW2 9978   1.988   4.218   0.823
 3027SOL     OW 9979   0.918   1.964   3.391
 3027SOL    HW1 9980   0.830   1.920   3.376
 3027SOL    HW2 9981   0.973   1.960   3.307
 3028SOL     OW 9982   1.316   6.694   5.339
 3028SOL    HW1 9983   1.228   6.645   5.340
 3028SOL    HW2 9984   1.371   6.664   5.417
 3029SOL     OW 9985   5.325   6.154   5.290
 3029SOL    HW1 9986   5.315   6.083   5.220
 3029SOL    HW2 9987   5.360   6.112   5.374
 3030SOL     OW 9988   1.361   2.096   5.197
 3030SOL    HW1 9989   1.424   2.147   5.138
 3030SOL    HW2 9990   1.268   2.128   5.183
 3031SOL     OW 9991   0.522   5.022   6.601
 3031SOL    HW1 9992   0.506   4.950   6.534
 3031SOL    HW2 9993   0.597   4.996   6.662
 3032SOL     OW 9994   4.910   0.233   5.752
 3032SOL    HW1 9995   4.941   0.138   5.748
 3032SOL    HW2 9996   4.943   0.275   5.837
 3033SOL     OW 9997   6.046   3.290   6.633
 3033SOL    HW1 9998   6.125   3.269   6.576
 3033SOL    HW2 9999   5.978   3.218   6.624
 3034SOL     OW10000   2.435   6.804   4.585
 3034SOL    HW110001   2.486   6.870   4.530
 3034SOL    HW210002   2.432   6.835   4.680
 3035SOL     OW10003   6.177   0.601   0.090
 3035SOL    HW110004   6.112   0.555   0.150
 3035SOL    HW210005   6.223   0.674   0.140
 3036SOL     OW10006   1.143   4.518   6.558
 3036SOL    HW110007   1.132   4.423   6.528
 3036SOL    HW210008   1.060   4.570   6.535
 3037SOL     OW10009   6.442   6.585   5.580
 3037SOL    HW110010   6.429   6.538   5.667
 3037SOL    HW210011   6.520   6.545   5.532
 3038SOL     OW10012   5.667   6.958   6.040
 3038SOL    HW110013   5.682   6.931   5.945
 3038SOL    HW210014   5.710   6.890   6.100
 3039SOL     OW10015   1.219   4.769   1.223
 3039SOL    HW110016   1.292   4.787   1.157
 3039SOL    HW210017   1.136   4.741   1.174
 3040SOL     OW10018   2.679   3.172   6.861
 3040SOL    HW110019   2.733   3.101   6.815
 3040SOL    HW210020   2.651   3.140   6.951
 3041SOL     OW10021   1.714   2.165   5.872
 3041SOL    HW110022   1.682   2.200   5.960
 3041SOL    HW210023   1.747   2.241   5.816
 3042SOL     OW10024   4.435   0.397   2.075
 3042SOL    HW110025   4.526   0.357   2.080
 3042SOL    HW210026   4.441   0.497   2.082
 3043SOL     OW10027   0.380   5.377   0.239
 3043SOL    HW110028   0.291   5.379   0.285
 3043SOL    HW210029   0.425   5.290   0.259
 3044SOL     OW10030   3.164   4.359   6.233
 3044SOL    HW110031   3.140   4.400   6.321
 3044SOL    HW210032   3.088   4.370   6.169
 3045SOL     OW10033   5.340   2.718   3.163
 3045SOL    HW110034   5.424   2.771   3.151
 3045SOL    HW210035   5.359   2.637   3.218
 3046SOL     OW10036   2.129   3.256   5.547
 3046SOL    HW110037   2.107   3.179   5.488
 3046SOL    HW210038   2.045   3.307   5.568
 3047SOL     OW10039   6.186   4.989   2.237
 3047SOL    HW110040   6.113   4.994   2.305
 3047SOL    HW210041   6.145   4.983   2.146
 3048SOL     OW10042   3.347   2.850   1.602
 3048SOL    HW110043   3.395   2.937   1.590
 3048SOL    HW210044   3.332   2.834   1.699
 3049SOL     OW10045   0.608   0.565   2.148
 3049SOL    HW110046   0.587   0.469   2.133
 3049SOL    HW210047   0.619   0.611   2.059
 3050SOL     OW10048   4.372   5.953   4.049
 3050SOL    HW110049   4.306   5.909   4.109
 3050SOL    HW210050   4.457   5.969   4.099
 3051SOL     OW10051   2.306   4.594   6.555
 3051SOL    HW110052   2.252   4.678   6.552
 3051SOL    HW210053   2.246   4.517   6.578
 3052SOL     OW10054   4.158   6.881   3.114
 3052SOL    HW110055   4.104   6.874   3.030
 3052SOL    HW210056   4.208   6.967   3.115
 3053SOL     OW10057   5.458   6.446   0.433
 3053SOL    HW110058   5.447   6.414   0.527
 3053SOL    HW210059   5.382   6.412   0.377
 3054SOL     OW10060   1.130   3.257   6.518
 3054SOL    HW110061   1.207   3.193   6.516
 3054SOL    HW210062   1.103   3.279   6.424
 3055SOL     OW10063   5.948   6.925   3.277
 3055SOL    HW110064   5.949   7.007   3.334
 3055SOL    HW210065   5.984   6.848   3.329
 3056SOL     OW10066   0.112   0.649   0.866
 3056SOL    HW110067   0.197   0.661   0.814
 3056SOL    HW210068   0.132   0.641   0.963
 3057SOL     OW10069   5.939   5.384   2.659
 3057SOL    HW110070   5.882   5.311   2.622
 3057SOL    HW210071   5.931   5.465   2.601
 3058SOL     OW10072   6.596   4.895   1.617
 3058SOL    HW110073   6.622   4.843   1.698
 3058SOL    HW210074   6.500   4.922   1.624
 3059SOL     OW10075   1.652   2.659   4.589
 3059SOL    HW110076   1.729   2.723   4.600
 3059SOL    HW210077   1.616   2.637   4.680
 3060SOL     OW10078   6.881   6.655   0.820
 3060SOL    HW110079   6.894   6.596   0.740
 3060SOL    HW210080   6.867   6.749   0.789
 3061SOL     OW10081   0.072   0.432   6.566
 3061SOL    HW110082   0.147   0.429   6.633
 3061SOL    HW210083   0.045   0.339   6.542
 3062SOL     OW10084   3.606   6.454   6.857
 3062SOL    HW110085   3.575   6.384   6.792
 3062SOL    HW210086   3.669   6.517   6.811
 3063SOL     OW10087   1.837   4.371   1.398
 3063SOL    HW110088   1.821   4.366   1.497
 3063SOL    HW210089   1.925   4.415   1.381
 3064SOL     OW10090   6.188   3.906   3.603
 3064SOL    HW110091   6.109   3.878   3.656
 3064SOL    HW210092   6.268   3.852   3.631
 3065SOL     OW10093   1.905   0.976   6.901
 3065SOL    HW110094   1.878   1.000   6.994
 3065SOL    HW210095   1.869   1.044   6.837
 3066SOL     OW10096   5.731   5.045   1.700
 3066SOL    HW110097   5.641   5.062   1.661
 3066SOL    HW210098   5.756   4.949   1.688
 3067SOL     OW10099   5.451   0.011   4.039
 3067SOL    HW110100   5.416   0.084   4.098
 3067SOL    HW210101   5.551   0.010   4.041
 3068SOL     OW10102   6.088   4.646   0.194
 3068SOL    HW110103   6.113   4.593   0.275
 3068SOL    HW210104   6.130   4.736   0.198
 3069SOL     OW10105   0.700   6.256   2.892
 3069SOL    HW110106   0.779   6.250   2.953
 3069SOL    HW210107   0.687   6.168   2.845
 3070SOL     OW10108   4.120   1.441   4.079
 3070SOL    HW110109   4.035   1.495   4.077
 3070SOL    HW210110   4.189   1.491   4.131
 3071SOL     OW10111   5.646   6.912   3.287
 3071SOL    HW110112   5.746   6.913   3.287
 3071SOL    HW210113   5.614   6.818   3.271
 3072SOL     OW10114   0.597   0.242   2.496
 3072SOL    HW110115   0.565   0.309   2.564
 3072SOL    HW210116   0.681   0.274   2.454
 3073SOL     OW10117   1.060   3.406   5.210
 3073SOL    HW110118   1.006   3.489   5.196
 3073SOL    HW210119   1.122   3.393   5.133
 3074SOL     OW10120   4.637   3.080   6.134
 3074SOL    HW110121   4.589   3.006   6.087
 3074SOL    HW210122   4.583   3.110   6.212
 3075SOL     OW10123   1.778   5.839   1.499
 3075SOL    HW110124   1.794   5.749   1.538
 3075SOL    HW210125   1.845   5.856   1.426
 3076SOL     OW10126   0.180   0.563   4.864
 3076SOL    HW110127   0.205   0.594   4.955
 3076SOL    HW210128   0.102   0.617   4.831
 3077SOL     OW10129   5.225   4.846   3.779
 3077SOL    HW110130   5.256   4.937   3.806
 3077SOL    HW210131   5.202   4.847   3.682
 3078SOL     OW10132   1.642   3.663   1.779
 3078SOL    HW110133   1.720   3.621   1.826
 3078SOL    HW210134   1.585   3.711   1.846
 3079SOL     OW10135   6.879   2.113   5.421
 3079SOL    HW110136   6.949   2.178   5.452
 3079SOL    HW210137   6.905   2.077   5.331
 3080SOL     OW10138   6.386   5.169   0.632
 3080SOL    HW110139   6.429   5.203   0.716
 3080SOL    HW210140   6.435   5.205   0.552
 3081SOL     OW10141   0.213   5.211   5.555
 3081SOL    HW110142   0.306   5.236   5.582
 3081SOL    HW210143   0.150   5.285   5.577
 3082SOL     OW10144   2.881   0.166   2.555
 3082SOL    HW110145   2.883   0.265   2.538
 3082SOL    HW210146   2.970   0.136   2.589
 3083SOL     OW10147   3.338   0.712   1.701
 3083SOL    HW110148   3.282   0.633   1.724
 3083SOL    HW210149   3.409   0.724   1.770
 3084SOL     OW10150   5.318   5.674   4.729
 3084SOL    HW110151   5.335   5.625   4.643
 3084SOL    HW210152   5.353   5.621   4.805
 3085SOL     OW10153   0.726   5.414   2.265
 3085SOL    HW110154   0.796   5.365   2.317
 3085SOL    HW210155   0.710   5.367   2.178
 3086SOL     OW10156   4.774   1.395   3.849
 3086SOL    HW110157   4.717   1.475   3.865
 3086SOL    HW210158   4.868   1.415   3.877
 3087SOL     OW10159   6.786   3.654   2.686
 3087SOL    HW110160   6.724   3.607   2.750
 3087SOL    HW210161   6.754   3.639   2.592
 3088SOL     OW10162   3.092   5.051   6.067
 3088SOL    HW110163   3.148   4.970   6.047
 3088SOL    HW210164   3.015   5.054   6.003
 3089SOL     OW10165   1.609   2.528   0.421
 3089SOL    HW110166   1.695   2.572   0.446
 3089SOL    HW210167   1.533   2.576   0.464
 3090SOL     OW10168   1.559   1.764   0.934
 3090SOL    HW110169   1.575   1.851   0.980
 3090SOL    HW210170   1.552   1.778   0.836
 3091SOL     OW10171   3.257   6.692   0.113
 3091SOL    HW110172   3.344   6.644   0.100
 3091SOL    HW210173   3.217   6.713   0.024
 3092SOL     OW10174   5.111   6.656   0.430
 3092SOL    HW110175   5.017   6.639   0.462
 3092SOL    HW210176   5.151   6.570   0.397
 3093SOL     OW10177   5.566   5.761   4.509
 3093SOL    HW110178   5.633   5.817   4.558
 3093SOL    HW210179   5.613   5.712   4.435
 3094SOL     OW10180   2.781   5.824   5.857
 3094SOL    HW110181   2.738   5.743   5.816
 3094SOL    HW210182   2.765   5.904   5.798
 3095SOL     OW10183   2.969   4.843   4.893
 3095SOL    HW110184   3.027   4.813   4.969
 3095SOL    HW210185   2.912   4.766   4.863
 3096SOL     OW10186   1.403   0.691   6.172
 3096SOL    HW110187   1.376   0.785   6.192
 3096SOL    HW210188   1.324   0.631   6.181
 3097SOL     OW10189   1.657   3.065   6.949
 3097SOL    HW110190   1.631   3.072   0.020
 3097SOL    HW210191   1.591   3.116   6.893
 3098SOL     OW10192   3.330   2.555   0.551
 3098SOL    HW110193   3.293   2.569   0.459
 3098SOL    HW210194   3.269   2.495   0.603
 3099SOL     OW10195   0.639   5.687   5.121
 3099SOL    HW110196   0.696   5.737   5.187
 3099SOL    HW210197   0.694   5.615   5.079
 3100SOL     OW10198   0.088   0.057   6.913
 3100SOL    HW110199   0.066   7.012   6.845
 3100SOL    HW210200   0.016   0.127   6.913
 3101SOL     OW10201   4.541   0.091   0.870
 3101SOL    HW110202   4.544   0.031   0.950
 3101SOL    HW210203   4.543   0.036   0.786
 3102SOL     OW10204   1.728   4.225   1.198
 3102SOL    HW110205   1.770   4.286   1.265
 3102SOL    HW210206   1.707   4.276   1.115
 3103SOL     OW10207   3.880   2.996   1.967
 3103SOL    HW110208   3.938   2.934   1.914
 3103SOL    HW210209   3.924   3.086   1.973
 3104SOL     OW10210   6.300   6.137   3.917
 3104SOL    HW110211   6.280   6.132   3.819
 3104SOL    HW210212   6.398   6.157   3.930
 3105SOL     OW10213   5.795   6.640   4.140
 3105SOL    HW110214   5.870   6.575   4.126
 3105SOL    HW210215   5.790   6.664   4.237
 3106SOL     OW10216   6.811   2.335   3.992
 3106SOL    HW110217   6.867   2.299   3.917
 3106SOL    HW210218   6.869   2.351   4.072
 3107SOL     OW10219   2.815   0.646   4.400
 3107SOL    HW110220   2.751   0.675   4.470
 3107SOL    HW210221   2.794   0.552   4.372
 3108SOL     OW10222   3.489   0.581   3.472
 3108SOL    HW110223   3.578   0.565   3.516
 3108SOL    HW210224   3.416   0.560   3.537
 3109SOL     OW10225   4.553   5.022   3.241
 3109SOL    HW110226   4.519   5.102   3.291
 3109SOL    HW210227   4.487   4.994   3.172
 3110SOL     OW10228   0.547   2.861   2.381
 3110SOL    HW110229   0.470   2.820   2.332
 3110SOL    HW210230   0.608   2.789   2.414
 3111SOL     OW10231   0.243   4.998   3.474
 3111SOL    HW110232   0.321   5.012   3.535
 3111SOL    HW210233   0.160   4.988   3.528
 3112SOL     OW10234   4.162   4.113   6.167
 3112SOL    HW110235   4.201   4.116   6.259
 3112SOL    HW210236   4.104   4.193   6.153
 3113SOL     OW10237   2.842   6.177   3.776
 3113SOL    HW110238   2.913   6.233   3.733
 3113SOL    HW210239   2.759   6.179   3.720
 3114SOL     OW10240   6.014   5.478   0.880
 3114SOL    HW110241   6.003   5.385   0.915
 3114SOL    HW210242   6.110   5.505   0.887
 3115SOL     OW10243   2.532   3.621   1.186
 3115SOL    HW110244   2.603   3.682   1.222
 3115SOL    HW210245   2.451   3.675   1.163
 3116SOL     OW10246   0.290   2.111   0.248
 3116SOL    HW110247   0.328   2.042   0.186
 3116SOL    HW210248   0.330   2.100   0.339
 3117SOL     OW10249   3.846   3.517   5.308
 3117SOL    HW110250   3.768   3.457   5.291
 3117SOL    HW210251   3.881   3.500   5.400
 3118SOL     OW10252   6.144   3.677   0.682
 3118SOL    HW110253   6.114   3.772   0.685
 3118SOL    HW210254   6.157   3.643   0.775
 3119SOL     OW10255   1.706   4.317   5.580
 3119SOL    HW110256   1.792   4.316   5.631
 3119SOL    HW210257   1.694   4.230   5.533
 3120SOL     OW10258   3.089   5.367   5.081
 3120SOL    HW110259   2.994   5.367   5.050
 3120SOL    HW210260   3.117   5.462   5.099
 3121SOL     OW10261   6.717   6.821   2.138
 3121SOL    HW110262   6.711   6.920   2.121
 3121SOL    HW210263   6.809   6.798   2.168
 3122SOL     OW10264   3.223   5.557   0.080
 3122SOL    HW110265   3.152   5.488   0.091
 3122SOL    HW210266   3.188   5.646   0.110
 3123SOL     OW10267   3.519   6.450   3.891
 3123SOL    HW110268   3.610   6.407   3.888
 3123SOL    HW210269   3.496   6.484   3.800
 3124SOL     OW10270   4.295   0.970   6.287
 3124SOL    HW110271   4.373   1.022   6.321
 3124SOL    HW210272   4.310   0.948   6.190
 3125SOL     OW10273   0.034   1.551   5.889
 3125SOL    HW110274   6.980   1.541   5.949
 3125SOL    HW210275   0.053   1.465   5.842
 3126SOL     OW10276   4.596   6.086   0.322
 3126SOL    HW110277   4.529   6.059   0.391
 3126SOL    HW210278   4.674   6.130   0.368
 3127SOL     OW10279   0.164   1.413   3.989
 3127SOL    HW110280   0.176   1.484   3.921
 3127SOL    HW210281   0.236   1.420   4.058
 3128SOL     OW10282   1.775   1.335   1.002
 3128SOL    HW110283   1.796   1.361   0.908
 3128SOL    HW210284   1.718   1.405   1.044
 3129SOL     OW10285   0.854   3.221   4.667
 3129SOL    HW110286   0.805   3.262   4.589
 3129SOL    HW210287   0.805   3.243   4.751
 3130SOL     OW10288   1.315   5.524   2.993
 3130SOL    HW110289   1.242   5.483   2.939
 3130SOL    HW210290   1.351   5.604   2.944
 3131SOL     OW10291   6.448   3.393   3.283
 3131SOL    HW110292   6.352   3.374   3.304
 3131SOL    HW210293   6.501   3.396   3.368
 3132SOL     OW10294   5.751   6.013   5.970
 3132SOL    HW110295   5.799   6.092   5.933
 3132SOL    HW210296   5.655   6.017   5.943
 3133SOL     OW10297   3.034   1.639   3.379
 3133SOL    HW110298   3.116   1.695   3.386
 3133SOL    HW210299   3.041   1.563   3.445
 3134SOL     OW10300   4.847   3.089   2.237
 3134SOL    HW110301   4.848   3.042   2.326
 3134SOL    HW210302   4.793   3.036   2.172
 3135SOL     OW10303   3.233   1.841   3.353
 3135SOL    HW110304   3.281   1.884   3.276
 3135SOL    HW210305   3.295   1.834   3.431
 3136SOL     OW10306   5.812   6.289   5.357
 3136SOL    HW110307   5.792   6.199   5.396
 3136SOL    HW210308   5.825   6.280   5.258
 3137SOL     OW10309   5.919   2.206   4.182
 3137SOL    HW110310   5.895   2.167   4.271
 3137SOL    HW210311   5.838   2.205   4.123
 3138SOL     OW10312   5.630   1.130   4.924
 3138SOL    HW110313   5.597   1.057   4.983
 3138SOL    HW210314   5.679   1.198   4.979
 3139SOL     OW10315   5.177   6.345   5.015
 3139SOL    HW110316   5.081   6.332   4.989
 3139SOL    HW210317   5.200   6.283   5.090
 3140SOL     OW10318   6.260   6.051   0.153
 3140SOL    HW110319   6.313   6.056   0.238
 3140SOL    HW210320   6.293   6.119   0.089
 3141SOL     OW10321   1.118   5.077   0.284
 3141SOL    HW110322   1.033   5.113   0.322
 3141SOL    HW210323   1.102   5.044   0.191
 3142SOL     OW10324   4.603   6.382   0.118
 3142SOL    HW110325   4.563   6.355   0.206
 3142SOL    HW210326   4.552   6.340   0.043
 3143SOL     OW10327   6.231   1.377   0.855
 3143SOL    HW110328   6.298   1.303   0.857
 3143SOL    HW210329   6.217   1.411   0.948
 3144SOL     OW10330   1.711   3.264   6.669
 3144SOL    HW110331   1.766   3.196   6.621
 3144SOL    HW210332   1.688   3.338   6.606
 3145SOL     OW10333   3.215   5.955   3.565
 3145SOL    HW110334   3.255   6.045   3.547
 3145SOL    HW210335   3.228   5.897   3.485
 3146SOL     OW10336   1.641   0.659   3.462
 3146SOL    HW110337   1.681   0.603   3.534
 3146SOL    HW210338   1.682   0.636   3.374
 3147SOL     OW10339   4.572   4.368   0.465
 3147SOL    HW110340   4.512   4.320   0.530
 3147SOL    HW210341   4.609   4.303   0.400
 3148SOL     OW10342   3.296   5.724   4.408
 3148SOL    HW110343   3.202   5.690   4.411
 3148SOL    HW210344   3.356   5.662   4.460
 3149SOL     OW10345   3.678   6.780   5.561
 3149SOL    HW110346   3.658   6.776   5.464
 3149SOL    HW210347   3.661   6.872   5.595
 3150SOL     OW10348   6.225   0.351   4.997
 3150SOL    HW110349   6.156   0.286   4.966
 3150SOL    HW210350   6.314   0.307   5.001
 3151SOL     OW10351   4.413   1.248   5.987
 3151SOL    HW110352   4.450   1.337   6.012
 3151SOL    HW210353   4.471   1.205   5.919
 3152SOL     OW10354   1.609   5.432   0.724
 3152SOL    HW110355   1.595   5.484   0.808
 3152SOL    HW210356   1.635   5.494   0.650
 3153SOL     OW10357   6.693   4.083   2.413
 3153SOL    HW110358   6.637   4.062   2.493
 3153SOL    HW210359   6.766   4.146   2.439
 3154SOL     OW10360   5.983   2.741   6.292
 3154SOL    HW110361   5.893   2.716   6.255
 3154SOL    HW210362   6.003   2.683   6.371
 3155SOL     OW10363   5.333   5.685   0.810
 3155SOL    HW110364   5.267   5.625   0.764
 3155SOL    HW210365   5.332   5.775   0.768
 3156SOL     OW10366   3.507   3.856   3.666
 3156SOL    HW110367   3.526   3.787   3.736
 3156SOL    HW210368   3.413   3.889   3.677
 3157SOL     OW10369   2.174   3.309   4.597
 3157SOL    HW110370   2.171   3.283   4.501
 3157SOL    HW210371   2.144   3.233   4.654
 3158SOL     OW10372   4.720   6.394   0.476
 3158SOL    HW110373   4.779   6.318   0.451
 3158SOL    HW210374   4.775   6.468   0.514
 3159SOL     OW10375   5.538   5.147   0.470
 3159SOL    HW110376   5.523   5.236   0.511
 3159SOL    HW210377   5.450   5.102   0.455
 3160SOL     OW10378   5.838   3.900   0.179
 3160SOL    HW110379   5.818   3.958   0.258
 3160SOL    HW210380   5.933   3.916   0.149
 3161SOL     OW10381   0.646   2.125   2.722
 3161SOL    HW110382   0.592   2.208   2.740
 3161SOL    HW210383   0.706   2.141   2.644
 3162SOL     OW10384   0.211   5.794   6.171
 3162SOL    HW110385   0.138   5.819   6.107
 3162SOL    HW210386   0.215   5.862   6.245
 3163SOL     OW10387   2.699   3.838   5.906
 3163SOL    HW110388   2.657   3.887   5.982
 3163SOL    HW210389   2.799   3.845   5.913
 3164SOL     OW10390   5.555   5.368   6.579
 3164SOL    HW110391   5.603   5.304   6.519
 3164SOL    HW210392   5.593   5.362   6.671
 3165SOL     OW10393   7.009   2.022   1.778
 3165SOL    HW110394   0.001   1.985   1.686
 3165SOL    HW210395   0.065   2.009   1.835
 3166SOL     OW10396   5.052   2.740   6.019
 3166SOL    HW110397   5.072   2.836   6.034
 3166SOL    HW210398   4.952   2.727   6.016
 3167SOL     OW10399   0.728   4.721   2.334
 3167SOL    HW110400   0.659   4.649   2.327
 3167SOL    HW210401   0.695   4.792   2.396
 3168SOL     OW10402   5.390   3.309   0.908
 3168SOL    HW110403   5.439   3.383   0.954
 3168SOL    HW210404   5.405   3.316   0.810
 3169SOL     OW10405   1.511   1.862   5.547
 3169SOL    HW110406   1.491   1.935   5.612
 3169SOL    HW210407   1.530   1.902   5.457
 3170SOL     OW10408   4.423   0.671   6.576
 3170SOL    HW110409   4.450   0.766   6.592
 3170SOL    HW210410   4.330   0.667   6.538
 3171SOL     OW10411   6.285   6.756   3.245
 3171SOL    HW110412   6.229   6.737   3.164
 3171SOL    HW210413   6.240   6.720   3.326
 3172SOL     OW10414   6.041   6.677   5.361
 3172SOL    HW110415   6.084   6.604   5.414
 3172SOL    HW210416   6.073   6.766   5.394
 3173SOL     OW10417   1.823   1.383   1.435
 3173SOL    HW110418   1.848   1.479   1.432
 3173SOL    HW210419   1.902   1.327   1.411
 3174SOL     OW10420   1.990   3.374   6.098
 3174SOL    HW110421   2.041   3.458   6.115
 3174SOL    HW210422   1.994   3.351   6.001
 3175SOL     OW10423   0.552   6.467   0.773
 3175SOL    HW110424   0.607   6.548   0.753
 3175SOL    HW210425   0.610   6.386   0.776
 3176SOL     OW10426   0.285   5.218   6.627
 3176SOL    HW110427   0.266   5.233   6.725
 3176SOL    HW210428   0.342   5.137   6.617
 3177SOL     OW10429   6.704   6.955   5.704
 3177SOL    HW110430   6.658   7.007   5.776
 3177SOL    HW210431   6.637   6.897   5.658
 3178SOL     OW10432   1.315   3.390   1.682
 3178SOL    HW110433   1.364   3.302   1.678
 3178SOL    HW210434   1.217   3.374   1.672
 3179SOL     OW10435   2.329   1.835   2.959
 3179SOL    HW110436   2.335   1.737   2.981
 3179SOL    HW210437   2.412   1.863   2.910
 3180SOL     OW10438   5.876   0.922   6.015
 3180SOL    HW110439   5.925   1.001   5.980
 3180SOL    HW210440   5.884   0.846   5.951
 3181SOL     OW10441   0.438   1.236   2.909
 3181SOL    HW110442   0.476   1.314   2.860
 3181SOL    HW210443   0.462   1.151   2.861
 3182SOL     OW10444   1.693   4.554   5.454
 3182SOL    HW110445   1.634   4.532   5.376
 3182SOL    HW210446   1.722   4.470   5.498
 3183SOL     OW10447   4.067   3.147   1.585
 3183SOL    HW110448   4.143   3.149   1.521
 3183SOL    HW210449   3.981   3.146   1.535
 3184SOL     OW10450   2.515   1.079   3.037
 3184SOL    HW110451   2.495   1.135   3.117
 3184SOL    HW210452   2.611   1.091   3.012
 3185SOL     OW10453   0.158   6.300   5.918
 3185SOL    HW110454   0.134   6.215   5.871
 3185SOL    HW210455   0.172   6.281   6.015
 3186SOL     OW10456   3.103   0.556   1.540
 3186SOL    HW110457   3.104   0.506   1.626
 3186SOL    HW210458   3.197   0.581   1.515
 3187SOL     OW10459   2.774   4.390   7.017
 3187SOL    HW110460   2.746   4.308   6.968
 3187SOL    HW210461   2.858   4.426   6.977
 3188SOL     OW10462   4.366   6.373   3.055
 3188SOL    HW110463   4.454   6.363   3.102
 3188SOL    HW210464   4.334   6.467   3.066
 3189SOL     OW10465   1.401   6.916   2.296
 3189SOL    HW110466   1.428   6.882   2.206
 3189SOL    HW210467   1.462   6.990   2.324
 3190SOL     OW10468   0.496   6.691   2.247
 3190SOL    HW110469   0.459   6.740   2.168
 3190SOL    HW210470   0.428   6.692   2.321
 3191SOL     OW10471   3.617   0.550   0.766
 3191SOL    HW110472   3.711   0.584   0.759
 3191SOL    HW210473   3.594   0.535   0.862
 3192SOL     OW10474   6.762   2.788   2.928
 3192SOL    HW110475   6.713   2.737   2.858
 3192SOL    HW210476   6.776   2.883   2.897
 3193SOL     OW10477   4.733   3.603   0.091
 3193SOL    HW110478   4.657   3.592   0.154
 3193SOL    HW210479   4.708   3.666   0.018
 3194SOL     OW10480   0.902   3.821   5.747
 3194SOL    HW110481   0.942   3.854   5.832
 3194SOL    HW210482   0.835   3.887   5.712
 3195SOL     OW10483   0.116   3.559   3.472
 3195SOL    HW110484   0.028   3.585   3.433
 3195SOL    HW210485   0.190   3.603   3.421
 3196SOL     OW10486   0.562   0.175   5.680
 3196SOL    HW110487   0.524   0.091   5.719
 3196SOL    HW210488   0.660   0.179   5.701
 3197SOL     OW10489   1.268   4.208   4.471
 3197SOL    HW110490   1.334   4.281   4.451
 3197SOL    HW210491   1.280   4.134   4.406
 3198SOL     OW10492   6.889   1.394   0.546
 3198SOL    HW110493   6.981   1.361   0.521
 3198SOL    HW210494   6.862   1.352   0.633
 3199SOL     OW10495   3.860   2.129   2.727
 3199SOL    HW110496   3.845   2.109   2.824
 3199SOL    HW210497   3.958   2.146   2.712
 3200SOL     OW10498   6.928   2.217   0.975
 3200SOL    HW110499   6.902   2.305   1.014
 3200SOL    HW210500   7.014   2.186   1.016
 3201SOL     OW10501   4.395   4.583   2.907
 3201SOL    HW110502   4.299   4.591   2.932
 3201SOL    HW210503   4.432   4.497   2.943
 3202SOL     OW10504   2.284   5.631   1.540
 3202SOL    HW110505   2.300   5.541   1.499
 3202SOL    HW210506   2.253   5.694   1.469
 3203SOL     OW10507   6.298   0.420   2.055
 3203SOL    HW110508   6.245   0.336   2.053
 3203SOL    HW210509   6.260   0.482   2.124
 3204SOL     OW10510   6.022   5.920   1.821
 3204SOL    HW110511   6.119   5.901   1.803
 3204SOL    HW210512   5.967   5.890   1.743
 3205SOL     OW10513   1.634   4.023   3.127
 3205SOL    HW110514   1.552   4.073   3.099
 3205SOL    HW210515   1.659   4.048   3.221
 3206SOL     OW10516   1.471   0.171   0.244
 3206SOL    HW110517   1.379   0.154   0.279
 3206SOL    HW210518   1.467   0.240   0.171
 3207SOL     OW10519   0.635   1.079   4.138
 3207SOL    HW110520   0.584   1.052   4.056
 3207SOL    HW210521   0.711   1.138   4.111
 3208SOL     OW10522   6.270   0.148   5.648
 3208SOL    HW110523   6.269   0.225   5.712
 3208SOL    HW210524   6.306   0.067   5.693
 3209SOL     OW10525   2.395   0.786   3.469
 3209SOL    HW110526   2.488   0.767   3.500
 3209SOL    HW210527   2.329   0.747   3.534
 3210SOL     OW10528   6.927   5.125   3.065
 3210SOL    HW110529   6.860   5.193   3.037
 3210SOL    HW210530   7.007   5.170   3.105
 3211SOL     OW10531   0.947   4.279   2.033
 3211SOL    HW110532   0.963   4.222   1.953
 3211SOL    HW210533   0.946   4.222   2.115
 3212SOL     OW10534   4.789   2.720   6.003
 3212SOL    HW110535   4.738   2.805   5.989
 3212SOL    HW210536   4.738   2.660   6.066
 3213SOL     OW10537   5.292   6.075   1.785
 3213SOL    HW110538   5.325   6.131   1.861
 3213SOL    HW210539   5.368   6.057   1.722
 3214SOL     OW10540   3.978   4.845   5.952
 3214SOL    HW110541   4.076   4.828   5.964
 3214SOL    HW210542   3.960   4.943   5.955
 3215SOL     OW10543   6.190   1.309   0.125
 3215SOL    HW110544   6.272   1.363   0.144
 3215SOL    HW210545   6.203   1.259   0.039
 3216SOL     OW10546   5.617   6.638   4.487
 3216SOL    HW110547   5.593   6.698   4.411
 3216SOL    HW210548   5.535   6.590   4.519
 3217SOL     OW10549   6.674   3.938   1.485
 3217SOL    HW110550   6.620   3.941   1.401
 3217SOL    HW210551   6.625   3.885   1.554
 3218SOL     OW10552   2.876   1.020   2.303
 3218SOL    HW110553   2.776   1.020   2.300
 3218SOL    HW210554   2.912   1.046   2.214
 3219SOL     OW10555   6.837   6.989   4.045
 3219SOL    HW110556   6.899   6.937   3.987
 3219SOL    HW210557   6.890   0.030   4.099
 3220SOL     OW10558   6.045   2.964   5.540
 3220SOL    HW110559   6.014   3.055   5.570
 3220SOL    HW210560   6.065   2.967   5.442
 3221SOL     OW10561   3.814   6.905   2.204
 3221SOL    HW110562   3.886   6.951   2.257
 3221SOL    HW210563   3.835   6.807   2.199
 3222SOL     OW10564   5.901   3.195   3.079
 3222SOL    HW110565   5.927   3.210   3.175
 3222SOL    HW210566   5.917   3.279   3.027
 3223SOL     OW10567   2.542   4.997   5.029
 3223SOL    HW110568   2.603   4.933   5.076
 3223SOL    HW210569   2.564   5.000   4.932
 3224SOL     OW10570   3.998   5.512   0.691
 3224SOL    HW110571   4.047   5.533   0.776
 3224SOL    HW210572   3.936   5.587   0.669
 3225SOL     OW10573   2.156   2.672   1.277
 3225SOL    HW110574   2.249   2.647   1.304
 3225SOL    HW210575   2.120   2.603   1.214
 3226SOL     OW10576   0.293   0.906   4.537
 3226SOL    HW110577   0.373   0.848   4.551
 3226SOL    HW210578   0.313   0.974   4.466
 3227SOL     OW10579   2.740   1.047   5.238
 3227SOL    HW110580   2.831   1.038   5.198
 3227SOL    HW210581   2.733   1.135   5.285
 3228SOL     OW10582   4.881   2.958   5.057
 3228SOL    HW110583   4.885   3.042   5.110
 3228SOL    HW210584   4.791   2.949   5.015
 3229SOL     OW10585   3.849   2.100   5.071
 3229SOL    HW110586   3.878   2.005   5.083
 3229SOL    HW210587   3.857   2.126   4.975
 3230SOL     OW10588   1.010   0.684   3.717
 3230SOL    HW110589   0.920   0.726   3.700
 3230SOL    HW210590   1.081   0.738   3.673
 3231SOL     OW10591   5.538   5.363   0.663
 3231SOL    HW110592   5.579   5.317   0.742
 3231SOL    HW210593   5.607   5.421   0.620
 3232SOL     OW10594   2.124   4.462   3.615
 3232SOL    HW110595   2.040   4.433   3.568
 3232SOL    HW210596   2.121   4.430   3.710
 3233SOL     OW10597   1.148   4.363   1.202
 3233SOL    HW110598   1.142   4.445   1.258
 3233SOL    HW210599   1.056   4.329   1.182
 3234SOL     OW10600   6.176   1.726   4.758
 3234SOL    HW110601   6.199   1.632   4.783
 3234SOL    HW210602   6.099   1.726   4.695
 3235SOL     OW10603   5.535   0.561   3.233
 3235SOL    HW110604   5.610   0.608   3.187
 3235SOL    HW210605   5.542   0.576   3.332
 3236SOL     OW10606   0.508   2.858   2.084
 3236SOL    HW110607   0.596   2.843   2.128
 3236SOL    HW210608   0.482   2.955   2.092
 3237SOL     OW10609   3.329   6.638   4.398
 3237SOL    HW110610   3.237   6.622   4.433
 3237SOL    HW210611   3.390   6.567   4.432
 3238SOL     OW10612   6.393   6.850   6.910
 3238SOL    HW110613   6.476   6.862   6.856
 3238SOL    HW210614   6.346   6.938   6.919
 3239SOL     OW10615   0.445   6.369   5.800
 3239SOL    HW110616   0.355   6.367   5.843
 3239SOL    HW210617   0.452   6.296   5.732
 3240SOL     OW10618   0.905   1.015   4.650
 3240SOL    HW110619   0.939   1.017   4.556
 3240SOL    HW210620   0.918   0.923   4.688
 3241SOL     OW10621   4.369   1.311   5.406
 3241SOL    HW110622   4.273   1.304   5.434
 3241SOL    HW210623   4.404   1.220   5.384
 3242SOL     OW10624   3.080   6.369   0.530
 3242SOL    HW110625   3.085   6.454   0.478
 3242SOL    HW210626   2.997   6.368   0.586
 3243SOL     OW10627   3.448   5.444   7.002
 3243SOL    HW110628   3.514   5.433   0.051
 3243SOL    HW210629   3.360   5.474   0.014
 3244SOL     OW10630   2.310   5.913   5.924
 3244SOL    HW110631   2.233   5.897   5.862
 3244SOL    HW210632   2.386   5.853   5.899
 3245SOL     OW10633   3.066   1.842   5.978
 3245SOL    HW110634   3.068   1.758   6.032
 3245SOL    HW210635   3.098   1.918   6.035
 3246SOL     OW10636   5.312   6.628   3.794
 3246SOL    HW110637   5.327   6.639   3.696
 3246SOL    HW210638   5.325   6.532   3.819
 3247SOL     OW10639   6.853   1.581   4.983
 3247SOL    HW110640   6.839   1.593   4.885
 3247SOL    HW210641   6.765   1.562   5.026
 3248SOL     OW10642   5.488   3.992   2.572
 3248SOL    HW110643   5.493   4.092   2.565
 3248SOL    HW210644   5.452   3.954   2.487
 3249SOL     OW10645   2.952   4.368   5.371
 3249SOL    HW110646   2.939   4.423   5.288
 3249SOL    HW210647   2.870   4.375   5.428
 3250SOL     OW10648   4.093   6.036   1.959
 3250SOL    HW110649   4.177   6.047   1.906
 3250SOL    HW210650   4.014   6.041   1.899
 3251SOL     OW10651   3.304   1.093   3.270
 3251SOL    HW110652   3.357   1.010   3.286
 3251SOL    HW210653   3.359   1.159   3.218
 3252SOL     OW10654   3.188   2.133   3.502
 3252SOL    HW110655   3.128   2.170   3.431
 3252SOL    HW210656   3.133   2.076   3.564
 3253SOL     OW10657   4.475   3.691   0.757
 3253SOL    HW110658   4.530   3.668   0.676
 3253SOL    HW210659   4.509   3.640   0.836
 3254SOL     OW10660   4.901   5.249   2.195
 3254SOL    HW110661   4.866   5.229   2.104
 3254SOL    HW210662   4.826   5.246   2.261
 3255SOL     OW10663   4.047   4.566   0.912
 3255SOL    HW110664   4.008   4.635   0.973
 3255SOL    HW210665   4.098   4.499   0.966
 3256SOL     OW10666   6.332   6.665   6.077
 3256SOL    HW110667   6.233   6.664   6.073
 3256SOL    HW210668   6.365   6.758   6.091
 3257SOL     OW10669   2.380   2.099   0.873
 3257SOL    HW110670   2.363   2.088   0.775
 3257SOL    HW210671   2.399   2.010   0.914
 3258SOL     OW10672   5.827   0.070   1.544
 3258SOL    HW110673   5.897   0.139   1.561
 3258SOL    HW210674   5.865   7.021   1.488
 3259SOL     OW10675   6.037   6.177   3.016
 3259SOL    HW110676   5.973   6.172   3.092
 3259SOL    HW210677   5.999   6.235   2.944
 3260SOL     OW10678   1.407   3.311   0.359
 3260SOL    HW110679   1.314   3.276   0.372
 3260SOL    HW210680   1.447   3.271   0.277
 3261SOL     OW10681   5.040   0.248   3.719
 3261SOL    HW110682   5.100   0.226   3.796
 3261SOL    HW210683   4.958   0.190   3.723
 3262SOL     OW10684   3.748   1.532   4.345
 3262SOL    HW110685   3.831   1.507   4.295
 3262SOL    HW210686   3.769   1.543   4.442
 3263SOL     OW10687   3.325   5.620   2.394
 3263SOL    HW110688   3.292   5.652   2.483
 3263SOL    HW210689   3.278   5.670   2.322
 3264SOL     OW10690   4.843   4.647   6.078
 3264SOL    HW110691   4.875   4.739   6.056
 3264SOL    HW210692   4.797   4.607   5.999
 3265SOL     OW10693   4.944   0.844   6.458
 3265SOL    HW110694   4.899   0.768   6.506
 3265SOL    HW210695   4.887   0.926   6.463
 3266SOL     OW10696   0.451   1.839   6.686
 3266SOL    HW110697   0.436   1.932   6.719
 3266SOL    HW210698   0.473   1.779   6.763
 3267SOL     OW10699   4.840   2.242   1.426
 3267SOL    HW110700   4.805   2.251   1.333
 3267SOL    HW210701   4.906   2.167   1.429
 3268SOL     OW10702   1.088   4.811   6.311
 3268SOL    HW110703   1.129   4.798   6.220
 3268SOL    HW210704   1.051   4.724   6.343
 3269SOL     OW10705   4.899   3.804   0.602
 3269SOL    HW110706   4.852   3.829   0.687
 3269SOL    HW210707   4.965   3.731   0.621
 3270SOL     OW10708   0.160   5.466   4.225
 3270SOL    HW110709   0.202   5.398   4.285
 3270SOL    HW210710   0.092   5.421   4.166
 3271SOL     OW10711   5.404   1.219   1.803
 3271SOL    HW110712   5.341   1.288   1.767
 3271SOL    HW210713   5.492   1.227   1.755
 3272SOL     OW10714   4.870   6.961   0.333
 3272SOL    HW110715   4.963   6.984   0.305
 3272SOL    HW210716   4.826   0.017   0.372
 3273SOL     OW10717   0.188   0.138   3.225
 3273SOL    HW110718   0.196   0.145   3.325
 3273SOL    HW210719   0.181   0.041   3.200
 3274SOL     OW10720   3.687   2.120   6.303
 3274SOL    HW110721   3.715   2.133   6.398
 3274SOL    HW210722   3.601   2.069   6.300
 3275SOL     OW10723   3.979   0.874   0.297
 3275SOL    HW110724   3.963   0.915   0.386
 3275SOL    HW210725   3.959   0.776   0.301
 3276SOL     OW10726   2.467   6.632   0.395
 3276SOL    HW110727   2.566   6.650   0.394
 3276SOL    HW210728   2.420   6.714   0.429
 3277SOL     OW10729   6.886   6.453   5.621
 3277SOL    HW110730   6.794   6.450   5.582
 3277SOL    HW210731   6.949   6.494   5.556
 3278SOL     OW10732   1.449   1.179   0.287
 3278SOL    HW110733   1.524   1.222   0.336
 3278SOL    HW210734   1.485   1.124   0.212
 3279SOL     OW10735   2.051   6.513   1.140
 3279SOL    HW110736   2.070   6.577   1.066
 3279SOL    HW210737   1.956   6.481   1.132
 3280SOL     OW10738   2.000   5.558   5.158
 3280SOL    HW110739   2.048   5.622   5.218
 3280SOL    HW210740   1.916   5.601   5.124
 3281SOL     OW10741   2.625   6.457   0.638
 3281SOL    HW110742   2.562   6.397   0.590
 3281SOL    HW210743   2.574   6.516   0.701
 3282SOL     OW10744   2.221   6.230   2.199
 3282SOL    HW110745   2.294   6.244   2.132
 3282SOL    HW210746   2.137   6.204   2.152
 3283SOL     OW10747   1.956   0.360   4.314
 3283SOL    HW110748   1.900   0.435   4.349
 3283SOL    HW210749   1.899   0.281   4.293
 3284SOL     OW10750   0.868   4.029   5.920
 3284SOL    HW110751   0.897   4.125   5.915
 3284SOL    HW210752   0.769   4.023   5.910
 3285SOL     OW10753   6.995   2.377   4.884
 3285SOL    HW110754   0.038   2.324   4.834
 3285SOL    HW210755   6.992   2.347   4.979
 3286SOL     OW10756   3.885   5.127   5.517
 3286SOL    HW110757   3.857   5.195   5.585
 3286SOL    HW210758   3.824   5.048   5.523
 3287SOL     OW10759   0.028   4.555   1.871
 3287SOL    HW110760   6.996   4.610   1.809
 3287SOL    HW210761   0.114   4.532   1.825
 3288SOL     OW10762   1.890   6.768   6.633
 3288SOL    HW110763   1.860   6.856   6.595
 3288SOL    HW210764   1.810   6.717   6.664
 3289SOL     OW10765   1.194   5.345   4.509
 3289SOL    HW110766   1.109   5.348   4.456
 3289SOL    HW210767   1.222   5.438   4.533
 3290SOL     OW10768   6.661   5.087   2.761
 3290SOL    HW110769   6.656   5.099   2.662
 3290SOL    HW210770   6.705   5.167   2.802
 3291SOL     OW10771   2.400   6.996   1.818
 3291SOL    HW110772   2.414   6.924   1.887
 3291SOL    HW210773   2.351   6.957   1.740
 3292SOL     OW10774   0.311   5.238   5.222
 3292SOL    HW110775   0.225   5.283   5.198
 3292SOL    HW210776   0.297   5.180   5.301
 3293SOL     OW10777   6.220   0.597   2.702
 3293SOL    HW110778   6.152   0.668   2.721
 3293SOL    HW210779   6.300   0.638   2.658
 3294SOL     OW10780   0.948   0.335   0.769
 3294SOL    HW110781   0.993   0.270   0.830
 3294SOL    HW210782   0.896   0.285   0.699
 3295SOL     OW10783   1.619   2.434   6.221
 3295SOL    HW110784   1.529   2.430   6.266
 3295SOL    HW210785   1.685   2.476   6.283
 3296SOL     OW10786   0.830   6.471   1.642
 3296SOL    HW110787   0.852   6.474   1.545
 3296SOL    HW210788   0.780   6.553   1.668
 3297SOL     OW10789   3.248   1.539   6.114
 3297SOL    HW110790   3.158   1.579   6.131
 3297SOL    HW210791   3.263   1.534   6.015
 3298SOL     OW10792   6.301   3.667   3.271
 3298SOL    HW110793   6.249   3.593   3.312
 3298SOL    HW210794   6.393   3.669   3.308
 3299SOL     OW10795   0.992   0.756   5.013
 3299SOL    HW110796   1.001   0.666   4.971
 3299SOL    HW210797   1.079   0.806   5.005
 3300SOL     OW10798   6.933   0.106   5.065
 3300SOL    HW110799   6.919   0.042   4.990
 3300SOL    HW210800   6.978   0.189   5.031
 3301SOL     OW10801   0.014   3.741   2.725
 3301SOL    HW110802   0.023   3.777   2.818
 3301SOL    HW210803   6.945   3.711   2.710
 3302SOL     OW10804   0.970   5.372   4.337
 3302SOL    HW110805   1.023   5.360   4.253
 3302SOL    HW210806   0.873   5.357   4.318
 3303SOL     OW10807   3.235   3.904   3.617
 3303SOL    HW110808   3.157   3.852   3.652
 3303SOL    HW210809   3.240   3.992   3.664
 3304SOL     OW10810   1.376   0.591   3.405
 3304SOL    HW110811   1.384   0.516   3.339
 3304SOL    HW210812   1.467   0.627   3.425
 3305SOL     OW10813   1.032   2.171   1.340
 3305SOL    HW110814   1.123   2.192   1.304
 3305SOL    HW210815   0.977   2.127   1.269
 3306SOL     OW10816   0.734   3.356   2.457
 3306SOL    HW110817   0.642   3.363   2.496
 3306SOL    HW210818   0.802   3.378   2.527
 3307SOL     OW10819   0.733   6.643   0.691
 3307SOL    HW110820   0.768   6.736   0.702
 3307SOL    HW210821   0.806   6.577   0.707
 3308SOL     OW10822   5.522   6.609   0.877
 3308SOL    HW110823   5.538   6.550   0.798
 3308SOL    HW210824   5.544   6.704   0.854
 3309SOL     OW10825   1.280   5.687   2.147
 3309SOL    HW110826   1.357   5.639   2.189
 3309SOL    HW210827   1.314   5.747   2.075
 3310SOL     OW10828   1.237   6.564   2.126
 3310SOL    HW110829   1.263   6.568   2.030
 3310SOL    HW210830   1.315   6.590   2.183
 3311SOL     OW10831   3.742   6.897   1.239
 3311SOL    HW110832   3.807   6.888   1.165
 3311SOL    HW210833   3.682   6.975   1.223
 3312SOL     OW10834   2.052   3.407   6.596
 3312SOL    HW110835   1.966   3.438   6.555
 3312SOL    HW210836   2.120   3.393   6.524
 3313SOL     OW10837   6.610   6.176   5.409
 3313SOL    HW110838   6.696   6.161   5.360
 3313SOL    HW210839   6.548   6.100   5.391
 3314SOL     OW10840   0.528   3.269   6.786
 3314SOL    HW110841   0.509   3.195   6.851
 3314SOL    HW210842   0.463   3.265   6.710
 3315SOL     OW10843   6.371   3.476   2.800
 3315SOL    HW110844   6.293   3.532   2.771
 3315SOL    HW210845   6.450   3.535   2.817
 3316SOL     OW10846   4.653   1.209   0.611
 3316SOL    HW110847   4.658   1.302   0.572
 3316SOL    HW210848   4.741   1.186   0.651
 3317SOL     OW10849   4.669   2.236   1.781
 3317SOL    HW110850   4.623   2.314   1.822
 3317SOL    HW210851   4.601   2.165   1.759
 3318SOL     OW10852   2.461   5.270   4.904
 3318SOL    HW110853   2.365   5.279   4.929
 3318SOL    HW210854   2.501   5.192   4.953
 3319SOL     OW10855   0.090   5.975   6.389
 3319SOL    HW110856   0.038   5.925   6.319
 3319SOL    HW210857   0.028   6.035   6.439
 3320SOL     OW10858   0.500   1.350   5.836
 3320SOL    HW110859   0.571   1.390   5.893
 3320SOL    HW210860   0.464   1.420   5.774
 3321SOL     OW10861   3.773   3.643   4.116
 3321SOL    HW110862   3.831   3.628   4.036
 3321SOL    HW210863   3.677   3.633   4.090
 3322SOL     OW10864   4.737   2.675   0.892
 3322SOL    HW110865   4.652   2.623   0.894
 3322SOL    HW210866   4.737   2.742   0.966
 3323SOL     OW10867   2.648   4.766   6.921
 3323SOL    HW110868   2.595   4.747   7.004
 3323SOL    HW210869   2.586   4.769   6.842
 3324SOL     OW10870   6.723   3.148   0.833
 3324SOL    HW110871   6.813   3.188   0.814
 3324SOL    HW210872   6.729   3.091   0.915
 3325SOL     OW10873   1.287   3.367   6.758
 3325SOL    HW110874   1.236   3.319   6.688
 3325SOL    HW210875   1.226   3.392   6.833
 3326SOL     OW10876   6.736   0.919   1.815
 3326SOL    HW110877   6.729   0.842   1.752
 3326SOL    HW210878   6.644   0.952   1.838
 3327SOL     OW10879   3.217   6.397   1.970
 3327SOL    HW110880   3.206   6.317   2.029
 3327SOL    HW210881   3.172   6.380   1.882
 3328SOL     OW10882   5.004   0.513   3.613
 3328SOL    HW110883   5.007   0.511   3.513
 3328SOL    HW210884   4.975   0.424   3.647
 3329SOL     OW10885   5.549   0.556   5.836
 3329SOL    HW110886   5.503   0.624   5.894
 3329SOL    HW210887   5.642   0.588   5.815
 3330SOL     OW10888   6.826   5.912   3.328
 3330SOL    HW110889   6.776   5.845   3.382
 3330SOL    HW210890   6.815   5.892   3.231
 3331SOL     OW10891   1.519   3.489   2.610
 3331SOL    HW110892   1.567   3.406   2.583
 3331SOL    HW210893   1.491   3.540   2.529
 3332SOL     OW10894   3.674   4.781   0.345
 3332SOL    HW110895   3.735   4.860   0.340
 3332SOL    HW210896   3.590   4.801   0.295
 3333SOL     OW10897   2.291   3.203   1.771
 3333SOL    HW110898   2.312   3.300   1.781
 3333SOL    HW210899   2.374   3.154   1.742
 3334SOL     OW10900   2.146   2.169   1.871
 3334SOL    HW110901   2.119   2.165   1.775
 3334SOL    HW210902   2.244   2.150   1.880
 3335SOL     OW10903   3.634   3.992   5.115
 3335SOL    HW110904   3.620   3.893   5.119
 3335SOL    HW210905   3.696   4.013   5.039
 3336SOL     OW10906   4.232   5.823   5.067
 3336SOL    HW110907   4.300   5.896   5.075
 3336SOL    HW210908   4.260   5.745   5.123
 3337SOL     OW10909   3.139   3.074   2.423
 3337SOL    HW110910   3.073   2.999   2.412
 3337SOL    HW210911   3.220   3.055   2.367
 3338SOL     OW10912   2.438   3.232   1.280
 3338SOL    HW110913   2.432   3.141   1.321
 3338SOL    HW210914   2.518   3.279   1.315
 3339SOL     OW10915   1.830   0.296   6.718
 3339SOL    HW110916   1.870   0.207   6.741
 3339SOL    HW210917   1.730   0.291   6.728
 3340SOL     OW10918   4.075   1.072   5.346
 3340SOL    HW110919   3.987   1.080   5.298
 3340SOL    HW210920   4.060   1.082   5.445
 3341SOL     OW10921   1.269   4.448   2.383
 3341SOL    HW110922   1.285   4.349   2.381
 3341SOL    HW210923   1.171   4.466   2.391
 3342SOL     OW10924   6.384   1.114   2.800
 3342SOL    HW110925   6.415   1.050   2.729
 3342SOL    HW210926   6.446   1.192   2.805
 3343SOL     OW10927   4.554   5.496   0.179
 3343SOL    HW110928   4.486   5.505   0.106
 3343SOL    HW210929   4.596   5.586   0.196
 3344SOL     OW10930   0.476   3.303   2.157
 3344SOL    HW110931   0.546   3.242   2.195
 3344SOL    HW210932   0.516   3.393   2.139
 3345SOL     OW10933   5.616   5.673   0.821
 3345SOL    HW110934   5.668   5.682   0.736
 3345SOL    HW210935   5.518   5.674   0.800
 3346SOL     OW10936   2.073   0.760   6.905
 3346SOL    HW110937   2.110   0.758   6.998
 3346SOL    HW210938   2.011   0.839   6.896
 3347SOL     OW10939   0.592   3.378   5.650
 3347SOL    HW110940   0.681   3.341   5.622
 3347SOL    HW210941   0.519   3.314   5.621
 3348SOL     OW10942   3.545   4.305   6.034
 3348SOL    HW110943   3.638   4.295   6.068
 3348SOL    HW210944   3.496   4.218   6.042
 3349SOL     OW10945   2.105   5.872   2.501
 3349SOL    HW110946   2.113   5.891   2.403
 3349SOL    HW210947   2.196   5.849   2.537
 3350SOL     OW10948   1.790   4.959   4.230
 3350SOL    HW110949   1.699   4.941   4.191
 3350SOL    HW210950   1.782   4.972   4.328
 3351SOL     OW10951   5.466   0.821   1.888
 3351SOL    HW110952   5.538   0.854   1.949
 3351SOL    HW210953   5.404   0.897   1.867
 3352SOL     OW10954   5.745   1.700   6.976
 3352SOL    HW110955   5.714   1.605   6.972
 3352SOL    HW210956   5.838   1.703   7.012
 3353SOL     OW10957   4.090   0.104   6.855
 3353SOL    HW110958   4.007   0.078   6.805
 3353SOL    HW210959   4.067   0.169   6.927
 3354SOL     OW10960   2.995   3.934   6.515
 3354SOL    HW110961   3.084   3.974   6.496
 3354SOL    HW210962   2.933   3.954   6.439
 3355SOL     OW10963   1.337   0.102   5.095
 3355SOL    HW110964   1.252   0.144   5.128
 3355SOL    HW210965   1.341   0.107   4.995
 3356SOL     OW10966   2.037   0.414   6.514
 3356SOL    HW110967   1.979   0.375   6.585
 3356SOL    HW210968   2.006   0.507   6.492
 3357SOL     OW10969   3.222   3.031   2.704
 3357SOL    HW110970   3.182   3.043   2.613
 3357SOL    HW210971   3.154   3.054   2.774
 3358SOL     OW10972   6.970   0.974   1.936
 3358SOL    HW110973   6.881   0.987   1.891
 3358SOL    HW210974   0.008   1.046   1.907
 3359SOL     OW10975   0.872   6.380   4.859
 3359SOL    HW110976   0.827   6.460   4.898
 3359SOL    HW210977   0.944   6.349   4.921
 3360SOL     OW10978   2.284   4.974   4.182
 3360SOL    HW110979   2.195   5.017   4.164
 3360SOL    HW210980   2.304   4.906   4.112
 3361SOL     OW10981   6.853   6.764   5.837
 3361SOL    HW110982   6.814   6.672   5.830
 3361SOL    HW210983   6.811   6.824   5.770
 3362SOL     OW10984   3.828   0.271   3.925
 3362SOL    HW110985   3.738   0.245   3.959
 3362SOL    HW210986   3.871   0.335   3.988
 3363SOL     OW10987   5.826   4.292   0.235
 3363SOL    HW110988   5.767   4.215   0.258
 3363SOL    HW210989   5.815   4.315   0.138
 3364SOL     OW10990   1.835   3.708   2.560
 3364SOL    HW110991   1.877   3.744   2.476
 3364SOL    HW210992   1.886   3.741   2.639
 3365SOL     OW10993   1.147   3.580   3.098
 3365SOL    HW110994   1.195   3.656   3.142
 3365SOL    HW210995   1.211   3.531   3.038
 3366SOL     OW10996   5.740   3.472   4.894
 3366SOL    HW110997   5.832   3.458   4.857
 3366SOL    HW210998   5.688   3.531   4.832
 3367SOL     OW10999   3.223   3.563   3.828
 3367SOL    HW111000   3.252   3.491   3.891
 3367SOL    HW211001   3.295   3.631   3.818
 3368SOL     OW11002   2.590   0.839   2.838
 3368SOL    HW111003   2.640   0.926   2.844
 3368SOL    HW211004   2.511   0.842   2.899
 3369SOL     OW11005   5.126   2.478   1.113
 3369SOL    HW111006   5.183   2.468   1.195
 3369SOL    HW211007   5.063   2.554   1.125
 3370SOL     OW11008   0.403   5.462   2.660
 3370SOL    HW111009   0.457   5.540   2.690
 3370SOL    HW211010   0.424   5.441   2.565
 3371SOL     OW11011   1.954   2.600   1.978
 3371SOL    HW111012   2.031   2.539   1.957
 3371SOL    HW211013   1.988   2.684   2.019
 3372SOL     OW11014   6.125   3.630   2.771
 3372SOL    HW111015   6.033   3.605   2.743
 3372SOL    HW211016   6.126   3.726   2.799
 3373SOL     OW11017   0.256   4.157   1.744
 3373SOL    HW111018   0.277   4.127   1.651
 3373SOL    HW211019   0.243   4.256   1.746
 3374SOL     OW11020   0.599   6.358   3.863
 3374SOL    HW111021   0.690   6.385   3.831
 3374SOL    HW211022   0.590   6.381   3.959
 3375SOL     OW11023   0.399   5.775   5.954
 3375SOL    HW111024   0.416   5.679   5.933
 3375SOL    HW211025   0.367   5.783   6.048
 3376SOL     OW11026   3.560   2.885   4.081
 3376SOL    HW111027   3.648   2.839   4.092
 3376SOL    HW211028   3.542   2.943   4.161
 3377SOL     OW11029   6.763   4.927   4.235
 3377SOL    HW111030   6.667   4.926   4.206
 3377SOL    HW211031   6.814   4.993   4.179
 3378SOL     OW11032   1.887   6.050   1.121
 3378SOL    HW111033   1.974   6.051   1.072
 3378SOL    HW211034   1.832   5.972   1.090
 3379SOL     OW11035   6.188   3.786   4.479
 3379SOL    HW111036   6.272   3.732   4.473
 3379SOL    HW211037   6.205   3.879   4.448
 3380SOL     OW11038   2.637   4.513   0.596
 3380SOL    HW111039   2.683   4.570   0.665
 3380SOL    HW211040   2.675   4.534   0.506
 3381SOL     OW11041   2.200   3.889   5.829
 3381SOL    HW111042   2.264   3.869   5.903
 3381SOL    HW211043   2.250   3.894   5.742
 3382SOL     OW11044   6.764   3.686   6.927
 3382SOL    HW111045   6.745   3.766   6.984
 3382SOL    HW211046   6.862   3.666   6.929
 3383SOL     OW11047   4.355   5.575   0.001
 3383SOL    HW111048   4.293   5.513   0.049
 3383SOL    HW211049   4.339   5.567   6.927
 3384SOL     OW11050   2.596   3.254   6.311
 3384SOL    HW111051   2.681   3.296   6.278
 3384SOL    HW211052   2.518   3.300   6.268
 3385SOL     OW11053   6.220   2.190   4.324
 3385SOL    HW111054   6.320   2.194   4.325
 3385SOL    HW211055   6.189   2.145   4.241
 3386SOL     OW11056   0.275   6.053   4.500
 3386SOL    HW111057   0.237   6.045   4.408
 3386SOL    HW211058   0.328   5.971   4.521
 3387SOL     OW11059   5.909   0.971   3.040
 3387SOL    HW111060   5.922   1.056   3.091
 3387SOL    HW211061   5.813   0.962   3.015
 3388SOL     OW11062   6.704   4.283   0.879
 3388SOL    HW111063   6.709   4.192   0.836
 3388SOL    HW211064   6.650   4.344   0.821
 3389SOL     OW11065   5.732   5.550   6.355
 3389SOL    HW111066   5.678   5.466   6.345
 3389SOL    HW211067   5.804   5.551   6.286
 3390SOL     OW11068   3.047   5.339   0.086
 3390SOL    HW111069   2.966   5.385   0.121
 3390SOL    HW211070   3.050   5.245   0.122
 3391SOL     OW11071   4.675   4.216   4.631
 3391SOL    HW111072   4.667   4.118   4.649
 3391SOL    HW211073   4.770   4.237   4.605
 3392SOL     OW11074   4.561   6.314   6.332
 3392SOL    HW111075   4.643   6.363   6.304
 3392SOL    HW211076   4.585   6.220   6.358
 3393SOL     OW11077   3.577   6.251   0.517
 3393SOL    HW111078   3.606   6.199   0.437
 3393SOL    HW211079   3.633   6.225   0.596
 3394SOL     OW11080   2.959   5.292   1.376
 3394SOL    HW111081   3.021   5.221   1.408
 3394SOL    HW211082   2.949   5.362   1.447
 3395SOL     OW11083   1.756   6.971   2.919
 3395SOL    HW111084   1.788   0.037   2.894
 3395SOL    HW211085   1.763   6.959   3.018
 3396SOL     OW11086   4.581   7.013   4.035
 3396SOL    HW111087   4.658   6.951   4.054
 3396SOL    HW211088   4.503   6.960   4.002
 3397SOL     OW11089   2.417   5.774   6.544
 3397SOL    HW111090   2.509   5.803   6.571
 3397SOL    HW211091   2.423   5.699   6.479
 3398SOL     OW11092   6.842   1.811   5.503
 3398SOL    HW111093   6.925   1.762   5.528
 3398SOL    HW211094   6.867   1.901   5.466
 3399SOL     OW11095   6.599   5.986   2.132
 3399SOL    HW111096   6.678   5.925   2.127
 3399SOL    HW211097   6.612   6.052   2.206
 3400SOL     OW11098   3.977   3.044   5.627
 3400SOL    HW111099   4.024   3.091   5.701
 3400SOL    HW211100   3.893   3.092   5.604
 3401SOL     OW11101   6.987   3.940   4.462
 3401SOL    HW111102   6.932   3.863   4.493
 3401SOL    HW211103   6.940   4.026   4.484
 3402SOL     OW11104   6.557   3.733   0.703
 3402SOL    HW111105   6.510   3.644   0.708
 3402SOL    HW211106   6.525   3.783   0.624
 3403SOL     OW11107   5.256   0.015   6.776
 3403SOL    HW111108   5.174   0.035   6.723
 3403SOL    HW211109   5.287   6.947   6.756
 3404SOL     OW11110   5.176   4.889   4.112
 3404SOL    HW111111   5.134   4.837   4.037
 3404SOL    HW211112   5.272   4.907   4.090
 3405SOL     OW11113   3.992   6.025   6.922
 3405SOL    HW111114   4.000   5.931   6.958
 3405SOL    HW211115   3.983   6.021   6.823
 3406SOL     OW11116   3.168   5.372   1.204
 3406SOL    HW111117   3.099   5.338   1.268
 3406SOL    HW211118   3.214   5.452   1.245
 3407SOL     OW11119   1.096   4.254   6.451
 3407SOL    HW111120   1.111   4.191   6.528
 3407SOL    HW211121   1.007   4.298   6.461
 3408SOL     OW11122   5.132   0.191   3.423
 3408SOL    HW111123   5.092   0.226   3.508
 3408SOL    HW211124   5.216   0.141   3.443
 3409SOL     OW11125   4.168   1.484   0.064
 3409SOL    HW111126   4.113   1.530   0.134
 3409SOL    HW211127   4.113   1.475   7.005
 3410SOL     OW11128   6.266   0.537   3.010
 3410SOL    HW111129   6.171   0.562   3.030
 3410SOL    HW211130   6.277   0.525   2.911
 3411SOL     OW11131   6.036   3.314   5.675
 3411SOL    HW111132   6.059   3.409   5.699
 3411SOL    HW211133   6.035   3.305   5.576
 3412SOL     OW11134   5.455   3.521   2.361
 3412SOL    HW111135   5.459   3.556   2.267
 3412SOL    HW211136   5.360   3.499   2.384
 3413SOL     OW11137   6.404   1.570   0.670
 3413SOL    HW111138   6.450   1.499   0.618
 3413SOL    HW211139   6.337   1.528   0.732
 3414SOL     OW11140   3.512   3.403   1.640
 3414SOL    HW111141   3.443   3.339   1.674
 3414SOL    HW211142   3.545   3.373   1.550
 3415SOL     OW11143   2.105   1.817   5.614
 3415SOL    HW111144   2.010   1.812   5.643
 3415SOL    HW211145   2.142   1.724   5.603
 3416SOL     OW11146   6.416   6.700   0.112
 3416SOL    HW111147   6.385   6.750   0.031
 3416SOL    HW211148   6.337   6.664   0.162
 3417SOL     OW11149   6.548   6.996   3.204
 3417SOL    HW111150   6.604   0.025   3.266
 3417SOL    HW211151   6.547   0.015   3.114
 3418SOL     OW11152   4.283   5.793   0.180
 3418SOL    HW111153   4.286   5.887   0.145
 3418SOL    HW211154   4.332   5.732   0.119
 3419SOL     OW11155   2.263   4.999   5.137
 3419SOL    HW111156   2.255   4.919   5.077
 3419SOL    HW211157   2.357   5.034   5.132
 3420SOL     OW11158   4.140   1.596   2.291
 3420SOL    HW111159   4.049   1.555   2.296
 3420SOL    HW211160   4.193   1.548   2.221
 3421SOL     OW11161   0.071   1.780   5.227
 3421SOL    HW111162   0.156   1.767   5.176
 3421SOL    HW211163   0.043   1.693   5.267
 3422SOL     OW11164   3.035   6.782   0.910
 3422SOL    HW111165   2.992   6.695   0.935
 3422SOL    HW211166   2.964   6.852   0.903
 3423SOL     OW11167   2.429   4.801   5.363
 3423SOL    HW111168   2.342   4.758   5.340
 3423SOL    HW211169   2.504   4.739   5.339
 3424SOL     OW11170   5.427   0.770   2.252
 3424SOL    HW111171   5.494   0.817   2.195
 3424SOL    HW211172   5.394   0.832   2.324
 3425SOL     OW11173   6.566   3.674   6.066
 3425SOL    HW111174   6.466   3.675   6.063
 3425SOL    HW211175   6.602   3.748   6.010
 3426SOL     OW11176   6.325   4.144   0.337
 3426SOL    HW111177   6.231   4.110   0.335
 3426SOL    HW211178   6.388   4.071   0.311
 3427SOL     OW11179   1.342   2.248   0.238
 3427SOL    HW111180   1.309   2.279   0.327
 3427SOL    HW211181   1.420   2.187   0.250
 3428SOL     OW11182   4.745   6.807   4.886
 3428SOL    HW111183   4.680   6.843   4.818
 3428SOL    HW211184   4.837   6.841   4.864
 3429SOL     OW11185   4.326   6.729   0.914
 3429SOL    HW111186   4.396   6.781   0.963
 3429SOL    HW211187   4.367   6.646   0.876
 3430SOL     OW11188   2.736   4.039   6.394
 3430SOL    HW111189   2.719   4.127   6.438
 3430SOL    HW211190   2.665   3.974   6.421
 3431SOL     OW11191   0.664   4.383   2.518
 3431SOL    HW111192   0.601   4.316   2.557
 3431SOL    HW211193   0.631   4.412   2.429
 3432SOL     OW11194   0.691   4.576   0.308
 3432SOL    HW111195   0.714   4.625   0.392
 3432SOL    HW211196   0.772   4.573   0.249
 3433SOL     OW11197   2.148   0.760   0.146
 3433SOL    HW111198   2.062   0.739   0.194
 3433SOL    HW211199   2.170   0.856   0.158
 3434SOL     OW11200   3.613   2.606   1.740
 3434SOL    HW111201   3.516   2.613   1.715
 3434SOL    HW211202   3.629   2.518   1.785
 3435SOL     OW11203   1.642   2.281   1.183
 3435SOL    HW111204   1.626   2.183   1.197
 3435SOL    HW211205   1.689   2.319   1.262
 3436SOL     OW11206   4.056   6.850   6.301
 3436SOL    HW111207   3.993   6.778   6.271
 3436SOL    HW211208   4.049   6.862   6.400
 3437SOL     OW11209   1.471   0.227   6.987
 3437SOL    HW111210   1.430   0.137   7.005
 3437SOL    HW211211   1.488   0.236   6.889
 3438SOL     OW11212   2.593   4.036   0.830
 3438SOL    HW111213   2.552   4.101   0.765
 3438SOL    HW211214   2.588   4.074   0.922
 3439SOL     OW11215   2.880   5.771   0.728
 3439SOL    HW111216   2.803   5.712   0.705
 3439SOL    HW211217   2.879   5.852   0.671
 3440SOL     OW11218   3.413   3.840   5.543
 3440SOL    HW111219   3.495   3.876   5.587
 3440SOL    HW211220   3.358   3.791   5.611
 3441SOL     OW11221   6.201   4.750   5.236
 3441SOL    HW111222   6.298   4.744   5.260
 3441SOL    HW211223   6.165   4.839   5.265
 3442SOL     OW11224   1.671   2.747   1.214
 3442SOL    HW111225   1.752   2.694   1.189
 3442SOL    HW211226   1.698   2.821   1.276
 3443SOL     OW11227   0.393   6.186   2.083
 3443SOL    HW111228   0.488   6.213   2.101
 3443SOL    HW211229   0.390   6.117   2.011
 3444SOL     OW11230   6.874   4.068   5.578
 3444SOL    HW111231   6.919   4.015   5.507
 3444SOL    HW211232   6.928   4.149   5.599
 3445SOL     OW11233   6.362   4.798   4.456
 3445SOL    HW111234   6.400   4.732   4.521
 3445SOL    HW211235   6.422   4.802   4.376
 3446SOL     OW11236   4.826   1.385   0.820
 3446SOL    HW111237   4.817   1.485   0.822
 3446SOL    HW211238   4.816   1.353   0.726
 3447SOL     OW11239   5.722   1.001   6.460
 3447SOL    HW111240   5.627   0.970   6.470
 3447SOL    HW211241   5.757   0.970   6.371
 3448SOL     OW11242   1.172   4.480   4.625
 3448SOL    HW111243   1.078   4.482   4.657
 3448SOL    HW211244   1.209   4.387   4.636
 3449SOL     OW11245   0.807   4.376   5.053
 3449SOL    HW111246   0.812   4.453   5.117
 3449SOL    HW211247   0.714   4.368   5.017
 3450SOL     OW11248   2.477   0.308   1.932
 3450SOL    HW111249   2.484   0.331   2.029
 3450SOL    HW211250   2.516   0.217   1.917
 3451SOL     OW11251   1.635   2.148   0.811
 3451SOL    HW111252   1.549   2.158   0.861
 3451SOL    HW211253   1.621   2.177   0.716
 3452SOL     OW11254   4.086   1.481   5.527
 3452SOL    HW111255   4.072   1.553   5.595
 3452SOL    HW211256   4.145   1.410   5.566
 3453SOL     OW11257   4.517   6.524   6.692
 3453SOL    HW111258   4.561   6.576   6.765
 3453SOL    HW211259   4.521   6.427   6.713
 3454SOL     OW11260   0.292   3.112   1.724
 3454SOL    HW111261   0.221   3.183   1.728
 3454SOL    HW211262   0.368   3.144   1.669
 3455SOL     OW11263   0.598   3.856   6.226
 3455SOL    HW111264   0.599   3.770   6.174
 3455SOL    HW211265   0.591   3.933   6.163
 3456SOL     OW11266   4.933   5.941   3.574
 3456SOL    HW111267   4.966   5.904   3.661
 3456SOL    HW211268   4.835   5.959   3.581
 3457SOL     OW11269   3.621   4.440   6.726
 3457SOL    HW111270   3.523   4.439   6.709
 3457SOL    HW211271   3.668   4.482   6.648
 3458SOL     OW11272   4.236   1.810   2.427
 3458SOL    HW111273   4.202   1.721   2.396
 3458SOL    HW211274   4.166   1.856   2.481
 3459SOL     OW11275   5.394   5.910   2.222
 3459SOL    HW111276   5.409   5.987   2.160
 3459SOL    HW211277   5.385   5.945   2.316
 3460SOL     OW11278   3.662   2.019   4.676
 3460SOL    HW111279   3.581   2.011   4.734
 3460SOL    HW211280   3.728   2.081   4.719
 3461SOL     OW11281   4.973   4.999   4.420
 3461SOL    HW111282   4.970   4.920   4.481
 3461SOL    HW211283   4.942   4.971   4.328
 3462SOL     OW11284   1.007   3.865   6.083
 3462SOL    HW111285   0.944   3.921   6.030
 3462SOL    HW211286   1.076   3.923   6.126
 3463SOL     OW11287   5.727   4.065   0.377
 3463SOL    HW111288   5.641   4.113   0.357
 3463SOL    HW211289   5.720   4.018   0.465
 3464SOL     OW11290   0.214   4.458   4.183
 3464SOL    HW111291   0.297   4.436   4.132
 3464SOL    HW211292   0.161   4.375   4.199
 3465SOL     OW11293   0.642   2.233   2.342
 3465SOL    HW111294   0.715   2.196   2.400
 3465SOL    HW211295   0.610   2.162   2.280
 3466SOL     OW11296   0.284   3.403   4.685
 3466SOL    HW111297   0.195   3.438   4.655
 3466SOL    HW211298   0.287   3.304   4.672
 3467SOL     OW11299   1.819   2.166   5.285
 3467SOL    HW111300   1.911   2.204   5.284
 3467SOL    HW211301   1.813   2.093   5.353
 3468SOL     OW11302   3.772   6.098   2.079
 3468SOL    HW111303   3.748   6.097   2.176
 3468SOL    HW211304   3.781   6.003   2.047
 3469SOL     OW11305   5.524   3.697   1.170
 3469SOL    HW111306   5.615   3.735   1.187
 3469SOL    HW211307   5.454   3.758   1.208
 3470SOL     OW11308   0.325   5.414   1.307
 3470SOL    HW111309   0.384   5.488   1.339
 3470SOL    HW211310   0.359   5.380   1.219
 3471SOL     OW11311   4.254   6.965   4.472
 3471SOL    HW111312   4.278   7.005   4.383
 3471SOL    HW211313   4.326   6.985   4.538
 3472SOL     OW11314   4.369   1.160   5.008
 3472SOL    HW111315   4.435   1.102   5.055
 3472SOL    HW211316   4.320   1.106   4.939
 3473SOL     OW11317   3.932   0.012   3.998
 3473SOL    HW111318   3.902   0.085   3.937
 3473SOL    HW211319   3.873   0.010   4.079
 3474SOL     OW11320   4.928   4.435   1.175
 3474SOL    HW111321   4.918   4.336   1.164
 3474SOL    HW211322   5.016   4.464   1.137
 3475SOL     OW11323   1.681   6.129   4.860
 3475SOL    HW111324   1.609   6.095   4.800
 3475SOL    HW211325   1.771   6.110   4.819
 3476SOL     OW11326   4.462   1.906   5.095
 3476SOL    HW111327   4.511   1.989   5.071
 3476SOL    HW211328   4.515   1.826   5.064
 3477SOL     OW11329   4.108   5.527   1.656
 3477SOL    HW111330   4.194   5.480   1.635
 3477SOL    HW211331   4.111   5.620   1.619
 3478SOL     OW11332   4.269   4.405   0.232
 3478SOL    HW111333   4.279   4.428   0.135
 3478SOL    HW211334   4.247   4.308   0.242
 3479SOL     OW11335   1.588   0.085   1.630
 3479SOL    HW111336   1.545   0.002   1.666
 3479SOL    HW211337   1.618   0.069   1.536
 3480SOL     OW11338   0.953   6.989   4.074
 3480SOL    HW111339   1.030   6.929   4.054
 3480SOL    HW211340   0.885   6.982   4.001
 3481SOL     OW11341   1.808   6.361   0.237
 3481SOL    HW111342   1.839   6.281   0.288
 3481SOL    HW211343   1.817   6.343   0.139
 3482SOL     OW11344   1.009   2.358   2.278
 3482SOL    HW111345   0.933   2.406   2.235
 3482SOL    HW211346   1.015   2.265   2.241
 3483SOL     OW11347   3.819   1.756   0.534
 3483SOL    HW111348   3.900   1.699   0.525
 3483SOL    HW211349   3.845   1.848   0.564
 3484SOL     OW11350   3.860   3.056   3.907
 3484SOL    HW111351   3.907   3.068   3.820
 3484SOL    HW211352   3.761   3.055   3.892
 3485SOL     OW11353   6.400   1.890   4.821
 3485SOL    HW111354   6.448   1.860   4.903
 3485SOL    HW211355   6.309   1.848   4.819
 3486SOL     OW11356   5.071   0.746   2.672
 3486SOL    HW111357   5.071   0.841   2.703
 3486SOL    HW211358   5.066   0.685   2.752
 3487SOL     OW11359   0.555   0.851   0.731
 3487SOL    HW111360   0.516   0.904   0.656
 3487SOL    HW211361   0.540   0.898   0.817
 3488SOL     OW11362   6.154   3.507   4.268
 3488SOL    HW111363   6.161   3.561   4.352
 3488SOL    HW211364   6.176   3.411   4.288
 3489SOL     OW11365   2.093   5.241   0.731
 3489SOL    HW111366   2.057   5.166   0.785
 3489SOL    HW211367   2.020   5.307   0.712
 3490SOL     OW11368   4.620   2.874   1.044
 3490SOL    HW111369   4.648   2.962   1.006
 3490SOL    HW211370   4.522   2.860   1.028
 3491SOL     OW11371   0.456   2.947   5.960
 3491SOL    HW111372   0.447   3.035   5.913
 3491SOL    HW211373   0.514   2.886   5.907
 3492SOL     OW11374   5.886   4.623   0.001
 3492SOL    HW111375   5.808   4.588   0.053
 3492SOL    HW211376   5.960   4.646   0.065
 3493SOL     OW11377   7.014   4.935   1.679
 3493SOL    HW111378   6.974   4.942   1.770
 3493SOL    HW211379   6.957   4.876   1.622
 3494SOL     OW11380   2.721   6.773   1.111
 3494SOL    HW111381   2.710   6.674   1.115
 3494SOL    HW211382   2.635   6.817   1.136
 3495SOL     OW11383   5.999   4.246   0.437
 3495SOL    HW111384   6.013   4.148   0.425
 3495SOL    HW211385   5.938   4.281   0.366
 3496SOL     OW11386   0.895   4.723   0.784
 3496SOL    HW111387   0.819   4.741   0.847
 3496SOL    HW211388   0.957   4.657   0.826
 3497SOL     OW11389   4.517   6.400   4.455
 3497SOL    HW111390   4.544   6.307   4.428
 3497SOL    HW211391   4.519   6.460   4.375
 3498SOL     OW11392   1.376   1.564   0.938
 3498SOL    HW111393   1.412   1.495   0.875
 3498SOL    HW211394   1.444   1.636   0.952
 3499SOL     OW11395   0.227   3.925   4.411
 3499SOL    HW111396   0.134   3.948   4.439
 3499SOL    HW211397   0.249   3.971   4.325
 3500SOL     OW11398   6.366   3.508   0.763
 3500SOL    HW111399   6.365   3.485   0.666
 3500SOL    HW211400   6.394   3.427   0.816
 3501SOL     OW11401   1.004   4.110   3.236
 3501SOL    HW111402   0.996   4.197   3.188
 3501SOL    HW211403   1.099   4.081   3.237
 3502SOL     OW11404   0.877   4.937   1.834
 3502SOL    HW111405   0.795   4.981   1.797
 3502SOL    HW211406   0.958   4.981   1.795
 3503SOL     OW11407   3.495   6.614   3.652
 3503SOL    HW111408   3.441   6.698   3.645
 3503SOL    HW211409   3.585   6.628   3.611
 3504SOL     OW11410   2.303   2.819   2.798
 3504SOL    HW111411   2.272   2.738   2.848
 3504SOL    HW211412   2.309   2.896   2.861
 3505SOL     OW11413   4.311   6.350   4.845
 3505SOL    HW111414   4.306   6.421   4.775
 3505SOL    HW211415   4.393   6.294   4.830
 3506SOL     OW11416   5.640   5.123   2.359
 3506SOL    HW111417   5.555   5.152   2.403
 3506SOL    HW211418   5.622   5.043   2.301
 3507SOL     OW11419   0.635   0.719   6.433
 3507SOL    HW111420   0.674   0.631   6.406
 3507SOL    HW211421   0.564   0.746   6.368
 3508SOL     OW11422   6.091   3.970   0.070
 3508SOL    HW111423   6.110   3.890   0.013
 3508SOL    HW211424   6.156   4.043   0.046
 3509SOL     OW11425   5.987   0.507   0.595
 3509SOL    HW111426   6.040   0.422   0.593
 3509SOL    HW211427   5.909   0.500   0.532
 3510SOL     OW11428   2.146   2.511   2.327
 3510SOL    HW111429   2.200   2.476   2.403
 3510SOL    HW211430   2.127   2.437   2.262
 3511SOL     OW11431   0.748   0.867   5.169
 3511SOL    HW111432   0.800   0.821   5.097
 3511SOL    HW211433   0.692   0.939   5.129
 3512SOL     OW11434   2.938   2.742   0.941
 3512SOL    HW111435   2.853   2.693   0.924
 3512SOL    HW211436   2.918   2.840   0.954
 3513SOL     OW11437   5.126   4.731   1.070
 3513SOL    HW111438   5.040   4.761   1.030
 3513SOL    HW211439   5.143   4.635   1.047
 3514SOL     OW11440   1.904   7.005   1.713
 3514SOL    HW111441   1.917   6.928   1.775
 3514SOL    HW211442   1.902   6.973   1.618
 3515SOL     OW11443   3.824   6.319   3.575
 3515SOL    HW111444   3.895   6.383   3.547
 3515SOL    HW211445   3.840   6.230   3.531
 3516SOL     OW11446   2.222   1.279   0.503
 3516SOL    HW111447   2.251   1.272   0.408
 3516SOL    HW211448   2.205   1.375   0.526
 3517SOL     OW11449   0.768   0.526   6.293
 3517SOL    HW111450   0.775   0.465   6.214
 3517SOL    HW211451   0.855   0.573   6.307
 3518SOL     OW11452   4.499   3.773   5.670
 3518SOL    HW111453   4.406   3.782   5.706
 3518SOL    HW211454   4.560   3.743   5.742
 3519SOL     OW11455   3.555   6.804   0.477
 3519SOL    HW111456   3.514   6.725   0.432
 3519SOL    HW211457   3.531   6.887   0.427
 3520SOL     OW11458   3.975   4.743   1.104
 3520SOL    HW111459   3.908   4.818   1.105
 3520SOL    HW211460   3.981   4.703   1.196
 3521SOL     OW11461   5.584   2.518   5.991
 3521SOL    HW111462   5.515   2.449   5.973
 3521SOL    HW211463   5.646   2.524   5.913
 3522SOL     OW11464   2.671   0.192   0.942
 3522SOL    HW111465   2.744   0.234   0.996
 3522SOL    HW211466   2.678   0.092   0.948
 3523SOL     OW11467   2.627   4.574   5.216
 3523SOL    HW111468   2.613   4.626   5.131
 3523SOL    HW211469   2.721   4.539   5.218
 3524SOL     OW11470   1.999   0.271   1.746
 3524SOL    HW111471   2.082   0.245   1.795
 3524SOL    HW211472   1.944   0.190   1.728
 3525SOL     OW11473   1.615   3.757   3.018
 3525SOL    HW111474   1.582   3.777   2.926
 3525SOL    HW211475   1.632   3.843   3.066
 3526SOL     OW11476   3.888   0.052   3.446
 3526SOL    HW111477   3.816   7.017   3.480
 3526SOL    HW211478   3.886   0.139   3.496
 3527SOL     OW11479   5.366   2.849   6.191
 3527SOL    HW111480   5.359   2.810   6.099
 3527SOL    HW211481   5.424   2.931   6.187
 3528SOL     OW11482   1.152   0.033   4.547
 3528SOL    HW111483   1.216   6.997   4.594
 3528SOL    HW211484   1.146   0.008   4.450
 3529SOL     OW11485   4.182   6.313   0.275
 3529SOL    HW111486   4.185   6.370   0.193
 3529SOL    HW211487   4.101   6.337   0.329
 3530SOL     OW11488   1.478   6.432   2.954
 3530SOL    HW111489   1.381   6.428   2.979
 3530SOL    HW211490   1.532   6.457   3.034
 3531SOL     OW11491   4.721   4.541   6.657
 3531SOL    HW111492   4.791   4.477   6.625
 3531SOL    HW211493   4.737   4.631   6.617
 3532SOL     OW11494   1.716   6.689   0.711
 3532SOL    HW111495   1.773   6.764   0.676
 3532SOL    HW211496   1.775   6.620   0.754
 3533SOL     OW11497   1.344   1.534   3.638
 3533SOL    HW111498   1.307   1.464   3.576
 3533SOL    HW211499   1.272   1.601   3.659
 3534SOL     OW11500   5.198   0.674   5.136
 3534SOL    HW111501   5.122   0.739   5.130
 3534SOL    HW211502   5.257   0.684   5.056
 3535SOL     OW11503   4.706   6.293   6.817
 3535SOL    HW111504   4.760   6.240   6.752
 3535SOL    HW211505   4.612   6.260   6.816
 3536SOL     OW11506   0.689   3.956   2.729
 3536SOL    HW111507   0.631   3.888   2.775
 3536SOL    HW211508   0.776   3.964   2.778
 3537SOL     OW11509   2.489   4.163   1.346
 3537SOL    HW111510   2.430   4.238   1.375
 3537SOL    HW211511   2.564   4.151   1.411
 3538SOL     OW11512   4.226   0.994   3.659
 3538SOL    HW111513   4.316   0.988   3.616
 3538SOL    HW211514   4.232   1.050   3.741
 3539SOL     OW11515   5.359   5.855   6.467
 3539SOL    HW111516   5.399   5.765   6.484
 3539SOL    HW211517   5.413   5.925   6.512
 3540SOL     OW11518   2.380   4.487   6.024
 3540SOL    HW111519   2.394   4.413   6.090
 3540SOL    HW211520   2.468   4.527   5.999
 3541SOL     OW11521   1.548   2.727   1.983
 3541SOL    HW111522   1.620   2.797   1.984
 3541SOL    HW211523   1.582   2.645   1.937
 3542SOL     OW11524   6.320   1.662   6.832
 3542SOL    HW111525   6.384   1.737   6.845
 3542SOL    HW211526   6.275   1.640   6.918
 3543SOL     OW11527   0.560   2.171   3.838
 3543SOL    HW111528   0.611   2.111   3.901
 3543SOL    HW211529   0.529   2.117   3.760
 3544SOL     OW11530   3.133   3.869   0.172
 3544SOL    HW111531   3.208   3.900   0.114
 3544SOL    HW211532   3.046   3.889   0.127
 3545SOL     OW11533   3.806   0.102   0.233
 3545SOL    HW111534   3.811   0.027   0.299
 3545SOL    HW211535   3.730   0.162   0.256
 3546SOL     OW11536   6.684   4.236   1.983
 3546SOL    HW111537   6.729   4.226   1.894
 3546SOL    HW211538   6.587   4.258   1.969
 3547SOL     OW11539   1.176   3.823   4.804
 3547SOL    HW111540   1.256   3.779   4.764
 3547SOL    HW211541   1.145   3.898   4.745
 3548SOL     OW11542   6.160   0.010   6.180
 3548SOL    HW111543   6.070   0.016   6.139
 3548SOL    HW211544   6.217   0.085   6.148
 3549SOL     OW11545   2.601   6.586   6.865
 3549SOL    HW111546   2.531   6.643   6.822
 3549SOL    HW211547   2.565   6.547   6.950
 3550SOL     OW11548   5.419   1.005   5.332
 3550SOL    HW111549   5.378   0.913   5.333
 3550SOL    HW211550   5.450   1.028   5.424
 3551SOL     OW11551   5.138   1.972   4.745
 3551SOL    HW111552   5.125   1.949   4.649
 3551SOL    HW211553   5.064   1.932   4.800
 3552SOL     OW11554   6.352   0.022   3.629
 3552SOL    HW111555   6.330   7.010   3.538
 3552SOL    HW211556   6.400   0.109   3.619
 3553SOL     OW11557   6.151   6.077   6.843
 3553SOL    HW111558   6.194   6.153   6.892
 3553SOL    HW211559   6.148   6.098   6.745
 3554SOL     OW11560   5.101   4.666   0.205
 3554SOL    HW111561   5.023   4.608   0.227
 3554SOL    HW211562   5.105   4.680   0.106
 3555SOL     OW11563   2.804   1.831   5.208
 3555SOL    HW111564   2.855   1.897   5.264
 3555SOL    HW211565   2.756   1.767   5.268
 3556SOL     OW11566   5.533   1.224   0.775
 3556SOL    HW111567   5.486   1.299   0.822
 3556SOL    HW211568   5.592   1.261   0.703
 3557SOL     OW11569   5.438   6.845   1.448
 3557SOL    HW111570   5.492   6.852   1.364
 3557SOL    HW211571   5.347   6.885   1.433
 3558SOL     OW11572   3.590   5.586   2.461
 3558SOL    HW111573   3.600   5.487   2.463
 3558SOL    HW211574   3.493   5.610   2.454
 3559SOL     OW11575   4.801   6.452   6.556
 3559SOL    HW111576   4.706   6.428   6.573
 3559SOL    HW211577   4.861   6.395   6.613
 3560SOL     OW11578   0.853   5.569   4.115
 3560SOL    HW111579   0.893   5.641   4.171
 3560SOL    HW211580   0.840   5.487   4.171
 3561SOL     OW11581   4.570   3.389   5.356
 3561SOL    HW111582   4.474   3.377   5.330
 3561SOL    HW211583   4.614   3.450   5.291
 3562SOL     OW11584   3.243   1.955   0.451
 3562SOL    HW111585   3.261   1.907   0.365
 3562SOL    HW211586   3.151   1.933   0.483
 3563SOL     OW11587   6.680   2.433   6.276
 3563SOL    HW111588   6.759   2.400   6.327
 3563SOL    HW211589   6.709   2.501   6.209
 3564SOL     OW11590   6.310   3.709   2.431
 3564SOL    HW111591   6.271   3.622   2.461
 3564SOL    HW211592   6.277   3.731   2.339
 3565SOL     OW11593   4.655   5.895   5.955
 3565SOL    HW111594   4.678   5.800   5.934
 3565SOL    HW211595   4.626   5.942   5.872
 3566SOL     OW11596   1.287   0.805   4.886
 3566SOL    HW111597   1.323   0.718   4.920
 3566SOL    HW211598   1.311   0.878   4.950
 3567SOL     OW11599   0.097   3.808   6.594
 3567SOL    HW111600   0.074   3.896   6.637
 3567SOL    HW211601   0.019   3.746   6.601
 3568SOL     OW11602   5.958   3.457   6.397
 3568SOL    HW111603   5.898   3.377   6.404
 3568SOL    HW211604   6.006   3.470   6.484
 3569SOL     OW11605   1.424   0.413   3.701
 3569SOL    HW111606   1.351   0.432   3.635
 3569SOL    HW211607   1.444   0.495   3.754
 3570SOL     OW11608   5.675   1.433   4.629
 3570SOL    HW111609   5.774   1.432   4.642
 3570SOL    HW211610   5.651   1.376   4.550
 3571SOL     OW11611   6.794   6.695   5.220
 3571SOL    HW111612   6.768   6.787   5.250
 3571SOL    HW211613   6.776   6.686   5.122
 3572SOL     OW11614   6.435   6.539   5.852
 3572SOL    HW111615   6.400   6.597   5.926
 3572SOL    HW211616   6.391   6.449   5.856
 3573SOL     OW11617   0.451   1.898   2.292
 3573SOL    HW111618   0.397   1.929   2.371
 3573SOL    HW211619   0.469   1.974   2.231
 3574SOL     OW11620   6.097   4.007   0.348
 3574SOL    HW111621   6.074   3.926   0.401
 3574SOL    HW211622   6.114   3.981   0.253
 3575SOL     OW11623   6.662   5.730   1.704
 3575SOL    HW111624   6.648   5.813   1.651
 3575SOL    HW211625   6.573   5.692   1.730
 3576SOL     OW11626   0.601   1.374   6.784
 3576SOL    HW111627   0.673   1.443   6.773
 3576SOL    HW211628   0.538   1.379   6.707
 3577SOL     OW11629   2.218   3.173   6.693
 3577SOL    HW111630   2.306   3.174   6.645
 3577SOL    HW211631   2.173   3.262   6.681
 3578SOL     OW11632   3.651   4.370   1.694
 3578SOL    HW111633   3.646   4.345   1.790
 3578SOL    HW211634   3.663   4.287   1.639
 3579SOL     OW11635   1.636   4.344   5.191
 3579SOL    HW111636   1.553   4.293   5.214
 3579SOL    HW211637   1.709   4.279   5.168
 3580SOL     OW11638   6.972   2.969   1.456
 3580SOL    HW111639   6.946   2.951   1.551
 3580SOL    HW211640   0.047   2.976   1.450
 3581SOL     OW11641   5.465   1.380   3.200
 3581SOL    HW111642   5.379   1.365   3.151
 3581SOL    HW211643   5.491   1.477   3.195
 3582SOL     OW11644   0.264   0.397   5.361
 3582SOL    HW111645   0.345   0.412   5.417
 3582SOL    HW211646   0.274   0.313   5.308
 3583SOL     OW11647   2.062   5.372   1.475
 3583SOL    HW111648   2.160   5.359   1.459
 3583SOL    HW211649   2.036   5.465   1.450
 3584SOL     OW11650   5.750   6.915   5.767
 3584SOL    HW111651   5.683   6.879   5.701
 3584SOL    HW211652   5.842   6.894   5.735
 3585SOL     OW11653   2.389   4.823   3.968
 3585SOL    HW111654   2.462   4.887   3.943
 3585SOL    HW211655   2.421   4.729   3.958
 3586SOL     OW11656   0.666   1.527   5.982
 3586SOL    HW111657   0.748   1.558   5.935
 3586SOL    HW211658   0.616   1.606   6.017
 3587SOL     OW11659   3.902   0.199   6.665
 3587SOL    HW111660   3.886   0.294   6.693
 3587SOL    HW211661   3.885   0.191   6.566
 3588SOL     OW11662   2.029   1.137   5.161
 3588SOL    HW111663   2.124   1.157   5.184
 3588SOL    HW211664   2.026   1.078   5.080
 3589SOL     OW11665   3.556   0.337   4.771
 3589SOL    HW111666   3.557   0.391   4.687
 3589SOL    HW211667   3.480   0.272   4.769
 3590SOL     OW11668   1.063   5.066   7.016
 3590SOL    HW111669   1.102   4.992   6.960
 3590SOL    HW211670   1.004   5.123   6.959
 3591SOL     OW11671   5.456   2.287   5.828
 3591SOL    HW111672   5.385   2.345   5.790
 3591SOL    HW211673   5.441   2.274   5.926
 3592SOL     OW11674   5.206   2.371   1.891
 3592SOL    HW111675   5.256   2.284   1.901
 3592SOL    HW211676   5.157   2.391   1.976
 3593SOL     OW11677   0.573   4.855   4.048
 3593SOL    HW111678   0.658   4.902   4.068
 3593SOL    HW211679   0.567   4.837   3.949
 3594SOL     OW11680   4.188   1.274   4.588
 3594SOL    HW111681   4.159   1.284   4.683
 3594SOL    HW211682   4.282   1.306   4.577
 3595SOL     OW11683   1.959   6.036   6.069
 3595SOL    HW111684   1.915   6.094   6.138
 3595SOL    HW211685   2.054   6.020   6.095
 3596SOL     OW11686   0.306   3.786   3.402
 3596SOL    HW111687   0.373   3.833   3.460
 3596SOL    HW211688   0.342   3.696   3.376
 3597SOL     OW11689   3.523   6.388   3.539
 3597SOL    HW111690   3.492   6.471   3.584
 3597SOL    HW211691   3.620   6.374   3.557
 3598SOL     OW11692   1.441   0.101   0.715
 3598SOL    HW111693   1.531   0.061   0.698
 3598SOL    HW211694   1.370   0.036   0.689
 3599SOL     OW11695   6.723   1.541   4.103
 3599SOL    HW111696   6.776   1.462   4.133
 3599SOL    HW211697   6.769   1.584   4.026
 3600SOL     OW11698   6.539   0.808   1.429
 3600SOL    HW111699   6.582   0.867   1.361
 3600SOL    HW211700   6.480   0.741   1.384
 3601SOL     OW11701   5.978   3.271   5.421
 3601SOL    HW111702   5.886   3.266   5.383
 3601SOL    HW211703   6.044   3.284   5.347
 3602SOL     OW11704   2.534   1.950   0.534
 3602SOL    HW111705   2.568   1.977   0.444
 3602SOL    HW211706   2.471   1.873   0.524
 3603SOL     OW11707   4.737   4.730   4.515
 3603SOL    HW111708   4.682   4.773   4.443
 3603SOL    HW211709   4.694   4.643   4.541
 3604SOL     OW11710   0.132   3.659   3.746
 3604SOL    HW111711   0.135   3.613   3.658
 3604SOL    HW211712   0.225   3.687   3.772
 3605SOL     OW11713   6.420   3.034   6.535
 3605SOL    HW111714   6.440   3.018   6.632
 3605SOL    HW211715   6.504   3.055   6.486
 3606SOL     OW11716   1.922   4.135   4.068
 3606SOL    HW111717   1.909   4.158   3.972
 3606SOL    HW211718   1.886   4.044   4.087
 3607SOL     OW11719   4.370   6.757   6.898
 3607SOL    HW111720   4.312   6.828   6.937
 3607SOL    HW211721   4.369   6.764   6.798
 3608SOL     OW11722   0.357   2.822   2.615
 3608SOL    HW111723   0.258   2.831   2.628
 3608SOL    HW211724   0.376   2.757   2.542
 3609SOL     OW11725   6.710   6.930   5.263
 3609SOL    HW111726   6.723   0.004   5.258
 3609SOL    HW211727   6.613   6.909   5.250
 3610SOL     OW11728   1.692   5.866   5.338
 3610SOL    HW111729   1.694   5.766   5.334
 3610SOL    HW211730   1.661   5.901   5.249
 3611SOL     OW11731   4.051   5.334   5.230
 3611SOL    HW111732   3.984   5.285   5.175
 3611SOL    HW211733   4.048   5.431   5.207
 3612SOL     OW11734   1.846   6.763   1.142
 3612SOL    HW111735   1.941   6.789   1.160
 3612SOL    HW211736   1.826   6.777   1.045
 3613SOL     OW11737   5.038   5.004   6.401
 3613SOL    HW111738   4.988   5.073   6.452
 3613SOL    HW211739   5.097   4.952   6.464
 3614SOL     OW11740   4.053   3.607   4.050
 3614SOL    HW111741   4.107   3.631   3.970
 3614SOL    HW211742   4.012   3.517   4.037
 3615SOL     OW11743   6.618   6.212   6.320
 3615SOL    HW111744   6.565   6.262   6.251
 3615SOL    HW211745   6.606   6.114   6.306
 3616SOL     OW11746   6.536   0.421   5.278
 3616SOL    HW111747   6.609   0.367   5.237
 3616SOL    HW211748   6.447   0.385   5.248
 3617SOL     OW11749   6.870   0.763   7.009
 3617SOL    HW111750   6.912   0.854   7.014
 3617SOL    HW211751   6.772   0.773   6.996
 3618SOL     OW11752   3.091   0.345   5.888
 3618SOL    HW111753   3.172   0.289   5.902
 3618SOL    HW211754   3.023   0.325   5.959
 3619SOL     OW11755   5.223   3.470   4.073
 3619SOL    HW111756   5.273   3.555   4.058
 3619SOL    HW211757   5.125   3.490   4.082
 3620SOL     OW11758   6.341   0.849   5.214
 3620SOL    HW111759   6.268   0.901   5.169
 3620SOL    HW211760   6.416   0.835   5.149
 3621SOL     OW11761   1.540   3.016   5.766
 3621SOL    HW111762   1.611   3.070   5.811
 3621SOL    HW211763   1.456   3.020   5.820
 3622SOL     OW11764   0.469   2.948   0.763
 3622SOL    HW111765   0.412   2.988   0.835
 3622SOL    HW211766   0.411   2.920   0.687
 3623SOL     OW11767   7.001   5.352   4.031
 3623SOL    HW111768   6.922   5.381   4.085
 3623SOL    HW211769   6.992   5.388   3.937
 3624SOL     OW11770   2.008   1.367   1.683
 3624SOL    HW111771   1.987   1.335   1.591
 3624SOL    HW211772   1.987   1.465   1.691
 3625SOL     OW11773   0.653   3.306   4.492
 3625SOL    HW111774   0.593   3.386   4.500
 3625SOL    HW211775   0.697   3.307   4.402
 3626SOL     OW11776   2.422   3.689   5.336
 3626SOL    HW111777   2.437   3.782   5.302
 3626SOL    HW211778   2.354   3.644   5.278
 3627SOL     OW11779   2.908   3.475   3.615
 3627SOL    HW111780   2.881   3.486   3.711
 3627SOL    HW211781   3.007   3.492   3.608
 3628SOL     OW11782   3.307   5.185   2.970
 3628SOL    HW111783   3.262   5.159   3.055
 3628SOL    HW211784   3.243   5.177   2.894
 3629SOL     OW11785   6.018   2.378   5.316
 3629SOL    HW111786   5.979   2.371   5.408
 3629SOL    HW211787   5.957   2.332   5.251
 3630SOL     OW11788   5.635   2.053   5.008
 3630SOL    HW111789   5.602   1.965   4.973
 3630SOL    HW211790   5.713   2.084   4.954
 3631SOL     OW11791   2.045   0.911   4.323
 3631SOL    HW111792   2.107   0.850   4.372
 3631SOL    HW211793   2.052   0.893   4.224
 3632SOL     OW11794   4.238   0.086   6.336
 3632SOL    HW111795   4.271   0.180   6.329
 3632SOL    HW211796   4.252   0.040   6.248
 3633SOL     OW11797   2.194   3.281   5.815
 3633SOL    HW111798   2.213   3.191   5.853
 3633SOL    HW211799   2.204   3.279   5.716
 3634SOL     OW11800   2.403   5.927   5.327
 3634SOL    HW111801   2.328   5.900   5.267
 3634SOL    HW211802   2.398   5.875   5.413
 3635SOL     OW11803   2.026   0.872   5.043
 3635SOL    HW111804   2.006   0.774   5.054
 3635SOL    HW211805   1.982   0.906   4.959
 3636SOL     OW11806   1.294   5.402   6.564
 3636SOL    HW111807   1.258   5.472   6.504
 3636SOL    HW211808   1.290   5.313   6.518
 3637SOL     OW11809   5.367   1.663   2.050
 3637SOL    HW111810   5.336   1.749   2.092
 3637SOL    HW211811   5.356   1.588   2.115
 3638SOL     OW11812   6.501   4.425   4.082
 3638SOL    HW111813   6.468   4.448   3.990
 3638SOL    HW211814   6.576   4.486   4.107
 3639SOL     OW11815   2.411   5.068   0.108
 3639SOL    HW111816   2.386   5.102   0.198
 3639SOL    HW211817   2.440   4.973   0.115
 3640SOL     OW11818   3.426   6.150   1.254
 3640SOL    HW111819   3.449   6.083   1.184
 3640SOL    HW211820   3.498   6.219   1.260
 3641SOL     OW11821   2.408   6.949   4.827
 3641SOL    HW111822   2.311   6.962   4.805
 3641SOL    HW211823   2.452   0.014   4.835
 3642SOL     OW11824   5.937   0.074   3.511
 3642SOL    HW111825   5.839   0.095   3.514
 3642SOL    HW211826   5.989   0.159   3.513
 3643SOL     OW11827   2.784   4.604   5.504
 3643SOL    HW111828   2.803   4.657   5.421
 3643SOL    HW211829   2.734   4.521   5.480
 3644SOL     OW11830   0.074   1.232   0.470
 3644SOL    HW111831   0.117   1.253   0.382
 3644SOL    HW211832   0.046   1.136   0.471
 3645SOL     OW11833   3.321   6.970   3.064
 3645SOL    HW111834   3.413   6.990   3.098
 3645SOL    HW211835   3.318   6.876   3.031
 3646SOL     OW11836   6.548   5.518   4.275
 3646SOL    HW111837   6.576   5.550   4.366
 3646SOL    HW211838   6.449   5.512   4.270
 3647SOL     OW11839   2.444   2.643   1.570
 3647SOL    HW111840   2.465   2.648   1.472
 3647SOL    HW211841   2.346   2.656   1.584
 3648SOL     OW11842   2.807   5.695   3.140
 3648SOL    HW111843   2.756   5.773   3.178
 3648SOL    HW211844   2.762   5.665   3.056
 3649SOL     OW11845   3.168   3.520   2.215
 3649SOL    HW111846   3.079   3.478   2.227
 3649SOL    HW211847   3.224   3.504   2.297
 3650SOL     OW11848   6.629   6.779   1.446
 3650SOL    HW111849   6.546   6.769   1.499
 3650SOL    HW211850   6.701   6.722   1.485
 3651SOL     OW11851   1.595   5.976   2.477
 3651SOL    HW111852   1.678   6.008   2.522
 3651SOL    HW211853   1.560   6.048   2.416
 3652SOL     OW11854   4.474   5.278   3.406
 3652SOL    HW111855   4.496   5.317   3.317
 3652SOL    HW211856   4.377   5.296   3.427
 3653SOL     OW11857   0.442   2.934   4.050
 3653SOL    HW111858   0.495   2.854   4.022
 3653SOL    HW211859   0.350   2.930   4.011
 3654SOL     OW11860   1.603   6.280   1.231
 3654SOL    HW111861   1.588   6.297   1.133
 3654SOL    HW211862   1.699   6.255   1.246
 3655SOL     OW11863   1.561   0.859   4.260
 3655SOL    HW111864   1.577   0.936   4.199
 3655SOL    HW211865   1.605   0.777   4.223
 3656SOL     OW11866   2.259   2.055   2.295
 3656SOL    HW111867   2.322   2.132   2.284
 3656SOL    HW211868   2.310   1.969   2.289
 3657SOL     OW11869   3.827   5.606   1.119
 3657SOL    HW111870   3.744   5.550   1.117
 3657SOL    HW211871   3.904   5.553   1.085
 3658SOL     OW11872   1.316   5.323   5.823
 3658SOL    HW111873   1.224   5.341   5.858
 3658SOL    HW211874   1.375   5.296   5.899
 3659SOL     OW11875   1.412   4.708   6.851
 3659SOL    HW111876   1.403   4.624   6.905
 3659SOL    HW211877   1.503   4.747   6.866
 3660SOL     OW11878   4.786   5.738   1.019
 3660SOL    HW111879   4.883   5.718   1.005
 3660SOL    HW211880   4.770   5.835   1.005
 3661SOL     OW11881   5.258   1.244   0.653
 3661SOL    HW111882   5.340   1.254   0.710
 3661SOL    HW211883   5.243   1.147   0.634
 3662SOL     OW11884   3.363   6.793   5.421
 3662SOL    HW111885   3.296   6.727   5.387
 3662SOL    HW211886   3.344   6.813   5.517
 3663SOL     OW11887   0.997   3.596   6.094
 3663SOL    HW111888   1.003   3.695   6.090
 3663SOL    HW211889   0.909   3.566   6.056
 3664SOL     OW11890   3.827   1.345   1.031
 3664SOL    HW111891   3.780   1.414   0.976
 3664SOL    HW211892   3.925   1.364   1.032
 3665SOL     OW11893   1.114   6.784   5.966
 3665SOL    HW111894   1.086   6.812   6.058
 3665SOL    HW211895   1.157   6.861   5.919
 3666SOL     OW11896   0.842   5.554   3.843
 3666SOL    HW111897   0.852   5.568   3.942
 3666SOL    HW211898   0.918   5.597   3.795
 3667SOL     OW11899   6.580   1.863   6.390
 3667SOL    HW111900   6.647   1.938   6.388
 3667SOL    HW211901   6.495   1.894   6.432
 3668SOL     OW11902   0.783   6.031   2.003
 3668SOL    HW111903   0.844   6.088   1.948
 3668SOL    HW211904   0.774   5.941   1.960
 3669SOL     OW11905   6.509   2.496   3.137
 3669SOL    HW111906   6.448   2.452   3.071
 3669SOL    HW211907   6.489   2.594   3.142
 3670SOL     OW11908   1.731   5.341   5.956
 3670SOL    HW111909   1.661   5.410   5.936
 3670SOL    HW211910   1.771   5.360   6.045
 3671SOL     OW11911   0.778   0.849   3.295
 3671SOL    HW111912   0.733   0.790   3.228
 3671SOL    HW211913   0.712   0.916   3.329
 3672SOL     OW11914   0.147   0.262   0.905
 3672SOL    HW111915   0.055   0.245   0.939
 3672SOL    HW211916   0.142   0.306   0.816
 3673SOL     OW11917   4.849   0.414   6.911
 3673SOL    HW111918   4.829   0.406   7.008
 3673SOL    HW211919   4.903   0.496   6.894
 3674SOL     OW11920   0.826   6.734   1.275
 3674SOL    HW111921   0.875   6.759   1.358
 3674SOL    HW211922   0.821   6.813   1.214
 3675SOL     OW11923   1.633   1.774   4.804
 3675SOL    HW111924   1.636   1.809   4.710
 3675SOL    HW211925   1.713   1.807   4.854
 3676SOL     OW11926   2.203   5.294   2.694
 3676SOL    HW111927   2.260   5.216   2.668
 3676SOL    HW211928   2.131   5.263   2.756
 3677SOL     OW11929   6.096   7.006   4.294
 3677SOL    HW111930   6.184   6.973   4.262
 3677SOL    HW211931   6.027   6.935   4.282
 3678SOL     OW11932   0.892   1.815   3.838
 3678SOL    HW111933   0.874   1.888   3.772
 3678SOL    HW211934   0.814   1.807   3.900
 3679SOL     OW11935   0.551   1.381   1.797
 3679SOL    HW111936   0.590   1.295   1.764
 3679SOL    HW211937   0.587   1.457   1.743
 3680SOL     OW11938   6.816   3.413   4.546
 3680SOL    HW111939   6.876   3.339   4.578
 3680SOL    HW211940   6.729   3.409   4.596
 3681SOL     OW11941   6.270   6.265   5.305
 3681SOL    HW111942   6.298   6.242   5.211
 3681SOL    HW211943   6.306   6.196   5.368
 3682SOL     OW11944   0.649   1.653   6.324
 3682SOL    HW111945   0.701   1.713   6.264
 3682SOL    HW211946   0.569   1.618   6.276
 3683SOL     OW11947   5.453   6.766   3.980
 3683SOL    HW111948   5.390   6.729   3.913
 3683SOL    HW211949   5.402   6.822   4.046
 3684SOL     OW11950   1.365   3.183   0.675
 3684SOL    HW111951   1.417   3.269   0.680
 3684SOL    HW211952   1.354   3.145   0.767
 3685SOL     OW11953   6.846   6.757   0.004
 3685SOL    HW111954   6.777   6.684   0.012
 3685SOL    HW211955   6.804   6.837   6.986
 3686SOL     OW11956   6.292   4.512   1.360
 3686SOL    HW111957   6.353   4.560   1.297
 3686SOL    HW211958   6.285   4.562   1.446
 3687SOL     OW11959   3.235   1.257   6.839
 3687SOL    HW111960   3.206   1.258   6.743
 3687SOL    HW211961   3.155   1.271   6.897
 3688SOL     OW11962   0.858   3.307   0.330
 3688SOL    HW111963   0.876   3.274   0.423
 3688SOL    HW211964   0.942   3.343   0.290
 3689SOL     OW11965   2.618   1.052   3.801
 3689SOL    HW111966   2.534   1.100   3.777
 3689SOL    HW211967   2.637   1.067   3.898
 3690SOL     OW11968   6.028   6.244   5.154
 3690SOL    HW111969   6.066   6.240   5.246
 3690SOL    HW211970   5.995   6.337   5.136
 3691SOL     OW11971   3.389   2.486   6.975
 3691SOL    HW111972   3.349   2.577   6.970
 3691SOL    HW211973   3.482   2.492   7.009
 3692SOL     OW11974   2.043   0.381   6.124
 3692SOL    HW111975   2.035   0.383   6.024
 3692SOL    HW211976   1.962   0.422   6.165
 3693SOL     OW11977   2.925   2.241   2.905
 3693SOL    HW111978   2.984   2.176   2.952
 3693SOL    HW211979   2.899   2.315   2.968
 3694SOL     OW11980   2.172   6.306   2.875
 3694SOL    HW111981   2.215   6.227   2.831
 3694SOL    HW211982   2.116   6.355   2.809
 3695SOL     OW11983   1.705   2.060   2.223
 3695SOL    HW111984   1.708   2.160   2.227
 3695SOL    HW211985   1.630   2.027   2.279
 3696SOL     OW11986   3.100   6.421   5.557
 3696SOL    HW111987   3.022   6.429   5.619
 3696SOL    HW211988   3.184   6.421   5.610
 3697SOL     OW11989   5.979   0.213   4.450
 3697SOL    HW111990   6.059   0.270   4.428
 3697SOL    HW211991   5.984   0.128   4.399
 3698SOL     OW11992   2.973   6.734   5.737
 3698SOL    HW111993   2.928   6.647   5.717
 3698SOL    HW211994   2.977   6.789   5.653
 3699SOL     OW11995   0.918   3.775   2.340
 3699SOL    HW111996   0.997   3.763   2.400
 3699SOL    HW211997   0.834   3.770   2.394
 3700SOL     OW11998   0.147   6.896   4.141
 3700SOL    HW111999   0.209   6.918   4.217
 3700SOL    HW212000   0.083   6.825   4.170
 3701SOL     OW12001   6.190   0.722   3.744
 3701SOL    HW112002   6.136   0.650   3.700
 3701SOL    HW212003   6.187   0.711   3.843
 3702SOL     OW12004   3.624   1.001   6.892
 3702SOL    HW112005   3.586   1.072   6.833
 3702SOL    HW212006   3.658   1.043   6.976
 3703SOL     OW12007   4.281   4.782   6.646
 3703SOL    HW112008   4.228   4.838   6.582
 3703SOL    HW212009   4.256   4.686   6.634
 3704SOL     OW12010   2.106   0.937   2.288
 3704SOL    HW112011   2.162   0.854   2.296
 3704SOL    HW212012   2.108   0.969   2.193
 3705SOL     OW12013   5.547   0.904   4.160
 3705SOL    HW112014   5.477   0.865   4.220
 3705SOL    HW212015   5.530   1.002   4.148
 3706SOL     OW12016   2.045   2.117   3.864
 3706SOL    HW112017   2.039   2.172   3.780
 3706SOL    HW212018   1.959   2.123   3.915
 3707SOL     OW12019   4.203   2.743   5.373
 3707SOL    HW112020   4.183   2.679   5.299
 3707SOL    HW212021   4.129   2.810   5.380
 3708SOL     OW12022   6.385   6.935   6.090
 3708SOL    HW112023   6.391   6.962   5.994
 3708SOL    HW212024   6.291   6.948   6.122
 3709SOL     OW12025   4.222   1.028   0.324
 3709SOL    HW112026   4.140   0.977   0.298
 3709SOL    HW212027   4.256   1.079   0.245
 3710SOL     OW12028   0.526   4.983   1.091
 3710SOL    HW112029   0.506   4.971   1.189
 3710SOL    HW212030   0.442   4.973   1.039
 3711SOL     OW12031   6.474   4.684   2.781
 3711SOL    HW112032   6.541   4.627   2.734
 3711SOL    HW212033   6.520   4.753   2.836
 3712SOL     OW12034   2.119   6.894   0.434
 3712SOL    HW112035   2.085   6.834   0.361
 3712SOL    HW212036   2.210   6.863   0.462
 3713SOL     OW12037   3.767   6.185   5.917
 3713SOL    HW112038   3.807   6.157   5.830
 3713SOL    HW212039   3.835   6.174   5.990
 3714SOL     OW12040   3.662   0.932   4.686
 3714SOL    HW112041   3.609   0.882   4.754
 3714SOL    HW212042   3.755   0.897   4.685
 3715SOL     OW12043   5.489   3.975   4.628
 3715SOL    HW112044   5.412   4.034   4.603
 3715SOL    HW212045   5.462   3.912   4.700
 3716SOL     OW12046   0.682   1.373   4.305
 3716SOL    HW112047   0.738   1.315   4.246
 3716SOL    HW212048   0.696   1.347   4.400
 3717SOL     OW12049   5.453   6.842   0.089
 3717SOL    HW112050   5.360   6.836   0.125
 3717SOL    HW212051   5.465   6.928   0.040
 3718SOL     OW12052   0.554   5.524   0.371
 3718SOL    HW112053   0.547   5.618   0.338
 3718SOL    HW212054   0.488   5.467   0.322
 3719SOL     OW12055   3.840   4.771   5.505
 3719SOL    HW112056   3.756   4.737   5.546
 3719SOL    HW212057   3.829   4.776   5.406
 3720SOL     OW12058   0.188   1.972   5.693
 3720SOL    HW112059   0.152   1.921   5.771
 3720SOL    HW212060   0.188   1.913   5.612
 3721SOL     OW12061   4.975   3.516   0.899
 3721SOL    HW112062   4.936   3.444   0.842
 3721SOL    HW212063   4.905   3.552   0.961
 3722SOL     OW12064   6.560   5.550   2.118
 3722SOL    HW112065   6.567   5.459   2.157
 3722SOL    HW212066   6.493   5.604   2.169
 3723SOL     OW12067   4.419   1.460   0.704
 3723SOL    HW112068   4.399   1.510   0.788
 3723SOL    HW212069   4.380   1.368   0.711
 3724SOL     OW12070   0.302   5.990   5.454
 3724SOL    HW112071   0.354   5.979   5.370
 3724SOL    HW212072   0.333   6.073   5.501
 3725SOL     OW12073   6.631   6.888   0.971
 3725SOL    HW112074   6.606   6.805   1.019
 3725SOL    HW212075   6.724   6.916   0.998
 3726SOL     OW12076   5.595   3.075   1.715
 3726SOL    HW112077   5.528   3.123   1.771
 3726SOL    HW212078   5.609   3.124   1.629
 3727SOL     OW12079   2.088   3.213   5.181
 3727SOL    HW112080   2.166   3.163   5.218
 3727SOL    HW212081   2.104   3.233   5.084
 3728SOL     OW12082   1.131   3.642   6.875
 3728SOL    HW112083   1.124   3.654   6.776
 3728SOL    HW212084   1.042   3.657   6.917
 3729SOL     OW12085   0.371   2.780   3.269
 3729SOL    HW112086   0.276   2.759   3.292
 3729SOL    HW212087   0.429   2.764   3.349
 3730SOL     OW12088   2.793   0.423   6.993
 3730SOL    HW112089   2.750   0.507   6.960
 3730SOL    HW212090   2.876   0.404   6.941
 3731SOL     OW12091   3.834   6.550   6.688
 3731SOL    HW112092   3.879   6.612   6.753
 3731SOL    HW212093   3.862   6.456   6.708
 3732SOL     OW12094   2.136   3.804   5.023
 3732SOL    HW112095   2.196   3.725   5.028
 3732SOL    HW212096   2.189   3.888   5.032
 3733SOL     OW12097   2.176   3.347   1.257
 3733SOL    HW112098   2.255   3.291   1.281
 3733SOL    HW212099   2.097   3.287   1.239
 3734SOL     OW12100   5.001   0.094   2.461
 3734SOL    HW112101   4.961   0.168   2.407
 3734SOL    HW212102   5.099   0.112   2.475
 3735SOL     OW12103   3.454   1.593   2.085
 3735SOL    HW112104   3.465   1.523   2.014
 3735SOL    HW212105   3.529   1.659   2.078
 3736SOL     OW12106   5.387   1.176   6.807
 3736SOL    HW112107   5.440   1.185   6.723
 3736SOL    HW212108   5.356   1.081   6.816
 3737SOL     OW12109   4.536   0.059   3.263
 3737SOL    HW112110   4.515   0.037   3.168
 3737SOL    HW212111   4.544   7.000   3.316
 3738SOL     OW12112   0.123   0.220   3.758
 3738SOL    HW112113   0.155   0.157   3.829
 3738SOL    HW212114   0.079   0.299   3.801
 3739SOL     OW12115   0.319   4.126   2.324
 3739SOL    HW112116   0.334   4.090   2.415
 3739SOL    HW212117   0.358   4.064   2.256
 3740SOL     OW12118   5.277   1.169   0.063
 3740SOL    HW112119   5.347   1.158   7.016
 3740SOL    HW212120   5.189   1.190   0.020
 3741SOL     OW12121   3.731   2.361   6.161
 3741SOL    HW112122   3.702   2.277   6.207
 3741SOL    HW212123   3.787   2.415   6.223
 3742SOL     OW12124   3.456   3.511   5.500
 3742SOL    HW112125   3.457   3.609   5.517
 3742SOL    HW212126   3.422   3.494   5.407
 3743SOL     OW12127   0.492   5.756   6.364
 3743SOL    HW112128   0.546   5.703   6.298
 3743SOL    HW212129   0.527   5.739   6.457
 3744SOL     OW12130   7.005   5.949   2.749
 3744SOL    HW112131   6.962   5.961   2.660
 3744SOL    HW212132   6.968   6.016   2.814
 3745SOL     OW12133   4.420   6.253   2.293
 3745SOL    HW112134   4.474   6.336   2.279
 3745SOL    HW212135   4.340   6.255   2.233
 3746SOL     OW12136   4.104   1.954   2.614
 3746SOL    HW112137   4.174   1.962   2.685
 3746SOL    HW212138   4.038   1.882   2.639
 3747SOL     OW12139   2.899   0.008   0.300
 3747SOL    HW112140   2.909   0.093   0.248
 3747SOL    HW212141   2.804   7.024   0.332
 3748SOL     OW12142   5.640   1.076   2.402
 3748SOL    HW112143   5.543   1.082   2.379
 3748SOL    HW212144   5.692   1.136   2.340
 3749SOL     OW12145   1.638   6.885   5.008
 3749SOL    HW112146   1.699   6.925   5.076
 3749SOL    HW212147   1.557   6.849   5.055
 3750SOL     OW12148   0.497   4.311   6.664
 3750SOL    HW112149   0.416   4.283   6.613
 3750SOL    HW212150   0.537   4.232   6.710
 3751SOL     OW12151   1.447   3.715   2.418
 3751SOL    HW112152   1.516   3.787   2.412
 3751SOL    HW212153   1.356   3.755   2.418
 3752SOL     OW12154   5.794   6.915   6.463
 3752SOL    HW112155   5.704   6.925   6.421
 3752SOL    HW212156   5.792   6.840   6.529
 3753SOL     OW12157   6.617   0.287   4.121
 3753SOL    HW112158   6.540   0.304   4.060
 3753SOL    HW212159   6.692   0.348   4.098
 3754SOL     OW12160   2.790   1.618   0.932
 3754SOL    HW112161   2.705   1.566   0.936
 3754SOL    HW212162   2.834   1.619   1.022
 3755SOL     OW12163   3.066   5.029   3.742
 3755SOL    HW112164   3.100   5.060   3.653
 3755SOL    HW212165   2.966   5.032   3.742
 3756SOL     OW12166   2.077   6.429   0.266
 3756SOL    HW112167   1.981   6.416   0.240
 3756SOL    HW212168   2.130   6.349   0.238
 3757SOL     OW12169   6.684   4.715   1.844
 3757SOL    HW112170   6.730   4.800   1.868
 3757SOL    HW212171   6.693   4.649   1.918
 3758SOL     OW12172   2.148   0.141   3.805
 3758SOL    HW112173   2.074   0.133   3.738
 3758SOL    HW212174   2.109   0.155   3.895
 3759SOL     OW12175   5.356   0.261   4.176
 3759SOL    HW112176   5.450   0.292   4.169
 3759SOL    HW212177   5.321   0.278   4.268
 3760SOL     OW12178   0.744   1.280   3.525
 3760SOL    HW112179   0.790   1.231   3.451
 3760SOL    HW212180   0.813   1.312   3.591
 3761SOL     OW12181   5.256   1.004   4.437
 3761SOL    HW112182   5.278   1.096   4.468
 3761SOL    HW212183   5.194   0.960   4.502
 3762SOL     OW12184   0.041   2.694   3.635
 3762SOL    HW112185   0.065   2.662   3.543
 3762SOL    HW212186   0.042   2.794   3.637
 3763SOL     OW12187   0.582   4.465   0.017
 3763SOL    HW112188   0.581   4.559   0.052
 3763SOL    HW212189   0.660   4.453   6.980
 3764SOL     OW12190   2.568   0.841   3.192
 3764SOL    HW112191   2.629   0.912   3.158
 3764SOL    HW212192   2.606   0.802   3.276
 3765SOL     OW12193   5.583   3.070   2.704
 3765SOL    HW112194   5.648   3.144   2.684
 3765SOL    HW212195   5.500   3.082   2.650
 3766SOL     OW12196   1.191   3.803   2.427
 3766SOL    HW112197   1.165   3.860   2.506
 3766SOL    HW212198   1.168   3.851   2.343
 3767SOL     OW12199   1.055   5.339   5.992
 3767SOL    HW112200   0.989   5.308   5.923
 3767SOL    HW212201   1.082   5.262   6.049
 3768SOL     OW12202   0.679   0.007   3.019
 3768SOL    HW112203   0.595   0.054   2.992
 3768SOL    HW212204   0.748   0.018   2.948
 3769SOL     OW12205   5.315   5.346   4.682
 3769SOL    HW112206   5.335   5.372   4.587
 3769SOL    HW212207   5.326   5.426   4.741
 3770SOL     OW12208   1.882   1.081   1.472
 3770SOL    HW112209   1.967   1.106   1.426
 3770SOL    HW212210   1.809   1.075   1.404
 3771SOL     OW12211   6.629   5.217   5.358
 3771SOL    HW112212   6.589   5.294   5.308
 3771SOL    HW212213   6.561   5.145   5.368
 3772SOL     OW12214   1.663   6.248   0.960
 3772SOL    HW112215   1.603   6.214   0.887
 3772SOL    HW212216   1.756   6.214   0.946
 3773SOL     OW12217   5.175   4.891   6.623
 3773SOL    HW112218   5.253   4.844   6.582
 3773SOL    HW212219   5.200   4.926   6.713
 3774SOL     OW12220   6.767   5.209   1.719
 3774SOL    HW112221   6.775   5.308   1.707
 3774SOL    HW212222   6.756   5.188   1.816
 3775SOL     OW12223   4.697   4.769   5.145
 3775SOL    HW112224   4.769   4.714   5.186
 3775SOL    HW212225   4.730   4.862   5.130
 3776SOL     OW12226   3.729   2.484   5.723
 3776SOL    HW112227   3.794   2.550   5.761
 3776SOL    HW212228   3.663   2.531   5.665
 3777SOL     OW12229   2.821   5.151   4.619
 3777SOL    HW112230   2.795   5.150   4.522
 3777SOL    HW212231   2.780   5.231   4.663
 3778SOL     OW12232   3.186   5.502   6.738
 3778SOL    HW112233   3.172   5.556   6.822
 3778SOL    HW212234   3.144   5.549   6.661
 3779SOL     OW12235   0.056   4.467   0.190
 3779SOL    HW112236   0.050   4.406   0.111
 3779SOL    HW212237   7.017   4.436   0.261
 3780SOL     OW12238   5.180   4.397   1.565
 3780SOL    HW112239   5.095   4.367   1.608
 3780SOL    HW212240   5.206   4.487   1.601
 3781SOL     OW12241   2.838   6.380   4.747
 3781SOL    HW112242   2.801   6.376   4.654
 3781SOL    HW212243   2.763   6.399   4.811
 3782SOL     OW12244   4.419   4.711   1.029
 3782SOL    HW112245   4.336   4.766   1.025
 3782SOL    HW212246   4.491   4.762   1.076
 3783SOL     OW12247   4.691   5.542   4.627
 3783SOL    HW112248   4.778   5.536   4.577
 3783SOL    HW212249   4.707   5.525   4.724
 3784SOL     OW12250   5.667   2.425   4.825
 3784SOL    HW112251   5.599   2.428   4.752
 3784SOL    HW212252   5.633   2.476   4.904
 3785SOL     OW12253   1.787   3.228   3.672
 3785SOL    HW112254   1.716   3.266   3.612
 3785SOL    HW212255   1.808   3.135   3.644
 3786SOL     OW12256   2.125   2.899   4.497
 3786SOL    HW112257   2.130   2.862   4.404
 3786SOL    HW212258   2.192   2.851   4.555
 3787SOL     OW12259   4.811   6.833   4.101
 3787SOL    HW112260   4.871   6.910   4.122
 3787SOL    HW212261   4.767   6.801   4.185
 3788SOL     OW12262   5.627   2.757   5.396
 3788SOL    HW112263   5.664   2.714   5.477
 3788SOL    HW212264   5.624   2.856   5.409
 3789SOL     OW12265   2.112   3.025   2.444
 3789SOL    HW112266   2.067   3.018   2.354
 3789SOL    HW212267   2.193   2.967   2.445
 3790SOL     OW12268   0.218   6.711   1.869
 3790SOL    HW112269   0.241   6.642   1.800
 3790SOL    HW212270   0.229   6.671   1.960
 3791SOL     OW12271   5.229   1.070   5.872
 3791SOL    HW112272   5.269   1.018   5.797
 3791SOL    HW212273   5.238   1.168   5.853
 3792SOL     OW12274   6.738   0.357   4.753
 3792SOL    HW112275   6.739   0.257   4.762
 3792SOL    HW212276   6.644   0.389   4.756
 3793SOL     OW12277   4.429   4.774   0.330
 3793SOL    HW112278   4.488   4.854   0.337
 3793SOL    HW212279   4.485   4.691   0.333
 3794SOL     OW12280   0.249   4.271   6.537
 3794SOL    HW112281   0.177   4.257   6.469
 3794SOL    HW212282   0.251   4.367   6.563
 3795SOL     OW12283   3.079   5.795   1.228
 3795SOL    HW112284   3.102   5.733   1.153
 3795SOL    HW212285   3.134   5.878   1.221
 3796SOL     OW12286   4.740   1.352   0.007
 3796SOL    HW112287   4.835   1.358   6.999
 3796SOL    HW212288   4.694   1.440   7.017
 3797SOL     OW12289   0.681   4.336   2.159
 3797SOL    HW112290   0.651   4.246   2.188
 3797SOL    HW212291   0.754   4.327   2.092
 3798SOL     OW12292   1.483   5.642   3.675
 3798SOL    HW112293   1.476   5.595   3.763
 3798SOL    HW212294   1.579   5.651   3.649
 3799SOL     OW12295   6.587   0.759   3.389
 3799SOL    HW112296   6.618   0.854   3.380
 3799SOL    HW212297   6.609   0.726   3.481
 3800SOL     OW12298   5.157   2.612   2.969
 3800SOL    HW112299   5.234   2.643   3.026
 3800SOL    HW212300   5.121   2.527   3.007
 3801SOL     OW12301   6.046   1.718   1.296
 3801SOL    HW112302   6.031   1.816   1.284
 3801SOL    HW212303   6.116   1.703   1.366
 3802SOL     OW12304   6.712   3.156   1.679
 3802SOL    HW112305   6.652   3.122   1.751
 3802SOL    HW212306   6.700   3.101   1.597
 3803SOL     OW12307   3.197   3.327   4.392
 3803SOL    HW112308   3.271   3.307   4.455
 3803SOL    HW212309   3.159   3.241   4.358
 3804SOL     OW12310   4.473   6.055   3.390
 3804SOL    HW112311   4.446   6.063   3.486
 3804SOL    HW212312   4.521   6.138   3.361
 3805SOL     OW12313   2.554   2.651   0.121
 3805SOL    HW112314   2.652   2.658   0.100
 3805SOL    HW212315   2.502   2.707   0.056
 3806SOL     OW12316   2.454   4.662   1.120
 3806SOL    HW112317   2.538   4.608   1.130
 3806SOL    HW212318   2.476   4.759   1.135
 3807SOL     OW12319   1.937   4.499   4.626
 3807SOL    HW112320   1.929   4.484   4.528
 3807SOL    HW212321   1.934   4.597   4.646
 3808SOL     OW12322   2.604   6.742   6.374
 3808SOL    HW112323   2.611   6.793   6.459
 3808SOL    HW212324   2.691   6.699   6.352
 3809SOL     OW12325   5.139   1.715   1.208
 3809SOL    HW112326   5.141   1.698   1.110
 3809SOL    HW212327   5.054   1.680   1.247
 3810SOL     OW12328   5.436   2.455   2.028
 3810SOL    HW112329   5.507   2.499   1.973
 3810SOL    HW212330   5.347   2.466   1.984
 3811SOL     OW12331   0.407   5.588   5.435
 3811SOL    HW112332   0.349   5.572   5.355
 3811SOL    HW212333   0.500   5.558   5.416
 3812SOL     OW12334   4.707   6.018   0.972
 3812SOL    HW112335   4.672   6.084   1.038
 3812SOL    HW212336   4.715   6.062   0.882
 3813SOL     OW12337   6.273   4.090   6.921
 3813SOL    HW112338   6.254   4.095   6.823
 3813SOL    HW212339   6.329   4.168   6.948
 3814SOL     OW12340   6.992   0.498   5.365
 3814SOL    HW112341   0.065   0.481   5.353
 3814SOL    HW212342   6.972   0.594   5.346
 3815SOL     OW12343   6.357   3.619   5.586
 3815SOL    HW112344   6.331   3.587   5.677
 3815SOL    HW212345   6.322   3.712   5.572
 3816SOL     OW12346   0.287   5.780   1.069
 3816SOL    HW112347   0.198   5.808   1.032
 3816SOL    HW212348   0.336   5.726   1.000
 3817SOL     OW12349   4.798   3.886   1.944
 3817SOL    HW112350   4.703   3.905   1.919
 3817SOL    HW212351   4.845   3.971   1.965
 3818SOL     OW12352   5.704   6.062   2.844
 3818SOL    HW112353   5.779   6.041   2.781
 3818SOL    HW212354   5.635   6.117   2.796
 3819SOL     OW12355   6.415   4.192   3.821
 3819SOL    HW112356   6.465   4.106   3.832
 3819SOL    HW212357   6.394   4.230   3.912
 3820SOL     OW12358   2.669   6.327   4.506
 3820SOL    HW112359   2.589   6.374   4.470
 3820SOL    HW212360   2.724   6.292   4.430
 3821SOL     OW12361   1.896   0.418   0.182
 3821SOL    HW112362   1.910   0.376   0.092
 3821SOL    HW212363   1.919   0.352   0.253
 3822SOL     OW12364   4.712   0.404   2.133
 3822SOL    HW112365   4.810   0.413   2.111
 3822SOL    HW212366   4.690   0.461   2.212
 3823SOL     OW12367   5.655   5.769   6.709
 3823SOL    HW112368   5.733   5.776   6.771
 3823SOL    HW212369   5.680   5.808   6.620
 3824SOL     OW12370   2.868   3.019   0.245
 3824SOL    HW112371   2.830   3.103   0.206
 3824SOL    HW212372   2.869   3.025   0.345
 3825SOL     OW12373   1.062   4.499   5.249
 3825SOL    HW112374   1.076   4.414   5.197
 3825SOL    HW212375   0.964   4.519   5.255
 3826SOL     OW12376   5.320   4.179   4.023
 3826SOL    HW112377   5.378   4.228   3.958
 3826SOL    HW212378   5.377   4.141   4.096
 3827SOL     OW12379   0.913   2.044   1.128
 3827SOL    HW112380   0.904   2.096   1.044
 3827SOL    HW212381   0.980   1.970   1.114
 3828SOL     OW12382   3.499   3.588   4.087
 3828SOL    HW112383   3.413   3.579   4.136
 3828SOL    HW212384   3.548   3.501   4.088
 3829SOL     OW12385   0.576   3.551   2.190
 3829SOL    HW112386   0.571   3.573   2.287
 3829SOL    HW212387   0.668   3.573   2.156
 3830SOL     OW12388   5.972   0.803   4.011
 3830SOL    HW112389   6.035   0.878   4.028
 3830SOL    HW212390   5.932   0.813   3.920
 3831SOL     OW12391   5.172   2.004   3.926
 3831SOL    HW112392   5.109   1.937   3.965
 3831SOL    HW212393   5.176   2.085   3.985
 3832SOL     OW12394   5.856   0.789   3.750
 3832SOL    HW112395   5.891   0.707   3.704
 3832SOL    HW212396   5.764   0.771   3.784
 3833SOL     OW12397   2.380   1.546   5.499
 3833SOL    HW112398   2.427   1.482   5.559
 3833SOL    HW212399   2.281   1.536   5.512
 3834SOL     OW12400   4.998   4.007   0.897
 3834SOL    HW112401   5.030   4.039   0.807
 3834SOL    HW212402   4.923   3.943   0.885
 3835SOL     OW12403   3.892   5.168   5.063
 3835SOL    HW112404   3.832   5.089   5.057
 3835SOL    HW212405   3.932   5.187   4.973
 3836SOL     OW12406   0.121   6.074   5.776
 3836SOL    HW112407   0.215   6.052   5.750
 3836SOL    HW212408   0.060   6.060   5.698
 3837SOL     OW12409   4.582   4.585   5.630
 3837SOL    HW112410   4.592   4.682   5.649
 3837SOL    HW212411   4.528   4.572   5.547
 3838SOL     OW12412   0.923   1.529   3.913
 3838SOL    HW112413   0.986   1.551   3.988
 3838SOL    HW212414   0.831   1.559   3.936
 3839SOL     OW12415   4.368   0.992   4.039
 3839SOL    HW112416   4.318   1.059   3.985
 3839SOL    HW212417   4.393   1.033   4.127
 3840SOL     OW12418   2.766   1.574   6.934
 3840SOL    HW112419   2.742   1.490   6.982
 3840SOL    HW212420   2.795   1.644   6.999
 3841SOL     OW12421   5.942   4.851   4.469
 3841SOL    HW112422   6.007   4.790   4.423
 3841SOL    HW212423   5.876   4.884   4.402
 3842SOL     OW12424   1.463   3.345   5.266
 3842SOL    HW112425   1.465   3.445   5.255
 3842SOL    HW212426   1.374   3.310   5.237
 3843SOL     OW12427   5.304   2.543   0.207
 3843SOL    HW112428   5.230   2.567   0.270
 3843SOL    HW212429   5.339   2.452   0.229
 3844SOL     OW12430   0.946   7.002   1.357
 3844SOL    HW112431   0.999   0.044   1.306
 3844SOL    HW212432   0.875   0.025   1.411
 3845SOL     OW12433   2.323   5.496   0.795
 3845SOL    HW112434   2.348   5.478   0.890
 3845SOL    HW212435   2.367   5.430   0.735
 3846SOL     OW12436   0.868   2.804   2.951
 3846SOL    HW112437   0.920   2.729   2.992
 3846SOL    HW212438   0.812   2.848   3.021
 3847SOL     OW12439   6.826   1.780   6.835
 3847SOL    HW112440   6.823   1.742   6.928
 3847SOL    HW212441   6.921   1.792   6.807
 3848SOL     OW12442   5.571   3.792   2.738
 3848SOL    HW112443   5.592   3.728   2.665
 3848SOL    HW212444   5.530   3.875   2.699
 3849SOL     OW12445   6.612   5.040   6.793
 3849SOL    HW112446   6.630   4.966   6.858
 3849SOL    HW212447   6.638   5.127   6.834
 3850SOL     OW12448   2.425   2.603   1.265
 3850SOL    HW112449   2.398   2.564   1.177
 3850SOL    HW212450   2.508   2.656   1.254
 3851SOL     OW12451   0.535   5.867   2.467
 3851SOL    HW112452   0.591   5.900   2.391
 3851SOL    HW212453   0.458   5.929   2.482
 3852SOL     OW12454   2.493   6.604   5.572
 3852SOL    HW112455   2.540   6.691   5.588
 3852SOL    HW212456   2.477   6.558   5.659
 3853SOL     OW12457   2.559   0.547   3.367
 3853SOL    HW112458   2.586   0.492   3.446
 3853SOL    HW212459   2.606   0.636   3.372
 3854SOL     OW12460   1.695   2.327   2.416
 3854SOL    HW112461   1.691   2.384   2.499
 3854SOL    HW212462   1.737   2.239   2.439
 3855SOL     OW12463   3.869   6.905   0.394
 3855SOL    HW112464   3.883   6.813   0.358
 3855SOL    HW212465   3.833   6.900   0.487
 3856SOL     OW12466   0.640   2.295   6.868
 3856SOL    HW112467   0.546   2.327   6.857
 3856SOL    HW212468   0.648   2.247   6.955
 3857SOL     OW12469   2.604   0.214   5.706
 3857SOL    HW112470   2.672   0.156   5.662
 3857SOL    HW212471   2.585   0.294   5.649
 3858SOL     OW12472   4.140   0.458   4.782
 3858SOL    HW112473   4.223   0.504   4.753
 3858SOL    HW212474   4.088   0.427   4.702
 3859SOL     OW12475   6.185   0.169   2.095
 3859SOL    HW112476   6.091   0.203   2.102
 3859SOL    HW212477   6.183   0.070   2.077
 3860SOL     OW12478   1.186   6.769   4.216
 3860SOL    HW112479   1.126   6.735   4.144
 3860SOL    HW212480   1.148   6.746   4.306
 3861SOL     OW12481   3.490   5.760   1.686
 3861SOL    HW112482   3.541   5.674   1.674
 3861SOL    HW212483   3.485   5.807   1.598
 3862SOL     OW12484   1.628   0.231   3.678
 3862SOL    HW112485   1.574   0.312   3.658
 3862SOL    HW212486   1.590   0.183   3.757
 3863SOL     OW12487   3.776   0.315   0.562
 3863SOL    HW112488   3.875   0.319   0.546
 3863SOL    HW212489   3.728   0.320   0.474
 3864SOL     OW12490   2.532   0.012   4.464
 3864SOL    HW112491   2.515   0.068   4.545
 3864SOL    HW212492   2.631   0.006   4.448
 3865SOL     OW12493   3.872   0.625   0.617
 3865SOL    HW112494   3.885   0.649   0.521
 3865SOL    HW212495   3.852   0.527   0.624
 3866SOL     OW12496   2.835   2.763   6.703
 3866SOL    HW112497   2.784   2.681   6.731
 3866SOL    HW212498   2.822   2.777   6.605
 3867SOL     OW12499   0.503   3.762   1.824
 3867SOL    HW112500   0.452   3.716   1.897
 3867SOL    HW212501   0.459   3.741   1.736
 3868SOL     OW12502   4.675   0.807   0.233
 3868SOL    HW112503   4.739   0.861   0.289
 3868SOL    HW212504   4.590   0.792   0.283
 3869SOL     OW12505   5.881   2.857   3.778
 3869SOL    HW112506   5.852   2.836   3.685
 3869SOL    HW212507   5.807   2.904   3.826
 3870SOL     OW12508   0.282   0.516   4.114
 3870SOL    HW112509   0.361   0.555   4.066
 3870SOL    HW212510   0.268   0.564   4.200
 3871SOL     OW12511   2.977   4.960   4.478
 3871SOL    HW112512   2.916   4.971   4.556
 3871SOL    HW212513   2.985   5.048   4.430
 3872SOL     OW12514   3.095   3.722   5.648
 3872SOL    HW112515   3.059   3.697   5.558
 3872SOL    HW212516   3.050   3.667   5.719
 3873SOL     OW12517   4.612   1.846   0.300
 3873SOL    HW112518   4.615   1.761   0.248
 3873SOL    HW212519   4.705   1.870   0.330
 3874SOL     OW12520   3.123   0.582   6.952
 3874SOL    HW112521   3.133   0.595   0.026
 3874SOL    HW212522   3.098   0.670   6.910
 3875SOL     OW12523   1.352   2.162   6.044
 3875SOL    HW112524   1.340   2.251   6.000
 3875SOL    HW212525   1.446   2.155   6.079
 3876SOL     OW12526   4.076   5.179   1.135
 3876SOL    HW112527   4.083   5.080   1.130
 3876SOL    HW212528   4.029   5.205   1.219
 3877SOL     OW12529   6.987   1.966   0.061
 3877SOL    HW112530   6.980   1.871   0.091
 3877SOL    HW212531   6.909   1.989   0.004
 3878SOL     OW12532   4.318   0.491   4.212
 3878SOL    HW112533   4.241   0.440   4.250
 3878SOL    HW212534   4.293   0.588   4.205
 3879SOL     OW12535   5.477   5.131   7.024
 3879SOL    HW112536   5.392   5.154   0.047
 3879SOL    HW212537   5.548   5.197   0.025
 3880SOL     OW12538   4.893   3.945   4.132
 3880SOL    HW112539   4.816   4.003   4.108
 3880SOL    HW212540   4.916   3.958   4.229
 3881SOL     OW12541   1.082   4.124   0.284
 3881SOL    HW112542   1.104   4.027   0.288
 3881SOL    HW212543   1.088   4.163   0.376
 3882SOL     OW12544   1.136   1.713   0.869
 3882SOL    HW112545   1.130   1.742   0.773
 3882SOL    HW212546   1.225   1.670   0.885
 3883SOL     OW12547   5.069   6.455   3.473
 3883SOL    HW112548   5.074   6.356   3.488
 3883SOL    HW212549   5.003   6.495   3.536
 3884SOL     OW12550   0.814   5.050   2.279
 3884SOL    HW112551   0.887   5.006   2.227
 3884SOL    HW212552   0.726   5.034   2.235
 3885SOL     OW12553   5.439   6.198   3.218
 3885SOL    HW112554   5.370   6.136   3.255
 3885SOL    HW212555   5.394   6.273   3.169
 3886SOL     OW12556   3.888   6.452   5.832
 3886SOL    HW112557   3.864   6.392   5.908
 3886SOL    HW212558   3.824   6.438   5.757
 3887SOL     OW12559   0.112   6.024   2.012
 3887SOL    HW112560   0.189   6.005   1.951
 3887SOL    HW212561   0.123   5.971   2.096
 3888SOL     OW12562   5.677   6.305   4.286
 3888SOL    HW112563   5.627   6.224   4.313
 3888SOL    HW212564   5.705   6.357   4.367
 3889SOL     OW12565   5.497   3.311   6.429
 3889SOL    HW112566   5.481   3.405   6.459
 3889SOL    HW212567   5.446   3.248   6.489
 3890SOL     OW12568   5.608   3.360   4.584
 3890SOL    HW112569   5.641   3.451   4.606
 3890SOL    HW212570   5.535   3.334   4.648
 3891SOL     OW12571   5.929   4.983   3.329
 3891SOL    HW112572   5.914   5.045   3.252
 3891SOL    HW212573   5.903   4.890   3.302
 3892SOL     OW12574   0.532   2.814   1.551
 3892SOL    HW112575   0.501   2.854   1.638
 3892SOL    HW212576   0.471   2.739   1.526
 3893SOL     OW12577   4.151   3.721   1.340
 3893SOL    HW112578   4.221   3.710   1.411
 3893SOL    HW212579   4.077   3.656   1.355
 3894SOL     OW12580   4.862   0.316   6.221
 3894SOL    HW112581   4.876   0.359   6.310
 3894SOL    HW212582   4.864   0.387   6.149
 3895SOL     OW12583   1.654   6.788   4.542
 3895SOL    HW112584   1.691   6.841   4.466
 3895SOL    HW212585   1.706   6.809   4.625
 3896SOL     OW12586   1.520   1.225   6.745
 3896SOL    HW112587   1.469   1.153   6.699
 3896SOL    HW212588   1.468   1.310   6.743
 3897SOL     OW12589   4.250   5.691   1.858
 3897SOL    HW112590   4.313   5.760   1.895
 3897SOL    HW212591   4.215   5.635   1.932
 3898SOL     OW12592   4.117   3.048   6.512
 3898SOL    HW112593   4.029   3.041   6.465
 3898SOL    HW212594   4.189   3.067   6.445
 3899SOL     OW12595   4.199   6.420   6.163
 3899SOL    HW112596   4.208   6.483   6.240
 3899SOL    HW212597   4.141   6.462   6.093
 3900SOL     OW12598   5.106   4.091   2.909
 3900SOL    HW112599   5.201   4.118   2.894
 3900SOL    HW212600   5.045   4.156   2.864
 3901SOL     OW12601   2.972   0.096   6.935
 3901SOL    HW112602   2.902   0.108   7.006
 3901SOL    HW212603   2.998   0.185   6.898
 3902SOL     OW12604   6.285   3.146   2.463
 3902SOL    HW112605   6.363   3.208   2.449
 3902SOL    HW212606   6.250   3.157   2.556
 3903SOL     OW12607   3.459   5.417   6.723
 3903SOL    HW112608   3.361   5.430   6.705
 3903SOL    HW212609   3.476   5.424   6.821
 3904SOL     OW12610   1.281   0.462   0.313
 3904SOL    HW112611   1.265   0.430   0.220
 3904SOL    HW212612   1.317   0.387   0.368
 3905SOL     OW12613   6.813   6.125   5.660
 3905SOL    HW112614   6.839   6.208   5.709
 3905SOL    HW212615   6.874   6.111   5.582
 3906SOL     OW12616   5.781   6.611   5.446
 3906SOL    HW112617   5.793   6.512   5.447
 3906SOL    HW212618   5.870   6.656   5.447
 3907SOL     OW12619   5.809   1.803   4.315
 3907SOL    HW112620   5.713   1.777   4.318
 3907SOL    HW212621   5.835   1.821   4.220
 3908SOL     OW12622   1.499   1.986   5.799
 3908SOL    HW112623   1.480   1.916   5.868
 3908SOL    HW212624   1.580   2.038   5.827
 3909SOL     OW12625   5.792   5.415   4.245
 3909SOL    HW112626   5.696   5.389   4.250
 3909SOL    HW212627   5.850   5.336   4.266
 3910SOL     OW12628   3.674   3.918   2.885
 3910SOL    HW112629   3.727   3.884   2.963
 3910SOL    HW212630   3.602   3.980   2.918
 3911SOL     OW12631   5.801   1.560   5.522
 3911SOL    HW112632   5.838   1.524   5.607
 3911SOL    HW212633   5.797   1.659   5.527
 3912SOL     OW12634   5.648   2.135   5.648
 3912SOL    HW112635   5.596   2.176   5.723
 3912SOL    HW212636   5.622   2.179   5.562
 3913SOL     OW12637   1.070   6.704   0.345
 3913SOL    HW112638   1.132   6.774   0.310
 3913SOL    HW212639   1.122   6.634   0.395
 3914SOL     OW12640   3.455   6.532   6.312
 3914SOL    HW112641   3.459   6.551   6.410
 3914SOL    HW212642   3.536   6.479   6.286
 3915SOL     OW12643   5.352   5.316   1.578
 3915SOL    HW112644   5.370   5.411   1.604
 3915SOL    HW212645   5.409   5.291   1.500
 3916SOL     OW12646   1.116   0.094   2.948
 3916SOL    HW112647   1.137   0.081   3.045
 3916SOL    HW212648   1.027   0.054   2.927
 3917SOL     OW12649   1.737   0.108   0.022
 3917SOL    HW112650   1.810   0.164   0.061
 3917SOL    HW212651   1.659   0.165   7.024
 3918SOL     OW12652   5.241   4.551   1.910
 3918SOL    HW112653   5.268   4.580   1.818
 3918SOL    HW212654   5.316   4.568   1.973
 3919SOL     OW12655   3.418   0.155   0.146
 3919SOL    HW112656   3.342   0.096   0.121
 3919SOL    HW212657   3.457   0.196   0.063
 3920SOL     OW12658   2.282   2.566   6.880
 3920SOL    HW112659   2.317   2.658   6.891
 3920SOL    HW212660   2.316   2.508   6.954
 3921SOL     OW12661   1.031   4.095   1.442
 3921SOL    HW112662   1.127   4.073   1.455
 3921SOL    HW212663   1.001   4.062   1.352
 3922SOL     OW12664   0.632   4.271   1.391
 3922SOL    HW112665   0.533   4.263   1.400
 3922SOL    HW212666   0.654   4.324   1.309
 3923SOL     OW12667   0.697   0.587   0.578
 3923SOL    HW112668   0.682   0.661   0.512
 3923SOL    HW212669   0.721   0.626   0.667
 3924SOL     OW12670   6.541   4.432   4.596
 3924SOL    HW112671   6.575   4.379   4.674
 3924SOL    HW212672   6.578   4.525   4.601
 3925SOL     OW12673   1.681   5.487   2.264
 3925SOL    HW112674   1.656   5.536   2.180
 3925SOL    HW212675   1.768   5.439   2.249
 3926SOL     OW12676   4.438   4.550   2.202
 3926SOL    HW112677   4.452   4.614   2.127
 3926SOL    HW212678   4.393   4.468   2.168
 3927SOL     OW12679   0.493   3.031   6.235
 3927SOL    HW112680   0.536   3.120   6.251
 3927SOL    HW212681   0.473   3.020   6.138
 3928SOL     OW12682   5.513   5.832   6.948
 3928SOL    HW112683   5.575   5.866   6.877
 3928SOL    HW212684   5.426   5.804   6.906
 3929SOL     OW12685   0.848   1.143   5.109
 3929SOL    HW112686   0.855   1.240   5.132
 3929SOL    HW212687   0.758   1.124   5.072
 3930SOL     OW12688   2.088   1.504   3.355
 3930SOL    HW112689   2.172   1.517   3.407
 3930SOL    HW212690   2.106   1.447   3.276
 3931SOL     OW12691   6.309   1.661   1.424
 3931SOL    HW112692   6.392   1.705   1.389
 3931SOL    HW212693   6.296   1.687   1.520
 3932SOL     OW12694   0.784   2.221   4.170
 3932SOL    HW112695   0.823   2.281   4.100
 3932SOL    HW212696   0.719   2.158   4.128
 3933SOL     OW12697   1.429   0.331   6.356
 3933SOL    HW112698   1.471   0.248   6.319
 3933SOL    HW212699   1.494   0.377   6.416
 3934SOL     OW12700   5.999   0.357   6.103
 3934SOL    HW112701   6.069   0.288   6.116
 3934SOL    HW212702   5.996   0.417   6.183
 3935SOL     OW12703   4.563   0.508   0.732
 3935SOL    HW112704   4.517   0.569   0.667
 3935SOL    HW212705   4.524   0.523   0.823
 3936SOL     OW12706   6.256   5.495   3.986
 3936SOL    HW112707   6.168   5.449   3.974
 3936SOL    HW212708   6.278   5.502   4.083
 3937SOL     OW12709   0.399   1.022   2.697
 3937SOL    HW112710   0.431   1.080   2.622
 3937SOL    HW212711   0.310   0.985   2.674
 3938SOL     OW12712   6.927   1.274   3.174
 3938SOL    HW112713   6.981   1.317   3.101
 3938SOL    HW212714   6.907   1.179   3.148
 3939SOL     OW12715   3.120   1.772   1.971
 3939SOL    HW112716   3.031   1.753   2.012
 3939SOL    HW212717   3.180   1.814   2.039
 3940SOL     OW12718   3.469   3.853   1.160
 3940SOL    HW112719   3.533   3.886   1.230
 3940SOL    HW212720   3.515   3.787   1.101
 3941SOL     OW12721   3.926   4.465   6.393
 3941SOL    HW112722   4.015   4.509   6.378
 3941SOL    HW212723   3.940   4.368   6.415
 3942SOL     OW12724   6.628   6.792   6.683
 3942SOL    HW112725   6.701   6.753   6.627
 3942SOL    HW212726   6.595   6.876   6.640
 3943SOL     OW12727   0.547   3.591   4.670
 3943SOL    HW112728   0.564   3.685   4.641
 3943SOL    HW212729   0.495   3.543   4.598
 3944SOL     OW12730   5.032   2.296   4.954
 3944SOL    HW112731   5.070   2.259   4.869
 3944SOL    HW212732   4.970   2.372   4.932
 3945SOL     OW12733   0.179   1.758   0.764
 3945SOL    HW112734   0.221   1.754   0.855
 3945SOL    HW212735   0.179   1.853   0.733
 3946SOL     OW12736   4.436   4.504   3.282
 3946SOL    HW112737   4.486   4.589   3.301
 3946SOL    HW212738   4.420   4.455   3.368
 3947SOL     OW12739   4.811   6.133   0.477
 3947SOL    HW112740   4.824   6.044   0.433
 3947SOL    HW212741   4.899   6.168   0.508
 3948SOL     OW12742   5.756   4.721   1.500
 3948SOL    HW112743   5.667   4.675   1.505
 3948SOL    HW212744   5.750   4.798   1.436
 3949SOL     OW12745   4.528   5.915   3.149
 3949SOL    HW112746   4.431   5.920   3.172
 3949SOL    HW212747   4.576   5.995   3.185
 3950SOL     OW12748   2.055   5.613   1.313
 3950SOL    HW112749   2.142   5.585   1.274
 3950SOL    HW212750   1.982   5.553   1.281
 3951SOL     OW12751   5.250   0.325   1.816
 3951SOL    HW112752   5.304   0.404   1.789
 3951SOL    HW212753   5.159   0.330   1.774
 3952SOL     OW12754   6.987   2.945   0.491
 3952SOL    HW112755   7.015   2.933   0.586
 3952SOL    HW212756   0.023   2.893   0.431
 3953SOL     OW12757   4.125   3.563   1.770
 3953SOL    HW112758   4.190   3.492   1.798
 3953SOL    HW212759   4.105   3.622   1.848
 3954SOL     OW12760   4.066   4.714   5.624
 3954SOL    HW112761   3.972   4.743   5.607
 3954SOL    HW212762   4.071   4.669   5.713
 3955SOL     OW12763   3.588   0.523   5.339
 3955SOL    HW112764   3.561   0.526   5.435
 3955SOL    HW212765   3.559   0.608   5.293
 3956SOL     OW12766   0.936   0.991   2.109
 3956SOL    HW112767   0.966   0.930   2.182
 3956SOL    HW212768   0.836   0.995   2.108
 3957SOL     OW12769   3.636   0.164   4.080
 3957SOL    HW112770   3.585   0.227   4.140
 3957SOL    HW212771   3.675   0.090   4.134
 3958SOL     OW12772   5.991   1.936   4.891
 3958SOL    HW112773   6.075   1.949   4.838
 3958SOL    HW212774   5.923   1.889   4.835
 3959SOL     OW12775   4.955   5.299   0.343
 3959SOL    HW112776   4.971   5.328   0.249
 3959SOL    HW212777   4.857   5.297   0.361
 3960SOL     OW12778   5.402   2.323   5.358
 3960SOL    HW112779   5.344   2.271   5.296
 3960SOL    HW212780   5.404   2.419   5.330
 3961SOL     OW12781   5.346   6.903   3.280
 3961SOL    HW112782   5.429   6.947   3.315
 3961SOL    HW212783   5.266   6.956   3.309
 3962SOL     OW12784   0.469   5.355   5.652
 3962SOL    HW112785   0.467   5.369   5.751
 3962SOL    HW212786   0.455   5.443   5.606
 3963SOL     OW12787   4.356   6.609   2.007
 3963SOL    HW112788   4.278   6.637   2.062
 3963SOL    HW212789   4.329   6.532   1.949
 3964SOL     OW12790   4.761   3.944   3.097
 3964SOL    HW112791   4.756   4.029   3.150
 3964SOL    HW212792   4.784   3.868   3.158
 3965SOL     OW12793   5.268   3.530   4.452
 3965SOL    HW112794   5.177   3.495   4.430
 3965SOL    HW212795   5.328   3.521   4.373
 3966SOL     OW12796   2.759   5.639   6.689
 3966SOL    HW112797   2.716   5.729   6.683
 3966SOL    HW212798   2.849   5.647   6.732
 3967SOL     OW12799   1.691   4.955   2.406
 3967SOL    HW112800   1.666   4.934   2.501
 3967SOL    HW212801   1.675   4.874   2.349
 3968SOL     OW12802   4.129   0.733   0.645
 3968SOL    HW112803   4.149   0.828   0.670
 3968SOL    HW212804   4.030   0.717   0.649
 3969SOL     OW12805   1.994   6.170   2.067
 3969SOL    HW112806   2.044   6.094   2.026
 3969SOL    HW212807   1.920   6.134   2.124
 3970SOL     OW12808   5.710   6.496   2.289
 3970SOL    HW112809   5.785   6.469   2.228
 3970SOL    HW212810   5.625   6.500   2.238
 3971SOL     OW12811   3.070   5.545   4.210
 3971SOL    HW112812   3.142   5.603   4.171
 3971SOL    HW212813   2.981   5.581   4.184
 3972SOL     OW12814   1.950   4.085   6.897
 3972SOL    HW112815   1.987   4.004   6.943
 3972SOL    HW212816   1.924   4.153   6.965
 3973SOL     OW12817   1.137   5.720   0.773
 3973SOL    HW112818   1.143   5.661   0.853
 3973SOL    HW212819   1.104   5.668   0.694
 3974SOL     OW12820   2.370   0.478   6.066
 3974SOL    HW112821   2.325   0.430   6.142
 3974SOL    HW212822   2.450   0.426   6.037
 3975SOL     OW12823   5.354   2.129   6.394
 3975SOL    HW112824   5.316   2.158   6.482
 3975SOL    HW212825   5.387   2.208   6.343
 3976SOL     OW12826   1.805   6.087   2.244
 3976SOL    HW112827   1.839   6.076   2.338
 3976SOL    HW212828   1.739   6.014   2.224
 3977SOL     OW12829   1.148   3.661   6.587
 3977SOL    HW112830   1.059   3.667   6.543
 3977SOL    HW212831   1.201   3.743   6.566
 3978SOL     OW12832   6.618   4.946   3.864
 3978SOL    HW112833   6.710   4.932   3.901
 3978SOL    HW212834   6.578   5.029   3.904
 3979SOL     OW12835   3.639   0.422   6.275
 3979SOL    HW112836   3.592   0.475   6.204
 3979SOL    HW212837   3.595   0.438   6.363
 3980SOL     OW12838   6.018   6.489   6.351
 3980SOL    HW112839   5.932   6.497   6.401
 3980SOL    HW212840   6.071   6.573   6.362
 3981SOL     OW12841   4.813   6.666   0.350
 3981SOL    HW112842   4.736   6.606   0.375
 3981SOL    HW212843   4.778   6.754   0.318
 3982SOL     OW12844   2.574   0.120   2.376
 3982SOL    HW112845   2.527   0.053   2.433
 3982SOL    HW212846   2.632   0.178   2.432
 3983SOL     OW12847   4.252   5.687   3.721
 3983SOL    HW112848   4.299   5.678   3.809
 3983SOL    HW212849   4.153   5.676   3.734
 3984SOL     OW12850   6.063   2.060   2.869
 3984SOL    HW112851   6.107   1.975   2.841
 3984SOL    HW212852   6.117   2.137   2.835
 3985SOL     OW12853   3.033   5.623   6.446
 3985SOL    HW112854   2.967   5.674   6.392
 3985SOL    HW212855   3.018   5.525   6.435
 3986SOL     OW12856   4.847   1.769   2.216
 3986SOL    HW112857   4.868   1.829   2.138
 3986SOL    HW212858   4.932   1.739   2.259
 3987SOL     OW12859   3.455   5.045   4.897
 3987SOL    HW112860   3.375   5.028   4.955
 3987SOL    HW212861   3.440   5.004   4.807
 3988SOL     OW12862   4.688   5.330   0.352
 3988SOL    HW112863   4.612   5.287   0.399
 3988SOL    HW212864   4.655   5.379   0.272
 3989SOL     OW12865   6.437   1.915   6.860
 3989SOL    HW112866   6.372   1.982   6.898
 3989SOL    HW212867   6.509   1.963   6.811
 3990SOL     OW12868   5.159   2.819   1.785
 3990SOL    HW112869   5.074   2.796   1.832
 3990SOL    HW212870   5.152   2.910   1.744
 3991SOL     OW12871   0.064   0.729   3.259
 3991SOL    HW112872   6.994   0.696   3.255
 3991SOL    HW212873   0.072   0.800   3.329
 3992SOL     OW12874   2.727   2.501   1.195
 3992SOL    HW112875   2.705   2.579   1.136
 3992SOL    HW212876   2.782   2.435   1.144
 3993SOL     OW12877   1.167   3.563   2.578
 3993SOL    HW112878   1.208   3.479   2.544
 3993SOL    HW212879   1.172   3.634   2.508
 3994SOL     OW12880   2.813   6.880   5.021
 3994SOL    HW112881   2.876   6.920   4.954
 3994SOL    HW212882   2.810   6.781   5.009
 3995SOL     OW12883   1.365   2.647   5.008
 3995SOL    HW112884   1.349   2.744   5.022
 3995SOL    HW212885   1.392   2.604   5.094
 3996SOL     OW12886   0.570   6.479   5.157
 3996SOL    HW112887   0.503   6.549   5.131
 3996SOL    HW212888   0.662   6.511   5.135
 3997SOL     OW12889   5.480   0.759   4.438
 3997SOL    HW112890   5.428   0.689   4.487
 3997SOL    HW212891   5.420   0.835   4.413
 3998SOL     OW12892   4.102   2.192   3.735
 3998SOL    HW112893   4.068   2.235   3.818
 3998SOL    HW212894   4.111   2.260   3.662
 3999SOL     OW12895   6.027   2.074   5.137
 3999SOL    HW112896   6.018   2.060   5.039
 3999SOL    HW212897   6.116   2.115   5.157
 4000SOL     OW12898   4.149   0.249   3.423
 4000SOL    HW112899   4.248   0.259   3.427
 4000SOL    HW212900   4.114   0.224   3.513
 4001SOL     OW12901   1.284   2.084   3.209
 4001SOL    HW112902   1.272   2.175   3.171
 4001SOL    HW212903   1.381   2.062   3.215
 4002SOL     OW12904   2.072   3.358   2.180
 4002SOL    HW112905   1.991   3.311   2.146
 4002SOL    HW212906   2.122   3.397   2.103
 4003SOL     OW12907   3.600   0.506   4.555
 4003SOL    HW112908   3.601   0.605   4.539
 4003SOL    HW212909   3.692   0.470   4.545
 4004SOL     OW12910   6.723   1.665   5.262
 4004SOL    HW112911   6.678   1.726   5.196
 4004SOL    HW212912   6.753   1.718   5.341
 4005SOL     OW12913   5.668   5.200   5.918
 4005SOL    HW112914   5.754   5.249   5.926
 4005SOL    HW212915   5.637   5.200   5.823
 4006SOL     OW12916   3.896   5.373   2.306
 4006SOL    HW112917   3.926   5.417   2.390
 4006SOL    HW212918   3.968   5.380   2.237
 4007SOL     OW12919   0.101   1.996   6.597
 4007SOL    HW112920   0.160   2.071   6.626
 4007SOL    HW212921   0.095   1.994   6.497
 4008SOL     OW12922   2.194   2.404   4.985
 4008SOL    HW112923   2.207   2.392   4.887
 4008SOL    HW212924   2.218   2.498   5.011
 4009SOL     OW12925   4.143   3.505   2.719
 4009SOL    HW112926   4.060   3.487   2.667
 4009SOL    HW212927   4.125   3.576   2.788
 4010SOL     OW12928   1.980   2.982   0.235
 4010SOL    HW112929   1.987   3.053   0.304
 4010SOL    HW212930   1.898   2.927   0.253
 4011SOL     OW12931   1.198   2.718   1.706
 4011SOL    HW112932   1.183   2.634   1.653
 4011SOL    HW212933   1.119   2.778   1.696
 4012SOL     OW12934   6.626   3.889   3.537
 4012SOL    HW112935   6.702   3.848   3.587
 4012SOL    HW212936   6.646   3.986   3.520
 4013SOL     OW12937   4.645   2.598   3.207
 4013SOL    HW112938   4.570   2.563   3.263
 4013SOL    HW212939   4.731   2.556   3.237
 4014SOL     OW12940   5.160   5.888   2.875
 4014SOL    HW112941   5.233   5.823   2.894
 4014SOL    HW212942   5.193   5.981   2.888
 4015SOL     OW12943   5.079   3.662   6.062
 4015SOL    HW112944   5.037   3.698   6.146
 4015SOL    HW212945   5.135   3.732   6.020
 4016SOL     OW12946   2.819   6.205   5.308
 4016SOL    HW112947   2.845   6.238   5.399
 4016SOL    HW212948   2.720   6.192   5.304
 4017SOL     OW12949   6.463   5.793   6.906
 4017SOL    HW112950   6.365   5.778   6.894
 4017SOL    HW212951   6.498   5.843   6.826
 4018SOL     OW12952   3.053   5.640   0.555
 4018SOL    HW112953   3.010   5.707   0.615
 4018SOL    HW212954   3.147   5.668   0.535
 4019SOL     OW12955   5.538   5.185   3.485
 4019SOL    HW112956   5.457   5.240   3.467
 4019SOL    HW212957   5.541   5.162   3.583
 4020SOL     OW12958   5.308   1.771   5.807
 4020SOL    HW112959   5.384   1.721   5.765
 4020SOL    HW212960   5.323   1.870   5.796
 4021SOL     OW12961   3.117   4.451   5.955
 4021SOL    HW112962   3.196   4.401   5.920
 4021SOL    HW212963   3.067   4.492   5.879
 4022SOL     OW12964   4.975   0.258   1.457
 4022SOL    HW112965   4.982   0.345   1.407
 4022SOL    HW212966   5.064   0.235   1.496
 4023SOL     OW12967   6.595   0.480   6.118
 4023SOL    HW112968   6.689   0.448   6.108
 4023SOL    HW212969   6.544   0.415   6.175
 4024SOL     OW12970   3.930   4.919   3.932
 4024SOL    HW112971   4.028   4.930   3.920
 4024SOL    HW212972   3.887   4.899   3.844
 4025SOL     OW12973   1.205   4.734   3.012
 4025SOL    HW112974   1.279   4.697   3.070
 4025SOL    HW212975   1.237   4.817   2.967
 4026SOL     OW12976   5.563   6.817   4.303
 4026SOL    HW112977   5.475   6.821   4.256
 4026SOL    HW212978   5.601   6.910   4.309
 4027SOL     OW12979   3.964   5.320   1.382
 4027SOL    HW112980   4.003   5.345   1.470
 4027SOL    HW212981   4.013   5.368   1.309
 4028SOL     OW12982   2.398   0.226   3.673
 4028SOL    HW112983   2.325   0.183   3.726
 4028SOL    HW212984   2.358   0.294   3.612
 4029SOL     OW12985   2.127   4.609   4.868
 4029SOL    HW112986   2.069   4.528   4.860
 4029SOL    HW212987   2.091   4.682   4.810
 4030SOL     OW12988   0.694   1.740   5.589
 4030SOL    HW112989   0.700   1.640   5.590
 4030SOL    HW212990   0.770   1.779   5.640
 4031SOL     OW12991   4.036   5.563   4.507
 4031SOL    HW112992   4.126   5.563   4.551
 4031SOL    HW212993   4.044   5.529   4.413
 4032SOL     OW12994   5.102   0.097   4.731
 4032SOL    HW112995   5.108   0.110   4.830
 4032SOL    HW212996   5.148   0.173   4.684
 4033SOL     OW12997   2.809   3.848   5.477
 4033SOL    HW112998   2.780   3.888   5.390
 4033SOL    HW212999   2.863   3.766   5.460
 4034SOL     OW13000   6.582   2.152   4.042
 4034SOL    HW113001   6.667   2.202   4.053
 4034SOL    HW213002   6.594   2.079   3.975
 4035SOL     OW13003   0.238   5.051   0.570
 4035SOL    HW113004   0.282   5.126   0.520
 4035SOL    HW213005   0.140   5.069   0.578
 4036SOL     OW13006   6.560   6.700   3.290
 4036SOL    HW113007   6.492   6.769   3.266
 4036SOL    HW213008   6.556   6.683   3.389
 4037SOL     OW13009   6.677   4.132   6.170
 4037SOL    HW113010   6.639   4.124   6.263
 4037SOL    HW213011   6.607   4.171   6.110
 4038SOL     OW13012   6.354   4.921   3.807
 4038SOL    HW113013   6.331   4.909   3.711
 4038SOL    HW213014   6.451   4.900   3.821
 4039SOL     OW13015   3.934   5.992   1.210
 4039SOL    HW113016   3.969   6.085   1.219
 4039SOL    HW213017   3.992   5.930   1.263
 4040SOL     OW13018   3.920   6.297   1.257
 4040SOL    HW113019   3.878   6.365   1.317
 4040SOL    HW213020   3.874   6.298   1.168
 4041SOL     OW13021   1.351   0.201   3.879
 4041SOL    HW113022   1.260   0.221   3.915
 4041SOL    HW213023   1.387   0.283   3.834
 4042SOL     OW13024   6.094   5.347   2.262
 4042SOL    HW113025   5.996   5.342   2.246
 4042SOL    HW213026   6.126   5.440   2.246
 4043SOL     OW13027   6.622   3.257   1.423
 4043SOL    HW113028   6.577   3.292   1.341
 4043SOL    HW213029   6.611   3.158   1.428
 4044SOL     OW13030   6.292   5.948   3.124
 4044SOL    HW113031   6.382   5.904   3.110
 4044SOL    HW213032   6.232   5.925   3.047
 4045SOL     OW13033   2.144   5.388   5.723
 4045SOL    HW113034   2.053   5.348   5.736
 4045SOL    HW213035   2.166   5.390   5.626
 4046SOL     OW13036   1.011   3.249   1.060
 4046SOL    HW113037   1.058   3.321   1.112
 4046SOL    HW213038   1.016   3.163   1.110
 4047SOL     OW13039   3.442   4.044   1.519
 4047SOL    HW113040   3.384   4.116   1.556
 4047SOL    HW213041   3.385   3.972   1.480
 4048SOL     OW13042   5.118   1.711   0.907
 4048SOL    HW113043   5.184   1.758   0.848
 4048SOL    HW213044   5.068   1.779   0.961
 4049SOL     OW13045   6.843   0.777   5.923
 4049SOL    HW113046   6.909   0.819   5.985
 4049SOL    HW213047   6.755   0.824   5.931
 4050SOL     OW13048   2.282   0.866   1.335
 4050SOL    HW113049   2.364   0.867   1.277
 4050SOL    HW213050   2.260   0.959   1.363
 4051SOL     OW13051   1.722   3.914   0.818
 4051SOL    HW113052   1.633   3.870   0.822
 4051SOL    HW213053   1.783   3.863   0.757
 4052SOL     OW13054   1.857   6.093   1.588
 4052SOL    HW113055   1.831   5.997   1.589
 4052SOL    HW213056   1.836   6.133   1.498
 4053SOL     OW13057   2.846   4.770   3.519
 4053SOL    HW113058   2.849   4.745   3.616
 4053SOL    HW213059   2.939   4.783   3.484
 4054SOL     OW13060   5.371   1.723   6.768
 4054SOL    HW113061   5.320   1.639   6.785
 4054SOL    HW213062   5.417   1.751   6.852
 4055SOL     OW13063   4.121   2.249   0.326
 4055SOL    HW113064   4.123   2.167   0.269
 4055SOL    HW213065   4.201   2.251   0.385
 4056SOL     OW13066   3.937   2.977   0.931
 4056SOL    HW113067   3.921   2.880   0.944
 4056SOL    HW213068   3.905   3.028   1.011
 4057SOL     OW13069   6.407   2.237   6.725
 4057SOL    HW113070   6.458   2.238   6.639
 4057SOL    HW213071   6.448   2.301   6.790
 4058SOL     OW13072   1.621   0.793   4.865
 4058SOL    HW113073   1.534   0.756   4.898
 4058SOL    HW213074   1.627   0.779   4.766
 4059SOL     OW13075   6.184   1.464   4.827
 4059SOL    HW113076   6.225   1.470   4.736
 4059SOL    HW213077   6.233   1.397   4.882
 4060SOL     OW13078   3.913   5.950   4.793
 4060SOL    HW113079   3.919   5.891   4.713
 4060SOL    HW213080   3.999   5.998   4.806
 4061SOL     OW13081   2.530   3.018   1.581
 4061SOL    HW113082   2.599   3.085   1.551
 4061SOL    HW213083   2.576   2.941   1.625
 4062SOL     OW13084   3.161   6.493   3.096
 4062SOL    HW113085   3.223   6.465   3.170
 4062SOL    HW213086   3.068   6.501   3.132
 4063SOL     OW13087   2.840   5.358   6.144
 4063SOL    HW113088   2.918   5.390   6.198
 4063SOL    HW213089   2.850   5.388   6.049
 4064SOL     OW13090   6.266   0.398   4.373
 4064SOL    HW113091   6.296   0.362   4.285
 4064SOL    HW213092   6.271   0.498   4.372
 4065SOL     OW13093   5.886   4.982   0.038
 4065SOL    HW113094   5.966   4.938   7.021
 4065SOL    HW213095   5.877   4.951   0.133
 4066SOL     OW13096   6.148   5.207   2.012
 4066SOL    HW113097   6.240   5.238   1.988
 4066SOL    HW213098   6.131   5.225   2.108
 4067SOL     OW13099   6.120   1.050   1.819
 4067SOL    HW113100   6.100   1.142   1.784
 4067SOL    HW213101   6.166   0.997   1.748
 4068SOL     OW13102   5.682   1.303   4.090
 4068SOL    HW113103   5.613   1.373   4.110
 4068SOL    HW213104   5.638   1.214   4.084
 4069SOL     OW13105   0.339   5.881   1.447
 4069SOL    HW113106   0.359   5.787   1.422
 4069SOL    HW213107   0.242   5.900   1.432
 4070SOL     OW13108   0.322   3.686   2.932
 4070SOL    HW113109   0.309   3.598   2.885
 4070SOL    HW213110   0.276   3.684   3.020
 4071SOL     OW13111   2.656   0.772   3.700
 4071SOL    HW113112   2.594   0.716   3.756
 4071SOL    HW213113   2.652   0.867   3.730
 4072SOL     OW13114   0.693   0.295   4.443
 4072SOL    HW113115   0.661   0.331   4.355
 4072SOL    HW213116   0.690   0.195   4.440
 4073SOL     OW13117   3.136   5.068   1.395
 4073SOL    HW113118   3.094   5.000   1.455
 4073SOL    HW213119   3.201   5.024   1.333
 4074SOL     OW13120   1.149   2.854   0.747
 4074SOL    HW113121   1.093   2.834   0.666
 4074SOL    HW213122   1.177   2.768   0.791
 4075SOL     OW13123   5.243   0.811   3.870
 4075SOL    HW113124   5.266   0.714   3.876
 4075SOL    HW213125   5.144   0.823   3.876
 4076SOL     OW13126   1.495   2.620   3.404
 4076SOL    HW113127   1.411   2.575   3.434
 4076SOL    HW213128   1.513   2.597   3.309
 4077SOL     OW13129   2.899   1.785   0.753
 4077SOL    HW113130   2.849   1.725   0.815
 4077SOL    HW213131   2.992   1.749   0.739
 4078SOL     OW13132   5.191   3.772   2.480
 4078SOL    HW113133   5.277   3.808   2.444
 4078SOL    HW213134   5.181   3.800   2.576
 4079SOL     OW13135   6.436   0.737   4.146
 4079SOL    HW113136   6.508   0.804   4.129
 4079SOL    HW213137   6.473   0.662   4.200
 4080SOL     OW13138   3.684   2.933   2.390
 4080SOL    HW113139   3.770   2.952   2.344
 4080SOL    HW213140   3.616   2.901   2.324
 4081SOL     OW13141   2.249   2.240   6.429
 4081SOL    HW113142   2.319   2.202   6.369
 4081SOL    HW213143   2.168   2.180   6.428
 4082SOL     OW13144   1.348   2.300   5.577
 4082SOL    HW113145   1.292   2.252   5.644
 4082SOL    HW213146   1.401   2.234   5.524
 4083SOL     OW13147   5.611   5.567   2.665
 4083SOL    HW113148   5.561   5.650   2.640
 4083SOL    HW213149   5.685   5.551   2.600
 4084SOL     OW13150   4.395   0.511   2.771
 4084SOL    HW113151   4.453   0.524   2.852
 4084SOL    HW213152   4.373   0.600   2.731
 4085SOL     OW13153   3.204   4.876   2.316
 4085SOL    HW113154   3.122   4.819   2.313
 4085SOL    HW213155   3.240   4.887   2.224
 4086SOL     OW13156   6.244   4.599   4.798
 4086SOL    HW113157   6.217   4.514   4.753
 4086SOL    HW213158   6.252   4.584   4.897
 4087SOL     OW13159   1.788   0.400   1.998
 4087SOL    HW113160   1.725   0.414   2.074
 4087SOL    HW213161   1.743   0.425   1.912
 4088SOL     OW13162   6.948   2.016   5.180
 4088SOL    HW113163   6.901   2.021   5.092
 4088SOL    HW213164   7.008   1.937   5.181
 4089SOL     OW13165   0.902   0.737   2.805
 4089SOL    HW113166   0.956   0.793   2.743
 4089SOL    HW213167   0.912   0.771   2.899
 4090SOL     OW13168   2.809   2.119   5.869
 4090SOL    HW113169   2.867   2.199   5.887
 4090SOL    HW213170   2.824   2.088   5.775
 4091SOL     OW13171   3.541   5.620   2.004
 4091SOL    HW113172   3.459   5.672   1.979
 4091SOL    HW213173   3.614   5.639   1.939
 4092SOL     OW13174   4.958   2.397   5.556
 4092SOL    HW113175   4.860   2.379   5.568
 4092SOL    HW213176   4.983   2.482   5.601
 4093SOL     OW13177   5.431   4.308   3.551
 4093SOL    HW113178   5.462   4.215   3.529
 4093SOL    HW213179   5.418   4.316   3.650
 4094SOL     OW13180   0.205   5.964   6.941
 4094SOL    HW113181   0.122   5.915   6.967
 4094SOL    HW213182   0.212   5.969   6.842
 4095SOL     OW13183   1.035   5.285   0.673
 4095SOL    HW113184   1.037   5.224   0.752
 4095SOL    HW213185   1.007   5.234   0.592
 4096SOL     OW13186   0.714   0.801   6.854
 4096SOL    HW113187   0.662   0.859   6.916
 4096SOL    HW213188   0.690   0.706   6.869
 4097SOL     OW13189   6.510   3.857   4.997
 4097SOL    HW113190   6.491   3.858   4.899
 4097SOL    HW213191   6.446   3.795   5.043
 4098SOL     OW13192   1.377   4.989   2.570
 4098SOL    HW113193   1.316   4.968   2.493
 4098SOL    HW213194   1.391   4.906   2.624
 4099SOL     OW13195   5.926   4.555   5.900
 4099SOL    HW113196   6.001   4.576   5.963
 4099SOL    HW213197   5.920   4.455   5.889
 4100SOL     OW13198   1.944   1.524   2.857
 4100SOL    HW113199   1.910   1.615   2.835
 4100SOL    HW213200   2.043   1.528   2.869
 4101SOL     OW13201   6.612   5.536   6.901
 4101SOL    HW113202   6.658   5.528   6.812
 4101SOL    HW213203   6.579   5.629   6.912
 4102SOL     OW13204   1.481   5.971   0.472
 4102SOL    HW113205   1.539   5.972   0.390
 4102SOL    HW213206   1.526   6.023   0.544
 4103SOL     OW13207   1.895   0.099   3.679
 4103SOL    HW113208   1.858   0.009   3.658
 4103SOL    HW213209   1.827   0.153   3.729
 4104SOL     OW13210   2.285   5.626   5.299
 4104SOL    HW113211   2.204   5.670   5.340
 4104SOL    HW213212   2.349   5.602   5.372
 4105SOL     OW13213   4.251   0.195   2.317
 4105SOL    HW113214   4.311   0.276   2.318
 4105SOL    HW213215   4.296   0.121   2.267
 4106SOL     OW13216   1.200   1.007   2.767
 4106SOL    HW113217   1.192   0.911   2.794
 4106SOL    HW213218   1.226   1.062   2.847
 4107SOL     OW13219   1.600   0.537   1.401
 4107SOL    HW113220   1.695   0.547   1.430
 4107SOL    HW213221   1.597   0.514   1.304
 4108SOL     OW13222   6.303   6.292   5.903
 4108SOL    HW113223   6.224   6.288   5.964
 4108SOL    HW213224   6.309   6.206   5.852
 4109SOL     OW13225   5.354   6.101   3.718
 4109SOL    HW113226   5.448   6.132   3.711
 4109SOL    HW213227   5.332   6.043   3.640
 4110SOL     OW13228   5.325   2.884   0.796
 4110SOL    HW113229   5.332   2.879   0.697
 4110SOL    HW213230   5.331   2.979   0.826
 4111SOL     OW13231   6.134   4.244   4.094
 4111SOL    HW113232   6.131   4.261   3.996
 4111SOL    HW213233   6.127   4.145   4.111
 4112SOL     OW13234   3.794   6.039   4.195
 4112SOL    HW113235   3.877   6.025   4.250
 4112SOL    HW213236   3.813   6.016   4.100
 4113SOL     OW13237   4.247   5.172   4.553
 4113SOL    HW113238   4.217   5.259   4.514
 4113SOL    HW213239   4.184   5.100   4.522
 4114SOL     OW13240   0.068   1.183   1.545
 4114SOL    HW113241   0.088   1.258   1.481
 4114SOL    HW213242   7.017   1.128   1.508
 4115SOL     OW13243   4.454   5.621   3.539
 4115SOL    HW113244   4.504   5.700   3.503
 4115SOL    HW213245   4.389   5.651   3.609
 4116SOL     OW13246   4.853   3.737   2.892
 4116SOL    HW113247   4.849   3.772   2.798
 4116SOL    HW213248   4.822   3.807   2.956
 4117SOL     OW13249   1.082   1.706   3.509
 4117SOL    HW113250   1.070   1.674   3.415
 4117SOL    HW213251   0.998   1.691   3.561
 4118SOL     OW13252   0.802   6.810   0.383
 4118SOL    HW113253   0.894   6.771   0.372
 4118SOL    HW213254   0.791   6.843   0.477
 4119SOL     OW13255   0.493   0.716   4.549
 4119SOL    HW113256   0.485   0.677   4.641
 4119SOL    HW213257   0.588   0.712   4.519
 4120SOL     OW13258   2.648   0.906   6.727
 4120SOL    HW113259   2.572   0.870   6.782
 4120SOL    HW213260   2.716   0.834   6.713
 4121SOL     OW13261   6.781   0.301   2.158
 4121SOL    HW113262   6.799   0.317   2.061
 4121SOL    HW213263   6.684   0.281   2.171
 4122SOL     OW13264   0.701   4.177   2.985
 4122SOL    HW113265   0.759   4.249   2.945
 4122SOL    HW213266   0.608   4.212   2.996
 4123SOL     OW13267   5.367   4.822   1.184
 4123SOL    HW113268   5.272   4.798   1.166
 4123SOL    HW213269   5.374   4.869   1.272
 4124SOL     OW13270   6.663   5.909   0.044
 4124SOL    HW113271   6.661   6.007   0.022
 4124SOL    HW213272   6.590   5.862   7.020
 4125SOL     OW13273   6.210   2.675   0.402
 4125SOL    HW113274   6.261   2.716   0.327
 4125SOL    HW213275   6.176   2.585   0.373
 4126SOL     OW13276   0.773   3.407   3.339
 4126SOL    HW113277   0.719   3.337   3.386
 4126SOL    HW213278   0.716   3.488   3.324
 4127SOL     OW13279   4.633   2.704   4.175
 4127SOL    HW113280   4.675   2.786   4.137
 4127SOL    HW213281   4.648   2.702   4.274
 4128SOL     OW13282   6.806   2.901   6.575
 4128SOL    HW113283   6.845   2.990   6.554
 4128SOL    HW213284   6.740   2.910   6.650
 4129SOL     OW13285   3.176   1.698   0.759
 4129SOL    HW113286   3.226   1.785   0.760
 4129SOL    HW213287   3.214   1.637   0.829
 4130SOL     OW13288   6.171   2.941   0.837
 4130SOL    HW113289   6.077   2.965   0.811
 4130SOL    HW213290   6.215   2.891   0.762
 4131SOL     OW13291   5.293   6.708   3.086
 4131SOL    HW113292   5.335   6.786   3.134
 4131SOL    HW213293   5.308   6.718   2.987
 4132SOL     OW13294   6.333   4.886   3.260
 4132SOL    HW113295   6.379   4.974   3.272
 4132SOL    HW213296   6.255   4.898   3.199
 4133SOL     OW13297   5.653   0.138   2.821
 4133SOL    HW113298   5.746   0.102   2.827
 4133SOL    HW213299   5.657   0.236   2.802
 4134SOL     OW13300   1.530   3.684   1.158
 4134SOL    HW113301   1.522   3.698   1.059
 4134SOL    HW213302   1.478   3.602   1.184
 4135SOL     OW13303   6.386   0.951   1.622
 4135SOL    HW113304   6.370   0.933   1.719
 4135SOL    HW213305   6.448   0.881   1.586
 4136SOL     OW13306   0.788   5.088   0.801
 4136SOL    HW113307   0.723   5.090   0.725
 4136SOL    HW213308   0.758   5.020   0.868
 4137SOL     OW13309   0.806   2.192   6.674
 4137SOL    HW113310   0.765   2.115   6.626
 4137SOL    HW213311   0.745   2.223   6.746
 4138SOL     OW13312   4.581   0.320   6.892
 4138SOL    HW113313   4.523   0.383   6.943
 4138SOL    HW213314   4.674   0.357   6.889
 4139SOL     OW13315   2.261   4.256   3.013
 4139SOL    HW113316   2.267   4.188   2.940
 4139SOL    HW213317   2.328   4.329   2.997
 4140SOL     OW13318   2.487   0.340   6.583
 4140SOL    HW113319   2.518   0.289   6.664
 4140SOL    HW213320   2.399   0.304   6.553
 4141SOL     OW13321   5.446   0.751   6.005
 4141SOL    HW113322   5.429   0.739   6.103
 4141SOL    HW213323   5.503   0.831   5.991
 4142SOL     OW13324   6.549   5.624   2.523
 4142SOL    HW113325   6.552   5.539   2.575
 4142SOL    HW213326   6.467   5.675   2.547
 4143SOL     OW13327   6.663   3.312   6.520
 4143SOL    HW113328   6.640   3.409   6.509
 4143SOL    HW213329   6.623   3.260   6.444
 4144SOL     OW13330   5.321   1.597   1.364
 4144SOL    HW113331   5.345   1.500   1.361
 4144SOL    HW213332   5.255   1.617   1.292
 4145SOL     OW13333   6.995   0.626   1.749
 4145SOL    HW113334   6.899   0.621   1.775
 4145SOL    HW213335   0.028   0.624   1.830
 4146SOL     OW13336   4.793   6.546   1.991
 4146SOL    HW113337   4.769   6.643   1.999
 4146SOL    HW213338   4.749   6.495   2.064
 4147SOL     OW13339   4.617   4.955   6.839
 4147SOL    HW113340   4.581   4.944   6.746
 4147SOL    HW213341   4.559   5.020   6.889
 4148SOL     OW13342   2.844   1.273   5.008
 4148SOL    HW113343   2.801   1.231   5.088
 4148SOL    HW213344   2.782   1.271   4.931
 4149SOL     OW13345   1.408   3.972   6.355
 4149SOL    HW113346   1.325   3.984   6.301
 4149SOL    HW213347   1.476   4.041   6.329
 4150SOL     OW13348   5.322   1.437   6.828
 4150SOL    HW113349   5.322   1.338   6.818
 4150SOL    HW213350   5.242   1.476   6.782
 4151SOL     OW13351   2.602   6.028   4.569
 4151SOL    HW113352   2.516   5.990   4.602
 4151SOL    HW213353   2.586   6.120   4.532
 4152SOL     OW13354   2.351   4.386   1.442
 4152SOL    HW113355   2.289   4.318   1.481
 4152SOL    HW213356   2.310   4.426   1.360
 4153SOL     OW13357   6.660   6.129   1.593
 4153SOL    HW113358   6.751   6.105   1.559
 4153SOL    HW213359   6.660   6.130   1.693
 4154SOL     OW13360   0.951   6.450   4.304
 4154SOL    HW113361   0.951   6.409   4.395
 4154SOL    HW213362   0.977   6.547   4.311
 4155SOL     OW13363   0.202   0.618   1.996
 4155SOL    HW113364   0.219   0.700   2.051
 4155SOL    HW213365   0.288   0.584   1.959
 4156SOL     OW13366   0.349   4.975   5.874
 4156SOL    HW113367   0.260   4.997   5.833
 4156SOL    HW213368   0.364   5.033   5.954
 4157SOL     OW13369   5.502   5.866   1.138
 4157SOL    HW113370   5.557   5.900   1.062
 4157SOL    HW213371   5.562   5.841   1.214
 4158SOL     OW13372   0.644   3.234   1.457
 4158SOL    HW113373   0.734   3.222   1.415
 4158SOL    HW213374   0.635   3.173   1.536
 4159SOL     OW13375   2.624   0.376   4.517
 4159SOL    HW113376   2.694   0.372   4.446
 4159SOL    HW213377   2.607   0.471   4.542
 4160SOL     OW13378   0.760   0.195   6.736
 4160SOL    HW113379   0.835   0.255   6.707
 4160SOL    HW213380   0.798   0.108   6.769
 4161SOL     OW13381   3.560   3.465   2.882
 4161SOL    HW113382   3.635   3.408   2.914
 4161SOL    HW213383   3.473   3.418   2.900
 4162SOL     OW13384   5.439   5.597   1.201
 4162SOL    HW113385   5.461   5.681   1.152
 4162SOL    HW213386   5.522   5.542   1.211
 4163SOL     OW13387   3.329   5.981   2.152
 4163SOL    HW113388   3.372   5.980   2.061
 4163SOL    HW213389   3.333   6.073   2.190
 4164SOL     OW13390   0.051   1.056   6.280
 4164SOL    HW113391   0.023   1.066   6.375
 4164SOL    HW213392   0.123   1.122   6.259
 4165SOL     OW13393   4.018   1.045   4.621
 4165SOL    HW113394   3.947   1.043   4.551
 4165SOL    HW213395   4.068   1.131   4.616
 4166SOL     OW13396   5.619   1.881   1.139
 4166SOL    HW113397   5.712   1.862   1.106
 4166SOL    HW213398   5.625   1.940   1.220
 4167SOL     OW13399   3.651   5.170   4.343
 4167SOL    HW113400   3.561   5.176   4.387
 4167SOL    HW213401   3.660   5.080   4.300
 4168SOL     OW13402   4.966   3.781   0.183
 4168SOL    HW113403   4.969   3.840   0.264
 4168SOL    HW213404   4.878   3.735   0.177
 4169SOL     OW13405   5.342   2.728   5.956
 4169SOL    HW113406   5.411   2.663   5.988
 4169SOL    HW213407   5.257   2.680   5.937
 4170SOL     OW13408   0.499   2.343   4.411
 4170SOL    HW113409   0.520   2.436   4.384
 4170SOL    HW213410   0.579   2.301   4.455
 4171SOL     OW13411   0.948   1.430   6.997
 4171SOL    HW113412   1.047   1.416   6.988
 4171SOL    HW213413   0.912   1.370   0.044
 4172SOL     OW13414   2.915   3.324   0.589
 4172SOL    HW113415   2.932   3.407   0.642
 4172SOL    HW213416   2.961   3.331   0.500
 4173SOL     OW13417   4.880   1.981   6.498
 4173SOL    HW113418   4.826   2.058   6.533
 4173SOL    HW213419   4.956   1.963   6.560
 4174SOL     OW13420   4.198   0.178   4.878
 4174SOL    HW113421   4.161   0.166   4.970
 4174SOL    HW213422   4.195   0.274   4.852
 4175SOL     OW13423   0.845   4.349   6.543
 4175SOL    HW113424   0.821   4.288   6.618
 4175SOL    HW213425   0.800   4.437   6.555
 4176SOL     OW13426   5.804   6.765   6.226
 4176SOL    HW113427   5.889   6.739   6.180
 4176SOL    HW213428   5.825   6.828   6.301
 4177SOL     OW13429   3.743   4.888   2.890
 4177SOL    HW113430   3.660   4.943   2.895
 4177SOL    HW213431   3.774   4.883   2.795
 4178SOL     OW13432   3.918   5.972   1.707
 4178SOL    HW113433   3.994   5.914   1.678
 4178SOL    HW213434   3.919   6.057   1.655
 4179SOL     OW13435   5.061   3.288   6.426
 4179SOL    HW113436   5.059   3.386   6.407
 4179SOL    HW213437   5.153   3.252   6.407
 4180SOL     OW13438   4.177   3.325   1.129
 4180SOL    HW113439   4.191   3.326   1.228
 4180SOL    HW213440   4.118   3.402   1.103
 4181SOL     OW13441   5.016   6.810   5.560
 4181SOL    HW113442   4.998   6.883   5.627
 4181SOL    HW213443   5.023   6.850   5.469
 4182SOL     OW13444   0.540   6.635   4.726
 4182SOL    HW113445   0.490   6.574   4.787
 4182SOL    HW213446   0.490   6.648   4.641
 4183SOL     OW13447   4.148   2.082   0.646
 4183SOL    HW113448   4.107   2.169   0.619
 4183SOL    HW213449   4.136   2.015   0.573
 4184SOL     OW13450   3.463   5.641   3.809
 4184SOL    HW113451   3.509   5.597   3.886
 4184SOL    HW213452   3.433   5.732   3.835
 4185SOL     OW13453   5.023   3.283   3.280
 4185SOL    HW113454   5.121   3.286   3.298
 4185SOL    HW213455   4.976   3.241   3.358
 4186SOL     OW13456   1.712   5.959   0.326
 4186SOL    HW113457   1.771   6.037   0.306
 4186SOL    HW213458   1.671   5.925   0.241
 4187SOL     OW13459   1.508   3.246   6.837
 4187SOL    HW113460   1.596   3.263   6.791
 4187SOL    HW213461   1.450   3.328   6.830
 4188SOL     OW13462   4.554   0.056   6.978
 4188SOL    HW113463   4.459   0.027   6.979
 4188SOL    HW213464   4.562   0.145   6.934
 4189SOL     OW13465   4.625   4.727   3.600
 4189SOL    HW113466   4.525   4.724   3.599
 4189SOL    HW213467   4.655   4.822   3.612
 4190SOL     OW13468   6.561   5.935   1.163
 4190SOL    HW113469   6.612   5.914   1.246
 4190SOL    HW213470   6.489   6.002   1.183
 4191SOL     OW13471   4.436   3.921   6.768
 4191SOL    HW113472   4.365   3.891   6.704
 4191SOL    HW213473   4.508   3.851   6.773
 4192SOL     OW13474   1.441   3.208   0.087
 4192SOL    HW113475   1.456   3.234   7.017
 4192SOL    HW213476   1.400   3.118   0.092
 4193SOL     OW13477   0.291   0.620   0.441
 4193SOL    HW113478   0.268   0.670   0.358
 4193SOL    HW213479   0.347   0.541   0.418
 4194SOL     OW13480   5.070   1.716   5.872
 4194SOL    HW113481   5.159   1.757   5.853
 4194SOL    HW213482   5.005   1.788   5.896
 4195SOL     OW13483   3.768   6.810   0.664
 4195SOL    HW113484   3.699   6.798   0.593
 4195SOL    HW213485   3.762   6.903   0.701
 4196SOL     OW13486   6.271   3.161   2.177
 4196SOL    HW113487   6.249   3.155   2.274
 4196SOL    HW213488   6.351   3.218   2.164
 4197SOL     OW13489   3.956   1.115   6.595
 4197SOL    HW113490   3.907   1.107   6.507
 4197SOL    HW213491   4.035   1.055   6.595
 4198SOL     OW13492   6.320   2.274   2.193
 4198SOL    HW113493   6.331   2.186   2.238
 4198SOL    HW213494   6.223   2.300   2.192
 4199SOL     OW13495   0.063   4.201   6.353
 4199SOL    HW113496   0.124   4.151   6.292
 4199SOL    HW213497   7.007   4.233   6.302
 4200SOL     OW13498   4.431   1.324   3.890
 4200SOL    HW113499   4.487   1.265   3.832
 4200SOL    HW213500   4.454   1.419   3.873
 4201SOL     OW13501   6.050   6.762   3.754
 4201SOL    HW113502   6.076   6.859   3.759
 4201SOL    HW213503   5.962   6.754   3.707
 4202SOL     OW13504   4.806   4.028   1.582
 4202SOL    HW113505   4.783   4.028   1.485
 4202SOL    HW213506   4.839   3.937   1.608
 4203SOL     OW13507   6.482   4.205   4.989
 4203SOL    HW113508   6.513   4.146   5.063
 4203SOL    HW213509   6.391   4.176   4.958
 4204SOL     OW13510   1.805   3.728   6.591
 4204SOL    HW113511   1.874   3.705   6.522
 4204SOL    HW213512   1.770   3.820   6.572
 4205SOL     OW13513   4.312   6.523   6.374
 4205SOL    HW113514   4.378   6.456   6.339
 4205SOL    HW213515   4.360   6.587   6.435
 4206SOL     OW13516   1.902   1.832   4.934
 4206SOL    HW113517   1.901   1.897   4.858
 4206SOL    HW213518   1.946   1.746   4.904
 4207SOL     OW13519   0.568   1.614   2.318
 4207SOL    HW113520   0.559   1.714   2.323
 4207SOL    HW213521   0.501   1.572   2.378
 4208SOL     OW13522   1.969   2.694   3.598
 4208SOL    HW113523   1.962   2.726   3.692
 4208SOL    HW213524   1.903   2.620   3.583
 4209SOL     OW13525   6.469   6.292   2.006
 4209SOL    HW113526   6.544   6.343   1.964
 4209SOL    HW213527   6.490   6.194   2.004
 4210SOL     OW13528   3.802   4.134   4.935
 4210SOL    HW113529   3.796   4.141   4.836
 4210SOL    HW213530   3.849   4.215   4.971
 4211SOL     OW13531   3.812   2.556   5.330
 4211SOL    HW113532   3.901   2.534   5.291
 4211SOL    HW213533   3.797   2.655   5.327
 4212SOL     OW13534   6.679   2.077   3.189
 4212SOL    HW113535   6.642   2.107   3.277
 4212SOL    HW213536   6.607   2.081   3.119
 4213SOL     OW13537   2.925   0.823   4.208
 4213SOL    HW113538   2.898   0.768   4.286
 4213SOL    HW213539   2.943   0.763   4.130
 4214SOL     OW13540   6.827   6.277   3.101
 4214SOL    HW113541   6.778   6.236   3.179
 4214SOL    HW213542   6.816   6.376   3.104
 4215SOL     OW13543   5.164   6.592   5.622
 4215SOL    HW113544   5.107   6.674   5.621
 4215SOL    HW213545   5.185   6.567   5.717
 4216SOL     OW13546   2.424   5.874   1.951
 4216SOL    HW113547   2.419   5.778   1.979
 4216SOL    HW213548   2.513   5.911   1.975
 4217SOL     OW13549   0.960   0.869   3.041
 4217SOL    HW113550   1.033   0.934   3.019
 4217SOL    HW213551   0.890   0.915   3.095
 4218SOL     OW13552   3.339   1.181   0.420
 4218SOL    HW113553   3.356   1.106   0.484
 4218SOL    HW213554   3.340   1.268   0.470
 4219SOL     OW13555   4.244   5.449   2.781
 4219SOL    HW113556   4.291   5.464   2.694
 4219SOL    HW213557   4.201   5.534   2.810
 4220SOL     OW13558   5.935   1.525   1.588
 4220SOL    HW113559   5.896   1.616   1.570
 4220SOL    HW213560   5.882   1.456   1.537
 4221SOL     OW13561   1.504   6.619   0.568
 4221SOL    HW113562   1.425   6.611   0.629
 4221SOL    HW213563   1.588   6.623   0.622
 4222SOL     OW13564   5.109   2.856   4.403
 4222SOL    HW113565   5.125   2.930   4.469
 4222SOL    HW213566   5.033   2.800   4.435
 4223SOL     OW13567   4.053   3.748   1.965
 4223SOL    HW113568   4.108   3.713   2.041
 4223SOL    HW213569   4.025   3.842   1.984
 4224SOL     OW13570   4.994   4.817   4.600
 4224SOL    HW113571   5.002   4.805   4.699
 4224SOL    HW213572   4.908   4.776   4.569
 4225SOL     OW13573   0.638   2.025   5.762
 4225SOL    HW113574   0.631   2.093   5.689
 4225SOL    HW213575   0.549   1.982   5.776
 4226SOL     OW13576   0.573   6.085   4.524
 4226SOL    HW113577   0.480   6.116   4.542
 4226SOL    HW213578   0.571   5.992   4.486
 4227SOL     OW13579   4.257   5.393   2.064
 4227SOL    HW113580   4.242   5.297   2.089
 4227SOL    HW213581   4.355   5.413   2.066
 4228SOL     OW13582   1.209   5.372   3.719
 4228SOL    HW113583   1.173   5.454   3.676
 4228SOL    HW213584   1.249   5.397   3.808
 4229SOL     OW13585   6.774   5.225   5.602
 4229SOL    HW113586   6.700   5.217   5.667
 4229SOL    HW213587   6.739   5.213   5.509
 4230SOL     OW13588   6.860   1.030   2.202
 4230SOL    HW113589   6.883   1.048   2.107
 4230SOL    HW213590   6.767   1.062   2.221
 4231SOL     OW13591   6.659   1.232   6.337
 4231SOL    HW113592   6.743   1.243   6.390
 4231SOL    HW213593   6.668   1.151   6.278
 4232SOL     OW13594   1.615   5.514   3.911
 4232SOL    HW113595   1.686   5.573   3.950
 4232SOL    HW213596   1.658   5.439   3.861
 4233SOL     OW13597   3.975   5.182   2.571
 4233SOL    HW113598   3.880   5.172   2.542
 4233SOL    HW213599   4.019   5.255   2.517
 4234SOL     OW13600   3.270   5.271   6.048
 4234SOL    HW113601   3.358   5.247   6.090
 4234SOL    HW213602   3.215   5.188   6.036
 4235SOL     OW13603   6.999   5.791   5.717
 4235SOL    HW113604   0.050   5.743   5.674
 4235SOL    HW213605   6.930   5.815   5.648
 4236SOL     OW13606   0.694   5.222   2.671
 4236SOL    HW113607   0.597   5.246   2.663
 4236SOL    HW213608   0.715   5.202   2.767
 4237SOL     OW13609   6.908   4.568   3.816
 4237SOL    HW113610   6.963   4.610   3.744
 4237SOL    HW213611   6.811   4.574   3.792
 4238SOL     OW13612   2.915   6.503   3.217
 4238SOL    HW113613   2.878   6.590   3.248
 4238SOL    HW213614   2.842   6.435   3.212
 4239SOL     OW13615   4.219   1.150   3.882
 4239SOL    HW113616   4.127   1.148   3.922
 4239SOL    HW213617   4.258   1.242   3.891
 4240SOL     OW13618   6.490   6.723   2.037
 4240SOL    HW113619   6.547   6.787   2.088
 4240SOL    HW213620   6.498   6.632   2.078
 4241SOL     OW13621   5.980   3.752   0.422
 4241SOL    HW113622   5.902   3.762   0.359
 4241SOL    HW213623   5.954   3.692   0.498
 4242SOL     OW13624   2.761   1.611   3.576
 4242SOL    HW113625   2.848   1.580   3.540
 4242SOL    HW213626   2.706   1.532   3.604
 4243SOL     OW13627   4.992   0.624   2.908
 4243SOL    HW113628   4.953   0.698   2.963
 4243SOL    HW213629   4.918   0.569   2.869
 4244SOL     OW13630   3.630   3.057   3.709
 4244SOL    HW113631   3.616   3.146   3.665
 4244SOL    HW213632   3.647   2.988   3.639
 4245SOL     OW13633   6.192   1.285   6.494
 4245SOL    HW113634   6.288   1.312   6.498
 4245SOL    HW213635   6.174   1.239   6.407
 4246SOL     OW13636   0.600   3.347   0.610
 4246SOL    HW113637   0.641   3.256   0.609
 4246SOL    HW213638   0.523   3.348   0.674
 4247SOL     OW13639   0.191   5.750   5.516
 4247SOL    HW113640   0.262   5.691   5.476
 4247SOL    HW213641   0.219   5.845   5.506
 4248SOL     OW13642   1.318   2.905   5.040
 4248SOL    HW113643   1.372   2.969   5.095
 4248SOL    HW213644   1.237   2.877   5.091
 4249SOL     OW13645   5.564   4.150   5.954
 4249SOL    HW113646   5.515   4.172   6.038
 4249SOL    HW213647   5.654   4.113   5.977
 4250SOL     OW13648   0.436   4.292   2.986
 4250SOL    HW113649   0.343   4.289   2.948
 4250SOL    HW213650   0.476   4.382   2.972
 4251SOL     OW13651   5.700   3.913   0.614
 4251SOL    HW113652   5.684   3.815   0.601
 4251SOL    HW213653   5.770   3.926   0.685
 4252SOL     OW13654   0.530   5.825   5.573
 4252SOL    HW113655   0.499   5.731   5.557
 4252SOL    HW213656   0.502   5.882   5.496
 4253SOL     OW13657   3.885   6.198   2.784
 4253SOL    HW113658   3.814   6.266   2.801
 4253SOL    HW213659   3.975   6.237   2.803
 4254SOL     OW13660   2.516   4.216   1.079
 4254SOL    HW113661   2.512   4.205   1.178
 4254SOL    HW213662   2.569   4.298   1.057
 4255SOL     OW13663   6.983   1.928   4.680
 4255SOL    HW113664   6.940   1.999   4.624
 4255SOL    HW213665   6.927   1.845   4.677
 4256SOL     OW13666   1.627   1.226   2.197
 4256SOL    HW113667   1.552   1.169   2.232
 4256SOL    HW213668   1.663   1.185   2.113
 4257SOL     OW13669   4.150   2.197   4.652
 4257SOL    HW113670   4.111   2.201   4.744
 4257SOL    HW213671   4.077   2.178   4.586
 4258SOL     OW13672   5.498   6.401   2.595
 4258SOL    HW113673   5.573   6.373   2.536
 4258SOL    HW213674   5.471   6.495   2.573
 4259SOL     OW13675   1.961   3.119   0.487
 4259SOL    HW113676   1.889   3.176   0.448
 4259SOL    HW213677   1.921   3.034   0.521
 4260SOL     OW13678   4.970   5.735   3.334
 4260SOL    HW113679   4.953   5.793   3.413
 4260SOL    HW213680   4.996   5.643   3.365
 4261SOL     OW13681   2.181   0.978   2.773
 4261SOL    HW113682   2.157   1.025   2.688
 4261SOL    HW213683   2.129   0.892   2.779
 4262SOL     OW13684   0.223   5.886   6.642
 4262SOL    HW113685   0.277   5.826   6.584
 4262SOL    HW213686   0.236   5.981   6.614
 4263SOL     OW13687   3.171   5.484   5.889
 4263SOL    HW113688   3.223   5.406   5.925
 4263SOL    HW213689   3.187   5.492   5.791
 4264SOL     OW13690   6.824   0.239   0.733
 4264SOL    HW113691   6.726   0.228   0.716
 4264SOL    HW213692   6.851   0.334   0.712
 4265SOL     OW13693   6.683   2.526   0.812
 4265SOL    HW113694   6.717   2.489   0.898
 4265SOL    HW213695   6.586   2.547   0.821
 4266SOL     OW13696   2.980   4.555   0.691
 4266SOL    HW113697   2.973   4.512   0.601
 4266SOL    HW213698   3.054   4.621   0.690
 4267SOL     OW13699   1.900   3.988   5.659
 4267SOL    HW113700   1.946   3.900   5.672
 4267SOL    HW213701   1.960   4.062   5.690
 4268SOL     OW13702   1.679   1.245   1.264
 4268SOL    HW113703   1.754   1.224   1.201
 4268SOL    HW213704   1.715   1.297   1.342
 4269SOL     OW13705   3.535   3.182   0.542
 4269SOL    HW113706   3.492   3.100   0.581
 4269SOL    HW213707   3.464   3.250   0.524
 4270SOL     OW13708   3.396   2.604   5.301
 4270SOL    HW113709   3.341   2.678   5.339
 4270SOL    HW213710   3.336   2.534   5.263
 4271SOL     OW13711   1.262   6.880   0.282
 4271SOL    HW113712   1.210   6.965   0.285
 4271SOL    HW213713   1.339   6.885   0.346
 4272SOL     OW13714   6.928   4.460   4.235
 4272SOL    HW113715   6.961   4.368   4.214
 4272SOL    HW213716   7.005   4.524   4.236
 4273SOL     OW13717   5.966   6.515   5.138
 4273SOL    HW113718   5.999   6.565   5.218
 4273SOL    HW213719   5.910   6.575   5.081
 4274SOL     OW13720   1.810   0.338   3.927
 4274SOL    HW113721   1.717   0.336   3.964
 4274SOL    HW213722   1.865   0.266   3.970
 4275SOL     OW13723   0.930   7.018   6.762
 4275SOL    HW113724   0.976   6.966   6.691
 4275SOL    HW213725   0.985   0.074   6.785
 4276SOL     OW13726   2.152   4.275   2.370
 4276SOL    HW113727   2.063   4.239   2.343
 4276SOL    HW213728   2.200   4.208   2.426
 4277SOL     OW13729   0.312   5.269   3.664
 4277SOL    HW113730   0.388   5.209   3.642
 4277SOL    HW213731   0.342   5.364   3.657
 4278SOL     OW13732   0.420   6.653   5.420
 4278SOL    HW113733   0.373   6.717   5.481
 4278SOL    HW213734   0.491   6.702   5.369
 4279SOL     OW13735   3.607   5.581   4.050
 4279SOL    HW113736   3.683   5.626   4.096
 4279SOL    HW213737   3.587   5.494   4.096
 4280SOL     OW13738   4.920   3.175   4.083
 4280SOL    HW113739   5.012   3.137   4.097
 4280SOL    HW213740   4.921   3.273   4.105
 4281SOL     OW13741   2.187   4.169   5.223
 4281SOL    HW113742   2.228   4.106   5.157
 4281SOL    HW213743   2.242   4.253   5.226
 4282SOL     OW13744   1.554   2.508   1.547
 4282SOL    HW113745   1.634   2.565   1.530
 4282SOL    HW213746   1.564   2.461   1.634
 4283SOL     OW13747   1.710   0.083   4.516
 4283SOL    HW113748   1.681   0.071   4.611
 4283SOL    HW213749   1.658   0.157   4.474
 4284SOL     OW13750   6.132   1.812   2.776
 4284SOL    HW113751   6.231   1.794   2.775
 4284SOL    HW213752   6.083   1.725   2.783
 4285SOL     OW13753   1.324   6.061   6.101
 4285SOL    HW113754   1.403   6.056   6.162
 4285SOL    HW213755   1.251   6.002   6.135
 4286SOL     OW13756   5.734   5.451   0.220
 4286SOL    HW113757   5.710   5.482   0.312
 4286SOL    HW213758   5.741   5.531   0.160
 4287SOL     OW13759   5.043   6.821   5.047
 4287SOL    HW113760   4.957   6.835   5.096
 4287SOL    HW213761   5.086   6.736   5.078
 4288SOL     OW13762   1.379   0.010   2.952
 4288SOL    HW113763   1.398   0.008   2.854
 4288SOL    HW213764   1.285   0.042   2.968
 4289SOL     OW13765   5.623   3.593   1.445
 4289SOL    HW113766   5.580   3.601   1.355
 4289SOL    HW213767   5.561   3.546   1.507
 4290SOL     OW13768   2.269   1.151   1.589
 4290SOL    HW113769   2.216   1.074   1.625
 4290SOL    HW213770   2.275   1.222   1.659
 4291SOL     OW13771   6.497   4.448   1.158
 4291SOL    HW113772   6.549   4.379   1.208
 4291SOL    HW213773   6.441   4.403   1.088
 4292SOL     OW13774   6.117   5.621   6.664
 4292SOL    HW113775   6.152   5.677   6.739
 4292SOL    HW213776   6.017   5.619   6.668
 4293SOL     OW13777   6.830   2.732   0.276
 4293SOL    HW113778   6.800   2.657   0.217
 4293SOL    HW213779   6.804   2.712   0.370
 4294SOL     OW13780   5.002   2.170   5.875
 4294SOL    HW113781   5.007   2.270   5.867
 4294SOL    HW213782   4.924   2.146   5.933
 4295SOL     OW13783   4.080   6.752   4.460
 4295SOL    HW113784   4.114   6.663   4.431
 4295SOL    HW213785   4.156   6.811   4.486
 4296SOL     OW13786   2.479   1.622   0.749
 4296SOL    HW113787   2.410   1.564   0.793
 4296SOL    HW213788   2.568   1.576   0.752
 4297SOL     OW13789   5.873   0.367   5.861
 4297SOL    HW113790   5.810   0.298   5.824
 4297SOL    HW213791   5.897   0.343   5.955
 4298SOL     OW13792   3.023   5.308   0.670
 4298SOL    HW113793   3.034   5.391   0.616
 4298SOL    HW213794   2.942   5.316   0.728
 4299SOL     OW13795   0.609   3.987   6.495
 4299SOL    HW113796   0.511   3.989   6.511
 4299SOL    HW213797   0.627   3.976   6.398
 4300SOL     OW13798   5.545   0.632   0.162
 4300SOL    HW113799   5.499   0.696   0.100
 4300SOL    HW213800   5.631   0.602   0.120
 4301SOL     OW13801   3.414   1.526   0.259
 4301SOL    HW113802   3.493   1.500   0.315
 4301SOL    HW213803   3.335   1.473   0.288
 4302SOL     OW13804   0.949   6.165   6.758
 4302SOL    HW113805   1.011   6.188   6.833
 4302SOL    HW213806   0.864   6.128   6.795
 4303SOL     OW13807   6.936   2.960   1.762
 4303SOL    HW113808   6.990   3.030   1.808
 4303SOL    HW213809   6.857   2.937   1.818
 4304SOL     OW13810   3.189   3.334   4.009
 4304SOL    HW113811   3.110   3.365   4.063
 4304SOL    HW213812   3.163   3.253   3.956
 4305SOL     OW13813   6.096   1.960   3.807
 4305SOL    HW113814   6.070   1.867   3.830
 4305SOL    HW213815   6.117   2.011   3.890
 4306SOL     OW13816   6.656   5.344   5.880
 4306SOL    HW113817   6.560   5.358   5.857
 4306SOL    HW213818   6.664   5.266   5.943
 4307SOL     OW13819   5.288   3.496   6.169
 4307SOL    HW113820   5.220   3.569   6.166
 4307SOL    HW213821   5.380   3.536   6.164
 4308SOL     OW13822   5.486   6.129   4.659
 4308SOL    HW113823   5.584   6.149   4.660
 4308SOL    HW213824   5.435   6.210   4.686
 4309SOL     OW13825   1.922   1.493   0.768
 4309SOL    HW113826   2.000   1.442   0.731
 4309SOL    HW213827   1.953   1.553   0.841
 4310SOL     OW13828   1.480   0.811   2.417
 4310SOL    HW113829   1.428   0.766   2.344
 4310SOL    HW213830   1.449   0.777   2.506
 4311SOL     OW13831   1.867   6.705   3.736
 4311SOL    HW113832   1.925   6.756   3.800
 4311SOL    HW213833   1.816   6.635   3.786
 4312SOL     OW13834   2.295   5.127   1.561
 4312SOL    HW113835   2.376   5.072   1.581
 4312SOL    HW213836   2.224   5.069   1.521
 4313SOL     OW13837   4.811   0.730   2.567
 4313SOL    HW113838   4.911   0.736   2.572
 4313SOL    HW213839   4.772   0.742   2.658
 4314SOL     OW13840   4.798   2.920   2.895
 4314SOL    HW113841   4.820   3.015   2.917
 4314SOL    HW213842   4.860   2.859   2.945
 4315SOL     OW13843   2.469   1.525   1.938
 4315SOL    HW113844   2.446   1.600   1.876
 4315SOL    HW213845   2.407   1.526   2.016
 4316SOL     OW13846   6.394   6.904   2.730
 4316SOL    HW113847   6.308   6.854   2.719
 4316SOL    HW213848   6.470   6.849   2.695
 4317SOL     OW13849   4.251   1.311   3.078
 4317SOL    HW113850   4.251   1.301   2.978
 4317SOL    HW213851   4.157   1.316   3.111
 4318SOL     OW13852   0.310   2.286   4.002
 4318SOL    HW113853   0.380   2.303   3.933
 4318SOL    HW213854   0.310   2.360   4.069
 4319SOL     OW13855   2.500   3.354   5.842
 4319SOL    HW113856   2.491   3.400   5.754
 4319SOL    HW213857   2.490   3.421   5.916
 4320SOL     OW13858   0.145   5.576   2.474
 4320SOL    HW113859   0.213   5.553   2.544
 4320SOL    HW213860   0.191   5.618   2.396
 4321SOL     OW13861   1.001   0.315   5.644
 4321SOL    HW113862   1.035   0.225   5.620
 4321SOL    HW213863   0.939   0.307   5.722
 4322SOL     OW13864   6.182   0.745   0.585
 4322SOL    HW113865   6.126   0.686   0.643
 4322SOL    HW213866   6.220   0.819   0.640
 4323SOL     OW13867   6.792   2.635   3.632
 4323SOL    HW113868   6.764   2.611   3.725
 4323SOL    HW213869   6.891   2.648   3.629
 4324SOL     OW13870   5.827   4.083   5.997
 4324SOL    HW113871   5.787   4.029   5.922
 4324SOL    HW213872   5.859   4.171   5.962
 4325SOL     OW13873   1.797   2.205   6.533
 4325SOL    HW113874   1.816   2.127   6.594
 4325SOL    HW213875   1.822   2.290   6.580
 4326SOL     OW13876   6.416   1.963   5.293
 4326SOL    HW113877   6.334   1.926   5.338
 4326SOL    HW213878   6.469   2.016   5.359
 4327SOL     OW13879   5.783   6.882   2.668
 4327SOL    HW113880   5.794   6.929   2.581
 4327SOL    HW213881   5.801   6.946   2.743
 4328SOL     OW13882   5.342   4.843   0.139
 4328SOL    HW113883   5.297   4.794   0.215
 4328SOL    HW213884   5.436   4.863   0.164
 4329SOL     OW13885   3.355   1.482   5.861
 4329SOL    HW113886   3.369   1.505   5.765
 4329SOL    HW213887   3.443   1.485   5.909
 4330SOL     OW13888   1.942   0.661   6.440
 4330SOL    HW113889   1.965   0.749   6.482
 4330SOL    HW213890   1.865   0.673   6.377
 4331SOL     OW13891   6.237   2.451   7.003
 4331SOL    HW113892   6.206   2.546   6.999
 4331SOL    HW213893   6.315   2.443   0.039
 4332SOL     OW13894   5.348   3.275   1.479
 4332SOL    HW113895   5.435   3.322   1.495
 4332SOL    HW213896   5.282   3.340   1.442
 4333SOL     OW13897   5.592   0.873   5.136
 4333SOL    HW113898   5.691   0.879   5.148
 4333SOL    HW213899   5.546   0.932   5.203
 4334SOL     OW13900   4.337   0.890   2.007
 4334SOL    HW113901   4.411   0.956   2.002
 4334SOL    HW213902   4.374   0.799   2.026
 4335SOL     OW13903   3.307   4.133   5.082
 4335SOL    HW113904   3.306   4.223   5.126
 4335SOL    HW213905   3.306   4.061   5.152
 4336SOL     OW13906   1.351   6.083   4.081
 4336SOL    HW113907   1.372   6.119   3.990
 4336SOL    HW213908   1.346   5.983   4.077
 4337SOL     OW13909   6.957   5.257   0.973
 4337SOL    HW113910   6.982   5.161   0.983
 4337SOL    HW213911   6.900   5.268   0.891
 4338SOL     OW13912   6.455   6.548   4.211
 4338SOL    HW113913   6.441   6.452   4.233
 4338SOL    HW213914   6.498   6.556   4.121
 4339SOL     OW13915   6.610   1.385   6.026
 4339SOL    HW113916   6.674   1.358   6.098
 4339SOL    HW213917   6.517   1.363   6.054
 4340SOL     OW13918   4.627   3.457   1.632
 4340SOL    HW113919   4.665   3.366   1.647
 4340SOL    HW213920   4.685   3.507   1.567
 4341SOL     OW13921   0.790   4.592   0.577
 4341SOL    HW113922   0.856   4.519   0.563
 4341SOL    HW213923   0.827   4.660   0.640
 4342SOL     OW13924   6.978   3.168   2.828
 4342SOL    HW113925   6.919   3.184   2.907
 4342SOL    HW213926   0.040   3.217   2.841
 4343SOL     OW13927   2.311   1.508   1.342
 4343SOL    HW113928   2.335   1.572   1.415
 4343SOL    HW213929   2.229   1.541   1.295
 4344SOL     OW13930   1.920   4.980   3.171
 4344SOL    HW113931   1.862   5.038   3.226
 4344SOL    HW213932   1.977   4.923   3.230
 4345SOL     OW13933   1.863   1.938   5.924
 4345SOL    HW113934   1.810   2.021   5.904
 4345SOL    HW213935   1.904   1.946   6.014
 4346SOL     OW13936   1.582   3.259   1.882
 4346SOL    HW113937   1.508   3.210   1.836
 4346SOL    HW213938   1.641   3.302   1.813
 4347SOL     OW13939   5.870   6.306   2.804
 4347SOL    HW113940   5.910   6.372   2.741
 4347SOL    HW213941   5.787   6.345   2.845
 4348SOL     OW13942   0.806   3.857   6.939
 4348SOL    HW113943   0.742   3.890   7.008
 4348SOL    HW213944   0.761   3.854   6.850
 4349SOL     OW13945   6.650   0.446   3.862
 4349SOL    HW113946   6.725   0.504   3.894
 4349SOL    HW213947   6.671   0.411   3.771
 4350SOL     OW13948   4.976   1.851   3.640
 4350SOL    HW113949   4.895   1.858   3.582
 4350SOL    HW213950   4.948   1.850   3.736
 4351SOL     OW13951   2.707   6.257   1.019
 4351SOL    HW113952   2.722   6.203   0.936
 4351SOL    HW213953   2.732   6.202   1.100
 4352SOL     OW13954   6.458   1.411   1.698
 4352SOL    HW113955   6.454   1.350   1.777
 4352SOL    HW213956   6.547   1.457   1.697
 4353SOL     OW13957   4.156   5.620   0.368
 4353SOL    HW113958   4.124   5.532   0.334
 4353SOL    HW213959   4.196   5.673   0.293
 4354SOL     OW13960   1.596   0.603   0.855
 4354SOL    HW113961   1.522   0.623   0.790
 4354SOL    HW213962   1.618   0.505   0.851
 4355SOL     OW13963   5.429   0.907   1.051
 4355SOL    HW113964   5.469   0.999   1.048
 4355SOL    HW213965   5.409   0.882   1.145
 4356SOL     OW13966   3.642   4.374   0.459
 4356SOL    HW113967   3.675   4.464   0.432
 4356SOL    HW213968   3.606   4.378   0.552
 4357SOL     OW13969   6.459   0.785   6.646
 4357SOL    HW113970   6.476   0.851   6.573
 4357SOL    HW213971   6.363   0.789   6.673
 4358SOL     OW13972   0.879   0.278   2.118
 4358SOL    HW113973   0.971   0.289   2.080
 4358SOL    HW213974   0.852   0.182   2.113
 4359SOL     OW13975   6.369   2.250   3.907
 4359SOL    HW113976   6.298   2.202   3.960
 4359SOL    HW213977   6.459   2.217   3.934
 4360SOL     OW13978   1.553   3.321   1.430
 4360SOL    HW113979   1.610   3.309   1.348
 4360SOL    HW213980   1.460   3.344   1.404
 4361SOL     OW13981   4.907   1.761   1.678
 4361SOL    HW113982   4.920   1.666   1.652
 4361SOL    HW213983   4.990   1.813   1.660
 4362SOL     OW13984   5.993   4.565   3.981
 4362SOL    HW113985   5.943   4.577   4.066
 4362SOL    HW213986   6.090   4.586   3.996
 4363SOL     OW13987   5.047   1.531   6.096
 4363SOL    HW113988   5.014   1.612   6.047
 4363SOL    HW213989   4.984   1.508   6.169
 4364SOL     OW13990   3.629   3.725   5.077
 4364SOL    HW113991   3.717   3.703   5.119
 4364SOL    HW213992   3.558   3.667   5.117
 4365SOL     OW13993   3.522   1.234   1.396
 4365SOL    HW113994   3.477   1.208   1.310
 4365SOL    HW213995   3.617   1.258   1.377
 4366SOL     OW13996   5.286   5.116   0.958
 4366SOL    HW113997   5.228   5.053   0.907
 4366SOL    HW213998   5.301   5.199   0.903
 4367SOL     OW13999   1.061   6.348   6.559
 4367SOL    HW114000   1.024   6.291   6.632
 4367SOL    HW214001   0.987   6.379   6.499
 4368SOL     OW14002   5.180   3.683   1.821
 4368SOL    HW114003   5.209   3.608   1.762
 4368SOL    HW214004   5.103   3.652   1.878
 4369SOL     OW14005   3.810   5.851   1.977
 4369SOL    HW114006   3.841   5.806   1.894
 4369SOL    HW214007   3.868   5.823   2.054
 4370SOL     OW14008   5.577   5.070   2.704
 4370SOL    HW114009   5.477   5.078   2.699
 4370SOL    HW214010   5.608   5.099   2.794
 4371SOL     OW14011   6.263   1.606   2.435
 4371SOL    HW114012   6.306   1.694   2.454
 4371SOL    HW214013   6.263   1.550   2.518
 4372SOL     OW14014   4.698   6.826   3.457
 4372SOL    HW114015   4.677   6.736   3.495
 4372SOL    HW214016   4.659   6.897   3.515
 4373SOL     OW14017   6.972   1.904   6.327
 4373SOL    HW114018   6.939   1.812   6.346
 4373SOL    HW214019   6.901   1.970   6.352
 4374SOL     OW14020   2.607   2.301   1.340
 4374SOL    HW114021   2.636   2.386   1.297
 4374SOL    HW214022   2.540   2.255   1.281
 4375SOL     OW14023   2.979   6.742   4.096
 4375SOL    HW114024   2.983   6.656   4.046
 4375SOL    HW214025   2.889   6.784   4.084
 4376SOL     OW14026   5.671   1.705   3.646
 4376SOL    HW114027   5.645   1.741   3.736
 4376SOL    HW214028   5.626   1.758   3.574
 4377SOL     OW14029   5.381   4.726   6.579
 4377SOL    HW114030   5.457   4.742   6.517
 4377SOL    HW214031   5.410   4.666   6.653
 4378SOL     OW14032   2.095   0.864   4.047
 4378SOL    HW114033   2.043   0.942   4.012
 4378SOL    HW214034   2.188   0.868   4.012
 4379SOL     OW14035   2.701   2.074   5.271
 4379SOL    HW114036   2.642   2.033   5.201
 4379SOL    HW214037   2.771   2.130   5.227
 4380SOL     OW14038   0.201   1.205   2.184
 4380SOL    HW114039   0.195   1.289   2.129
 4380SOL    HW214040   0.295   1.192   2.214
 4381SOL     OW14041   1.516   6.007   6.337
 4381SOL    HW114042   1.525   5.913   6.305
 4381SOL    HW214043   1.507   6.006   6.437
 4382SOL     OW14044   0.195   3.055   4.992
 4382SOL    HW114045   0.136   3.093   5.064
 4382SOL    HW214046   0.288   3.046   5.027
 4383SOL     OW14047   6.516   2.669   0.315
 4383SOL    HW114048   6.539   2.741   0.381
 4383SOL    HW214049   6.574   2.679   0.234
 4384SOL     OW14050   5.711   6.833   3.968
 4384SOL    HW114051   5.611   6.834   3.975
 4384SOL    HW214052   5.748   6.765   4.031
 4385SOL     OW14053   4.624   1.447   5.277
 4385SOL    HW114054   4.549   1.386   5.302
 4385SOL    HW214055   4.688   1.455   5.354
 4386SOL     OW14056   1.301   3.323   4.659
 4386SOL    HW114057   1.338   3.251   4.718
 4386SOL    HW214058   1.201   3.324   4.667
 4387SOL     OW14059   6.902   2.036   0.644
 4387SOL    HW114060   6.870   2.131   0.640
 4387SOL    HW214061   6.932   2.014   0.737
 4388SOL     OW14062   5.529   2.791   6.463
 4388SOL    HW114063   5.547   2.693   6.451
 4388SOL    HW214064   5.484   2.806   6.551
 4389SOL     OW14065   0.587   3.463   1.120
 4389SOL    HW114066   0.636   3.520   1.187
 4389SOL    HW214067   0.651   3.433   1.049
 4390SOL     OW14068   6.783   1.464   1.208
 4390SOL    HW114069   6.715   1.434   1.274
 4390SOL    HW214070   6.872   1.426   1.232
 4391SOL     OW14071   2.113   5.925   0.358
 4391SOL    HW114072   2.182   5.993   0.335
 4391SOL    HW214073   2.158   5.845   0.398
 4392SOL     OW14074   1.459   2.517   5.259
 4392SOL    HW114075   1.545   2.478   5.293
 4392SOL    HW214076   1.383   2.455   5.282
 4393SOL     OW14077   4.780   0.841   2.054
 4393SOL    HW114078   4.713   0.836   1.981
 4393SOL    HW214079   4.867   0.874   2.018
 4394SOL     OW14080   1.180   0.510   2.320
 4394SOL    HW114081   1.245   0.436   2.305
 4394SOL    HW214082   1.174   0.565   2.237
 4395SOL     OW14083   3.241   4.961   1.768
 4395SOL    HW114084   3.192   4.940   1.852
 4395SOL    HW214085   3.211   4.901   1.695
 4396SOL     OW14086   3.140   0.431   3.655
 4396SOL    HW114087   3.123   0.478   3.568
 4396SOL    HW214088   3.180   0.341   3.637
 4397SOL     OW14089   3.204   1.577   4.331
 4397SOL    HW114090   3.304   1.581   4.328
 4397SOL    HW214091   3.172   1.621   4.415
 4398SOL     OW14092   1.756   2.432   5.013
 4398SOL    HW114093   1.773   2.494   5.090
 4398SOL    HW214094   1.843   2.393   4.982
 4399SOL     OW14095   2.954   0.085   2.308
 4399SOL    HW114096   2.908   7.022   2.297
 4399SOL    HW214097   2.931   0.124   2.397
 4400SOL     OW14098   1.814   5.478   4.736
 4400SOL    HW114099   1.762   5.422   4.802
 4400SOL    HW214100   1.816   5.573   4.768
 4401SOL     OW14101   3.654   6.799   6.303
 4401SOL    HW114102   3.731   6.771   6.245
 4401SOL    HW214103   3.674   6.777   6.398
 4402SOL     OW14104   1.389   0.934   3.384
 4402SOL    HW114105   1.299   0.895   3.405
 4402SOL    HW214106   1.406   0.926   3.285
 4403SOL     OW14107   1.325   5.164   1.943
 4403SOL    HW114108   1.314   5.259   1.971
 4403SOL    HW214109   1.414   5.152   1.898
 4404SOL     OW14110   0.586   7.020   6.228
 4404SOL    HW114111   0.518   7.002   6.299
 4404SOL    HW214112   0.670   0.030   6.270
 4405SOL     OW14113   1.818   6.093   2.805
 4405SOL    HW114114   1.722   6.123   2.805
 4405SOL    HW214115   1.871   6.150   2.867
 4406SOL     OW14116   6.044   3.891   1.911
 4406SOL    HW114117   5.951   3.909   1.941
 4406SOL    HW214118   6.068   3.954   1.836
 4407SOL     OW14119   5.404   6.140   2.083
 4407SOL    HW114120   5.500   6.162   2.100
 4407SOL    HW214121   5.348   6.222   2.094
 4408SOL     OW14122   4.480   0.903   0.408
 4408SOL    HW114123   4.526   0.992   0.403
 4408SOL    HW214124   4.390   0.909   0.365
 4409SOL     OW14125   2.867   0.390   3.193
 4409SOL    HW114126   2.933   0.336   3.245
 4409SOL    HW214127   2.783   0.337   3.181
 4410SOL     OW14128   0.875   6.464   0.900
 4410SOL    HW114129   0.932   6.541   0.929
 4410SOL    HW214130   0.842   6.415   0.981
 4411SOL     OW14131   3.456   4.320   5.268
 4411SOL    HW114132   3.538   4.263   5.270
 4411SOL    HW214133   3.479   4.414   5.293
 4412SOL     OW14134   4.222   6.071   2.893
 4412SOL    HW114135   4.319   6.048   2.897
 4412SOL    HW214136   4.211   6.169   2.875
 4413SOL     OW14137   4.547   6.656   3.879
 4413SOL    HW114138   4.506   6.747   3.883
 4413SOL    HW214139   4.516   6.602   3.958
 4414SOL     OW14140   4.261   4.164   1.433
 4414SOL    HW114141   4.348   4.213   1.440
 4414SOL    HW214142   4.207   4.203   1.358
 4415SOL     OW14143   2.188   2.747   1.594
 4415SOL    HW114144   2.232   2.804   1.664
 4415SOL    HW214145   2.092   2.772   1.586
 4416SOL     OW14146   4.450   2.472   3.352
 4416SOL    HW114147   4.355   2.457   3.380
 4416SOL    HW214148   4.511   2.438   3.423
 4417SOL     OW14149   0.070   3.925   2.985
 4417SOL    HW114150   0.072   3.990   2.909
 4417SOL    HW214151   0.155   3.933   3.038
 4418SOL     OW14152   6.785   6.688   6.128
 4418SOL    HW114153   6.868   6.744   6.122
 4418SOL    HW214154   6.723   6.711   6.054
 4419SOL     OW14155   5.983   5.338   6.466
 4419SOL    HW114156   5.996   5.288   6.552
 4419SOL    HW214157   6.054   5.407   6.457
 4420SOL     OW14158   2.932   2.353   1.079
 4420SOL    HW114159   2.984   2.303   1.149
 4420SOL    HW214160   2.991   2.372   1.001
 4421SOL     OW14161   1.768   2.577   6.425
 4421SOL    HW114162   1.786   2.533   6.513
 4421SOL    HW214163   1.844   2.637   6.401
 4422SOL     OW14164   6.231   3.833   6.390
 4422SOL    HW114165   6.241   3.739   6.422
 4422SOL    HW214166   6.221   3.835   6.291
 4423SOL     OW14167   5.585   4.227   4.894
 4423SOL    HW114168   5.626   4.222   4.803
 4423SOL    HW214169   5.585   4.137   4.936
 4424SOL     OW14170   4.733   5.501   3.412
 4424SOL    HW114171   4.791   5.487   3.492
 4424SOL    HW214172   4.639   5.518   3.442
 4425SOL     OW14173   1.738   5.456   1.439
 4425SOL    HW114174   1.666   5.407   1.489
 4425SOL    HW214175   1.809   5.485   1.503
 4426SOL     OW14176   0.613   0.381   5.079
 4426SOL    HW114177   0.702   0.425   5.089
 4426SOL    HW214178   0.593   0.327   5.161
 4427SOL     OW14179   2.397   6.305   3.050
 4427SOL    HW114180   2.441   6.223   3.012
 4427SOL    HW214181   2.324   6.335   2.989
 4428SOL     OW14182   5.216   6.365   3.831
 4428SOL    HW114183   5.291   6.332   3.774
 4428SOL    HW214184   5.247   6.373   3.926
 4429SOL     OW14185   2.781   6.038   2.978
 4429SOL    HW114186   2.867   6.081   2.955
 4429SOL    HW214187   2.788   5.995   3.068
 4430SOL     OW14188   4.629   3.969   5.914
 4430SOL    HW114189   4.568   3.898   5.879
 4430SOL    HW214190   4.575   4.038   5.964
 4431SOL     OW14191   2.986   6.360   3.624
 4431SOL    HW114192   3.012   6.349   3.528
 4431SOL    HW214193   2.922   6.437   3.632
 4432SOL     OW14194   0.927   3.494   5.718
 4432SOL    HW114195   0.861   3.538   5.778
 4432SOL    HW214196   0.879   3.450   5.642
 4433SOL     OW14197   0.692   0.886   5.692
 4433SOL    HW114198   0.766   0.897   5.626
 4433SOL    HW214199   0.728   0.841   5.774
 4434SOL     OW14200   0.494   0.736   2.930
 4434SOL    HW114201   0.397   0.751   2.912
 4434SOL    HW214202   0.544   0.822   2.915
 4435SOL     OW14203   2.475   4.158   0.358
 4435SOL    HW114204   2.554   4.195   0.308
 4435SOL    HW214205   2.422   4.100   0.297
 4436SOL     OW14206   4.141   1.683   1.701
 4436SOL    HW114207   4.128   1.684   1.800
 4436SOL    HW214208   4.199   1.606   1.676
 4437SOL     OW14209   6.639   3.955   0.239
 4437SOL    HW114210   6.713   4.022   0.240
 4437SOL    HW214211   6.599   3.947   0.330
 4438SOL     OW14212   3.811   0.350   5.353
 4438SOL    HW114213   3.862   0.408   5.416
 4438SOL    HW214214   3.722   0.393   5.333
 4439SOL     OW14215   2.776   0.055   2.782
 4439SOL    HW114216   2.794   0.140   2.832
 4439SOL    HW214217   2.791   0.069   2.685
 4440SOL     OW14218   1.436   5.121   0.052
 4440SOL    HW114219   1.486   5.186   0.109
 4440SOL    HW214220   1.338   5.142   0.056
 4441SOL     OW14221   0.226   1.704   0.487
 4441SOL    HW114222   0.180   1.787   0.456
 4441SOL    HW214223   0.225   1.701   0.587
 4442SOL     OW14224   1.655   4.810   6.592
 4442SOL    HW114225   1.583   4.756   6.548
 4442SOL    HW214226   1.665   4.780   6.687
 4443SOL     OW14227   1.119   5.505   6.184
 4443SOL    HW114228   1.079   5.451   6.258
 4443SOL    HW214229   1.122   5.450   6.100
 4444SOL     OW14230   5.846   4.639   6.694
 4444SOL    HW114231   5.825   4.727   6.651
 4444SOL    HW214232   5.847   4.650   6.793
 4445SOL     OW14233   0.240   4.821   0.418
 4445SOL    HW114234   0.238   4.901   0.478
 4445SOL    HW214235   0.334   4.808   0.384
 4446SOL     OW14236   4.838   1.274   1.080
 4446SOL    HW114237   4.892   1.191   1.064
 4446SOL    HW214238   4.834   1.328   0.996
 4447SOL     OW14239   4.894   5.500   5.943
 4447SOL    HW114240   4.941   5.488   6.031
 4447SOL    HW214241   4.912   5.420   5.886
 4448SOL     OW14242   3.667   6.190   1.674
 4448SOL    HW114243   3.640   6.120   1.740
 4448SOL    HW214244   3.666   6.280   1.718
 4449SOL     OW14245   3.316   1.178   5.378
 4449SOL    HW114246   3.366   1.240   5.317
 4449SOL    HW214247   3.341   1.084   5.356
 4450SOL     OW14248   3.352   6.959   6.902
 4450SOL    HW114249   3.312   6.974   6.992
 4450SOL    HW214250   3.280   6.939   6.835
 4451SOL     OW14251   4.748   4.584   3.047
 4451SOL    HW114252   4.701   4.672   3.040
 4451SOL    HW214253   4.796   4.565   2.962
 4452SOL     OW14254   4.307   6.501   4.622
 4452SOL    HW114255   4.378   6.478   4.555
 4452SOL    HW214256   4.333   6.584   4.672
 4453SOL     OW14257   6.353   4.093   0.639
 4453SOL    HW114258   6.351   4.164   0.569
 4453SOL    HW214259   6.300   4.122   0.718
 4454SOL     OW14260   1.346   2.936   6.975
 4454SOL    HW114261   1.261   2.938   6.923
 4454SOL    HW214262   1.417   2.890   6.921
 4455SOL     OW14263   0.894   6.591   5.514
 4455SOL    HW114264   0.796   6.570   5.519
 4455SOL    HW214265   0.932   6.591   5.607
 4456SOL     OW14266   2.538   0.185   4.678
 4456SOL    HW114267   2.571   0.203   4.771
 4456SOL    HW214268   2.562   0.262   4.619
 4457SOL     OW14269   1.371   2.371   4.782
 4457SOL    HW114270   1.417   2.448   4.827
 4457SOL    HW214271   1.376   2.290   4.841
 4458SOL     OW14272   1.606   3.599   6.734
 4458SOL    HW114273   1.531   3.573   6.674
 4458SOL    HW214274   1.681   3.636   6.679
 4459SOL     OW14275   0.667   2.871   3.103
 4459SOL    HW114276   0.699   2.922   3.183
 4459SOL    HW214277   0.571   2.891   3.087
 4460SOL     OW14278   6.560   2.521   4.679
 4460SOL    HW114279   6.460   2.528   4.688
 4460SOL    HW214280   6.592   2.438   4.724
 4461SOL     OW14281   2.208   0.973   0.587
 4461SOL    HW114282   2.292   0.983   0.534
 4461SOL    HW214283   2.229   0.977   0.685
 4462SOL     OW14284   6.629   4.284   3.317
 4462SOL    HW114285   6.653   4.251   3.408
 4462SOL    HW214286   6.529   4.288   3.308
 4463SOL     OW14287   5.621   1.844   0.798
 4463SOL    HW114288   5.671   1.761   0.825
 4463SOL    HW214289   5.653   1.921   0.854
 4464SOL     OW14290   0.029   4.999   0.975
 4464SOL    HW114291   0.103   4.981   1.040
 4464SOL    HW214292   0.021   4.921   0.912
 4465SOL     OW14293   3.236   5.951   0.769
 4465SOL    HW114294   3.277   6.039   0.792
 4465SOL    HW214295   3.139   5.951   0.796
 4466SOL     OW14296   1.769   2.466   2.930
 4466SOL    HW114297   1.765   2.556   2.973
 4466SOL    HW214298   1.834   2.469   2.853
 4467SOL     OW14299   4.718   6.120   3.225
 4467SOL    HW114300   4.808   6.095   3.261
 4467SOL    HW214301   4.727   6.200   3.165
 4468SOL     OW14302   1.781   2.697   1.797
 4468SOL    HW114303   1.853   2.638   1.833
 4468SOL    HW214304   1.780   2.783   1.848
 4469SOL     OW14305   3.203   6.039   1.167
 4469SOL    HW114306   3.265   6.100   1.217
 4469SOL    HW214307   3.167   6.087   1.087
 4470SOL     OW14308   2.172   0.011   3.051
 4470SOL    HW114309   2.165   6.999   2.958
 4470SOL    HW214310   2.268   0.027   3.074
 4471SOL     OW14311   1.169   0.644   6.575
 4471SOL    HW114312   1.257   0.684   6.602
 4471SOL    HW214313   1.095   0.700   6.612
 4472SOL     OW14314   1.979   2.476   1.175
 4472SOL    HW114315   1.928   2.429   1.248
 4472SOL    HW214316   1.979   2.418   1.093
 4473SOL     OW14317   0.339   2.482   4.198
 4473SOL    HW114318   0.255   2.498   4.251
 4473SOL    HW214319   0.417   2.515   4.250
 4474SOL     OW14320   2.839   5.562   0.974
 4474SOL    HW114321   2.918   5.623   0.977
 4474SOL    HW214322   2.770   5.596   1.038
 4475SOL     OW14323   1.309   3.918   0.787
 4475SOL    HW114324   1.222   3.962   0.808
 4475SOL    HW214325   1.293   3.833   0.737
 4476SOL     OW14326   5.108   1.147   3.837
 4476SOL    HW114327   5.143   1.147   3.743
 4476SOL    HW214328   5.126   1.236   3.879
 4477SOL     OW14329   1.468   1.185   4.704
 4477SOL    HW114330   1.526   1.176   4.785
 4477SOL    HW214331   1.390   1.244   4.725
 4478SOL     OW14332   2.246   0.217   1.018
 4478SOL    HW114333   2.192   0.274   1.079
 4478SOL    HW214334   2.226   0.241   0.923
 4479SOL     OW14335   1.490   2.477   0.185
 4479SOL    HW114336   1.519   2.507   0.275
 4479SOL    HW214337   1.446   2.387   0.192
 4480SOL     OW14338   1.264   6.426   3.866
 4480SOL    HW114339   1.212   6.424   3.952
 4480SOL    HW214340   1.297   6.334   3.845
 4481SOL     OW14341   1.973   3.813   5.933
 4481SOL    HW114342   1.929   3.902   5.949
 4481SOL    HW214343   2.065   3.827   5.898
 4482SOL     OW14344   2.453   6.376   0.926
 4482SOL    HW114345   2.424   6.416   1.013
 4482SOL    HW214346   2.502   6.291   0.943
 4483SOL     OW14347   1.158   3.246   0.398
 4483SOL    HW114348   1.133   3.245   0.495
 4483SOL    HW214349   1.137   3.157   0.357
 4484SOL     OW14350   2.597   1.456   0.232
 4484SOL    HW114351   2.650   1.414   0.158
 4484SOL    HW214352   2.646   1.536   0.266
 4485SOL     OW14353   6.778   2.733   5.456
 4485SOL    HW114354   6.733   2.662   5.510
 4485SOL    HW214355   6.710   2.800   5.427
 4486SOL     OW14356   4.487   4.951   4.934
 4486SOL    HW114357   4.533   4.888   4.872
 4486SOL    HW214358   4.430   4.899   4.998
 4487SOL     OW14359   0.515   3.004   6.626
 4487SOL    HW114360   0.446   2.952   6.675
 4487SOL    HW214361   0.580   3.043   6.692
 4488SOL     OW14362   0.208   4.076   3.941
 4488SOL    HW114363   0.227   4.145   3.871
 4488SOL    HW214364   0.125   4.026   3.916
 4489SOL     OW14365   4.200   6.121   6.032
 4489SOL    HW114366   4.229   6.026   6.043
 4489SOL    HW214367   4.277   6.175   5.997
 4490SOL     OW14368   5.306   1.421   1.623
 4490SOL    HW114369   5.211   1.398   1.604
 4490SOL    HW214370   5.339   1.485   1.553
 4491SOL     OW14371   1.212   3.270   3.287
 4491SOL    HW114372   1.292   3.308   3.240
 4491SOL    HW214373   1.161   3.343   3.332
 4492SOL     OW14374   6.258   0.602   2.399
 4492SOL    HW114375   6.199   0.638   2.327
 4492SOL    HW214376   6.222   0.515   2.432
 4493SOL     OW14377   5.665   1.722   5.188
 4493SOL    HW114378   5.612   1.751   5.267
 4493SOL    HW214379   5.763   1.724   5.210
 4494SOL     OW14380   1.301   0.900   1.500
 4494SOL    HW114381   1.353   0.816   1.516
 4494SOL    HW214382   1.347   0.977   1.545
 4495SOL     OW14383   4.370   6.226   1.016
 4495SOL    HW114384   4.444   6.260   1.075
 4495SOL    HW214385   4.340   6.137   1.049
 4496SOL     OW14386   3.626   6.314   6.274
 4496SOL    HW114387   3.594   6.224   6.242
 4496SOL    HW214388   3.661   6.306   6.367
 4497SOL     OW14389   4.378   0.861   6.056
 4497SOL    HW114390   4.348   0.765   6.053
 4497SOL    HW214391   4.352   0.906   5.971
 4498SOL     OW14392   0.295   5.474   4.863
 4498SOL    HW114393   0.199   5.501   4.855
 4498SOL    HW214394   0.300   5.389   4.915
 4499SOL     OW14395   5.804   2.082   2.211
 4499SOL    HW114396   5.825   2.105   2.115
 4499SOL    HW214397   5.706   2.095   2.227
 4500SOL     OW14398   3.872   5.471   0.039
 4500SOL    HW114399   3.840   5.404   0.106
 4500SOL    HW214400   3.824   5.558   0.054
 4501SOL     OW14401   5.607   0.396   2.888
 4501SOL    HW114402   5.539   0.467   2.906
 4501SOL    HW214403   5.605   0.329   2.962
 4502SOL     OW14404   6.990   3.915   6.308
 4502SOL    HW114405   6.932   3.835   6.292
 4502SOL    HW214406   6.940   3.980   6.366
 4503SOL     OW14407   3.381   1.059   2.730
 4503SOL    HW114408   3.460   1.041   2.788
 4503SOL    HW214409   3.410   1.067   2.635
 4504SOL     OW14410   0.092   1.496   2.680
 4504SOL    HW114411   0.013   1.461   2.629
 4504SOL    HW214412   0.128   1.424   2.740
 4505SOL     OW14413   5.709   4.935   3.982
 4505SOL    HW114414   5.766   4.856   3.960
 4505SOL    HW214415   5.669   4.972   3.898
 4506SOL     OW14416   5.622   2.915   5.662
 4506SOL    HW114417   5.556   2.849   5.698
 4506SOL    HW214418   5.583   2.964   5.585
 4507SOL     OW14419   6.132   2.461   3.345
 4507SOL    HW114420   6.155   2.453   3.443
 4507SOL    HW214421   6.131   2.371   3.304
 4508SOL     OW14422   0.280   5.122   0.889
 4508SOL    HW114423   0.326   5.061   0.825
 4508SOL    HW214424   0.194   5.080   0.919
 4509SOL     OW14425   4.943   2.831   1.975
 4509SOL    HW114426   4.852   2.862   2.004
 4509SOL    HW214427   4.992   2.794   2.053
 4510SOL     OW14428   3.740   1.308   4.006
 4510SOL    HW114429   3.729   1.400   3.968
 4510SOL    HW214430   3.765   1.245   3.933
 4511SOL     OW14431   0.355   4.359   6.922
 4511SOL    HW114432   0.378   4.361   6.825
 4511SOL    HW214433   0.435   4.388   6.976
 4512SOL     OW14434   3.164   3.703   5.178
 4512SOL    HW114435   3.070   3.703   5.142
 4512SOL    HW214436   3.174   3.777   5.244
 4513SOL     OW14437   0.945   6.945   0.927
 4513SOL    HW114438   0.880   6.956   1.003
 4513SOL    HW214439   0.997   0.004   0.916
 4514SOL     OW14440   3.685   4.582   6.483
 4514SOL    HW114441   3.625   4.546   6.411
 4514SOL    HW214442   3.780   4.569   6.456
 4515SOL     OW14443   4.266   0.590   6.121
 4515SOL    HW114444   4.336   0.557   6.185
 4515SOL    HW214445   4.182   0.610   6.170
 4516SOL     OW14446   2.846   2.057   5.608
 4516SOL    HW114447   2.890   1.968   5.598
 4516SOL    HW214448   2.775   2.068   5.538
 4517SOL     OW14449   4.235   0.744   5.159
 4517SOL    HW114450   4.240   0.747   5.258
 4517SOL    HW214451   4.147   0.707   5.130
 4518SOL     OW14452   1.008   6.283   1.202
 4518SOL    HW114453   0.958   6.354   1.252
 4518SOL    HW214454   0.954   6.199   1.201
 4519SOL     OW14455   4.812   6.905   0.033
 4519SOL    HW114456   4.815   6.942   0.126
 4519SOL    HW214457   4.876   6.829   0.026
 4520SOL     OW14458   4.273   5.338   5.382
 4520SOL    HW114459   4.209   5.323   5.307
 4520SOL    HW214460   4.239   5.292   5.464
 4521SOL     OW14461   4.591   2.568   3.914
 4521SOL    HW114462   4.597   2.624   3.996
 4521SOL    HW214463   4.623   2.620   3.834
 4522SOL     OW14464   6.075   4.344   3.549
 4522SOL    HW114465   6.022   4.321   3.468
 4522SOL    HW214466   6.157   4.287   3.552
 4523SOL     OW14467   0.663   3.216   5.978
 4523SOL    HW114468   0.580   3.195   5.926
 4523SOL    HW214469   0.743   3.202   5.920
 4524SOL     OW14470   1.719   3.523   2.365
 4524SOL    HW114471   1.757   3.454   2.426
 4524SOL    HW214472   1.717   3.612   2.412
 4525SOL     OW14473   3.436   2.239   5.278
 4525SOL    HW114474   3.381   2.308   5.231
 4525SOL    HW214475   3.498   2.283   5.342
 4526SOL     OW14476   1.056   6.829   6.229
 4526SOL    HW114477   0.989   6.903   6.235
 4526SOL    HW214478   1.048   6.770   6.309
 4527SOL     OW14479   6.895   1.163   2.634
 4527SOL    HW114480   6.933   1.078   2.670
 4527SOL    HW214481   6.968   1.222   2.601
 4528SOL     OW14482   5.349   0.734   4.905
 4528SOL    HW114483   5.431   0.784   4.878
 4528SOL    HW214484   5.268   0.787   4.878
 4529SOL     OW14485   2.298   1.112   3.979
 4529SOL    HW114486   2.350   1.028   3.993
 4529SOL    HW214487   2.337   1.163   3.903
 4530SOL     OW14488   4.161   5.687   6.532
 4530SOL    HW114489   4.141   5.607   6.476
 4530SOL    HW214490   4.192   5.762   6.472
 4531SOL     OW14491   1.039   5.880   5.548
 4531SOL    HW114492   1.041   5.834   5.460
 4531SOL    HW214493   1.132   5.882   5.587
 4532SOL     OW14494   5.371   0.844   2.986
 4532SOL    HW114495   5.390   0.783   2.910
 4532SOL    HW214496   5.391   0.797   3.072
 4533SOL     OW14497   2.845   0.340   1.113
 4533SOL    HW114498   2.909   0.288   1.170
 4533SOL    HW214499   2.894   0.414   1.068
 4534SOL     OW14500   4.555   1.578   3.934
 4534SOL    HW114501   4.561   1.640   3.855
 4534SOL    HW214502   4.608   1.615   4.009
 4535SOL     OW14503   1.886   0.635   0.843
 4535SOL    HW114504   1.910   0.658   0.937
 4535SOL    HW214505   1.790   0.656   0.827
 4536SOL     OW14506   3.216   0.203   5.478
 4536SOL    HW114507   3.283   0.255   5.531
 4536SOL    HW214508   3.198   0.251   5.392
 4537SOL     OW14509   2.981   3.773   3.621
 4537SOL    HW114510   2.979   3.805   3.716
 4537SOL    HW214511   2.905   3.710   3.606
 4538SOL     OW14512   0.484   2.270   0.916
 4538SOL    HW114513   0.477   2.286   0.817
 4538SOL    HW214514   0.580   2.267   0.943
 4539SOL     OW14515   1.514   6.062   5.510
 4539SOL    HW114516   1.586   6.003   5.546
 4539SOL    HW214517   1.477   6.021   5.426
 4540SOL     OW14518   0.878   2.299   0.365
 4540SOL    HW114519   0.931   2.380   0.340
 4540SOL    HW214520   0.879   2.234   0.288
 4541SOL     OW14521   4.209   2.992   6.051
 4541SOL    HW114522   4.178   2.897   6.055
 4541SOL    HW214523   4.205   3.024   5.956
 4542SOL     OW14524   0.616   1.836   0.059
 4542SOL    HW114525   0.693   1.781   0.028
 4542SOL    HW214526   0.531   1.785   0.046
 4543SOL     OW14527   3.686   2.174   0.420
 4543SOL    HW114528   3.632   2.254   0.393
 4543SOL    HW214529   3.705   2.118   0.339
 4544SOL     OW14530   5.395   6.343   0.688
 4544SOL    HW114531   5.392   6.298   0.777
 4544SOL    HW214532   5.308   6.332   0.641
 4545SOL     OW14533   1.902   3.045   5.284
 4545SOL    HW114534   1.811   3.076   5.257
 4545SOL    HW214535   1.971   3.097   5.233
 4546SOL     OW14536   3.188   0.736   4.991
 4546SOL    HW114537   3.175   0.777   4.900
 4546SOL    HW214538   3.204   0.637   4.981
 4547SOL     OW14539   6.968   0.101   0.182
 4547SOL    HW114540   7.013   0.135   0.100
 4547SOL    HW214541   6.979   0.002   0.187
 4548SOL     OW14542   2.689   1.716   2.558
 4548SOL    HW114543   2.780   1.709   2.516
 4548SOL    HW214544   2.658   1.625   2.586
 4549SOL     OW14545   0.301   3.110   4.274
 4549SOL    HW114546   0.367   3.117   4.348
 4549SOL    HW214547   0.343   3.140   4.188
 4550SOL     OW14548   2.303   5.255   4.042
 4550SOL    HW114549   2.293   5.183   4.110
 4550SOL    HW214550   2.279   5.343   4.084
 4551SOL     OW14551   2.269   2.151   5.398
 4551SOL    HW114552   2.289   2.070   5.344
 4551SOL    HW214553   2.202   2.208   5.351
 4552SOL     OW14554   5.517   1.175   1.061
 4552SOL    HW114555   5.538   1.187   0.963
 4552SOL    HW214556   5.428   1.215   1.081
 4553SOL     OW14557   0.323   5.514   7.023
 4553SOL    HW114558   0.343   5.459   0.079
 4553SOL    HW214559   0.373   5.600   0.003
 4554SOL     OW14560   6.442   6.584   3.078
 4554SOL    HW114561   6.466   6.634   3.161
 4554SOL    HW214562   6.472   6.489   3.086
 4555SOL     OW14563   1.341   0.992   0.870
 4555SOL    HW114564   1.330   0.893   0.865
 4555SOL    HW214565   1.313   1.025   0.960
 4556SOL     OW14566   5.499   5.182   4.419
 4556SOL    HW114567   5.467   5.245   4.349
 4556SOL    HW214568   5.432   5.109   4.433
 4557SOL     OW14569   0.333   4.779   4.143
 4557SOL    HW114570   0.286   4.867   4.153
 4557SOL    HW214571   0.422   4.794   4.100
 4558SOL     OW14572   1.681   3.783   4.713
 4558SOL    HW114573   1.756   3.736   4.760
 4558SOL    HW214574   1.607   3.718   4.694
 4559SOL     OW14575   0.203   2.902   3.917
 4559SOL    HW114576   0.129   2.968   3.902
 4559SOL    HW214577   0.168   2.824   3.969
 4560SOL     OW14578   5.445   3.841   2.973
 4560SOL    HW114579   5.375   3.770   2.978
 4560SOL    HW214580   5.504   3.824   2.894
 4561SOL     OW14581   4.411   2.309   3.946
 4561SOL    HW114582   4.458   2.395   3.968
 4561SOL    HW214583   4.422   2.289   3.849
 4562SOL     OW14584   3.749   0.850   0.937
 4562SOL    HW114585   3.694   0.869   0.856
 4562SOL    HW214586   3.834   0.903   0.933
 4563SOL     OW14587   0.541   4.512   2.304
 4563SOL    HW114588   0.576   4.475   2.218
 4563SOL    HW214589   0.442   4.527   2.297
 4564SOL     OW14590   2.051   3.686   1.986
 4564SOL    HW114591   2.058   3.743   2.068
 4564SOL    HW214592   2.126   3.621   1.984
 4565SOL     OW14593   2.225   6.177   6.602
 4565SOL    HW114594   2.200   6.171   6.506
 4565SOL    HW214595   2.227   6.273   6.631
 4566SOL     OW14596   6.719   4.560   3.525
 4566SOL    HW114597   6.749   4.655   3.528
 4566SOL    HW214598   6.758   4.516   3.444
 4567SOL     OW14599   0.389   0.004   6.913
 4567SOL    HW114600   0.455   0.079   6.913
 4567SOL    HW214601   0.296   0.041   6.909
 4568SOL     OW14602   1.385   5.080   3.043
 4568SOL    HW114603   1.332   5.016   2.987
 4568SOL    HW214604   1.321   5.140   3.093
 4569SOL     OW14605   1.970   1.001   3.617
 4569SOL    HW114606   1.982   1.034   3.711
 4569SOL    HW214607   2.001   1.071   3.553
 4570SOL     OW14608   4.899   5.803   1.762
 4570SOL    HW114609   4.863   5.713   1.739
 4570SOL    HW214610   4.827   5.872   1.752
 4571SOL     OW14611   2.608   2.962   6.235
 4571SOL    HW114612   2.582   3.054   6.262
 4571SOL    HW214613   2.529   2.901   6.244
 4572SOL     OW14614   3.180   3.072   2.063
 4572SOL    HW114615   3.135   3.054   1.976
 4572SOL    HW214616   3.239   3.152   2.053
 4573SOL     OW14617   3.269   5.362   0.917
 4573SOL    HW114618   3.250   5.359   1.015
 4573SOL    HW214619   3.327   5.441   0.897
 4574SOL     OW14620   4.894   0.817   1.687
 4574SOL    HW114621   4.956   0.854   1.756
 4574SOL    HW214622   4.801   0.815   1.724
 4575SOL     OW14623   0.727   0.341   6.087
 4575SOL    HW114624   0.634   0.305   6.087
 4575SOL    HW214625   0.757   0.359   5.994
 4576SOL     OW14626   2.718   4.708   5.782
 4576SOL    HW114627   2.719   4.701   5.682
 4576SOL    HW214628   2.779   4.782   5.811
 4577SOL     OW14629   0.758   1.744   2.503
 4577SOL    HW114630   0.800   1.653   2.504
 4577SOL    HW214631   0.687   1.748   2.573
 4578SOL     OW14632   1.379   1.957   1.910
 4578SOL    HW114633   1.384   2.037   1.970
 4578SOL    HW214634   1.333   1.882   1.959
 4579SOL     OW14635   4.822   0.641   3.330
 4579SOL    HW114636   4.883   0.562   3.339
 4579SOL    HW214637   4.855   0.715   3.390
 4580SOL     OW14638   0.638   1.898   0.930
 4580SOL    HW114639   0.717   1.862   0.981
 4580SOL    HW214640   0.586   1.822   0.891
 4581SOL     OW14641   3.333   0.904   0.968
 4581SOL    HW114642   3.430   0.914   0.944
 4581SOL    HW214643   3.310   0.969   1.041
 4582SOL     OW14644   6.485   1.453   3.993
 4582SOL    HW114645   6.567   1.481   4.042
 4582SOL    HW214646   6.485   1.493   3.902
 4583SOL     OW14647   1.810   0.381   0.727
 4583SOL    HW114648   1.762   0.388   0.640
 4583SOL    HW214649   1.867   0.461   0.741
 4584SOL     OW14650   0.975   1.461   4.403
 4584SOL    HW114651   0.884   1.461   4.361
 4584SOL    HW214652   1.007   1.555   4.414
 4585SOL     OW14653   1.945   3.008   3.303
 4585SOL    HW114654   1.921   3.015   3.400
 4585SOL    HW214655   2.041   3.032   3.290
 4586SOL     OW14656   5.771   4.911   6.550
 4586SOL    HW114657   5.671   4.907   6.542
 4586SOL    HW214658   5.796   4.978   6.620
 4587SOL     OW14659   3.267   2.991   5.005
 4587SOL    HW114660   3.186   2.999   5.063
 4587SOL    HW214661   3.338   2.940   5.053
 4588SOL     OW14662   3.267   3.863   6.161
 4588SOL    HW114663   3.181   3.826   6.127
 4588SOL    HW214664   3.308   3.798   6.225
 4589SOL     OW14665   5.907   6.372   2.151
 4589SOL    HW114666   5.986   6.350   2.208
 4589SOL    HW214667   5.938   6.422   2.070
 4590SOL     OW14668   3.392   5.067   1.032
 4590SOL    HW114669   3.490   5.071   1.011
 4590SOL    HW214670   3.340   5.088   0.949
 4591SOL     OW14671   2.019   0.119   5.205
 4591SOL    HW114672   2.116   0.097   5.192
 4591SOL    HW214673   2.011   0.186   5.279
 4592SOL     OW14674   1.444   1.647   3.899
 4592SOL    HW114675   1.381   1.615   3.828
 4592SOL    HW214676   1.506   1.572   3.924
 4593SOL     OW14677   1.538   5.509   4.413
 4593SOL    HW114678   1.628   5.542   4.386
 4593SOL    HW214679   1.542   5.473   4.506
 4594SOL     OW14680   1.720   0.038   3.198
 4594SOL    HW114681   1.816   0.027   3.224
 4594SOL    HW214682   1.663   0.038   3.281
 4595SOL     OW14683   5.442   1.638   6.021
 4595SOL    HW114684   5.379   1.671   5.951
 4595SOL    HW214685   5.393   1.622   6.106
 4596SOL     OW14686   6.516   0.603   2.259
 4596SOL    HW114687   6.597   0.555   2.292
 4596SOL    HW214688   6.443   0.597   2.327
 4597SOL     OW14689   2.659   5.901   0.353
 4597SOL    HW114690   2.660   5.984   0.296
 4597SOL    HW214691   2.586   5.841   0.323
 4598SOL     OW14692   0.955   4.388   0.476
 4598SOL    HW114693   0.920   4.298   0.501
 4598SOL    HW214694   1.054   4.391   0.491
 4599SOL     OW14695   2.887   6.212   1.858
 4599SOL    HW114696   2.868   6.309   1.875
 4599SOL    HW214697   2.805   6.169   1.820
 4600SOL     OW14698   0.726   6.454   6.531
 4600SOL    HW114699   0.701   6.357   6.522
 4600SOL    HW214700   0.751   6.490   6.441
 4601SOL     OW14701   1.803   0.932   5.263
 4601SOL    HW114702   1.876   0.989   5.223
 4601SOL    HW214703   1.794   0.951   5.360
 4602SOL     OW14704   3.161   2.077   6.087
 4602SOL    HW114705   3.135   2.150   6.151
 4602SOL    HW214706   3.194   2.117   6.002
 4603SOL     OW14707   4.810   0.090   1.300
 4603SOL    HW114708   4.812   0.100   1.200
 4603SOL    HW214709   4.867   0.161   1.341
 4604SOL     OW14710   6.551   0.000   4.985
 4604SOL    HW114711   6.619   0.036   4.922
 4604SOL    HW214712   6.561   6.926   4.994
 4605SOL     OW14713   4.015   0.518   1.326
 4605SOL    HW114714   4.011   0.423   1.358
 4605SOL    HW214715   4.043   0.578   1.401
 4606SOL     OW14716   0.063   6.559   5.470
 4606SOL    HW114717   0.124   6.637   5.487
 4606SOL    HW214718   0.026   6.566   5.377
 4607SOL     OW14719   2.302   2.095   0.629
 4607SOL    HW114720   2.269   2.188   0.611
 4607SOL    HW214721   2.372   2.071   0.562
 4608SOL     OW14722   6.797   2.261   4.701
 4608SOL    HW114723   6.728   2.197   4.736
 4608SOL    HW214724   6.844   2.305   4.777
 4609SOL     OW14725   4.999   5.442   6.587
 4609SOL    HW114726   5.088   5.397   6.593
 4609SOL    HW214727   4.984   5.498   6.670
 4610SOL     OW14728   5.106   4.396   6.884
 4610SOL    HW114729   5.021   4.353   6.853
 4610SOL    HW214730   5.092   4.494   6.895
 4611SOL     OW14731   1.010   0.661   6.352
 4611SOL    HW114732   1.071   0.669   6.430
 4611SOL    HW214733   0.989   0.753   6.317
 4612SOL     OW14734   1.889   1.861   1.412
 4612SOL    HW114735   1.945   1.778   1.422
 4612SOL    HW214736   1.793   1.838   1.429
 4613SOL     OW14737   1.420   4.556   2.054
 4613SOL    HW114738   1.345   4.511   2.006
 4613SOL    HW214739   1.471   4.489   2.107
 4614SOL     OW14740   6.686   4.339   4.361
 4614SOL    HW114741   6.722   4.407   4.297
 4614SOL    HW214742   6.624   4.384   4.426
 4615SOL     OW14743   1.276   3.461   6.040
 4615SOL    HW114744   1.217   3.401   5.987
 4615SOL    HW214745   1.264   3.556   6.010
 4616SOL     OW14746   0.135   2.519   5.582
 4616SOL    HW114747   0.184   2.498   5.666
 4616SOL    HW214748   0.105   2.615   5.583
 4617SOL     OW14749   0.127   2.379   3.383
 4617SOL    HW114750   0.031   2.399   3.400
 4617SOL    HW214751   0.154   2.299   3.437
 4618SOL     OW14752   2.329   4.253   6.243
 4618SOL    HW114753   2.230   4.268   6.240
 4618SOL    HW214754   2.352   4.175   6.184
 4619SOL     OW14755   4.914   6.196   6.324
 4619SOL    HW114756   4.961   6.113   6.293
 4619SOL    HW214757   4.945   6.273   6.268
 4620SOL     OW14758   0.766   4.891   2.601
 4620SOL    HW114759   0.761   4.991   2.603
 4620SOL    HW214760   0.697   4.853   2.662
 4621SOL     OW14761   3.490   0.078   2.656
 4621SOL    HW114762   3.524   0.005   2.598
 4621SOL    HW214763   3.408   0.047   2.704
 4622SOL     OW14764   4.999   6.438   1.021
 4622SOL    HW114765   5.023   6.342   1.028
 4622SOL    HW214766   5.007   6.468   0.926
 4623SOL     OW14767   2.811   4.301   1.226
 4623SOL    HW114768   2.796   4.399   1.235
 4623SOL    HW214769   2.812   4.259   1.317
 4624SOL     OW14770   4.160   1.230   2.175
 4624SOL    HW114771   4.176   1.317   2.127
 4624SOL    HW214772   4.071   1.233   2.220
 4625SOL     OW14773   2.407   6.321   1.478
 4625SOL    HW114774   2.437   6.231   1.445
 4625SOL    HW214775   2.316   6.341   1.442
 4626SOL     OW14776   4.507   3.728   1.632
 4626SOL    HW114777   4.528   3.803   1.696
 4626SOL    HW214778   4.564   3.649   1.653
 4627SOL     OW14779   5.585   0.186   5.155
 4627SOL    HW114780   5.669   0.240   5.145
 4627SOL    HW214781   5.547   0.201   5.246
 4628SOL     OW14782   5.566   5.040   3.712
 4628SOL    HW114783   5.659   5.077   3.712
 4628SOL    HW214784   5.559   4.965   3.647
 4629SOL     OW14785   2.380   5.432   0.272
 4629SOL    HW114786   2.280   5.427   0.264
 4629SOL    HW214787   2.422   5.407   0.185
 4630SOL     OW14788   1.832   3.200   1.759
 4630SOL    HW114789   1.904   3.266   1.739
 4630SOL    HW214790   1.795   3.163   1.674
 4631SOL     OW14791   0.216   0.498   3.193
 4631SOL    HW114792   0.139   0.458   3.144
 4631SOL    HW214793   0.181   0.563   3.261
 4632SOL     OW14794   3.393   5.031   2.639
 4632SOL    HW114795   3.307   5.076   2.667
 4632SOL    HW214796   3.386   5.001   2.544
 4633SOL     OW14797   4.716   1.347   4.791
 4633SOL    HW114798   4.631   1.382   4.830
 4633SOL    HW214799   4.765   1.420   4.744
 4634SOL     OW14800   3.066   4.123   5.333
 4634SOL    HW114801   3.061   4.074   5.420
 4634SOL    HW214802   3.014   4.208   5.339
 4635SOL     OW14803   4.263   6.383   1.845
 4635SOL    HW114804   4.255   6.310   1.913
 4635SOL    HW214805   4.172   6.411   1.815
 4636SOL     OW14806   1.971   5.310   0.157
 4636SOL    HW114807   1.942   5.393   0.110
 4636SOL    HW214808   1.912   5.234   0.130
 4637SOL     OW14809   3.264   1.412   3.244
 4637SOL    HW114810   3.221   1.357   3.172
 4637SOL    HW214811   3.242   1.508   3.230
 4638SOL     OW14812   3.759   5.013   6.677
 4638SOL    HW114813   3.735   5.106   6.648
 4638SOL    HW214814   3.833   4.978   6.619
 4639SOL     OW14815   3.797   2.364   1.610
 4639SOL    HW114816   3.754   2.367   1.701
 4639SOL    HW214817   3.836   2.273   1.595
 4640SOL     OW14818   6.388   3.068   6.816
 4640SOL    HW114819   6.397   3.157   6.773
 4640SOL    HW214820   6.340   3.077   6.904
 4641SOL     OW14821   1.243   5.932   4.341
 4641SOL    HW114822   1.235   5.893   4.249
 4641SOL    HW214823   1.156   5.922   4.389
 4642SOL     OW14824   6.547   0.800   4.469
 4642SOL    HW114825   6.468   0.844   4.513
 4642SOL    HW214826   6.584   0.862   4.400
 4643SOL     OW14827   0.586   2.193   0.085
 4643SOL    HW114828   0.602   2.106   0.133
 4643SOL    HW214829   0.561   2.263   0.151
 4644SOL     OW14830   1.470   0.871   0.521
 4644SOL    HW114831   1.536   0.923   0.574
 4644SOL    HW214832   1.389   0.927   0.502
 4645SOL     OW14833   6.819   1.682   4.692
 4645SOL    HW114834   6.863   1.644   4.610
 4645SOL    HW214835   6.722   1.699   4.672
 4646SOL     OW14836   2.492   4.704   4.223
 4646SOL    HW114837   2.461   4.674   4.133
 4646SOL    HW214838   2.413   4.719   4.283
 4647SOL     OW14839   1.303   6.351   1.637
 4647SOL    HW114840   1.373   6.281   1.648
 4647SOL    HW214841   1.332   6.417   1.568
 4648SOL     OW14842   2.800   1.660   4.242
 4648SOL    HW114843   2.886   1.642   4.193
 4648SOL    HW214844   2.727   1.605   4.202
 4649SOL     OW14845   6.604   1.789   0.406
 4649SOL    HW114846   6.686   1.740   0.436
 4649SOL    HW214847   6.575   1.852   0.478
 4650SOL     OW14848   5.126   6.177   0.751
 4650SOL    HW114849   5.122   6.197   0.849
 4650SOL    HW214850   5.128   6.263   0.700
 4651SOL     OW14851   6.821   3.326   6.180
 4651SOL    HW114852   6.892   3.371   6.234
 4651SOL    HW214853   6.737   3.319   6.235
 4652SOL     OW14854   0.436   6.207   5.537
 4652SOL    HW114855   0.528   6.197   5.499
 4652SOL    HW214856   0.402   6.298   5.517
 4653SOL     OW14857   6.343   5.470   6.986
 4653SOL    HW114858   6.324   5.390   6.930
 4653SOL    HW214859   6.435   5.504   6.966
 4654SOL     OW14860   1.705   0.291   5.849
 4654SOL    HW114861   1.730   0.380   5.812
 4654SOL    HW214862   1.683   0.300   5.947
 4655SOL     OW14863   4.843   2.656   1.520
 4655SOL    HW114864   4.839   2.568   1.568
 4655SOL    HW214865   4.799   2.726   1.575
 4656SOL     OW14866   0.097   1.956   1.536
 4656SOL    HW114867   0.181   2.008   1.523
 4656SOL    HW214868   0.067   1.918   1.448
 4657SOL     OW14869   4.026   1.068   2.410
 4657SOL    HW114870   4.122   1.042   2.404
 4657SOL    HW214871   3.999   1.072   2.506
 4658SOL     OW14872   1.532   2.521   5.569
 4658SOL    HW114873   1.483   2.607   5.582
 4658SOL    HW214874   1.466   2.446   5.556
 4659SOL     OW14875   1.552   4.393   6.988
 4659SOL    HW114876   1.575   4.325   6.919
 4659SOL    HW214877   1.636   4.434   7.024
 4660SOL     OW14878   0.951   6.150   3.339
 4660SOL    HW114879   1.034   6.107   3.375
 4660SOL    HW214880   0.903   6.086   3.279
 4661SOL     OW14881   0.825   1.920   5.353
 4661SOL    HW114882   0.743   1.968   5.323
 4661SOL    HW214883   0.802   1.859   5.429
 4662SOL     OW14884   2.043   0.184   5.476
 4662SOL    HW114885   1.993   0.163   5.560
 4662SOL    HW214886   2.101   0.106   5.452
 4663SOL     OW14887   1.262   6.913   0.693
 4663SOL    HW114888   1.314   6.887   0.612
 4663SOL    HW214889   1.177   6.959   0.665
 4664SOL     OW14890   6.287   0.080   6.977
 4664SOL    HW114891   6.263   0.171   6.943
 4664SOL    HW214892   6.333   0.089   0.041
 4665SOL     OW14893   1.300   0.561   4.109
 4665SOL    HW114894   1.302   0.647   4.160
 4665SOL    HW214895   1.209   0.549   4.068
 4666SOL     OW14896   2.084   1.767   4.617
 4666SOL    HW114897   2.082   1.731   4.710
 4666SOL    HW214898   2.004   1.824   4.602
 4667SOL     OW14899   6.524   4.018   1.271
 4667SOL    HW114900   6.446   4.051   1.324
 4667SOL    HW214901   6.521   4.058   1.179
 4668SOL     OW14902   4.960   1.663   4.195
 4668SOL    HW114903   4.906   1.582   4.220
 4668SOL    HW214904   5.034   1.675   4.260
 4669SOL     OW14905   5.391   6.909   5.996
 4669SOL    HW114906   5.337   6.992   5.985
 4669SOL    HW214907   5.488   6.932   5.995
 4670SOL     OW14908   0.310   2.904   0.527
 4670SOL    HW114909   0.262   2.976   0.477
 4670SOL    HW214910   0.287   2.815   0.488
 4671SOL     OW14911   0.382   3.695   0.783
 4671SOL    HW114912   0.320   3.760   0.738
 4671SOL    HW214913   0.476   3.712   0.753
 4672SOL     OW14914   2.470   4.455   6.379
 4672SOL    HW114915   2.413   4.506   6.445
 4672SOL    HW214916   2.418   4.377   6.345
 4673SOL     OW14917   6.065   1.246   0.469
 4673SOL    HW114918   6.078   1.319   0.537
 4673SOL    HW214919   6.023   1.167   0.513
 4674SOL     OW14920   1.002   2.556   1.201
 4674SOL    HW114921   0.953   2.548   1.288
 4674SOL    HW214922   0.941   2.595   1.132
 4675SOL     OW14923   2.205   5.739   6.723
 4675SOL    HW114924   2.214   5.830   6.763
 4675SOL    HW214925   2.271   5.729   6.648
 4676SOL     OW14926   0.679   6.067   3.735
 4676SOL    HW114927   0.650   6.138   3.800
 4676SOL    HW214928   0.719   5.991   3.786
 4677SOL     OW14929   4.423   0.058   6.655
 4677SOL    HW114930   4.363   0.009   6.592
 4677SOL    HW214931   4.378   0.142   6.686
 4678SOL     OW14932   1.899   4.696   6.564
 4678SOL    HW114933   1.810   4.742   6.570
 4678SOL    HW214934   1.892   4.617   6.502
 4679SOL     OW14935   3.113   6.390   5.984
 4679SOL    HW114936   3.042   6.373   6.053
 4679SOL    HW214937   3.137   6.487   5.984
 4680SOL     OW14938   1.888   4.502   0.455
 4680SOL    HW114939   1.970   4.494   0.399
 4680SOL    HW214940   1.849   4.593   0.444
 4681SOL     OW14941   6.826   6.153   5.252
 4681SOL    HW114942   6.875   6.117   5.332
 4681SOL    HW214943   6.891   6.196   5.190
 4682SOL     OW14944   4.168   6.614   0.489
 4682SOL    HW114945   4.113   6.650   0.564
 4682SOL    HW214946   4.131   6.525   0.461
 4683SOL     OW14947   0.098   4.175   3.659
 4683SOL    HW114948   0.092   4.129   3.570
 4683SOL    HW214949   0.008   4.210   3.685
 4684SOL     OW14950   1.361   1.025   5.035
 4684SOL    HW114951   1.263   1.020   5.051
 4684SOL    HW214952   1.403   1.089   5.099
 4685SOL     OW14953   4.941   4.365   5.085
 4685SOL    HW114954   4.853   4.373   5.038
 4685SOL    HW214955   5.003   4.309   5.030
 4686SOL     OW14956   4.649   6.200   0.747
 4686SOL    HW114957   4.688   6.129   0.688
 4686SOL    HW214958   4.577   6.248   0.697
 4687SOL     OW14959   5.397   6.838   4.552
 4687SOL    HW114960   5.325   6.781   4.514
 4687SOL    HW214961   5.484   6.814   4.509
 4688SOL     OW14962   0.881   2.160   0.133
 4688SOL    HW114963   0.935   2.169   0.049
 4688SOL    HW214964   0.784   2.154   0.109
 4689SOL     OW14965   1.335   5.037   4.803
 4689SOL    HW114966   1.244   5.016   4.840
 4689SOL    HW214967   1.400   5.048   4.877
 4690SOL     OW14968   1.471   2.867   0.617
 4690SOL    HW114969   1.548   2.831   0.670
 4690SOL    HW214970   1.436   2.950   0.661
 4691SOL     OW14971   3.786   4.648   0.124
 4691SOL    HW114972   3.724   4.695   0.187
 4691SOL    HW214973   3.877   4.644   0.164
 4692SOL     OW14974   6.928   5.538   3.361
 4692SOL    HW114975   6.989   5.616   3.372
 4692SOL    HW214976   6.966   5.477   3.290
 4693SOL     OW14977   0.489   0.762   3.850
 4693SOL    HW114978   0.508   0.711   3.934
 4693SOL    HW214979   0.484   0.860   3.871
 4694SOL     OW14980   2.409   0.899   6.412
 4694SOL    HW114981   2.482   0.839   6.379
 4694SOL    HW214982   2.321   0.850   6.407
 4695SOL     OW14983   3.522   3.077   1.663
 4695SOL    HW114984   3.539   3.136   1.584
 4695SOL    HW214985   3.471   3.127   1.733
 4696SOL     OW14986   6.363   2.939   0.429
 4696SOL    HW114987   6.427   2.881   0.479
 4696SOL    HW214988   6.394   3.034   0.433
 4697SOL     OW14989   0.635   5.051   0.228
 4697SOL    HW114990   0.547   5.023   0.266
 4697SOL    HW214991   0.661   5.140   0.266
 4698SOL     OW14992   5.822   3.302   1.591
 4698SOL    HW114993   5.801   3.350   1.677
 4698SOL    HW214994   5.750   3.236   1.572
 4699SOL     OW14995   6.472   0.271   3.633
 4699SOL    HW114996   6.541   0.265   3.705
 4699SOL    HW214997   6.447   0.367   3.620
 4700SOL     OW14998   5.976   0.090   0.853
 4700SOL    HW114999   6.027   0.125   0.775
 4700SOL    HW215000   6.002   7.020   0.870
 4701SOL     OW15001   0.779   1.144   0.486
 4701SOL    HW115002   0.867   1.192   0.485
 4701SOL    HW215003   0.747   1.135   0.580
 4702SOL     OW15004   3.024   3.756   6.901
 4702SOL    HW115005   3.024   3.676   6.960
 4702SOL    HW215006   2.970   3.829   6.943
 4703SOL     OW15007   1.494   1.482   1.738
 4703SOL    HW115008   1.541   1.413   1.684
 4703SOL    HW215009   1.496   1.458   1.834
 4704SOL     OW15010   4.482   6.879   0.146
 4704SOL    HW115011   4.519   6.843   0.232
 4704SOL    HW215012   4.382   6.886   0.153
 4705SOL     OW15013   3.532   4.170   3.777
 4705SOL    HW115014   3.575   4.099   3.721
 4705SOL    HW215015   3.587   4.187   3.858
 4706SOL     OW15016   4.734   5.478   0.872
 4706SOL    HW115017   4.816   5.435   0.835
 4706SOL    HW215018   4.758   5.565   0.916
 4707SOL     OW15019   3.273   6.396   1.131
 4707SOL    HW115020   3.291   6.349   1.218
 4707SOL    HW215021   3.181   6.436   1.134
 4708SOL     OW15022   2.019   2.327   2.196
 4708SOL    HW115023   1.934   2.374   2.173
 4708SOL    HW215024   2.019   2.235   2.155
 4709SOL     OW15025   4.288   4.157   6.422
 4709SOL    HW115026   4.292   4.165   6.522
 4709SOL    HW215027   4.377   4.127   6.387
 4710SOL     OW15028   5.275   2.151   0.859
 4710SOL    HW115029   5.253   2.172   0.954
 4710SOL    HW215030   5.294   2.053   0.850
 4711SOL     OW15031   2.921   6.877   2.932
 4711SOL    HW115032   2.860   6.812   2.977
 4711SOL    HW215033   2.867   6.942   2.879
 4712SOL     OW15034   1.182   4.796   0.006
 4712SOL    HW115035   1.199   4.752   0.094
 4712SOL    HW215036   1.269   4.816   6.986
 4713SOL     OW15037   2.773   5.336   0.809
 4713SOL    HW115038   2.808   5.422   0.848
 4713SOL    HW215039   2.742   5.276   0.883
 4714SOL     OW15040   3.557   2.692   0.526
 4714SOL    HW115041   3.537   2.728   0.435
 4714SOL    HW215042   3.479   2.637   0.557
 4715SOL     OW15043   5.750   4.080   4.627
 4715SOL    HW115044   5.813   4.027   4.684
 4715SOL    HW215045   5.657   4.047   4.642
 4716SOL     OW15046   3.728   5.741   0.362
 4716SOL    HW115047   3.636   5.749   0.323
 4716SOL    HW215048   3.796   5.756   0.290
 4717SOL     OW15049   1.053   5.608   3.656
 4717SOL    HW115050   1.086   5.702   3.656
 4717SOL    HW215051   1.030   5.581   3.562
 4718SOL     OW15052   6.213   0.923   6.474
 4718SOL    HW115053   6.174   1.002   6.427
 4718SOL    HW215054   6.308   0.943   6.499
 4719SOL     OW15055   4.374   2.726   1.216
 4719SOL    HW115056   4.364   2.799   1.149
 4719SOL    HW215057   4.410   2.765   1.301
 4720SOL     OW15058   3.023   0.614   4.025
 4720SOL    HW115059   3.102   0.671   4.002
 4720SOL    HW215060   2.981   0.581   3.940
 4721SOL     OW15061   1.406   2.134   1.537
 4721SOL    HW115062   1.420   2.134   1.636
 4721SOL    HW215063   1.392   2.227   1.504
 4722SOL     OW15064   2.775   0.368   1.705
 4722SOL    HW115065   2.750   0.409   1.617
 4722SOL    HW215066   2.701   0.309   1.737
 4723SOL     OW15067   3.167   6.926   6.706
 4723SOL    HW115068   3.083   6.917   6.653
 4723SOL    HW215069   3.246   6.918   6.646
 4724SOL     OW15070   3.717   5.216   1.879
 4724SOL    HW115071   3.778   5.144   1.845
 4724SOL    HW215072   3.718   5.216   1.979
 4725SOL     OW15073   5.680   5.578   3.410
 4725SOL    HW115074   5.693   5.492   3.361
 4725SOL    HW215075   5.722   5.653   3.359
 4726SOL     OW15076   0.866   6.079   6.104
 4726SOL    HW115077   0.773   6.045   6.093
 4726SOL    HW215078   0.913   6.076   6.015
 4727SOL     OW15079   0.165   6.660   0.495
 4727SOL    HW115080   0.142   6.710   0.578
 4727SOL    HW215081   0.243   6.703   0.450
 4728SOL     OW15082   0.418   1.462   6.978
 4728SOL    HW115083   0.326   1.435   6.951
 4728SOL    HW215084   0.485   1.417   6.919
 4729SOL     OW15085   3.197   0.504   0.885
 4729SOL    HW115086   3.276   0.508   0.946
 4729SOL    HW215087   3.207   0.428   0.821
 4730SOL     OW15088   1.765   6.652   5.153
 4730SOL    HW115089   1.725   6.603   5.231
 4730SOL    HW215090   1.695   6.708   5.109
 4731SOL     OW15091   5.737   1.876   5.639
 4731SOL    HW115092   5.750   1.861   5.736
 4731SOL    HW215093   5.696   1.966   5.624
 4732SOL     OW15094   0.550   1.765   0.529
 4732SOL    HW115095   0.455   1.789   0.545
 4732SOL    HW215096   0.608   1.846   0.543
 4733SOL     OW15097   6.657   2.989   4.225
 4733SOL    HW115098   6.584   2.956   4.286
 4733SOL    HW215099   6.738   3.010   4.279
 4734SOL     OW15100   4.065   4.584   5.877
 4734SOL    HW115101   4.035   4.660   5.934
 4734SOL    HW215102   3.988   4.523   5.859
 4735SOL     OW15103   0.720   4.996   3.348
 4735SOL    HW115104   0.695   4.954   3.260
 4735SOL    HW215105   0.713   4.927   3.420
 4736SOL     OW15106   1.561   0.900   1.117
 4736SOL    HW115107   1.532   0.986   1.077
 4736SOL    HW215108   1.489   0.831   1.106
 4737SOL     OW15109   2.943   5.411   1.686
 4737SOL    HW115110   2.939   5.505   1.652
 4737SOL    HW215111   3.038   5.386   1.706
 4738SOL     OW15112   6.834   6.449   2.548
 4738SOL    HW115113   6.907   6.517   2.548
 4738SOL    HW215114   6.859   6.373   2.608
 4739SOL     OW15115   4.732   0.440   1.418
 4739SOL    HW115116   4.789   0.503   1.469
 4739SOL    HW215117   4.669   0.393   1.480
 4740SOL     OW15118   0.814   2.512   3.791
 4740SOL    HW115119   0.895   2.454   3.789
 4740SOL    HW215120   0.797   2.542   3.884
 4741SOL     OW15121   3.790   4.408   1.077
 4741SOL    HW115122   3.713   4.360   1.119
 4741SOL    HW215123   3.809   4.491   1.129
 4742SOL     OW15124   3.424   0.901   0.503
 4742SOL    HW115125   3.331   0.879   0.530
 4742SOL    HW215126   3.476   0.817   0.489
 4743SOL     OW15127   1.592   4.664   1.053
 4743SOL    HW115128   1.597   4.631   1.147
 4743SOL    HW215129   1.512   4.723   1.042
 4744SOL     OW15130   2.570   5.756   1.446
 4744SOL    HW115131   2.661   5.747   1.406
 4744SOL    HW215132   2.540   5.667   1.481
 4745SOL     OW15133   0.628   3.932   0.103
 4745SOL    HW115134   0.595   4.023   0.078
 4745SOL    HW215135   0.578   3.863   0.050
 4746SOL     OW15136   4.214   5.847   4.246
 4746SOL    HW115137   4.122   5.882   4.263
 4746SOL    HW215138   4.267   5.851   4.331
 4747SOL     OW15139   1.819   1.597   6.966
 4747SOL    HW115140   1.763   1.652   0.003
 4747SOL    HW215141   1.910   1.637   6.958
 4748SOL     OW15142   1.813   6.673   2.005
 4748SOL    HW115143   1.862   6.587   1.988
 4748SOL    HW215144   1.714   6.657   1.997
 4749SOL     OW15145   3.216   1.980   6.910
 4749SOL    HW115146   3.251   2.073   6.915
 4749SOL    HW215147   3.137   1.970   6.972
 4750SOL     OW15148   5.017   2.869   5.557
 4750SOL    HW115149   5.008   2.892   5.460
 4750SOL    HW215150   5.113   2.874   5.584
 4751SOL     OW15151   4.797   0.761   3.065
 4751SOL    HW115152   4.809   0.712   3.151
 4751SOL    HW215153   4.775   0.857   3.083
 4752SOL     OW15154   4.777   2.224   6.554
 4752SOL    HW115155   4.677   2.222   6.552
 4752SOL    HW215156   4.807   2.289   6.624
 4753SOL     OW15157   3.041   6.239   4.869
 4753SOL    HW115158   3.033   6.185   4.785
 4753SOL    HW215159   2.981   6.319   4.863
 4754SOL     OW15160   4.506   4.428   6.439
 4754SOL    HW115161   4.600   4.462   6.433
 4754SOL    HW215162   4.490   4.390   6.530
 4755SOL     OW15163   0.670   1.146   1.744
 4755SOL    HW115164   0.767   1.152   1.719
 4755SOL    HW215165   0.619   1.104   1.668
 4756SOL     OW15166   6.385   4.177   5.909
 4756SOL    HW115167   6.331   4.101   5.945
 4756SOL    HW215168   6.473   4.143   5.877
 4757SOL     OW15169   1.701   3.591   0.499
 4757SOL    HW115170   1.799   3.587   0.480
 4757SOL    HW215171   1.687   3.635   0.588
 4758SOL     OW15172   2.353   6.579   3.025
 4758SOL    HW115173   2.379   6.486   3.052
 4758SOL    HW215174   2.413   6.611   2.952
 4759SOL     OW15175   0.130   6.294   1.466
 4759SOL    HW115176   0.136   6.360   1.391
 4759SOL    HW215177   0.070   6.330   1.538
 4760SOL     OW15178   1.562   5.714   0.553
 4760SOL    HW115179   1.603   5.669   0.473
 4760SOL    HW215180   1.517   5.798   0.523
 4761SOL     OW15181   5.935   6.516   1.719
 4761SOL    HW115182   5.932   6.583   1.792
 4761SOL    HW215183   5.916   6.425   1.755
 4762SOL     OW15184   1.585   0.543   2.356
 4762SOL    HW115185   1.547   0.536   2.263
 4762SOL    HW215186   1.658   0.611   2.356
 4763SOL     OW15187   5.369   5.209   2.424
 4763SOL    HW115188   5.324   5.230   2.510
 4763SOL    HW215189   5.301   5.191   2.353
 4764SOL     OW15190   5.096   2.596   0.389
 4764SOL    HW115191   5.008   2.569   0.349
 4764SOL    HW215192   5.089   2.591   0.489
 4765SOL     OW15193   4.122   1.540   5.262
 4765SOL    HW115194   4.120   1.457   5.207
 4765SOL    HW215195   4.127   1.517   5.359
 4766SOL     OW15196   0.888   0.523   4.329
 4766SOL    HW115197   0.831   0.442   4.343
 4766SOL    HW215198   0.832   0.606   4.339
 4767SOL     OW15199   2.197   4.192   3.281
 4767SOL    HW115200   2.191   4.277   3.332
 4767SOL    HW215201   2.245   4.208   3.194
 4768SOL     OW15202   4.677   3.024   6.466
 4768SOL    HW115203   4.774   3.012   6.446
 4768SOL    HW215204   4.646   3.112   6.431
 4769SOL     OW15205   1.957   3.558   0.427
 4769SOL    HW115206   2.019   3.634   0.406
 4769SOL    HW215207   2.009   3.472   0.427
 4770SOL     OW15208   0.237   1.544   4.227
 4770SOL    HW115209   0.265   1.637   4.249
 4770SOL    HW215210   0.151   1.546   4.176
 4771SOL     OW15211   1.639   7.006   4.084
 4771SOL    HW115212   1.624   6.980   3.989
 4771SOL    HW215213   1.585   0.063   4.106
 4772SOL     OW15214   3.300   5.138   2.166
 4772SOL    HW115215   3.217   5.178   2.127
 4772SOL    HW215216   3.360   5.210   2.198
 4773SOL     OW15217   2.590   5.362   4.665
 4773SOL    HW115218   2.579   5.308   4.581
 4773SOL    HW215219   2.530   5.326   4.736
 4774SOL     OW15220   1.237   4.346   0.236
 4774SOL    HW115221   1.164   4.281   0.213
 4774SOL    HW215222   1.323   4.296   0.251
 4775SOL     OW15223   6.016   6.309   5.611
 4775SOL    HW115224   6.003   6.241   5.539
 4775SOL    HW215225   6.078   6.380   5.579
 4776SOL     OW15226   0.358   1.198   6.276
 4776SOL    HW115227   0.443   1.161   6.314
 4776SOL    HW215228   0.359   1.189   6.177
 4777SOL     OW15229   1.929   0.113   2.413
 4777SOL    HW115230   1.861   0.091   2.343
 4777SOL    HW215231   1.883   0.139   2.498
 4778SOL     OW15232   2.147   1.048   0.120
 4778SOL    HW115233   2.235   1.094   0.128
 4778SOL    HW215234   2.083   1.105   0.069
 4779SOL     OW15235   5.355   0.344   4.724
 4779SOL    HW115236   5.411   0.425   4.710
 4779SOL    HW215237   5.341   0.329   4.823
 4780SOL     OW15238   4.881   2.658   5.720
 4780SOL    HW115239   4.885   2.693   5.813
 4780SOL    HW215240   4.919   2.725   5.656
 4781SOL     OW15241   2.449   6.184   2.012
 4781SOL    HW115242   2.453   6.189   1.912
 4781SOL    HW215243   2.490   6.099   2.043
 4782SOL     OW15244   6.684   6.973   4.539
 4782SOL    HW115245   6.780   6.989   4.515
 4782SOL    HW215246   6.627   0.011   4.486
 4783SOL     OW15247   0.094   3.537   5.903
 4783SOL    HW115248   0.034   3.468   5.943
 4783SOL    HW215249   0.067   3.628   5.937
 4784SOL     OW15250   5.448   3.089   6.708
 4784SOL    HW115251   5.504   3.152   6.762
 4784SOL    HW215252   5.462   2.995   6.740
 4785SOL     OW15253   0.126   6.894   4.825
 4785SOL    HW115254   0.146   6.820   4.761
 4785SOL    HW215255   0.212   6.930   4.862
 4786SOL     OW15256   0.844   6.174   0.458
 4786SOL    HW115257   0.817   6.140   0.548
 4786SOL    HW215258   0.927   6.127   0.428
 4787SOL     OW15259   3.887   1.600   4.104
 4787SOL    HW115260   3.808   1.583   4.046
 4787SOL    HW215261   3.886   1.696   4.135
 4788SOL     OW15262   6.928   6.080   0.211
 4788SOL    HW115263   6.972   6.142   0.276
 4788SOL    HW215264   6.907   6.130   0.126
 4789SOL     OW15265   5.645   0.974   2.983
 4789SOL    HW115266   5.561   0.924   2.961
 4789SOL    HW215267   5.641   1.065   2.941
 4790SOL     OW15268   6.837   1.900   4.956
 4790SOL    HW115269   6.864   1.806   4.974
 4790SOL    HW215270   6.868   1.927   4.865
 4791SOL     OW15271   0.763   0.247   0.558
 4791SOL    HW115272   0.767   0.340   0.522
 4791SOL    HW215273   0.780   0.182   0.484
 4792SOL     OW15274   2.064   3.570   2.583
 4792SOL    HW115275   2.044   3.472   2.586
 4792SOL    HW215276   1.996   3.620   2.636
 4793SOL     OW15277   0.824   3.337   5.519
 4793SOL    HW115278   0.918   3.314   5.495
 4793SOL    HW215279   0.790   3.409   5.458
 4794SOL     OW15280   4.597   2.008   4.693
 4794SOL    HW115281   4.557   1.995   4.602
 4794SOL    HW215282   4.526   2.033   4.758
 4795SOL     OW15283   0.012   1.056   6.548
 4795SOL    HW115284   6.988   0.987   6.601
 4795SOL    HW215285   0.110   1.035   6.548
 4796SOL     OW15286   4.568   1.141   5.736
 4796SOL    HW115287   4.657   1.133   5.781
 4796SOL    HW215288   4.562   1.229   5.689
 4797SOL     OW15289   1.600   5.155   5.424
 4797SOL    HW115290   1.679   5.113   5.380
 4797SOL    HW215291   1.566   5.094   5.497
 4798SOL     OW15292   4.157   5.430   0.111
 4798SOL    HW115293   4.133   5.387   0.197
 4798SOL    HW215294   4.082   5.420   0.046
 4799SOL     OW15295   4.614   2.614   6.701
 4799SOL    HW115296   4.604   2.546   6.629
 4799SOL    HW215297   4.527   2.625   6.749
 4800SOL     OW15298   0.178   4.042   0.283
 4800SOL    HW115299   0.086   4.054   0.320
 4800SOL    HW215300   0.187   3.949   0.248
 4801SOL     OW15301   5.044   2.271   1.689
 4801SOL    HW115302   5.097   2.320   1.759
 4801SOL    HW215303   4.965   2.325   1.663
 4802SOL     OW15304   6.545   0.142   4.387
 4802SOL    HW115305   6.560   0.191   4.301
 4802SOL    HW215306   6.492   0.199   4.449
 4803SOL     OW15307   4.918   3.799   6.254
 4803SOL    HW115308   4.999   3.826   6.308
 4803SOL    HW215309   4.837   3.803   6.312
 4804SOL     OW15310   5.307   1.867   0.416
 4804SOL    HW115311   5.313   1.775   0.377
 4804SOL    HW215312   5.215   1.881   0.453
 4805SOL     OW15313   6.249   1.673   0.099
 4805SOL    HW115314   6.314   1.621   0.155
 4805SOL    HW215315   6.221   1.755   0.148
 4806SOL     OW15316   1.193   1.291   3.570
 4806SOL    HW115317   1.165   1.199   3.597
 4806SOL    HW215318   1.182   1.302   3.471
 4807SOL     OW15319   0.449   4.174   5.514
 4807SOL    HW115320   0.514   4.182   5.589
 4807SOL    HW215321   0.422   4.266   5.484
 4808SOL     OW15322   3.785   5.792   1.554
 4808SOL    HW115323   3.817   5.863   1.616
 4808SOL    HW215324   3.756   5.834   1.467
 4809SOL     OW15325   3.069   3.719   1.763
 4809SOL    HW115326   3.144   3.697   1.825
 4809SOL    HW215327   3.036   3.811   1.783
 4810SOL     OW15328   1.175   5.254   4.161
 4810SOL    HW115329   1.159   5.156   4.150
 4810SOL    HW215330   1.272   5.270   4.182
 4811SOL     OW15331   3.270   3.553   4.225
 4811SOL    HW115332   3.191   3.612   4.237
 4811SOL    HW215333   3.251   3.463   4.265
 4812SOL     OW15334   1.414   0.363   2.830
 4812SOL    HW115335   1.480   0.411   2.773
 4812SOL    HW215336   1.367   0.429   2.889
 4813SOL     OW15337   0.025   1.677   5.633
 4813SOL    HW115338   0.031   1.596   5.575
 4813SOL    HW215339   0.005   1.649   5.727
 4814SOL     OW15340   6.375   3.769   1.383
 4814SOL    HW115341   6.308   3.841   1.362
 4814SOL    HW215342   6.426   3.794   1.465
 4815SOL     OW15343   5.893   4.503   1.900
 4815SOL    HW115344   5.851   4.427   1.951
 4815SOL    HW215345   5.992   4.496   1.905
 4816SOL     OW15346   3.212   1.221   2.440
 4816SOL    HW115347   3.223   1.318   2.462
 4816SOL    HW215348   3.127   1.187   2.481
 4817SOL     OW15349   4.072   1.619   0.840
 4817SOL    HW115350   4.082   1.596   0.743
 4817SOL    HW215351   4.145   1.681   0.868
 4818SOL     OW15352   4.454   0.090   4.857
 4818SOL    HW115353   4.361   0.123   4.876
 4818SOL    HW215354   4.479   0.113   4.763
 4819SOL     OW15355   3.222   0.754   0.793
 4819SOL    HW115356   3.269   0.805   0.865
 4819SOL    HW215357   3.227   0.656   0.812
 4820SOL     OW15358   5.756   3.983   1.913
 4820SOL    HW115359   5.660   3.954   1.908
 4820SOL    HW215360   5.795   3.985   1.821
 4821SOL     OW15361   0.141   5.203   1.412
 4821SOL    HW115362   0.132   5.220   1.510
 4821SOL    HW215363   0.177   5.285   1.368
 4822SOL     OW15364   0.918   4.053   1.865
 4822SOL    HW115365   0.952   4.009   1.783
 4822SOL    HW215366   0.854   3.992   1.913
 4823SOL     OW15367   1.909   1.508   4.033
 4823SOL    HW115368   1.975   1.440   4.063
 4823SOL    HW215369   1.847   1.530   4.109
 4824SOL     OW15370   5.485   2.806   1.390
 4824SOL    HW115371   5.406   2.753   1.357
 4824SOL    HW215372   5.487   2.895   1.344
 4825SOL     OW15373   0.029   3.293   3.468
 4825SOL    HW115374   0.082   3.378   3.464
 4825SOL    HW215375   0.032   3.256   3.560
 4826SOL     OW15376   6.971   6.305   7.023
 4826SOL    HW115377   6.964   6.346   6.932
 4826SOL    HW215378   6.978   6.377   0.068
 4827SOL     OW15379   5.673   1.144   1.292
 4827SOL    HW115380   5.621   1.145   1.377
 4827SOL    HW215381   5.611   1.141   1.214
 4828SOL     OW15382   5.028   3.230   6.734
 4828SOL    HW115383   5.037   3.230   6.634
 4828SOL    HW215384   4.969   3.154   6.762
 4829SOL     OW15385   3.554   0.121   5.034
 4829SOL    HW115386   3.485   0.189   5.058
 4829SOL    HW215387   3.587   0.138   4.941
 4830SOL     OW15388   4.100   6.212   4.920
 4830SOL    HW115389   4.025   6.254   4.869
 4830SOL    HW215390   4.187   6.253   4.892
 4831SOL     OW15391   6.618   3.690   5.712
 4831SOL    HW115392   6.683   3.618   5.687
 4831SOL    HW215393   6.530   3.672   5.667
 4832SOL     OW15394   2.263   2.703   6.068
 4832SOL    HW115395   2.187   2.713   6.004
 4832SOL    HW215396   2.253   2.618   6.120
 4833SOL     OW15397   5.541   1.571   2.900
 4833SOL    HW115398   5.641   1.579   2.900
 4833SOL    HW215399   5.502   1.640   2.962
 4834SOL     OW15400   5.381   1.131   3.009
 4834SOL    HW115401   5.313   1.203   3.023
 4834SOL    HW215402   5.334   1.044   2.993
 4835SOL     OW15403   2.263   0.741   5.619
 4835SOL    HW115404   2.330   0.668   5.633
 4835SOL    HW215405   2.171   0.705   5.634
 4836SOL     OW15406   5.439   2.741   2.185
 4836SOL    HW115407   5.490   2.825   2.168
 4836SOL    HW215408   5.421   2.695   2.098
 4837SOL     OW15409   0.498   4.021   0.722
 4837SOL    HW115410   0.540   3.931   0.718
 4837SOL    HW215411   0.566   4.091   0.700
 4838SOL     OW15412   2.560   5.598   2.437
 4838SOL    HW115413   2.478   5.540   2.443
 4838SOL    HW215414   2.637   5.543   2.402
 4839SOL     OW15415   0.819   0.025   0.030
 4839SOL    HW115416   0.743   0.078   7.018
 4839SOL    HW215417   0.828   6.964   7.003
 4840SOL     OW15418   6.649   6.477   6.804
 4840SOL    HW115419   6.716   6.417   6.760
 4840SOL    HW215420   6.611   6.540   6.737
 4841SOL     OW15421   2.318   6.130   2.459
 4841SOL    HW115422   2.359   6.042   2.434
 4841SOL    HW215423   2.264   6.165   2.383
 4842SOL     OW15424   3.499   6.612   1.302
 4842SOL    HW115425   3.534   6.690   1.354
 4842SOL    HW215426   3.480   6.640   1.208
 4843SOL     OW15427   0.666   3.011   6.877
 4843SOL    HW115428   0.590   3.040   6.936
 4843SOL    HW215429   0.750   3.007   6.931
 4844SOL     OW15430   0.297   1.576   5.608
 4844SOL    HW115431   0.221   1.608   5.665
 4844SOL    HW215432   0.325   1.648   5.545
 4845SOL     OW15433   6.028   5.319   3.926
 4845SOL    HW115434   6.062   5.333   3.833
 4845SOL    HW215435   5.971   5.237   3.929
 4846SOL     OW15436   0.782   5.504   0.532
 4846SOL    HW115437   0.859   5.511   0.469
 4846SOL    HW215438   0.700   5.540   0.488
 4847SOL     OW15439   4.798   2.272   4.517
 4847SOL    HW115440   4.738   2.281   4.597
 4847SOL    HW215441   4.836   2.179   4.515
 4848SOL     OW15442   2.980   2.130   2.116
 4848SOL    HW115443   2.916   2.056   2.095
 4848SOL    HW215444   2.949   2.215   2.072
 4849SOL     OW15445   0.975   6.675   6.723
 4849SOL    HW115446   0.990   6.735   6.801
 4849SOL    HW215447   0.881   6.640   6.726
 4850SOL     OW15448   3.681   0.493   2.241
 4850SOL    HW115449   3.715   0.469   2.150
 4850SOL    HW215450   3.719   0.429   2.309
 4851SOL     OW15451   5.544   0.634   5.340
 4851SOL    HW115452   5.562   0.623   5.242
 4851SOL    HW215453   5.539   0.544   5.384
 4852SOL     OW15454   1.657   2.002   1.080
 4852SOL    HW115455   1.670   2.054   0.996
 4852SOL    HW215456   1.737   2.014   1.139
 4853SOL     OW15457   3.227   1.267   1.820
 4853SOL    HW115458   3.134   1.231   1.817
 4853SOL    HW215459   3.223   1.367   1.823
 4854SOL     OW15460   4.258   0.018   0.007
 4854SOL    HW115461   4.209   0.016   0.094
 4854SOL    HW215462   4.193   0.036   6.958
 4855SOL     OW15463   0.035   2.519   2.591
 4855SOL    HW115464   0.019   2.469   2.676
 4855SOL    HW215465   0.029   2.617   2.608
 4856SOL     OW15466   2.206   4.470   3.367
 4856SOL    HW115467   2.212   4.469   3.467
 4856SOL    HW215468   2.295   4.494   3.329
 4857SOL     OW15469   0.244   1.764   5.968
 4857SOL    HW115470   0.206   1.681   6.009
 4857SOL    HW215471   0.285   1.821   6.039
 4858SOL     OW15472   1.072   1.040   3.556
 4858SOL    HW115473   0.975   1.040   3.579
 4858SOL    HW215474   1.098   0.951   3.518
 4859SOL     OW15475   2.970   5.179   5.498
 4859SOL    HW115476   3.042   5.173   5.567
 4859SOL    HW215477   3.011   5.201   5.409
 4860SOL     OW15478   4.484   4.628   0.778
 4860SOL    HW115479   4.581   4.604   0.766
 4860SOL    HW215480   4.469   4.656   0.873
 4861SOL     OW15481   4.947   3.691   5.742
 4861SOL    HW115482   4.870   3.715   5.801
 4861SOL    HW215483   5.026   3.668   5.798
 4862SOL     OW15484   1.304   6.534   1.851
 4862SOL    HW115485   1.299   6.453   1.792
 4862SOL    HW215486   1.261   6.612   1.805
 4863SOL     OW15487   5.638   4.300   6.859
 4863SOL    HW115488   5.698   4.242   6.914
 4863SOL    HW215489   5.577   4.243   6.805
 4864SOL     OW15490   3.277   0.876   3.552
 4864SOL    HW115491   3.179   0.873   3.570
 4864SOL    HW215492   3.324   0.921   3.628
 4865SOL     OW15493   2.281   6.305   5.130
 4865SOL    HW115494   2.365   6.350   5.157
 4865SOL    HW215495   2.214   6.311   5.204
 4866SOL     OW15496   6.315   4.013   6.580
 4866SOL    HW115497   6.228   4.044   6.620
 4866SOL    HW215498   6.297   3.950   6.505
 4867SOL     OW15499   4.755   6.920   2.963
 4867SOL    HW115500   4.801   6.879   3.042
 4867SOL    HW215501   4.823   6.936   2.890
 4868SOL     OW15502   6.863   4.584   1.679
 4868SOL    HW115503   6.777   4.603   1.725
 4868SOL    HW215504   6.881   4.655   1.611
 4869SOL     OW15505   1.036   0.553   0.397
 4869SOL    HW115506   1.122   0.530   0.351
 4869SOL    HW215507   1.004   0.642   0.365
 4870SOL     OW15508   0.357   6.035   1.862
 4870SOL    HW115509   0.389   6.095   1.788
 4870SOL    HW215510   0.369   5.940   1.835
 4871SOL     OW15511   1.684   2.060   4.355
 4871SOL    HW115512   1.779   2.081   4.335
 4871SOL    HW215513   1.630   2.065   4.270
 4872SOL     OW15514   5.555   6.652   3.292
 4872SOL    HW115515   5.572   6.564   3.334
 4872SOL    HW215516   5.469   6.648   3.240
 4873SOL     OW15517   6.399   5.524   5.536
 4873SOL    HW115518   6.340   5.448   5.510
 4873SOL    HW215519   6.444   5.560   5.454
 4874SOL     OW15520   5.011   2.821   3.072
 4874SOL    HW115521   5.076   2.896   3.059
 4874SOL    HW215522   5.057   2.734   3.058
 4875SOL     OW15523   5.486   5.803   5.307
 4875SOL    HW115524   5.485   5.898   5.338
 4875SOL    HW215525   5.578   5.766   5.320
 4876SOL     OW15526   1.344   1.211   2.533
 4876SOL    HW115527   1.259   1.218   2.482
 4876SOL    HW215528   1.390   1.125   2.510
 4877SOL     OW15529   7.002   1.417   5.204
 4877SOL    HW115530   6.988   1.447   5.110
 4877SOL    HW215531   6.913   1.398   5.246
 4878SOL     OW15532   6.924   2.679   2.421
 4878SOL    HW115533   6.969   2.663   2.333
 4878SOL    HW215534   6.951   2.607   2.486
 4879SOL     OW15535   5.523   1.307   2.858
 4879SOL    HW115536   5.512   1.404   2.883
 4879SOL    HW215537   5.468   1.251   2.920
 4880SOL     OW15538   6.553   3.148   6.321
 4880SOL    HW115539   6.517   3.212   6.253
 4880SOL    HW215540   6.579   3.063   6.275
 4881SOL     OW15541   1.855   2.310   1.628
 4881SOL    HW115542   1.929   2.377   1.622
 4881SOL    HW215543   1.894   2.220   1.646
 4882SOL     OW15544   4.273   1.947   4.568
 4882SOL    HW115545   4.260   2.030   4.622
 4882SOL    HW215546   4.352   1.958   4.508
 4883SOL     OW15547   6.392   4.369   0.877
 4883SOL    HW115548   6.446   4.365   0.793
 4883SOL    HW215549   6.340   4.454   0.879
 4884SOL     OW15550   2.299   0.020   1.207
 4884SOL    HW115551   2.281   0.093   1.142
 4884SOL    HW215552   2.283   0.054   1.300
 4885SOL     OW15553   1.315   4.468   0.008
 4885SOL    HW115554   1.266   4.429   0.086
 4885SOL    HW215555   1.408   4.433   0.006
 4886SOL     OW15556   2.254   1.307   1.837
 4886SOL    HW115557   2.173   1.311   1.895
 4886SOL    HW215558   2.255   1.387   1.776
 4887SOL     OW15559   6.072   6.492   1.266
 4887SOL    HW115560   6.021   6.521   1.346
 4887SOL    HW215561   6.015   6.502   1.184
 4888SOL     OW15562   3.850   6.948   2.813
 4888SOL    HW115563   3.949   6.956   2.815
 4888SOL    HW215564   3.823   6.880   2.745
 4889SOL     OW15565   7.000   3.098   3.920
 4889SOL    HW115566   6.913   3.071   3.878
 4889SOL    HW215567   6.997   3.079   4.018
 4890SOL     OW15568   6.513   1.456   4.630
 4890SOL    HW115569   6.539   1.396   4.554
 4890SOL    HW215570   6.565   1.431   4.712
 4891SOL     OW15571   2.594   5.415   6.269
 4891SOL    HW115572   2.557   5.339   6.323
 4891SOL    HW215573   2.686   5.390   6.237
 4892SOL     OW15574   4.710   5.733   3.041
 4892SOL    HW115575   4.641   5.778   3.098
 4892SOL    HW215576   4.666   5.696   2.959
 4893SOL     OW15577   1.031   3.628   1.485
 4893SOL    HW115578   1.105   3.694   1.498
 4893SOL    HW215579   1.032   3.596   1.390
 4894SOL     OW15580   5.159   6.938   1.852
 4894SOL    HW115581   5.170   6.999   1.930
 4894SOL    HW215582   5.248   6.922   1.809
 4895SOL     OW15583   0.022   4.287   4.738
 4895SOL    HW115584   6.987   4.269   4.661
 4895SOL    HW215585   6.993   4.293   4.822
 4896SOL     OW15586   2.006   4.786   4.678
 4896SOL    HW115587   2.014   4.797   4.579
 4896SOL    HW215588   1.969   4.870   4.718
 4897SOL     OW15589   1.896   6.376   5.532
 4897SOL    HW115590   1.939   6.333   5.452
 4897SOL    HW215591   1.828   6.314   5.570
 4898SOL     OW15592   4.898   1.449   3.443
 4898SOL    HW115593   4.890   1.539   3.401
 4898SOL    HW215594   4.995   1.425   3.455
 4899SOL     OW15595   6.671   6.393   1.818
 4899SOL    HW115596   6.722   6.313   1.850
 4899SOL    HW215597   6.729   6.474   1.826
 4900SOL     OW15598   3.858   6.076   5.662
 4900SOL    HW115599   3.804   6.154   5.629
 4900SOL    HW215600   3.953   6.089   5.636
 4901SOL     OW15601   1.240   1.317   5.842
 4901SOL    HW115602   1.211   1.224   5.818
 4901SOL    HW215603   1.169   1.382   5.815
 4902SOL     OW15604   1.938   6.636   5.635
 4902SOL    HW115605   1.910   6.690   5.556
 4902SOL    HW215606   1.924   6.539   5.616
 4903SOL     OW15607   4.752   4.157   2.592
 4903SOL    HW115608   4.820   4.209   2.643
 4903SOL    HW215609   4.752   4.062   2.625
 4904SOL     OW15610   1.482   6.890   0.460
 4904SOL    HW115611   1.561   6.928   0.411
 4904SOL    HW215612   1.487   6.790   0.460
 4905SOL     OW15613   2.727   5.955   3.227
 4905SOL    HW115614   2.803   5.956   3.292
 4905SOL    HW215615   2.641   5.971   3.276
 4906SOL     OW15616   4.930   3.342   5.012
 4906SOL    HW115617   4.899   3.307   4.924
 4906SOL    HW215618   4.884   3.428   5.033
 4907SOL     OW15619   4.583   1.504   0.267
 4907SOL    HW115620   4.582   1.520   0.168
 4907SOL    HW215621   4.676   1.481   0.295
 4908SOL     OW15622   4.275   6.734   6.620
 4908SOL    HW115623   4.207   6.777   6.560
 4908SOL    HW215624   4.363   6.729   6.572
 4909SOL     OW15625   5.195   4.579   4.442
 4909SOL    HW115626   5.287   4.568   4.403
 4909SOL    HW215627   5.169   4.676   4.436
 4910SOL     OW15628   4.591   2.347   6.003
 4910SOL    HW115629   4.612   2.419   6.069
 4910SOL    HW215630   4.672   2.289   5.990
 4911SOL     OW15631   6.535   2.411   2.278
 4911SOL    HW115632   6.554   2.501   2.239
 4911SOL    HW215633   6.451   2.375   2.239
 4912SOL     OW15634   5.492   2.821   3.935
 4912SOL    HW115635   5.500   2.781   4.026
 4912SOL    HW215636   5.418   2.776   3.885
 4913SOL     OW15637   0.513   3.843   5.661
 4913SOL    HW115638   0.576   3.818   5.588
 4913SOL    HW215639   0.482   3.761   5.709
 4914SOL     OW15640   4.451   0.723   3.504
 4914SOL    HW115641   4.532   0.666   3.517
 4914SOL    HW215642   4.370   0.675   3.539
 4915SOL     OW15643   3.159   5.159   5.664
 4915SOL    HW115644   3.220   5.080   5.657
 4915SOL    HW215645   3.212   5.240   5.689
 4916SOL     OW15646   5.732   2.508   4.431
 4916SOL    HW115647   5.676   2.428   4.411
 4916SOL    HW215648   5.677   2.577   4.478
 4917SOL     OW15649   4.301   6.504   0.039
 4917SOL    HW115650   4.322   6.601   0.031
 4917SOL    HW215651   4.280   6.467   6.973
 4918SOL     OW15652   6.112   4.704   2.836
 4918SOL    HW115653   6.187   4.647   2.871
 4918SOL    HW215654   6.147   4.763   2.763
 4919SOL     OW15655   3.223   3.821   2.320
 4919SOL    HW115656   3.229   3.916   2.288
 4919SOL    HW215657   3.179   3.765   2.250
 4920SOL     OW15658   6.723   1.519   5.823
 4920SOL    HW115659   6.756   1.613   5.836
 4920SOL    HW215660   6.683   1.486   5.908
 4921SOL     OW15661   0.150   7.019   2.768
 4921SOL    HW115662   0.218   6.984   2.833
 4921SOL    HW215663   0.146   6.958   2.688
 4922SOL     OW15664   3.320   2.086   6.381
 4922SOL    HW115665   3.350   2.180   6.364
 4922SOL    HW215666   3.249   2.087   6.452
 4923SOL     OW15667   3.875   1.658   1.727
 4923SOL    HW115668   3.860   1.571   1.773
 4923SOL    HW215669   3.963   1.657   1.680
 4924SOL     OW15670   2.691   0.553   5.306
 4924SOL    HW115671   2.707   0.582   5.212
 4924SOL    HW215672   2.687   0.633   5.366
 4925SOL     OW15673   6.050   6.345   3.753
 4925SOL    HW115674   5.993   6.263   3.745
 4925SOL    HW215675   6.046   6.381   3.846
 4926SOL     OW15676   5.383   2.790   1.045
 4926SOL    HW115677   5.370   2.864   1.111
 4926SOL    HW215678   5.408   2.828   0.956
 4927SOL     OW15679   3.636   1.240   6.529
 4927SOL    HW115680   3.732   1.214   6.542
 4927SOL    HW215681   3.594   1.180   6.461
 4928SOL     OW15682   6.890   2.513   1.024
 4928SOL    HW115683   6.944   2.570   0.962
 4928SOL    HW215684   6.850   2.570   1.096
 4929SOL     OW15685   0.789   6.012   5.144
 4929SOL    HW115686   0.713   5.990   5.084
 4929SOL    HW215687   0.876   5.997   5.096
 4930SOL     OW15688   5.030   6.189   2.079
 4930SOL    HW115689   5.072   6.099   2.096
 4930SOL    HW215690   5.042   6.246   2.160
 4931SOL     OW15691   6.852   5.508   0.242
 4931SOL    HW115692   6.833   5.503   0.340
 4931SOL    HW215693   6.894   5.596   0.220
 4932SOL     OW15694   3.537   3.372   2.129
 4932SOL    HW115695   3.561   3.311   2.205
 4932SOL    HW215696   3.599   3.354   2.052
 4933SOL     OW15697   2.198   6.270   5.635
 4933SOL    HW115698   2.131   6.306   5.700
 4933SOL    HW215699   2.156   6.197   5.581
 4934SOL     OW15700   4.014   5.479   2.533
 4934SOL    HW115701   4.002   5.450   2.628
 4934SOL    HW215702   4.098   5.438   2.496
 4935SOL     OW15703   0.609   1.174   6.398
 4935SOL    HW115704   0.674   1.215   6.334
 4935SOL    HW215705   0.652   1.096   6.443
 4936SOL     OW15706   3.743   2.735   0.729
 4936SOL    HW115707   3.712   2.671   0.799
 4936SOL    HW215708   3.689   2.721   0.646
 4937SOL     OW15709   4.635   2.787   5.054
 4937SOL    HW115710   4.550   2.736   5.040
 4937SOL    HW215711   4.702   2.728   5.097
 4938SOL     OW15712   4.020   5.146   5.882
 4938SOL    HW115713   4.092   5.105   5.827
 4938SOL    HW215714   3.975   5.219   5.829
 4939SOL     OW15715   4.774   3.298   6.225
 4939SOL    HW115716   4.872   3.283   6.229
 4939SOL    HW215717   4.731   3.223   6.175
 4940SOL     OW15718   1.622   5.812   4.183
 4940SOL    HW115719   1.624   5.803   4.084
 4940SOL    HW215720   1.672   5.735   4.224
 4941SOL     OW15721   5.183   0.202   1.111
 4941SOL    HW115722   5.186   0.287   1.164
 4941SOL    HW215723   5.275   0.180   1.079
 4942SOL     OW15724   5.054   3.325   5.631
 4942SOL    HW115725   5.078   3.393   5.700
 4942SOL    HW215726   5.022   3.241   5.676
 4943SOL     OW15727   5.213   2.394   1.383
 4943SOL    HW115728   5.171   2.482   1.407
 4943SOL    HW215729   5.257   2.355   1.464
 4944SOL     OW15730   2.445   4.495   2.098
 4944SOL    HW115731   2.370   4.482   2.164
 4944SOL    HW215732   2.505   4.568   2.131
 4945SOL     OW15733   0.299   6.269   4.923
 4945SOL    HW115734   0.265   6.227   5.007
 4945SOL    HW215735   0.399   6.264   4.921
 4946SOL     OW15736   0.231   4.516   2.255
 4946SOL    HW115737   0.172   4.585   2.212
 4946SOL    HW215738   0.289   4.473   2.186
 4947SOL     OW15739   6.743   0.207   1.449
 4947SOL    HW115740   6.804   0.151   1.394
 4947SOL    HW215741   6.661   0.229   1.396
 4948SOL     OW15742   1.758   1.200   1.943
 4948SOL    HW115743   1.725   1.239   1.858
 4948SOL    HW215744   1.844   1.151   1.927
 4949SOL     OW15745   5.079   1.585   4.717
 4949SOL    HW115746   5.014   1.548   4.651
 4949SOL    HW215747   5.042   1.670   4.755
 4950SOL     OW15748   2.789   5.449   5.476
 4950SOL    HW115749   2.746   5.360   5.490
 4950SOL    HW215750   2.752   5.492   5.393
 4951SOL     OW15751   4.646   1.788   4.085
 4951SOL    HW115752   4.563   1.844   4.084
 4951SOL    HW215753   4.673   1.771   4.180
 4952SOL     OW15754   0.212   4.919   5.022
 4952SOL    HW115755   0.295   4.892   4.973
 4952SOL    HW215756   0.172   5.000   4.979
 4953SOL     OW15757   1.873   5.590   1.620
 4953SOL    HW115758   1.950   5.631   1.669
 4953SOL    HW215759   1.817   5.537   1.684
 4954SOL     OW15760   6.413   6.133   0.365
 4954SOL    HW115761   6.423   6.233   0.362
 4954SOL    HW215762   6.502   6.091   0.381
 4955SOL     OW15763   1.485   0.040   1.950
 4955SOL    HW115764   1.556   0.056   1.881
 4955SOL    HW215765   1.420   0.117   1.950
 4956SOL     OW15766   5.385   6.500   4.447
 4956SOL    HW115767   5.408   6.500   4.350
 4956SOL    HW215768   5.326   6.422   4.467
 4957SOL     OW15769   1.614   6.519   3.621
 4957SOL    HW115770   1.528   6.570   3.627
 4957SOL    HW215771   1.645   6.516   3.526
 4958SOL     OW15772   0.372   6.135   6.523
 4958SOL    HW115773   0.405   6.135   6.618
 4958SOL    HW215774   0.315   6.215   6.507
 4959SOL     OW15775   0.768   0.916   0.980
 4959SOL    HW115776   0.719   0.981   1.038
 4959SOL    HW215777   0.866   0.932   0.988
 4960SOL     OW15778   3.880   6.366   4.781
 4960SOL    HW115779   3.820   6.398   4.854
 4960SOL    HW215780   3.867   6.424   4.700
 4961SOL     OW15781   4.151   0.860   5.675
 4961SOL    HW115782   4.111   0.772   5.702
 4961SOL    HW215783   4.248   0.862   5.701
 4962SOL     OW15784   6.392   2.406   1.956
 4962SOL    HW115785   6.343   2.480   1.910
 4962SOL    HW215786   6.330   2.355   2.015
 4963SOL     OW15787   6.791   4.242   1.714
 4963SOL    HW115788   6.831   4.151   1.699
 4963SOL    HW215789   6.864   4.311   1.712
 4964SOL     OW15790   3.300   6.510   2.785
 4964SOL    HW115791   3.274   6.470   2.872
 4964SOL    HW215792   3.238   6.585   2.762
 4965SOL     OW15793   0.384   6.715   4.458
 4965SOL    HW115794   0.366   6.629   4.411
 4965SOL    HW215795   0.471   6.753   4.426
 4966SOL     OW15796   3.496   5.360   4.149
 4966SOL    HW115797   3.428   5.302   4.103
 4966SOL    HW215798   3.536   5.310   4.226
 4967SOL     OW15799   4.785   2.104   6.051
 4967SOL    HW115800   4.835   2.147   6.126
 4967SOL    HW215801   4.703   2.059   6.088
 4968SOL     OW15802   5.448   3.826   5.856
 4968SOL    HW115803   5.520   3.895   5.858
 4968SOL    HW215804   5.395   3.831   5.941
 4969SOL     OW15805   0.707   2.279   1.291
 4969SOL    HW115806   0.743   2.362   1.333
 4969SOL    HW215807   0.695   2.294   1.192
 4970SOL     OW15808   1.226   2.873   6.022
 4970SOL    HW115809   1.210   2.964   6.061
 4970SOL    HW215810   1.258   2.883   5.928
 4971SOL     OW15811   6.535   5.824   3.978
 4971SOL    HW115812   6.615   5.765   3.980
 4971SOL    HW215813   6.479   5.802   3.898
 4972SOL     OW15814   1.600   2.237   5.443
 4972SOL    HW115815   1.650   2.244   5.529
 4972SOL    HW215816   1.657   2.190   5.375
 4973SOL     OW15817   5.935   5.470   3.114
 4973SOL    HW115818   5.951   5.411   3.193
 4973SOL    HW215819   5.843   5.507   3.118
 4974SOL     OW15820   4.356   6.707   1.532
 4974SOL    HW115821   4.297   6.715   1.452
 4974SOL    HW215822   4.377   6.798   1.567
 4975SOL     OW15823   5.134   6.070   0.301
 4975SOL    HW115824   5.113   5.983   0.257
 4975SOL    HW215825   5.227   6.067   0.338
 4976SOL     OW15826   3.604   0.765   4.478
 4976SOL    HW115827   3.630   0.830   4.549
 4976SOL    HW215828   3.524   0.798   4.429
 4977SOL     OW15829   3.501   3.713   0.211
 4977SOL    HW115830   3.482   3.810   0.203
 4977SOL    HW215831   3.593   3.694   0.176
 4978SOL     OW15832   6.108   3.188   6.277
 4978SOL    HW115833   6.031   3.245   6.249
 4978SOL    HW215834   6.170   3.176   6.200
 4979SOL     OW15835   1.049   2.325   4.222
 4979SOL    HW115836   1.065   2.416   4.260
 4979SOL    HW215837   1.020   2.263   4.295
 4980SOL     OW15838   2.635   5.344   2.969
 4980SOL    HW115839   2.672   5.360   3.061
 4980SOL    HW215840   2.535   5.354   2.971
 4981SOL     OW15841   5.096   6.309   5.630
 4981SOL    HW115842   5.059   6.291   5.539
 4981SOL    HW215843   5.110   6.408   5.642
 4982SOL     OW15844   2.477   1.936   0.061
 4982SOL    HW115845   2.403   1.892   0.111
 4982SOL    HW215846   2.441   1.978   7.003
 4983SOL     OW15847   5.472   2.982   4.603
 4983SOL    HW115848   5.496   3.045   4.529
 4983SOL    HW215849   5.415   2.908   4.567
 4984SOL     OW15850   4.608   4.293   2.410
 4984SOL    HW115851   4.558   4.366   2.457
 4984SOL    HW215852   4.643   4.228   2.477
 4985SOL     OW15853   5.513   4.265   2.555
 4985SOL    HW115854   5.477   4.259   2.462
 4985SOL    HW215855   5.542   4.359   2.574
 4986SOL     OW15856   4.847   4.594   2.767
 4986SOL    HW115857   4.832   4.559   2.674
 4986SOL    HW215858   4.853   4.693   2.765
 4987SOL     OW15859   0.313   3.942   1.120
 4987SOL    HW115860   0.328   3.996   1.037
 4987SOL    HW215861   0.216   3.943   1.143
 4988SOL     OW15862   0.643   2.210   5.555
 4988SOL    HW115863   0.606   2.166   5.473
 4988SOL    HW215864   0.720   2.268   5.530
 4989SOL     OW15865   0.453   0.985   0.490
 4989SOL    HW115866   0.460   0.953   0.396
 4989SOL    HW215867   0.453   1.085   0.492
 4990SOL     OW15868   0.438   1.877   5.803
 4990SOL    HW115869   0.354   1.864   5.856
 4990SOL    HW215870   0.425   1.841   5.711
 4991SOL     OW15871   1.581   2.575   4.852
 4991SOL    HW115872   1.649   2.524   4.904
 4991SOL    HW215873   1.514   2.616   4.915
 4992SOL     OW15874   3.837   0.354   4.732
 4992SOL    HW115875   3.738   0.342   4.726
 4992SOL    HW215876   3.866   0.341   4.826
 4993SOL     OW15877   2.322   5.557   4.045
 4993SOL    HW115878   2.292   5.502   3.967
 4993SOL    HW215879   2.250   5.622   4.071
 4994SOL     OW15880   6.986   6.866   2.219
 4994SOL    HW115881   0.059   6.877   2.236
 4994SOL    HW215882   6.947   6.954   2.193
 4995SOL     OW15883   6.351   2.936   5.746
 4995SOL    HW115884   6.318   2.987   5.666
 4995SOL    HW215885   6.359   2.839   5.723
 4996SOL     OW15886   0.083   1.181   3.893
 4996SOL    HW115887   0.114   1.109   3.954
 4996SOL    HW215888   0.113   1.270   3.928
 4997SOL     OW15889   0.356   2.596   3.729
 4997SOL    HW115890   0.424   2.525   3.748
 4997SOL    HW215891   0.265   2.562   3.751
 4998SOL     OW15892   1.268   5.580   4.606
 4998SOL    HW115893   1.368   5.585   4.617
 4998SOL    HW215894   1.224   5.600   4.693
 4999SOL     OW15895   6.058   4.576   1.085
 4999SOL    HW115896   6.051   4.490   1.137
 4999SOL    HW215897   6.143   4.575   1.032
 5000SOL     OW15898   6.884   5.709   4.171
 5000SOL    HW115899   6.868   5.614   4.200
 5000SOL    HW215900   6.890   5.712   4.071
 5001SOL     OW15901   4.741   4.305   5.323
 5001SOL    HW115902   4.733   4.255   5.237
 5001SOL    HW215903   4.829   4.284   5.365
 5002SOL     OW15904   2.169   1.872   1.276
 5002SOL    HW115905   2.175   1.972   1.285
 5002SOL    HW215906   2.080   1.841   1.309
 5003SOL     OW15907   6.531   5.147   3.285
 5003SOL    HW115908   6.478   5.231   3.292
 5003SOL    HW215909   6.540   5.105   3.376
 5004SOL     OW15910   2.813   4.865   6.751
 5004SOL    HW115911   2.793   4.803   6.675
 5004SOL    HW215912   2.740   4.860   6.819
 5005SOL     OW15913   4.316   2.401   6.831
 5005SOL    HW115914   4.349   2.494   6.848
 5005SOL    HW215915   4.393   2.338   6.829
 5006SOL     OW15916   5.388   4.521   3.381
 5006SOL    HW115917   5.294   4.491   3.365
 5006SOL    HW215918   5.429   4.465   3.453
 5007SOL     OW15919   4.259   1.725   5.058
 5007SOL    HW115920   4.241   1.674   5.142
 5007SOL    HW215921   4.323   1.800   5.076
 5008SOL     OW15922   6.534   0.974   4.004
 5008SOL    HW115923   6.627   1.012   4.009
 5008SOL    HW215924   6.514   0.948   3.910
 5009SOL     OW15925   1.710   6.154   3.370
 5009SOL    HW115926   1.703   6.161   3.469
 5009SOL    HW215927   1.736   6.061   3.345
 5010SOL     OW15928   3.005   3.130   4.530
 5010SOL    HW115929   3.002   3.050   4.590
 5010SOL    HW215930   3.023   3.101   4.436
 5011SOL     OW15931   0.810   3.042   3.247
 5011SOL    HW115932   0.909   3.031   3.239
 5011SOL    HW215933   0.778   3.105   3.175
 5012SOL     OW15934   5.503   3.311   0.200
 5012SOL    HW115935   5.597   3.305   0.234
 5012SOL    HW215936   5.480   3.228   0.150
 5013SOL     OW15937   4.860   1.508   5.751
 5013SOL    HW115938   4.889   1.417   5.781
 5013SOL    HW215939   4.931   1.575   5.774
 5014SOL     OW15940   6.095   6.906   0.119
 5014SOL    HW115941   6.029   6.859   0.059
 5014SOL    HW215942   6.157   6.961   0.063
 5015SOL     OW15943   5.526   2.112   3.394
 5015SOL    HW115944   5.577   2.194   3.422
 5015SOL    HW215945   5.433   2.138   3.367
 5016SOL     OW15946   2.335   6.844   2.021
 5016SOL    HW115947   2.293   6.759   2.053
 5016SOL    HW215948   2.266   6.916   2.018
 5017SOL     OW15949   2.594   2.377   1.609
 5017SOL    HW115950   2.608   2.320   1.529
 5017SOL    HW215951   2.526   2.448   1.589
 5018SOL     OW15952   6.586   5.320   4.029
 5018SOL    HW115953   6.619   5.407   3.991
 5018SOL    HW215954   6.540   5.337   4.116
 5019SOL     OW15955   3.104   5.426   6.221
 5019SOL    HW115956   3.112   5.371   6.304
 5019SOL    HW215957   3.177   5.401   6.157
 5020SOL     OW15958   4.899   5.167   6.082
 5020SOL    HW115959   4.945   5.255   6.092
 5020SOL    HW215960   4.852   5.144   6.167
 5021SOL     OW15961   2.441   4.673   5.754
 5021SOL    HW115962   2.410   4.735   5.826
 5021SOL    HW215963   2.541   4.668   5.757
 5022SOL     OW15964   1.472   4.672   0.622
 5022SOL    HW115965   1.473   4.572   0.616
 5022SOL    HW215966   1.547   4.702   0.682
 5023SOL     OW15967   6.733   2.673   3.354
 5023SOL    HW115968   6.633   2.670   3.346
 5023SOL    HW215969   6.759   2.668   3.450
 5024SOL     OW15970   5.775   3.599   5.606
 5024SOL    HW115971   5.864   3.626   5.642
 5024SOL    HW215972   5.771   3.499   5.599
 5025SOL     OW15973   6.417   1.397   3.501
 5025SOL    HW115974   6.361   1.321   3.534
 5025SOL    HW215975   6.446   1.378   3.407
 5026SOL     OW15976   0.654   6.060   3.177
 5026SOL    HW115977   0.637   6.086   3.082
 5026SOL    HW215978   0.568   6.058   3.228
 5027SOL     OW15979   0.866   6.374   3.495
 5027SOL    HW115980   0.770   6.402   3.494
 5027SOL    HW215981   0.875   6.284   3.452
 5028SOL     OW15982   1.539   0.556   2.660
 5028SOL    HW115983   1.447   0.577   2.629
 5028SOL    HW215984   1.600   0.548   2.582
 5029SOL     OW15985   0.178   0.992   2.939
 5029SOL    HW115986   0.232   0.957   2.862
 5029SOL    HW215987   0.133   1.077   2.912
 5030SOL     OW15988   2.016   5.745   6.909
 5030SOL    HW115989   2.084   5.729   6.837
 5030SOL    HW215990   1.932   5.779   6.867
 5031SOL     OW15991   5.988   0.753   5.474
 5031SOL    HW115992   6.066   0.691   5.478
 5031SOL    HW215993   6.015   0.843   5.510
 5032SOL     OW15994   0.723   6.117   0.992
 5032SOL    HW115995   0.696   6.206   1.029
 5032SOL    HW215996   0.655   6.088   0.924
 5033SOL     OW15997   0.404   4.430   5.447
 5033SOL    HW115998   0.327   4.469   5.396
 5033SOL    HW215999   0.481   4.495   5.445
 5034SOL     OW16000   6.799   3.973   6.902
 5034SOL    HW116001   6.732   4.045   6.919
 5034SOL    HW216002   6.778   3.928   6.815
 5035SOL     OW16003   5.831   4.369   1.330
 5035SOL    HW116004   5.780   4.452   1.308
 5035SOL    HW216005   5.823   4.349   1.427
 5036SOL     OW16006   1.741   0.793   2.600
 5036SOL    HW116007   1.764   0.696   2.614
 5036SOL    HW216008   1.663   0.816   2.657
 5037SOL     OW16009   4.628   2.557   2.654
 5037SOL    HW116010   4.635   2.603   2.743
 5037SOL    HW216011   4.566   2.479   2.663
 5038SOL     OW16012   2.696   6.254   5.599
 5038SOL    HW116013   2.701   6.233   5.696
 5038SOL    HW216014   2.601   6.248   5.568
 5039SOL     OW16015   1.208   1.955   3.536
 5039SOL    HW116016   1.244   1.988   3.449
 5039SOL    HW216017   1.143   1.881   3.520
 5040SOL     OW16018   2.933   3.685   6.240
 5040SOL    HW116019   2.958   3.748   6.167
 5040SOL    HW216020   2.847   3.715   6.281
 5041SOL     OW16021   1.064   5.542   0.536
 5041SOL    HW116022   1.067   5.545   0.436
 5041SOL    HW216023   1.086   5.449   0.567
 5042SOL     OW16024   6.278   1.865   6.148
 5042SOL    HW116025   6.275   1.953   6.195
 5042SOL    HW216026   6.202   1.808   6.180
 5043SOL     OW16027   5.015   0.441   3.342
 5043SOL    HW116028   5.017   0.357   3.397
 5043SOL    HW216029   5.058   0.424   3.253
 5044SOL     OW16030   5.293   4.532   2.750
 5044SOL    HW116031   5.266   4.494   2.662
 5044SOL    HW216032   5.368   4.478   2.788
 5045SOL     OW16033   6.033   3.527   6.154
 5045SOL    HW116034   6.012   3.445   6.101
 5045SOL    HW216035   6.009   3.511   6.250
 5046SOL     OW16036   3.122   3.032   5.258
 5046SOL    HW116037   3.042   3.083   5.290
 5046SOL    HW216038   3.126   2.943   5.305
 5047SOL     OW16039   1.052   1.582   2.269
 5047SOL    HW116040   0.968   1.622   2.231
 5047SOL    HW216041   1.073   1.496   2.221
 5048SOL     OW16042   6.059   3.661   1.512
 5048SOL    HW116043   6.151   3.651   1.550
 5048SOL    HW216044   6.041   3.587   1.448
 5049SOL     OW16045   1.331   2.176   2.053
 5049SOL    HW116046   1.325   2.160   2.152
 5049SOL    HW216047   1.271   2.252   2.028
 5050SOL     OW16048   1.059   3.541   0.575
 5050SOL    HW116049   0.980   3.508   0.627
 5050SOL    HW216050   1.046   3.519   0.478
 5051SOL     OW16051   2.197   3.735   0.378
 5051SOL    HW116052   2.265   3.735   0.451
 5051SOL    HW216053   2.146   3.822   0.380
 5052SOL     OW16054   5.342   3.768   0.785
 5052SOL    HW116055   5.378   3.847   0.734
 5052SOL    HW216056   5.411   3.696   0.788
 5053SOL     OW16057   2.210   4.713   0.363
 5053SOL    HW116058   2.179   4.694   0.456
 5053SOL    HW216059   2.238   4.628   0.319
 5054SOL     OW16060   3.753   5.905   5.025
 5054SOL    HW116061   3.658   5.935   5.023
 5054SOL    HW216062   3.787   5.895   4.931
 5055SOL     OW16063   1.625   1.852   3.847
 5055SOL    HW116064   1.718   1.816   3.856
 5055SOL    HW216065   1.562   1.795   3.901
 5056SOL     OW16066   2.484   2.656   5.194
 5056SOL    HW116067   2.482   2.573   5.250
 5056SOL    HW216068   2.536   2.727   5.242
 5057SOL     OW16069   0.520   4.546   2.964
 5057SOL    HW116070   0.427   4.580   2.978
 5057SOL    HW216071   0.578   4.575   3.041
 5058SOL     OW16072   3.222   2.878   0.489
 5058SOL    HW116073   3.137   2.835   0.520
 5058SOL    HW216074   3.276   2.908   0.568
 5059SOL     OW16075   4.398   1.552   3.098
 5059SOL    HW116076   4.321   1.491   3.081
 5059SOL    HW216077   4.456   1.514   3.170
 5060SOL     OW16078   0.490   3.314   5.025
 5060SOL    HW116079   0.478   3.321   5.124
 5060SOL    HW216080   0.442   3.389   4.981
 5061SOL     OW16081   3.698   2.095   5.493
 5061SOL    HW116082   3.599   2.096   5.474
 5061SOL    HW216083   3.731   2.188   5.502
 5062SOL     OW16084   5.304   1.189   3.620
 5062SOL    HW116085   5.273   1.167   3.527
 5062SOL    HW216086   5.374   1.124   3.648
 5063SOL     OW16087   1.084   1.346   1.487
 5063SOL    HW116088   1.134   1.316   1.568
 5063SOL    HW216089   1.147   1.392   1.424
 5064SOL     OW16090   4.948   5.250   0.912
 5064SOL    HW116091   5.020   5.318   0.897
 5064SOL    HW216092   4.957   5.176   0.846
 5065SOL     OW16093   1.980   1.378   2.006
 5065SOL    HW116094   1.901   1.325   1.978
 5065SOL    HW216095   1.951   1.469   2.035
 5066SOL     OW16096   1.905   4.827   2.685
 5066SOL    HW116097   1.995   4.840   2.643
 5066SOL    HW216098   1.904   4.869   2.775
 5067SOL     OW16099   5.704   2.674   0.749
 5067SOL    HW116100   5.681   2.597   0.809
 5067SOL    HW216101   5.661   2.757   0.784
 5068SOL     OW16102   2.482   5.760   0.799
 5068SOL    HW116103   2.460   5.828   0.729
 5068SOL    HW216104   2.487   5.669   0.758
 5069SOL     OW16105   4.119   5.096   5.313
 5069SOL    HW116106   4.090   5.187   5.286
 5069SOL    HW216107   4.042   5.046   5.354
 5070SOL     OW16108   5.915   3.743   5.063
 5070SOL    HW116109   5.819   3.733   5.090
 5070SOL    HW216110   5.923   3.739   4.964
 5071SOL     OW16111   2.716   6.819   3.570
 5071SOL    HW116112   2.694   6.864   3.657
 5071SOL    HW216113   2.734   6.888   3.500
 5072SOL     OW16114   1.041   0.827   0.963
 5072SOL    HW116115   1.133   0.848   0.931
 5072SOL    HW216116   1.045   0.787   1.054
 5073SOL     OW16117   2.793   1.051   3.056
 5073SOL    HW116118   2.830   1.109   3.129
 5073SOL    HW216119   2.827   1.082   2.968
 5074SOL     OW16120   3.469   2.188   1.708
 5074SOL    HW116121   3.545   2.237   1.751
 5074SOL    HW216122   3.406   2.254   1.667
 5075SOL     OW16123   0.169   3.486   6.899
 5075SOL    HW116124   0.188   3.584   6.896
 5075SOL    HW216125   0.253   3.436   6.921
 5076SOL     OW16126   0.002   0.183   6.499
 5076SOL    HW116127   6.934   0.220   6.491
 5076SOL    HW216128   0.001   0.086   6.478
 5077SOL     OW16129   0.925   4.355   4.135
 5077SOL    HW116130   0.875   4.275   4.167
 5077SOL    HW216131   1.023   4.341   4.149
 5078SOL     OW16132   0.019   1.876   3.906
 5078SOL    HW116133   6.972   1.842   3.846
 5078SOL    HW216134   0.024   1.976   3.900
 5079SOL     OW16135   1.785   2.782   5.429
 5079SOL    HW116136   1.686   2.790   5.417
 5079SOL    HW216137   1.830   2.848   5.368
 5080SOL     OW16138   5.662   5.859   0.495
 5080SOL    HW116139   5.652   5.959   0.494
 5080SOL    HW216140   5.578   5.817   0.462
 5081SOL     OW16141   2.407   5.347   5.267
 5081SOL    HW116142   2.492   5.297   5.255
 5081SOL    HW216143   2.427   5.442   5.295
 5082SOL     OW16144   5.138   5.876   1.585
 5082SOL    HW116145   5.061   5.843   1.639
 5082SOL    HW216146   5.203   5.924   1.645
 5083SOL     OW16147   1.724   0.527   3.727
 5083SOL    HW116148   1.735   0.442   3.778
 5083SOL    HW216149   1.670   0.591   3.782
 5084SOL     OW16150   2.690   4.311   5.475
 5084SOL    HW116151   2.628   4.268   5.409
 5084SOL    HW216152   2.707   4.249   5.551
 5085SOL     OW16153   0.433   4.162   4.867
 5085SOL    HW116154   0.506   4.185   4.932
 5085SOL    HW216155   0.439   4.064   4.845
 5086SOL     OW16156   2.119   5.627   1.765
 5086SOL    HW116157   2.164   5.637   1.677
 5086SOL    HW216158   2.187   5.630   1.838
 5087SOL     OW16159   6.435   4.567   2.471
 5087SOL    HW116160   6.367   4.531   2.534
 5087SOL    HW216161   6.470   4.492   2.414
 5088SOL     OW16162   5.303   5.742   2.027
 5088SOL    HW116163   5.333   5.788   2.110
 5088SOL    HW216164   5.247   5.804   1.972
 5089SOL     OW16165   5.344   5.674   5.745
 5089SOL    HW116166   5.378   5.593   5.794
 5089SOL    HW216167   5.345   5.656   5.646
 5090SOL     OW16168   2.795   6.600   4.983
 5090SOL    HW116169   2.815   6.530   5.053
 5090SOL    HW216170   2.707   6.580   4.941
 5091SOL     OW16171   0.129   6.571   6.325
 5091SOL    HW116172   0.167   6.661   6.346
 5091SOL    HW216173   0.198   6.516   6.278
 5092SOL     OW16174   3.399   3.257   4.171
 5092SOL    HW116175   3.438   3.220   4.086
 5092SOL    HW216176   3.306   3.289   4.154
 5093SOL     OW16177   3.001   2.109   2.675
 5093SOL    HW116178   2.971   2.171   2.603
 5093SOL    HW216179   2.971   2.144   2.764
 5094SOL     OW16180   1.265   5.840   4.849
 5094SOL    HW116181   1.252   5.904   4.773
 5094SOL    HW216182   1.360   5.811   4.851
 5095SOL     OW16183   6.679   0.802   2.934
 5095SOL    HW116184   6.714   0.790   2.841
 5095SOL    HW216185   6.669   0.713   2.978
 5096SOL     OW16186   5.930   3.193   5.095
 5096SOL    HW116187   5.840   3.224   5.064
 5096SOL    HW216188   5.924   3.098   5.128
 5097SOL     OW16189   1.516   0.758   5.936
 5097SOL    HW116190   1.474   0.724   6.020
 5097SOL    HW216191   1.589   0.695   5.908
 5098SOL     OW16192   3.658   3.496   0.470
 5098SOL    HW116193   3.560   3.477   0.471
 5098SOL    HW216194   3.676   3.581   0.519
 5099SOL     OW16195   1.498   6.586   2.272
 5099SOL    HW116196   1.511   6.681   2.244
 5099SOL    HW216197   1.551   6.569   2.356
 5100SOL     OW16198   4.866   4.106   2.325
 5100SOL    HW116199   4.813   4.175   2.275
 5100SOL    HW216200   4.848   4.115   2.423
 5101SOL     OW16201   3.946   0.205   6.392
 5101SOL    HW116202   4.022   0.143   6.374
 5101SOL    HW216203   3.917   0.247   6.306
 5102SOL     OW16204   5.328   5.231   4.207
 5102SOL    HW116205   5.276   5.201   4.287
 5102SOL    HW216206   5.268   5.230   4.126
 5103SOL     OW16207   1.329   1.059   6.638
 5103SOL    HW116208   1.256   1.022   6.695
 5103SOL    HW216209   1.292   1.086   6.550
 5104SOL     OW16210   3.996   3.226   2.028
 5104SOL    HW116211   4.012   3.278   2.113
 5104SOL    HW216212   4.061   3.255   1.959
 5105SOL     OW16213   4.556   3.253   6.443
 5105SOL    HW116214   4.524   3.277   6.534
 5105SOL    HW216215   4.519   3.317   6.376
 5106SOL     OW16216   4.083   2.454   0.985
 5106SOL    HW116217   4.083   2.480   0.889
 5106SOL    HW216218   4.171   2.478   1.027
 5107SOL     OW16219   5.313   3.999   7.006
 5107SOL    HW116220   5.215   3.981   7.005
 5107SOL    HW216221   5.329   4.097   7.019
 5108SOL     OW16222   4.041   4.656   0.265
 5108SOL    HW116223   4.082   4.713   0.337
 5108SOL    HW216224   4.026   4.564   0.299
 5109SOL     OW16225   1.411   3.097   1.652
 5109SOL    HW116226   1.437   3.005   1.682
 5109SOL    HW216227   1.332   3.091   1.591
 5110SOL     OW16228   4.814   0.149   5.463
 5110SOL    HW116229   4.876   0.190   5.530
 5110SOL    HW216230   4.727   0.127   5.507
 5111SOL     OW16231   0.351   5.879   4.836
 5111SOL    HW116232   0.359   5.830   4.923
 5111SOL    HW216233   0.254   5.887   4.811
 5112SOL     OW16234   0.033   6.503   2.883
 5112SOL    HW116235   0.094   6.502   2.962
 5112SOL    HW216236   6.975   6.556   2.905
 5113SOL     OW16237   1.893   4.151   0.284
 5113SOL    HW116238   1.939   4.218   0.225
 5113SOL    HW216239   1.896   4.183   0.378
 5114SOL     OW16240   4.494   4.973   1.626
 5114SOL    HW116241   4.494   4.874   1.616
 5114SOL    HW216242   4.478   4.997   1.722
 5115SOL     OW16243   1.906   3.579   0.811
 5115SOL    HW116244   1.939   3.487   0.788
 5115SOL    HW216245   1.954   3.647   0.755
 5116SOL     OW16246   1.249   7.024   5.874
 5116SOL    HW116247   1.328   0.026   5.820
 5116SOL    HW216248   1.231   0.068   5.944
 5117SOL     OW16249   0.204   2.176   3.542
 5117SOL    HW116250   0.298   2.199   3.515
 5117SOL    HW216251   0.179   2.088   3.501
 5118SOL     OW16252   4.450   5.195   6.916
 5118SOL    HW116253   4.445   5.173   7.013
 5118SOL    HW216254   4.363   5.173   6.872
 5119SOL     OW16255   5.772   0.781   0.676
 5119SOL    HW116256   5.774   0.688   0.637
 5119SOL    HW216257   5.679   0.802   0.707
 5120SOL     OW16258   5.565   6.350   6.635
 5120SOL    HW116259   5.576   6.252   6.651
 5120SOL    HW216260   5.629   6.380   6.564
 5121SOL     OW16261   1.214   3.154   6.141
 5121SOL    HW116262   1.282   3.225   6.156
 5121SOL    HW216263   1.123   3.189   6.165
 5122SOL     OW16264   5.161   4.627   3.957
 5122SOL    HW116265   5.137   4.536   3.921
 5122SOL    HW216266   5.199   4.682   3.883
 5123SOL     OW16267   4.772   2.857   1.698
 5123SOL    HW116268   4.702   2.917   1.736
 5123SOL    HW216269   4.836   2.829   1.770
 5124SOL     OW16270   2.069   6.077   5.493
 5124SOL    HW116271   1.999   6.007   5.507
 5124SOL    HW216272   2.095   6.079   5.396
 5125SOL     OW16273   6.634   1.748   3.628
 5125SOL    HW116274   6.552   1.760   3.572
 5125SOL    HW216275   6.715   1.752   3.570
 5126SOL     OW16276   1.976   0.671   1.491
 5126SOL    HW116277   1.974   0.607   1.567
 5126SOL    HW216278   1.913   0.747   1.509
 5127SOL     OW16279   2.240   5.677   0.453
 5127SOL    HW116280   2.194   5.629   0.379
 5127SOL    HW216281   2.337   5.684   0.433
 5128SOL     OW16282   6.497   0.217   2.174
 5128SOL    HW116283   6.441   0.298   2.155
 5128SOL    HW216284   6.440   0.135   2.174
 5129SOL     OW16285   6.429   6.752   0.420
 5129SOL    HW116286   6.498   6.725   0.352
 5129SOL    HW216287   6.406   6.674   0.478
 5130SOL     OW16288   6.680   4.375   2.823
 5130SOL    HW116289   6.649   4.300   2.881
 5130SOL    HW216290   6.771   4.355   2.788
 5131SOL     OW16291   2.479   2.499   2.779
 5131SOL    HW116292   2.467   2.563   2.702
 5131SOL    HW216293   2.477   2.550   2.865
 5132SOL     OW16294   3.157   5.928   5.108
 5132SOL    HW116295   3.112   5.924   5.018
 5132SOL    HW216296   3.092   5.962   5.175
 5133SOL     OW16297   3.833   6.521   5.367
 5133SOL    HW116298   3.743   6.562   5.381
 5133SOL    HW216299   3.822   6.424   5.343
 5134SOL     OW16300   6.401   4.616   6.858
 5134SOL    HW116301   6.342   4.695   6.838
 5134SOL    HW216302   6.431   4.574   6.772
 5135SOL     OW16303   5.539   1.747   4.304
 5135SOL    HW116304   5.492   1.825   4.262
 5135SOL    HW216305   5.494   1.722   4.389
 5136SOL     OW16306   3.676   1.210   4.736
 5136SOL    HW116307   3.637   1.250   4.653
 5136SOL    HW216308   3.687   1.112   4.724
 5137SOL     OW16309   3.474   3.794   6.734
 5137SOL    HW116310   3.445   3.865   6.799
 5137SOL    HW216311   3.503   3.712   6.785
 5138SOL     OW16312   2.467   3.084   5.829
 5138SOL    HW116313   2.484   3.183   5.833
 5138SOL    HW216314   2.393   3.061   5.891
 5139SOL     OW16315   0.548   0.119   3.981
 5139SOL    HW116316   0.475   0.125   4.049
 5139SOL    HW216317   0.509   0.127   3.890
 5140SOL     OW16318   3.709   2.854   1.614
 5140SOL    HW116319   3.662   2.942   1.618
 5140SOL    HW216320   3.648   2.782   1.644
 5141SOL     OW16321   0.005   3.936   5.402
 5141SOL    HW116322   0.073   4.008   5.407
 5141SOL    HW216323   0.042   3.851   5.439
 5142SOL     OW16324   5.477   3.504   3.512
 5142SOL    HW116325   5.420   3.431   3.549
 5142SOL    HW216326   5.473   3.502   3.412
 5143SOL     OW16327   0.159   5.052   4.684
 5143SOL    HW116328   0.094   5.126   4.665
 5143SOL    HW216329   0.111   4.964   4.685
 5144SOL     OW16330   2.082   1.129   4.537
 5144SOL    HW116331   2.022   1.207   4.524
 5144SOL    HW216332   2.128   1.108   4.451
 5145SOL     OW16333   3.434   5.969   5.687
 5145SOL    HW116334   3.515   5.946   5.632
 5145SOL    HW216335   3.409   5.890   5.743
 5146SOL     OW16336   2.616   4.502   0.172
 5146SOL    HW116337   2.673   4.526   0.250
 5146SOL    HW216338   2.672   4.459   0.101
 5147SOL     OW16339   6.355   5.115   6.695
 5147SOL    HW116340   6.340   5.214   6.701
 5147SOL    HW216341   6.406   5.085   6.776
 5148SOL     OW16342   0.384   6.979   1.825
 5148SOL    HW116343   0.369   6.883   1.850
 5148SOL    HW216344   0.464   7.014   1.873
 5149SOL     OW16345   6.647   1.042   6.107
 5149SOL    HW116346   6.719   1.098   6.067
 5149SOL    HW216347   6.582   1.016   6.036
 5150SOL     OW16348   1.452   4.830   3.672
 5150SOL    HW116349   1.548   4.812   3.692
 5150SOL    HW216350   1.411   4.883   3.747
 5151SOL     OW16351   4.745   1.029   6.360
 5151SOL    HW116352   4.819   1.096   6.358
 5151SOL    HW216353   4.657   1.076   6.365
 5152SOL     OW16354   0.888   5.136   0.439
 5152SOL    HW116355   0.820   5.203   0.409
 5152SOL    HW216356   0.841   5.060   0.484
 5153SOL     OW16357   2.008   1.947   0.981
 5153SOL    HW116358   2.106   1.936   0.967
 5153SOL    HW216359   1.991   1.987   1.071
 5154SOL     OW16360   2.115   3.487   4.979
 5154SOL    HW116361   2.139   3.390   4.973
 5154SOL    HW216362   2.144   3.533   4.895
 5155SOL     OW16363   3.227   0.896   2.110
 5155SOL    HW116364   3.231   0.824   2.178
 5155SOL    HW216365   3.312   0.948   2.111
 5156SOL     OW16366   5.946   3.141   5.872
 5156SOL    HW116367   6.000   3.060   5.895
 5156SOL    HW216368   6.001   3.205   5.819
 5157SOL     OW16369   5.800   2.767   4.205
 5157SOL    HW116370   5.767   2.857   4.233
 5157SOL    HW216371   5.899   2.762   4.219
 5158SOL     OW16372   4.002   1.186   0.838
 5158SOL    HW116373   4.027   1.097   0.876
 5158SOL    HW216374   4.015   1.257   0.907
 5159SOL     OW16375   1.626   3.084   4.695
 5159SOL    HW116376   1.654   3.025   4.771
 5159SOL    HW216377   1.555   3.038   4.642
 5160SOL     OW16378   1.939   2.741   4.175
 5160SOL    HW116379   1.912   2.730   4.079
 5160SOL    HW216380   1.893   2.822   4.213
 5161SOL     OW16381   1.546   3.366   6.413
 5161SOL    HW116382   1.491   3.444   6.443
 5161SOL    HW216383   1.516   3.338   6.322
 5162SOL     OW16384   6.069   5.794   4.791
 5162SOL    HW116385   5.982   5.842   4.774
 5162SOL    HW216386   6.139   5.861   4.816
 5163SOL     OW16387   5.205   3.462   1.365
 5163SOL    HW116388   5.201   3.537   1.432
 5163SOL    HW216389   5.223   3.500   1.274
 5164SOL     OW16390   6.052   5.339   5.670
 5164SOL    HW116391   6.013   5.310   5.758
 5164SOL    HW216392   6.059   5.439   5.668
 5165SOL     OW16393   6.557   3.970   3.974
 5165SOL    HW116394   6.527   3.883   4.013
 5165SOL    HW216395   6.583   4.032   4.048
 5166SOL     OW16396   1.474   0.623   1.801
 5166SOL    HW116397   1.533   0.694   1.838
 5166SOL    HW216398   1.519   0.534   1.809
 5167SOL     OW16399   1.066   6.848   5.653
 5167SOL    HW116400   1.082   6.757   5.692
 5167SOL    HW216401   1.133   6.912   5.690
 5168SOL     OW16402   3.774   1.732   3.168
 5168SOL    HW116403   3.685   1.724   3.212
 5168SOL    HW216404   3.786   1.657   3.103
 5169SOL     OW16405   4.003   4.218   6.417
 5169SOL    HW116406   4.097   4.215   6.451
 5169SOL    HW216407   3.947   4.156   6.471
 5170SOL     OW16408   4.960   4.573   4.307
 5170SOL    HW116409   5.041   4.549   4.360
 5170SOL    HW216410   4.959   4.672   4.291
 5171SOL     OW16411   2.645   4.707   4.775
 5171SOL    HW116412   2.569   4.642   4.780
 5171SOL    HW216413   2.699   4.701   4.858
 5172SOL     OW16414   2.106   4.921   0.186
 5172SOL    HW116415   2.141   4.941   0.095
 5172SOL    HW216416   2.151   4.840   0.223
 5173SOL     OW16417   6.281   3.636   6.097
 5173SOL    HW116418   6.277   3.734   6.114
 5173SOL    HW216419   6.190   3.596   6.111
 5174SOL     OW16420   1.516   4.577   5.985
 5174SOL    HW116421   1.476   4.664   5.955
 5174SOL    HW216422   1.529   4.518   5.906
 5175SOL     OW16423   0.400   5.315   6.414
 5175SOL    HW116424   0.488   5.341   6.453
 5175SOL    HW216425   0.339   5.283   6.486
 5176SOL     OW16426   5.750   3.435   6.662
 5176SOL    HW116427   5.740   3.390   6.574
 5176SOL    HW216428   5.693   3.388   6.730
 5177SOL     OW16429   5.404   6.693   6.499
 5177SOL    HW116430   5.333   6.624   6.508
 5177SOL    HW216431   5.470   6.665   6.430
 5178SOL     OW16432   2.878   2.424   1.451
 5178SOL    HW116433   2.811   2.420   1.377
 5178SOL    HW216434   2.921   2.334   1.462
 5179SOL     OW16435   2.877   5.822   5.427
 5179SOL    HW116436   2.939   5.894   5.398
 5179SOL    HW216437   2.807   5.808   5.357
 5180SOL     OW16438   3.100   2.320   0.615
 5180SOL    HW116439   3.086   2.328   0.714
 5180SOL    HW216440   3.022   2.273   0.574
 5181SOL     OW16441   2.845   5.206   2.273
 5181SOL    HW116442   2.917   5.200   2.204
 5181SOL    HW216443   2.859   5.135   2.342
 5182SOL     OW16444   4.516   4.201   1.453
 5182SOL    HW116445   4.547   4.267   1.521
 5182SOL    HW216446   4.495   4.114   1.497
 5183SOL     OW16447   3.893   0.672   2.750
 5183SOL    HW116448   3.901   0.575   2.771
 5183SOL    HW216449   3.803   0.690   2.710
 5184SOL     OW16450   0.850   2.033   2.997
 5184SOL    HW116451   0.782   2.097   3.032
 5184SOL    HW216452   0.803   1.953   2.960
 5185SOL     OW16453   3.445   0.623   2.169
 5185SOL    HW116454   3.370   0.639   2.233
 5185SOL    HW216455   3.525   0.589   2.218
 5186SOL     OW16456   6.157   4.487   0.412
 5186SOL    HW116457   6.217   4.505   0.490
 5186SOL    HW216458   6.103   4.405   0.429
 5187SOL     OW16459   5.161   1.900   4.420
 5187SOL    HW116460   5.074   1.944   4.398
 5187SOL    HW216461   5.145   1.807   4.453
 5188SOL     OW16462   0.977   2.968   4.666
 5188SOL    HW116463   1.076   2.978   4.676
 5188SOL    HW216464   0.932   3.053   4.696
 5189SOL     OW16465   4.385   5.410   6.481
 5189SOL    HW116466   4.450   5.386   6.554
 5189SOL    HW216467   4.432   5.464   6.411
 5190SOL     OW16468   1.807   2.485   3.575
 5190SOL    HW116469   1.805   2.432   3.491
 5190SOL    HW216470   1.714   2.504   3.606
 5191SOL     OW16471   4.237   0.675   1.577
 5191SOL    HW116472   4.237   0.705   1.482
 5191SOL    HW216473   4.149   0.698   1.619
 5192SOL     OW16474   5.759   4.262   2.002
 5192SOL    HW116475   5.731   4.253   2.098
 5192SOL    HW216476   5.779   4.171   1.965
 5193SOL     OW16477   4.912   3.357   2.514
 5193SOL    HW116478   4.900   3.338   2.611
 5193SOL    HW216479   4.944   3.275   2.467
 5194SOL     OW16480   5.763   1.781   6.387
 5194SOL    HW116481   5.704   1.799   6.308
 5194SOL    HW216482   5.745   1.850   6.457
 5195SOL     OW16483   6.201   6.485   5.485
 5195SOL    HW116484   6.230   6.413   5.421
 5195SOL    HW216485   6.281   6.525   5.529
 5196SOL     OW16486   0.728   3.500   1.499
 5196SOL    HW116487   0.772   3.489   1.588
 5196SOL    HW216488   0.694   3.411   1.468
 5197SOL     OW16489   3.518   5.982   4.909
 5197SOL    HW116490   3.578   6.003   4.832
 5197SOL    HW216491   3.457   6.060   4.924
 5198SOL     OW16492   4.433   0.353   5.673
 5198SOL    HW116493   4.392   0.369   5.762
 5198SOL    HW216494   4.528   0.383   5.674
 5199SOL     OW16495   0.306   5.055   1.817
 5199SOL    HW116496   0.285   4.962   1.786
 5199SOL    HW216497   0.237   5.118   1.782
 5200SOL     OW16498   0.487   7.006   5.382
 5200SOL    HW116499   0.442   0.005   5.468
 5200SOL    HW216500   0.561   6.940   5.400
 5201SOL     OW16501   6.105   4.273   4.830
 5201SOL    HW116502   6.014   4.276   4.789
 5201SOL    HW216503   6.173   4.296   4.761
 5202SOL     OW16504   3.752   3.235   5.545
 5202SOL    HW116505   3.739   3.262   5.449
 5202SOL    HW216506   3.663   3.238   5.592
 5203SOL     OW16507   1.757   0.219   6.388
 5203SOL    HW116508   1.778   0.294   6.451
 5203SOL    HW216509   1.739   0.255   6.297
 5204SOL     OW16510   2.588   0.846   0.819
 5204SOL    HW116511   2.509   0.829   0.761
 5204SOL    HW216512   2.613   0.943   0.816
 5205SOL     OW16513   6.983   6.524   0.581
 5205SOL    HW116514   0.044   6.573   0.563
 5205SOL    HW216515   6.991   6.430   0.548
 5206SOL     OW16516   1.397   4.791   3.402
 5206SOL    HW116517   1.310   4.832   3.372
 5206SOL    HW216518   1.422   4.827   3.491
 5207SOL     OW16519   6.174   6.624   4.274
 5207SOL    HW116520   6.144   6.647   4.181
 5207SOL    HW216521   6.272   6.607   4.274
 5208SOL     OW16522   6.015   1.902   0.665
 5208SOL    HW116523   6.052   1.829   0.722
 5208SOL    HW216524   5.929   1.872   0.623
 5209SOL     OW16525   5.857   6.203   3.249
 5209SOL    HW116526   5.865   6.273   3.320
 5209SOL    HW216527   5.760   6.180   3.237
 5210SOL     OW16528   5.543   4.487   1.055
 5210SOL    HW116529   5.486   4.569   1.047
 5210SOL    HW216530   5.631   4.512   1.095
 5211SOL     OW16531   5.486   2.523   5.009
 5211SOL    HW116532   5.408   2.549   4.952
 5211SOL    HW216533   5.478   2.426   5.034
 5212SOL     OW16534   0.584   3.471   6.937
 5212SOL    HW116535   0.678   3.498   6.912
 5212SOL    HW216536   0.557   3.392   6.882
 5213SOL     OW16537   3.742   3.295   3.019
 5213SOL    HW116538   3.770   3.368   3.082
 5213SOL    HW216539   3.820   3.234   3.002
 5214SOL     OW16540   5.637   3.736   5.152
 5214SOL    HW116541   5.600   3.657   5.104
 5214SOL    HW216542   5.665   3.709   5.244
 5215SOL     OW16543   0.562   4.200   4.594
 5215SOL    HW116544   0.505   4.193   4.676
 5215SOL    HW216545   0.578   4.109   4.557
 5216SOL     OW16546   5.251   5.208   1.241
 5216SOL    HW116547   5.271   5.167   1.152
 5216SOL    HW216548   5.263   5.307   1.235
 5217SOL     OW16549   5.042   6.281   3.101
 5217SOL    HW116550   5.014   6.277   3.197
 5217SOL    HW216551   4.962   6.291   3.043
 5218SOL     OW16552   6.265   0.401   0.419
 5218SOL    HW116553   6.263   0.485   0.365
 5218SOL    HW216554   6.347   0.398   0.475
 5219SOL     OW16555   3.411   0.903   5.431
 5219SOL    HW116556   3.330   0.882   5.376
 5219SOL    HW216557   3.384   0.910   5.527
 5220SOL     OW16558   2.061   5.318   4.221
 5220SOL    HW116559   2.128   5.388   4.243
 5220SOL    HW216560   2.010   5.293   4.303
 5221SOL     OW16561   5.748   5.420   1.589
 5221SOL    HW116562   5.801   5.398   1.506
 5221SOL    HW216563   5.779   5.363   1.664
 5222SOL     OW16564   6.818   3.640   1.338
 5222SOL    HW116565   6.722   3.635   1.312
 5222SOL    HW216566   6.858   3.548   1.338
 5223SOL     OW16567   6.888   3.189   0.422
 5223SOL    HW116568   6.893   3.094   0.451
 5223SOL    HW216569   6.878   3.248   0.503
 5224SOL     OW16570   0.507   1.595   5.252
 5224SOL    HW116571   0.486   1.516   5.308
 5224SOL    HW216572   0.605   1.597   5.232
 5225SOL     OW16573   6.977   1.411   4.404
 5225SOL    HW116574   6.999   1.508   4.391
 5225SOL    HW216575   7.016   1.380   4.491
 5226SOL     OW16576   0.326   6.604   3.724
 5226SOL    HW116577   0.386   6.530   3.754
 5226SOL    HW216578   0.253   6.616   3.790
 5227SOL     OW16579   0.246   3.999   5.643
 5227SOL    HW116580   0.271   4.080   5.589
 5227SOL    HW216581   0.329   3.948   5.667
 5228SOL     OW16582   0.983   1.416   5.166
 5228SOL    HW116583   1.078   1.421   5.137
 5228SOL    HW216584   0.976   1.427   5.265
 5229SOL     OW16585   3.486   1.667   6.175
 5229SOL    HW116586   3.419   1.596   6.153
 5229SOL    HW216587   3.460   1.714   6.259
 5230SOL     OW16588   6.813   7.001   1.846
 5230SOL    HW116589   6.714   7.011   1.855
 5230SOL    HW216590   6.849   0.050   1.789
 5231SOL     OW16591   6.438   3.316   1.732
 5231SOL    HW116592   6.497   3.266   1.669
 5231SOL    HW216593   6.491   3.349   1.810
 5232SOL     OW16594   1.799   2.341   5.659
 5232SOL    HW116595   1.769   2.435   5.669
 5232SOL    HW216596   1.899   2.338   5.648
 5233SOL     OW16597   2.974   6.323   2.672
 5233SOL    HW116598   3.050   6.284   2.723
 5233SOL    HW216599   2.973   6.422   2.685
 5234SOL     OW16600   3.079   2.300   6.280
 5234SOL    HW116601   3.176   2.311   6.259
 5234SOL    HW216602   3.068   2.233   6.353
 5235SOL     OW16603   2.426   1.741   1.463
 5235SOL    HW116604   2.391   1.814   1.521
 5235SOL    HW216605   2.454   1.779   1.375
 5236SOL     OW16606   3.432   5.200   1.401
 5236SOL    HW116607   3.485   5.275   1.440
 5236SOL    HW216608   3.339   5.231   1.383
 5237SOL     OW16609   1.800   2.107   2.538
 5237SOL    HW116610   1.719   2.048   2.538
 5237SOL    HW216611   1.874   2.062   2.488
 5238SOL     OW16612   0.323   6.927   2.951
 5238SOL    HW116613   0.252   6.899   3.015
 5238SOL    HW216614   0.356   6.847   2.900
 5239SOL     OW16615   2.561   3.801   0.704
 5239SOL    HW116616   2.581   3.717   0.755
 5239SOL    HW216617   2.570   3.879   0.765
 5240SOL     OW16618   2.352   3.941   5.621
 5240SOL    HW116619   2.441   3.897   5.634
 5240SOL    HW216620   2.328   3.939   5.524
 5241SOL     OW16621   1.108   6.730   2.539
 5241SOL    HW116622   1.135   6.639   2.570
 5241SOL    HW216623   1.178   6.796   2.566
 5242SOL     OW16624   4.476   0.432   6.442
 5242SOL    HW116625   4.501   0.472   6.354
 5242SOL    HW216626   4.456   0.504   6.508
 5243SOL     OW16627   2.396   6.384   2.511
 5243SOL    HW116628   2.388   6.285   2.505
 5243SOL    HW216629   2.423   6.420   2.421
 5244SOL     OW16630   4.823   1.174   0.256
 5244SOL    HW116631   4.724   1.162   0.248
 5244SOL    HW216632   4.843   1.267   0.287
 5245SOL     OW16633   3.358   4.206   1.232
 5245SOL    HW116634   3.296   4.148   1.284
 5245SOL    HW216635   3.370   4.293   1.280
 5246SOL     OW16636   6.232   3.888   6.072
 5246SOL    HW116637   6.145   3.864   6.030
 5246SOL    HW216638   6.236   3.987   6.086
 5247SOL     OW16639   4.295   1.841   6.688
 5247SOL    HW116640   4.234   1.861   6.611
 5247SOL    HW216641   4.288   1.915   6.755
 5248SOL     OW16642   5.694   1.115   3.776
 5248SOL    HW116643   5.652   1.206   3.784
 5248SOL    HW216644   5.623   1.047   3.761
 5249SOL     OW16645   0.512   4.747   0.759
 5249SOL    HW116646   0.504   4.649   0.745
 5249SOL    HW216647   0.469   4.772   0.846
 5250SOL     OW16648   2.598   5.450   1.306
 5250SOL    HW116649   2.635   5.527   1.255
 5250SOL    HW216650   2.651   5.368   1.285
 5251SOL     OW16651   0.539   4.907   0.530
 5251SOL    HW116652   0.638   4.900   0.540
 5251SOL    HW216653   0.494   4.843   0.593
 5252SOL     OW16654   4.052   5.908   2.762
 5252SOL    HW116655   3.961   5.900   2.801
 5252SOL    HW216656   4.101   5.984   2.805
 5253SOL     OW16657   6.534   6.085   4.870
 5253SOL    HW116658   6.571   6.133   4.791
 5253SOL    HW216659   6.608   6.069   4.936
 5254SOL     OW16660   5.092   6.202   3.535
 5254SOL    HW116661   5.017   6.160   3.586
 5254SOL    HW216662   5.178   6.155   3.557
 5255SOL     OW16663   6.462   1.353   5.178
 5255SOL    HW116664   6.418   1.419   5.239
 5255SOL    HW216665   6.478   1.267   5.228
 5256SOL     OW16666   6.517   1.516   2.008
 5256SOL    HW116667   6.609   1.486   2.035
 5256SOL    HW216668   6.525   1.597   1.951
 5257SOL     OW16669   4.623   1.729   6.096
 5257SOL    HW116670   4.526   1.745   6.084
 5257SOL    HW216671   4.653   1.770   6.182
 5258SOL     OW16672   5.057   1.235   4.272
 5258SOL    HW116673   5.091   1.187   4.191
 5258SOL    HW216674   5.129   1.295   4.308
 5259SOL     OW16675   6.081   5.002   3.788
 5259SOL    HW116676   6.173   4.980   3.819
 5259SOL    HW216677   6.045   4.928   3.731
 5260SOL     OW16678   1.992   0.172   0.845
 5260SOL    HW116679   1.925   0.243   0.824
 5260SOL    HW216680   2.000   0.161   0.944
 5261SOL     OW16681   5.454   4.139   6.732
 5261SOL    HW116682   5.394   4.219   6.730
 5261SOL    HW216683   5.409   4.065   6.782
 5262SOL     OW16684   1.498   1.438   2.059
 5262SOL    HW116685   1.521   1.376   2.134
 5262SOL    HW216686   1.546   1.525   2.072
 5263SOL     OW16687   1.280   6.366   2.330
 5263SOL    HW116688   1.219   6.287   2.321
 5263SOL    HW216689   1.274   6.423   2.248
 5264SOL     OW16690   6.707   1.945   1.518
 5264SOL    HW116691   6.661   1.980   1.600
 5264SOL    HW216692   6.727   2.021   1.456
 5265SOL     OW16693   6.876   5.456   5.410
 5265SOL    HW116694   6.787   5.412   5.423
 5265SOL    HW216695   6.937   5.431   5.484
 5266SOL     OW16696   1.625   0.461   6.559
 5266SOL    HW116697   1.608   0.513   6.643
 5266SOL    HW216698   1.671   0.520   6.492
 5267SOL     OW16699   5.232   2.504   4.151
 5267SOL    HW116700   5.275   2.475   4.065
 5267SOL    HW216701   5.165   2.576   4.132
 5268SOL     OW16702   5.495   0.298   5.864
 5268SOL    HW116703   5.524   0.391   5.842
 5268SOL    HW216704   5.569   0.234   5.844
 5269SOL     OW16705   0.611   6.855   4.009
 5269SOL    HW116706   0.656   6.824   4.093
 5269SOL    HW216707   0.563   6.941   4.027
 5270SOL     OW16708   0.826   1.829   6.218
 5270SOL    HW116709   0.805   1.837   6.121
 5270SOL    HW216710   0.891   1.900   6.245
 5271SOL     OW16711   1.091   5.089   3.137
 5271SOL    HW116712   1.114   5.053   3.046
 5271SOL    HW216713   1.133   5.032   3.207
 5272SOL     OW16714   4.017   0.348   6.960
 5272SOL    HW116715   3.919   0.354   6.940
 5272SOL    HW216716   4.066   0.420   6.911
 5273SOL     OW16717   2.423   1.837   2.378
 5273SOL    HW116718   2.371   1.866   2.458
 5273SOL    HW216719   2.506   1.789   2.407
 5274SOL     OW16720   5.532   5.027   1.371
 5274SOL    HW116721   5.494   4.990   1.456
 5274SOL    HW216722   5.542   5.126   1.380
 5275SOL     OW16723   4.433   1.608   6.691
 5275SOL    HW116724   4.387   1.531   6.736
 5275SOL    HW216725   4.374   1.689   6.694
 5276SOL     OW16726   4.160   6.712   2.175
 5276SOL    HW116727   4.074   6.698   2.125
 5276SOL    HW216728   4.149   6.788   2.239
 5277SOL     OW16729   2.063   2.840   2.062
 5277SOL    HW116730   2.082   2.935   2.038
 5277SOL    HW216731   2.149   2.788   2.066
 5278SOL     OW16732   3.949   3.413   1.633
 5278SOL    HW116733   3.994   3.487   1.683
 5278SOL    HW216734   3.991   3.326   1.658
 5279SOL     OW16735   2.003   6.410   2.318
 5279SOL    HW116736   1.935   6.412   2.244
 5279SOL    HW216737   2.081   6.354   2.290
 5280SOL     OW16738   4.540   0.439   5.265
 5280SOL    HW116739   4.609   0.368   5.256
 5280SOL    HW216740   4.466   0.407   5.323
 5281SOL     OW16741   0.115   2.678   3.374
 5281SOL    HW116742   0.161   2.590   3.357
 5281SOL    HW216743   0.044   2.692   3.305
 5282SOL     OW16744   5.035   1.432   1.626
 5282SOL    HW116745   4.938   1.416   1.604
 5282SOL    HW216746   5.053   1.398   1.719
 5283SOL     OW16747   5.587   5.277   5.622
 5283SOL    HW116748   5.561   5.187   5.657
 5283SOL    HW216749   5.507   5.322   5.582
 5284SOL     OW16750   4.838   2.471   3.347
 5284SOL    HW116751   4.756   2.482   3.403
 5284SOL    HW216752   4.919   2.495   3.400
 5285SOL     OW16753   4.018   6.064   2.520
 5285SOL    HW116754   4.108   6.063   2.477
 5285SOL    HW216755   4.024   6.025   2.612
 5286SOL     OW16756   2.601   5.295   2.185
 5286SOL    HW116757   2.549   5.216   2.217
 5286SOL    HW216758   2.693   5.292   2.225
 5287SOL     OW16759   0.453   1.786   1.795
 5287SOL    HW116760   0.517   1.823   1.863
 5287SOL    HW216761   0.442   1.688   1.810
 5288SOL     OW16762   4.240   0.990   0.683
 5288SOL    HW116763   4.277   1.034   0.601
 5288SOL    HW216764   4.198   1.058   0.742
 5289SOL     OW16765   2.425   6.094   0.969
 5289SOL    HW116766   2.380   6.023   1.023
 5289SOL    HW216767   2.372   6.113   0.887
 5290SOL     OW16768   5.340   5.952   0.754
 5290SOL    HW116769   5.268   6.013   0.722
 5290SOL    HW216770   5.422   6.006   0.777
 5291SOL     OW16771   1.278   5.207   6.395
 5291SOL    HW116772   1.245   5.218   6.301
 5291SOL    HW216773   1.227   5.134   6.440
 5292SOL     OW16774   5.251   1.960   6.857
 5292SOL    HW116775   5.323   1.904   6.816
 5292SOL    HW216776   5.264   1.965   6.956
 5293SOL     OW16777   1.601   1.459   3.689
 5293SOL    HW116778   1.509   1.494   3.675
 5293SOL    HW216779   1.634   1.487   3.779
 5294SOL     OW16780   4.691   2.579   5.406
 5294SOL    HW116781   4.605   2.627   5.422
 5294SOL    HW216782   4.760   2.645   5.375
 5295SOL     OW16783   5.905   0.959   2.311
 5295SOL    HW116784   5.851   0.928   2.389
 5295SOL    HW216785   5.881   1.054   2.289
 5296SOL     OW16786   0.297   3.372   0.449
 5296SOL    HW116787   0.259   3.463   0.464
 5296SOL    HW216788   0.397   3.375   0.459
 5297SOL     OW16789   1.240   3.057   2.505
 5297SOL    HW116790   1.290   3.083   2.587
 5297SOL    HW216791   1.166   2.994   2.528
 5298SOL     OW16792   0.979   5.151   1.365
 5298SOL    HW116793   0.927   5.148   1.450
 5298SOL    HW216794   0.953   5.073   1.307
 5299SOL     OW16795   3.388   0.391   1.379
 5299SOL    HW116796   3.312   0.375   1.315
 5299SOL    HW216797   3.388   0.487   1.407
 5300SOL     OW16798   6.683   5.523   3.877
 5300SOL    HW116799   6.620   5.516   3.799
 5300SOL    HW216800   6.774   5.547   3.844
 5301SOL     OW16801   4.679   0.280   0.627
 5301SOL    HW116802   4.624   0.356   0.663
 5301SOL    HW216803   4.625   0.228   0.560
 5302SOL     OW16804   6.675   4.330   3.789
 5302SOL    HW116805   6.599   4.264   3.789
 5302SOL    HW216806   6.646   4.413   3.741
 5303SOL     OW16807   0.613   5.699   2.949
 5303SOL    HW116808   0.571   5.614   2.979
 5303SOL    HW216809   0.583   5.720   2.856
 5304SOL     OW16810   4.761   2.115   5.568
 5304SOL    HW116811   4.860   2.124   5.565
 5304SOL    HW216812   4.720   2.205   5.581
 5305SOL     OW16813   2.857   1.259   3.253
 5305SOL    HW116814   2.858   1.347   3.205
 5305SOL    HW216815   2.951   1.227   3.265
 5306SOL     OW16816   2.897   6.525   4.305
 5306SOL    HW116817   2.929   6.574   4.224
 5306SOL    HW216818   2.962   6.451   4.326
 5307SOL     OW16819   4.612   6.857   6.762
 5307SOL    HW116820   4.708   6.851   6.737
 5307SOL    HW216821   4.564   6.919   6.699
 5308SOL     OW16822   6.786   1.444   2.053
 5308SOL    HW116823   6.821   1.388   2.128
 5308SOL    HW216824   6.793   1.394   1.967
 5309SOL     OW16825   3.697   3.639   4.643
 5309SOL    HW116826   3.676   3.728   4.683
 5309SOL    HW216827   3.725   3.652   4.548
 5310SOL     OW16828   5.564   2.453   0.132
 5310SOL    HW116829   5.610   2.453   0.043
 5310SOL    HW216830   5.468   2.479   0.119
 5311SOL     OW16831   1.258   6.205   6.478
 5311SOL    HW116832   1.228   6.109   6.473
 5311SOL    HW216833   1.180   6.262   6.504
 5312SOL     OW16834   0.555   3.389   1.851
 5312SOL    HW116835   0.608   3.347   1.925
 5312SOL    HW216836   0.504   3.467   1.888
 5313SOL     OW16837   1.260   6.479   0.192
 5313SOL    HW116838   1.214   6.390   0.191
 5313SOL    HW216839   1.267   6.512   0.287
 5314SOL     OW16840   3.639   5.103   0.910
 5314SOL    HW116841   3.663   5.039   0.838
 5314SOL    HW216842   3.686   5.190   0.895
 5315SOL     OW16843   5.240   2.543   1.684
 5315SOL    HW116844   5.212   2.487   1.762
 5315SOL    HW216845   5.245   2.639   1.712
 5316SOL     OW16846   5.671   5.272   4.609
 5316SOL    HW116847   5.604   5.232   4.546
 5316SOL    HW216848   5.677   5.216   4.691
 5317SOL     OW16849   5.882   5.270   2.903
 5317SOL    HW116850   5.937   5.330   2.962
 5317SOL    HW216851   5.890   5.301   2.808
 5318SOL     OW16852   0.451   2.149   4.197
 5318SOL    HW116853   0.486   2.226   4.250
 5318SOL    HW216854   0.404   2.183   4.115
 5319SOL     OW16855   3.571   0.059   1.494
 5319SOL    HW116856   3.570   0.126   1.569
 5319SOL    HW216857   3.569   6.992   1.532
 5320SOL     OW16858   6.181   3.856   5.551
 5320SOL    HW116859   6.224   3.945   5.539
 5320SOL    HW216860   6.154   3.818   5.462
 5321SOL     OW16861   1.814   5.136   6.252
 5321SOL    HW116862   1.793   5.225   6.212
 5321SOL    HW216863   1.912   5.129   6.270
 5322SOL     OW16864   2.233   6.146   0.741
 5322SOL    HW116865   2.240   6.245   0.756
 5322SOL    HW216866   2.137   6.122   0.725
 5323SOL     OW16867   5.596   3.639   0.607
 5323SOL    HW116868   5.668   3.575   0.582
 5323SOL    HW216869   5.531   3.648   0.531
 5324SOL     OW16870   4.204   3.382   1.375
 5324SOL    HW116871   4.226   3.479   1.365
 5324SOL    HW216872   4.242   3.347   1.461
 5325SOL     OW16873   4.547   6.204   4.812
 5325SOL    HW116874   4.569   6.113   4.846
 5325SOL    HW216875   4.617   6.233   4.747
 5326SOL     OW16876   0.093   0.477   2.634
 5326SOL    HW116877   0.146   0.405   2.679
 5326SOL    HW216878   0.138   0.565   2.649
 5327SOL     OW16879   0.188   0.299   4.276
 5327SOL    HW116880   0.175   0.328   4.371
 5327SOL    HW216881   0.243   0.367   4.227
 5328SOL     OW16882   3.887   5.177   0.118
 5328SOL    HW116883   3.825   5.173   0.040
 5328SOL    HW216884   3.883   5.091   0.168
 5329SOL     OW16885   6.850   5.816   0.469
 5329SOL    HW116886   6.933   5.843   0.518
 5329SOL    HW216887   6.819   5.728   0.503
 5330SOL     OW16888   3.448   4.377   0.098
 5330SOL    HW116889   3.538   4.333   0.091
 5330SOL    HW216890   3.448   4.461   0.044
 5331SOL     OW16891   5.564   1.907   6.569
 5331SOL    HW116892   5.502   1.930   6.494
 5331SOL    HW216893   5.513   1.898   6.654
 5332SOL     OW16894   5.305   3.210   6.946
 5332SOL    HW116895   5.300   3.168   6.856
 5332SOL    HW216896   5.401   3.215   6.975
 5333SOL     OW16897   1.882   1.971   4.705
 5333SOL    HW116898   1.801   1.972   4.646
 5333SOL    HW216899   1.940   2.049   4.683
 5334SOL     OW16900   3.128   6.043   1.699
 5334SOL    HW116901   3.198   6.059   1.630
 5334SOL    HW216902   3.103   6.130   1.741
 5335SOL     OW16903   0.347   4.804   1.728
 5335SOL    HW116904   0.437   4.761   1.722
 5335SOL    HW216905   0.303   4.801   1.638
 5336SOL     OW16906   1.647   3.293   5.447
 5336SOL    HW116907   1.580   3.299   5.373
 5336SOL    HW216908   1.736   3.323   5.415
 5337SOL     OW16909   0.032   3.971   0.828
 5337SOL    HW116910   7.008   3.921   0.899
 5337SOL    HW216911   0.111   4.018   0.869
 5338SOL     OW16912   6.466   3.908   0.495
 5338SOL    HW116913   6.430   3.984   0.549
 5338SOL    HW216914   6.393   3.843   0.475
 5339SOL     OW16915   5.591   2.998   2.117
 5339SOL    HW116916   5.659   3.036   2.054
 5339SOL    HW216917   5.499   3.013   2.080
 5340SOL     OW16918   4.354   3.302   1.592
 5340SOL    HW116919   4.426   3.366   1.618
 5340SOL    HW216920   4.374   3.212   1.630
 5341SOL     OW16921   4.887   4.381   3.370
 5341SOL    HW116922   4.983   4.354   3.360
 5341SOL    HW216923   4.877   4.478   3.347
 5342SOL     OW16924   6.456   5.883   5.131
 5342SOL    HW116925   6.375   5.939   5.121
 5342SOL    HW216926   6.470   5.830   5.047
 5343SOL     OW16927   3.805   3.288   6.424
 5343SOL    HW116928   3.726   3.324   6.375
 5343SOL    HW216929   3.775   3.243   6.509
 5344SOL     OW16930   0.004   1.323   6.951
 5344SOL    HW116931   0.016   1.236   6.998
 5344SOL    HW216932   6.959   1.313   6.879
 5345SOL     OW16933   5.003   1.137   6.762
 5345SOL    HW116934   4.998   1.172   6.855
 5345SOL    HW216935   5.084   1.175   6.717
 5346SOL     OW16936   3.072   5.715   3.048
 5346SOL    HW116937   3.106   5.625   3.021
 5346SOL    HW216938   2.982   5.705   3.091
 5347SOL     OW16939   5.137   1.629   4.407
 5347SOL    HW116940   5.081   1.558   4.449
 5347SOL    HW216941   5.216   1.587   4.363
 5348SOL     OW16942   5.066   2.675   4.982
 5348SOL    HW116943   5.115   2.699   4.898
 5348SOL    HW216944   4.969   2.661   4.961
 5349SOL     OW16945   0.723   3.650   1.275
 5349SOL    HW116946   0.711   3.599   1.361
 5349SOL    HW216947   0.749   3.744   1.296
 5350SOL     OW16948   1.072   0.097   0.040
 5350SOL    HW116949   0.979   0.060   0.038
 5350SOL    HW216950   1.081   0.167   6.994
 5351SOL     OW16951   6.861   5.753   3.083
 5351SOL    HW116952   6.814   5.697   3.014
 5351SOL    HW216953   6.951   5.780   3.048
 5352SOL     OW16954   1.728   2.678   5.935
 5352SOL    HW116955   1.792   2.731   5.990
 5352SOL    HW216956   1.724   2.716   5.842
 5353SOL     OW16957   3.875   5.171   3.696
 5353SOL    HW116958   3.832   5.237   3.634
 5353SOL    HW216959   3.971   5.160   3.671
 5354SOL     OW16960   3.616   5.791   1.039
 5354SOL    HW116961   3.533   5.743   1.069
 5354SOL    HW216962   3.696   5.744   1.074
 5355SOL     OW16963   4.852   5.976   5.179
 5355SOL    HW116964   4.780   5.916   5.145
 5355SOL    HW216965   4.936   5.959   5.128
 5356SOL     OW16966   1.244   6.229   0.779
 5356SOL    HW116967   1.185   6.150   0.764
 5356SOL    HW216968   1.191   6.313   0.771
 5357SOL     OW16969   6.719   3.517   2.432
 5357SOL    HW116970   6.816   3.493   2.434
 5357SOL    HW216971   6.700   3.578   2.355
 5358SOL     OW16972   5.911   0.692   6.533
 5358SOL    HW116973   5.934   0.787   6.513
 5358SOL    HW216974   5.994   0.642   6.558
 5359SOL     OW16975   3.087   2.662   6.895
 5359SOL    HW116976   3.145   2.665   6.977
 5359SOL    HW216977   3.083   2.753   6.854
 5360SOL     OW16978   5.266   5.379   3.941
 5360SOL    HW116979   5.186   5.436   3.959
 5360SOL    HW216980   5.347   5.437   3.935
 5361SOL     OW16981   1.519   4.615   3.011
 5361SOL    HW116982   1.596   4.616   2.946
 5361SOL    HW216983   1.531   4.688   3.077
 5362SOL     OW16984   6.177   1.535   2.961
 5362SOL    HW116985   6.106   1.603   2.979
 5362SOL    HW216986   6.176   1.467   3.035
 5363SOL     OW16987   5.363   5.370   3.404
 5363SOL    HW116988   5.371   5.395   3.308
 5363SOL    HW216989   5.384   5.448   3.462
 5364SOL     OW16990   4.315   2.248   2.298
 5364SOL    HW116991   4.270   2.279   2.214
 5364SOL    HW216992   4.255   2.266   2.376
 5365SOL     OW16993   2.879   3.879   5.048
 5365SOL    HW116994   2.900   3.784   5.025
 5365SOL    HW216995   2.955   3.937   5.021
 5366SOL     OW16996   6.146   5.624   3.006
 5366SOL    HW116997   6.105   5.695   2.949
 5366SOL    HW216998   6.074   5.573   3.053
 5367SOL     OW16999   5.872   5.980   1.582
 5367SOL    HW117000   5.964   5.991   1.545
 5367SOL    HW217001   5.817   6.060   1.557
 5368SOL     OW17002   0.205   6.265   4.656
 5368SOL    HW117003   0.233   6.179   4.613
 5368SOL    HW217004   0.272   6.291   4.725
 5369SOL     OW17005   4.465   6.030   2.677
 5369SOL    HW117006   4.451   5.958   2.745
 5369SOL    HW217007   4.416   6.007   2.593
 5370SOL     OW17008   1.731   2.850   0.324
 5370SOL    HW117009   1.736   2.866   0.422
 5370SOL    HW217010   1.661   2.909   0.284
 5371SOL     OW17011   6.218   5.599   5.025
 5371SOL    HW117012   6.230   5.599   4.926
 5371SOL    HW217013   6.132   5.554   5.049
 5372SOL     OW17014   1.848   6.749   3.323
 5372SOL    HW117015   1.875   6.845   3.335
 5372SOL    HW217016   1.926   6.697   3.290
 5373SOL     OW17017   2.866   1.134   6.455
 5373SOL    HW117018   2.894   1.199   6.384
 5373SOL    HW217019   2.766   1.129   6.457
 5374SOL     OW17020   1.253   3.799   1.436
 5374SOL    HW117021   1.276   3.796   1.533
 5374SOL    HW217022   1.310   3.867   1.390
 5375SOL     OW17023   2.380   4.373   5.204
 5375SOL    HW117024   2.437   4.302   5.244
 5375SOL    HW217025   2.422   4.463   5.220
 5376SOL     OW17026   1.107   0.304   0.488
 5376SOL    HW117027   1.057   0.387   0.462
 5376SOL    HW217028   1.194   0.329   0.530
 5377SOL     OW17029   1.528   2.116   2.829
 5377SOL    HW117030   1.512   2.066   2.914
 5377SOL    HW217031   1.443   2.119   2.776
 5378SOL     OW17032   4.403   6.382   2.614
 5378SOL    HW117033   4.317   6.333   2.630
 5378SOL    HW217034   4.463   6.325   2.558
 5379SOL     OW17035   2.105   2.135   3.490
 5379SOL    HW117036   2.094   2.150   3.392
 5379SOL    HW217037   2.031   2.078   3.524
 5380SOL     OW17038   4.533   5.883   1.214
 5380SOL    HW117039   4.538   5.855   1.119
 5380SOL    HW217040   4.614   5.850   1.263
 5381SOL     OW17041   3.561   1.274   3.155
 5381SOL    HW117042   3.484   1.331   3.127
 5381SOL    HW217043   3.588   1.299   3.248
 5382SOL     OW17044   4.017   1.074   2.742
 5382SOL    HW117045   3.979   1.002   2.800
 5382SOL    HW217046   3.943   1.131   2.708
 5383SOL     OW17047   2.050   3.063   4.695
 5383SOL    HW117048   2.005   3.023   4.775
 5383SOL    HW217049   2.095   2.992   4.642
 5384SOL     OW17050   5.331   5.978   6.176
 5384SOL    HW117051   5.338   5.921   6.258
 5384SOL    HW217052   5.355   6.073   6.199
 5385SOL     OW17053   4.433   3.773   0.115
 5385SOL    HW117054   4.454   3.714   0.037
 5385SOL    HW217055   4.414   3.716   0.195
 5386SOL     OW17056   4.619   4.769   4.248
 5386SOL    HW117057   4.662   4.831   4.183
 5386SOL    HW217058   4.546   4.817   4.296
 5387SOL     OW17059   0.897   2.020   4.316
 5387SOL    HW117060   0.949   2.054   4.395
 5387SOL    HW217061   0.855   2.098   4.268
 5388SOL     OW17062   6.695   6.532   4.382
 5388SOL    HW117063   6.728   6.613   4.430
 5388SOL    HW217064   6.661   6.557   4.292
 5389SOL     OW17065   5.312   1.427   4.361
 5389SOL    HW117066   5.333   1.386   4.450
 5389SOL    HW217067   5.390   1.414   4.299
 5390SOL     OW17068   6.298   3.742   2.998
 5390SOL    HW117069   6.391   3.729   2.964
 5390SOL    HW217070   6.295   3.715   3.094
 5391SOL     OW17071   3.398   2.576   1.096
 5391SOL    HW117072   3.428   2.486   1.128
 5391SOL    HW217073   3.300   2.587   1.113
 5392SOL     OW17074   5.236   0.585   4.346
 5392SOL    HW117075   5.251   0.667   4.291
 5392SOL    HW217076   5.194   0.611   4.433
 5393SOL     OW17077   4.019   1.185   4.071
 5393SOL    HW117078   3.924   1.199   4.040
 5393SOL    HW217079   4.041   1.252   4.141
 5394SOL     OW17080   6.898   2.575   1.561
 5394SOL    HW117081   6.862   2.595   1.652
 5394SOL    HW217082   6.826   2.535   1.504
 5395SOL     OW17083   0.546   1.670   0.780
 5395SOL    HW117084   0.595   1.583   0.783
 5395SOL    HW217085   0.554   1.709   0.689
 5396SOL     OW17086   3.443   2.936   0.675
 5396SOL    HW117087   3.496   2.853   0.659
 5396SOL    HW217088   3.438   2.954   0.773
 5397SOL     OW17089   6.736   6.965   2.627
 5397SOL    HW117090   6.752   0.037   2.606
 5397SOL    HW217091   6.656   6.933   2.577
 5398SOL     OW17092   6.787   2.455   3.053
 5398SOL    HW117093   6.766   2.358   3.039
 5398SOL    HW217094   6.702   2.508   3.051
 5399SOL     OW17095   1.987   3.202   1.137
 5399SOL    HW117096   2.030   3.111   1.140
 5399SOL    HW217097   1.947   3.217   1.047
 5400SOL     OW17098   4.505   2.879   1.427
 5400SOL    HW117099   4.535   2.807   1.490
 5400SOL    HW217100   4.584   2.937   1.403
 5401SOL     OW17101   5.056   3.241   1.210
 5401SOL    HW117102   5.038   3.198   1.298
 5401SOL    HW217103   5.067   3.340   1.224
 5402SOL     OW17104   0.810   6.520   2.017
 5402SOL    HW117105   0.853   6.610   2.025
 5402SOL    HW217106   0.877   6.449   2.035
 5403SOL     OW17107   4.928   2.237   6.311
 5403SOL    HW117108   4.935   2.336   6.320
 5403SOL    HW217109   4.874   2.201   6.387
 5404SOL     OW17110   5.212   6.809   0.217
 5404SOL    HW117111   5.213   6.771   0.310
 5404SOL    HW217112   5.148   6.885   0.213
 5405SOL     OW17113   0.407   5.112   6.987
 5405SOL    HW117114   0.334   5.175   6.959
 5405SOL    HW217115   0.387   5.075   0.053
 5406SOL     OW17116   3.244   1.098   5.888
 5406SOL    HW117117   3.273   1.154   5.965
 5406SOL    HW217118   3.191   1.154   5.824
 5407SOL     OW17119   1.255   6.571   3.608
 5407SOL    HW117120   1.271   6.510   3.685
 5407SOL    HW217121   1.156   6.587   3.598
 5408SOL     OW17122   2.291   1.952   4.631
 5408SOL    HW117123   2.223   1.882   4.608
 5408SOL    HW217124   2.383   1.916   4.615
 5409SOL     OW17125   0.672   2.600   2.598
 5409SOL    HW117126   0.601   2.549   2.550
 5409SOL    HW217127   0.658   2.592   2.697
 5410SOL     OW17128   6.787   2.606   0.507
 5410SOL    HW117129   6.856   2.574   0.572
 5410SOL    HW217130   6.717   2.535   0.496
 5411SOL     OW17131   3.731   5.652   0.722
 5411SOL    HW117132   3.719   5.712   0.801
 5411SOL    HW217133   3.670   5.682   0.649
 5412SOL     OW17134   1.124   2.266   5.063
 5412SOL    HW117135   1.171   2.341   5.017
 5412SOL    HW217136   1.079   2.207   4.995
 5413SOL     OW17137   0.588   5.016   5.178
 5413SOL    HW117138   0.537   5.074   5.114
 5413SOL    HW217139   0.524   4.964   5.235
 5414SOL     OW17140   5.706   4.371   5.563
 5414SOL    HW117141   5.634   4.363   5.632
 5414SOL    HW217142   5.665   4.361   5.472
 5415SOL     OW17143   2.397   1.383   6.643
 5415SOL    HW117144   2.446   1.367   6.557
 5415SOL    HW217145   2.442   1.457   6.693
 5416SOL     OW17146   3.459   5.725   7.020
 5416SOL    HW117147   3.474   5.752   6.925
 5416SOL    HW217148   3.446   5.626   0.000
 5417SOL     OW17149   5.504   0.287   3.364
 5417SOL    HW117150   5.421   0.313   3.413
 5417SOL    HW217151   5.541   0.366   3.316
 5418SOL     OW17152   0.010   3.745   6.053
 5418SOL    HW117153   6.992   3.833   6.030
 5418SOL    HW217154   0.091   3.762   6.109
 5419SOL     OW17155   3.977   1.998   6.665
 5419SOL    HW117156   3.889   2.035   6.636
 5419SOL    HW217157   4.006   1.927   6.601
 5420SOL     OW17158   1.170   2.265   1.782
 5420SOL    HW117159   1.112   2.229   1.710
 5420SOL    HW217160   1.149   2.218   1.868
 5421SOL     OW17161   3.825   5.623   1.783
 5421SOL    HW117162   3.898   5.570   1.826
 5421SOL    HW217163   3.849   5.644   1.689
 5422SOL     OW17164   2.607   5.506   3.984
 5422SOL    HW117165   2.523   5.547   4.019
 5422SOL    HW217166   2.593   5.408   3.971
 5423SOL     OW17167   4.897   6.904   1.483
 5423SOL    HW117168   4.876   6.976   1.417
 5423SOL    HW217169   4.912   6.818   1.434
 5424SOL     OW17170   4.308   3.920   5.265
 5424SOL    HW117171   4.350   3.837   5.303
 5424SOL    HW217172   4.347   4.000   5.311
 5425SOL     OW17173   1.213   5.096   6.126
 5425SOL    HW117174   1.297   5.043   6.116
 5425SOL    HW217175   1.141   5.054   6.071
 5426SOL     OW17176   6.605   4.655   1.413
 5426SOL    HW117177   6.527   4.717   1.427
 5426SOL    HW217178   6.677   4.678   1.479
 5427SOL     OW17179   4.846   2.815   0.333
 5427SOL    HW117180   4.917   2.884   0.321
 5427SOL    HW217181   4.820   2.808   0.429
 5428SOL     OW17182   4.805   5.037   3.345
 5428SOL    HW117183   4.856   5.123   3.341
 5428SOL    HW217184   4.735   5.036   3.274
 5429SOL     OW17185   2.927   0.053   4.184
 5429SOL    HW117186   3.019   0.092   4.192
 5429SOL    HW217187   2.917   0.009   4.094
 5430SOL     OW17188   1.962   3.565   5.842
 5430SOL    HW117189   2.062   3.569   5.831
 5430SOL    HW217190   1.927   3.656   5.863
 5431SOL     OW17191   4.726   4.584   0.103
 5431SOL    HW117192   4.714   4.519   0.028
 5431SOL    HW217193   4.652   4.572   0.170
 5432SOL     OW17194   0.088   5.377   6.498
 5432SOL    HW117195   0.118   5.421   6.413
 5432SOL    HW217196   0.162   5.320   6.534
 5433SOL     OW17197   3.660   0.091   0.982
 5433SOL    HW117198   3.755   0.088   0.950
 5433SOL    HW217199   3.659   0.101   1.082
 5434SOL     OW17200   5.085   6.625   4.248
 5434SOL    HW117201   5.021   6.655   4.318
 5434SOL    HW217202   5.135   6.544   4.279
 5435SOL     OW17203   6.880   5.036   6.713
 5435SOL    HW117204   6.911   5.050   6.807
 5435SOL    HW217205   6.780   5.032   6.712
 5436SOL     OW17206   1.896   4.857   2.239
 5436SOL    HW117207   1.853   4.927   2.296
 5436SOL    HW217208   1.939   4.901   2.160
 5437SOL     OW17209   3.427   6.631   1.044
 5437SOL    HW117210   3.362   6.557   1.063
 5437SOL    HW217211   3.380   6.719   1.052
 5438SOL     OW17212   3.893   6.347   2.102
 5438SOL    HW117213   3.872   6.250   2.092
 5438SOL    HW217214   3.987   6.358   2.135
 5439SOL     OW17215   1.473   4.162   0.862
 5439SOL    HW117216   1.443   4.219   0.939
 5439SOL    HW217217   1.418   4.078   0.860
 5440SOL     OW17218   5.517   6.880   3.559
 5440SOL    HW117219   5.582   6.854   3.488
 5440SOL    HW217220   5.532   6.824   3.640
 5441SOL     OW17221   5.540   2.161   4.686
 5441SOL    HW117222   5.508   2.066   4.695
 5441SOL    HW217223   5.594   2.186   4.767
 5442SOL     OW17224   2.755   0.386   6.491
 5442SOL    HW117225   2.846   0.410   6.457
 5442SOL    HW217226   2.756   0.292   6.525
 5443SOL     OW17227   5.658   1.196   3.171
 5443SOL    HW117228   5.584   1.258   3.194
 5443SOL    HW217229   5.621   1.114   3.129
 5444SOL     OW17230   0.432   1.491   6.238
 5444SOL    HW117231   0.455   1.428   6.165
 5444SOL    HW217232   0.347   1.461   6.282
 5445SOL     OW17233   5.512   6.345   5.532
 5445SOL    HW117234   5.527   6.408   5.456
 5445SOL    HW217235   5.519   6.251   5.500
 5446SOL     OW17236   1.064   4.242   5.830
 5446SOL    HW117237   1.052   4.264   5.927
 5446SOL    HW217238   1.032   4.318   5.774
 5447SOL     OW17239   6.659   2.024   1.799
 5447SOL    HW117240   6.746   1.990   1.834
 5447SOL    HW217241   6.603   2.058   1.874
 5448SOL     OW17242   5.804   5.290   2.216
 5448SOL    HW117243   5.777   5.327   2.127
 5448SOL    HW217244   5.735   5.226   2.248
 5449SOL     OW17245   1.991   1.137   1.804
 5449SOL    HW117246   2.008   1.063   1.739
 5449SOL    HW217247   2.032   1.222   1.769
 5450SOL     OW17248   4.437   5.860   1.969
 5450SOL    HW117249   4.462   5.951   2.005
 5450SOL    HW217250   4.516   5.821   1.921
 5451SOL     OW17251   6.514   6.705   3.581
 5451SOL    HW117252   6.526   6.762   3.662
 5451SOL    HW217253   6.416   6.687   3.567
 5452SOL     OW17254   2.212   4.519   2.744
 5452SOL    HW117255   2.252   4.532   2.653
 5452SOL    HW217256   2.162   4.432   2.747
 5453SOL     OW17257   6.607   4.141   4.192
 5453SOL    HW117258   6.655   4.159   4.278
 5453SOL    HW217259   6.567   4.226   4.158
 5454SOL     OW17260   5.863   3.866   2.747
 5454SOL    HW117261   5.913   3.916   2.818
 5454SOL    HW217262   5.785   3.819   2.788
 5455SOL     OW17263   2.825   1.900   3.607
 5455SOL    HW117264   2.813   1.803   3.590
 5455SOL    HW217265   2.777   1.926   3.691
 5456SOL     OW17266   5.979   2.242   0.260
 5456SOL    HW117267   5.995   2.148   0.289
 5456SOL    HW217268   5.882   2.256   0.240
 5457SOL     OW17269   6.279   1.200   6.912
 5457SOL    HW117270   6.355   1.264   6.896
 5457SOL    HW217271   6.210   1.212   6.841
 5458SOL     OW17272   4.896   4.374   6.534
 5458SOL    HW117273   4.852   4.423   6.459
 5458SOL    HW217274   4.940   4.291   6.498
 5459SOL     OW17275   2.181   2.869   5.146
 5459SOL    HW117276   2.193   2.829   5.237
 5459SOL    HW217277   2.247   2.944   5.134
 5460SOL     OW17278   0.514   0.547   1.542
 5460SOL    HW117279   0.457   0.474   1.503
 5460SOL    HW217280   0.610   0.519   1.539
 5461SOL     OW17281   6.029   1.479   6.216
 5461SOL    HW117282   6.022   1.464   6.118
 5461SOL    HW217283   5.956   1.429   6.263
 5462SOL     OW17284   5.359   5.097   5.750
 5462SOL    HW117285   5.401   5.013   5.783
 5462SOL    HW217286   5.268   5.077   5.714
 5463SOL     OW17287   1.171   3.995   5.827
 5463SOL    HW117288   1.130   4.084   5.804
 5463SOL    HW217289   1.131   3.924   5.769
 5464SOL     OW17290   1.892   5.145   4.721
 5464SOL    HW117291   1.839   5.222   4.686
 5464SOL    HW217292   1.952   5.176   4.795
 5465SOL     OW17293   0.831   0.122   5.122
 5465SOL    HW117294   0.836   0.221   5.126
 5465SOL    HW217295   0.841   0.092   5.027
 5466SOL     OW17296   5.490   1.472   4.812
 5466SOL    HW117297   5.397   1.440   4.794
 5466SOL    HW217298   5.551   1.443   4.739
 5467SOL     OW17299   4.823   3.117   4.489
 5467SOL    HW117300   4.831   3.146   4.584
 5467SOL    HW217301   4.904   3.146   4.438
 5468SOL     OW17302   6.584   2.408   1.574
 5468SOL    HW117303   6.545   2.320   1.600
 5468SOL    HW217304   6.598   2.463   1.657
 5469SOL     OW17305   3.162   1.051   4.640
 5469SOL    HW117306   3.251   1.068   4.597
 5469SOL    HW217307   3.107   1.135   4.638
 5470SOL     OW17308   4.235   5.431   4.001
 5470SOL    HW117309   4.266   5.520   3.967
 5470SOL    HW217310   4.139   5.418   3.978
 5471SOL     OW17311   4.910   0.364   2.399
 5471SOL    HW117312   4.835   0.418   2.362
 5471SOL    HW217313   4.982   0.424   2.433
 5472SOL     OW17314   2.558   3.596   0.461
 5472SOL    HW117315   2.592   3.667   0.523
 5472SOL    HW217316   2.470   3.563   0.494
 5473SOL     OW17317   3.070   4.881   1.985
 5473SOL    HW117318   3.162   4.853   2.014
 5473SOL    HW217319   3.002   4.834   2.041
 5474SOL     OW17320   1.308   4.937   2.099
 5474SOL    HW117321   1.392   4.883   2.091
 5474SOL    HW217322   1.322   5.026   2.057
 5475SOL     OW17323   1.092   1.031   5.097
 5475SOL    HW117324   1.001   1.073   5.100
 5475SOL    HW217325   1.129   1.026   5.189
 5476SOL     OW17326   2.011   6.606   5.047
 5476SOL    HW117327   1.924   6.633   5.088
 5476SOL    HW217328   2.012   6.631   4.950
 5477SOL     OW17329   2.098   3.427   3.896
 5477SOL    HW117330   2.099   3.364   3.819
 5477SOL    HW217331   2.076   3.519   3.863
 5478SOL     OW17332   5.121   4.889   5.896
 5478SOL    HW117333   5.133   4.920   5.991
 5478SOL    HW217334   5.204   4.908   5.844
 5479SOL     OW17335   5.201   2.382   4.423
 5479SOL    HW117336   5.234   2.426   4.339
 5479SOL    HW217337   5.246   2.293   4.434
 5480SOL     OW17338   1.488   3.295   4.462
 5480SOL    HW117339   1.432   3.326   4.539
 5480SOL    HW217340   1.491   3.195   4.461
 5481SOL     OW17341   3.930   1.606   6.601
 5481SOL    HW117342   3.838   1.629   6.569
 5481SOL    HW217343   3.992   1.682   6.580
 5482SOL     OW17344   5.430   3.194   1.913
 5482SOL    HW117345   5.355   3.199   1.848
 5482SOL    HW217346   5.447   3.284   1.953
 5483SOL     OW17347   6.873   2.993   6.992
 5483SOL    HW117348   6.841   3.085   6.969
 5483SOL    HW217349   6.794   2.932   7.003
 5484SOL     OW17350   6.419   6.949   5.249
 5484SOL    HW117351   6.387   0.006   5.297
 5484SOL    HW217352   6.398   6.958   5.151
 5485SOL     OW17353   3.771   0.018   4.648
 5485SOL    HW117354   3.870   0.024   4.633
 5485SOL    HW217355   3.735   6.961   4.603
 5486SOL     OW17356   0.995   1.175   3.895
 5486SOL    HW117357   0.911   1.154   3.846
 5486SOL    HW217358   1.055   1.229   3.836
 5487SOL     OW17359   4.529   5.158   0.512
 5487SOL    HW117360   4.603   5.111   0.560
 5487SOL    HW217361   4.460   5.188   0.578
 5488SOL     OW17362   5.107   1.036   6.124
 5488SOL    HW117363   5.075   0.942   6.132
 5488SOL    HW217364   5.144   1.051   6.032
 5489SOL     OW17365   6.805   4.143   3.176
 5489SOL    HW117366   6.770   4.140   3.083
 5489SOL    HW217367   6.748   4.203   3.232
 5490SOL     OW17368   2.114   2.440   6.677
 5490SOL    HW117369   2.168   2.494   6.742
 5490SOL    HW217370   2.174   2.401   6.608
 5491SOL     OW17371   0.364   6.131   1.515
 5491SOL    HW117372   0.279   6.184   1.514
 5491SOL    HW217373   0.344   6.036   1.492
 5492SOL     OW17374   1.838   0.966   4.861
 5492SOL    HW117375   1.757   0.910   4.877
 5492SOL    HW217376   1.822   1.058   4.897
 5493SOL     OW17377   3.229   2.794   0.099
 5493SOL    HW117378   3.149   2.847   0.068
 5493SOL    HW217379   3.272   2.841   0.176
 5494SOL     OW17380   6.157   3.095   1.894
 5494SOL    HW117381   6.084   3.034   1.863
 5494SOL    HW217382   6.197   3.059   1.978
 5495SOL     OW17383   3.242   2.910   3.033
 5495SOL    HW117384   3.316   2.894   2.968
 5495SOL    HW217385   3.175   2.836   3.025
 5496SOL     OW17386   3.698   5.068   1.362
 5496SOL    HW117387   3.608   5.111   1.361
 5496SOL    HW217388   3.763   5.128   1.409
 5497SOL     OW17389   6.239   0.149   1.784
 5497SOL    HW117390   6.323   0.190   1.748
 5497SOL    HW217391   6.198   0.212   1.850
 5498SOL     OW17392   4.519   0.050   5.133
 5498SOL    HW117393   4.503   0.046   5.034
 5498SOL    HW217394   4.582   0.125   5.154
 5499SOL     OW17395   0.220   1.277   5.135
 5499SOL    HW117396   0.243   1.345   5.065
 5499SOL    HW217397   0.147   1.312   5.193
 5500SOL     OW17398   2.318   5.541   1.202
 5500SOL    HW117399   2.410   5.528   1.238
 5500SOL    HW217400   2.287   5.457   1.158
 5501SOL     OW17401   2.002   0.328   2.973
 5501SOL    HW117402   2.087   0.366   2.935
 5501SOL    HW217403   2.024   0.262   3.044
 5502SOL     OW17404   4.612   3.619   0.522
 5502SOL    HW117405   4.684   3.551   0.509
 5502SOL    HW217406   4.535   3.598   0.462
 5503SOL     OW17407   0.611   6.481   4.305
 5503SOL    HW117408   0.641   6.442   4.218
 5503SOL    HW217409   0.556   6.413   4.354
 5504SOL     OW17410   3.426   2.105   4.305
 5504SOL    HW117411   3.427   2.048   4.388
 5504SOL    HW217412   3.502   2.079   4.246
 5505SOL     OW17413   3.287   4.621   6.167
 5505SOL    HW117414   3.271   4.658   6.258
 5505SOL    HW217415   3.253   4.527   6.163
 5506SOL     OW17416   0.445   6.916   5.756
 5506SOL    HW117417   0.345   6.917   5.754
 5506SOL    HW217418   0.478   6.824   5.776
 5507SOL     OW17419   3.570   6.062   4.313
 5507SOL    HW117420   3.636   6.063   4.238
 5507SOL    HW217421   3.482   6.027   4.281
 5508SOL     OW17422   2.707   0.624   5.982
 5508SOL    HW117423   2.692   0.532   5.947
 5508SOL    HW217424   2.620   0.665   6.007
 5509SOL     OW17425   6.278   6.297   6.979
 5509SOL    HW117426   6.208   6.318   0.023
 5509SOL    HW217427   6.347   6.368   6.979
 5510SOL     OW17428   5.867   0.147   6.341
 5510SOL    HW117429   5.959   0.183   6.356
 5510SOL    HW217430   5.853   0.068   6.401
 5511SOL     OW17431   0.247   1.941   1.918
 5511SOL    HW117432   0.320   1.919   1.854
 5511SOL    HW217433   0.241   1.870   1.988
 5512SOL     OW17434   0.499   0.305   0.937
 5512SOL    HW117435   0.400   0.290   0.946
 5512SOL    HW217436   0.516   0.388   0.885
 5513SOL     OW17437   3.428   5.409   4.835
 5513SOL    HW117438   3.408   5.402   4.933
 5513SOL    HW217439   3.477   5.328   4.805
 5514SOL     OW17440   6.155   5.495   3.467
 5514SOL    HW117441   6.102   5.575   3.495
 5514SOL    HW217442   6.136   5.420   3.530
 5515SOL     OW17443   6.677   2.800   2.505
 5515SOL    HW117444   6.711   2.864   2.574
 5515SOL    HW217445   6.754   2.747   2.468
 5516SOL     OW17446   1.461   3.332   6.162
 5516SOL    HW117447   1.512   3.296   6.083
 5516SOL    HW217448   1.383   3.386   6.130
 5517SOL     OW17449   1.995   1.640   1.658
 5517SOL    HW117450   2.025   1.718   1.713
 5517SOL    HW217451   1.896   1.639   1.653
 5518SOL     OW17452   5.327   5.058   5.003
 5518SOL    HW117453   5.411   5.003   5.007
 5518SOL    HW217454   5.251   5.005   5.040
 5519SOL     OW17455   5.409   3.769   3.487
 5519SOL    HW117456   5.428   3.678   3.524
 5519SOL    HW217457   5.370   3.760   3.396
 5520SOL     OW17458   1.675   3.275   1.193
 5520SOL    HW117459   1.627   3.281   1.105
 5520SOL    HW217460   1.773   3.269   1.176
 5521SOL     OW17461   4.609   5.593   1.498
 5521SOL    HW117462   4.623   5.585   1.399
 5521SOL    HW217463   4.660   5.521   1.545
 5522SOL     OW17464   2.058   3.292   2.436
 5522SOL    HW117465   2.068   3.193   2.426
 5522SOL    HW217466   2.066   3.336   2.346
 5523SOL     OW17467   3.330   0.831   1.278
 5523SOL    HW117468   3.407   0.804   1.220
 5523SOL    HW217469   3.326   0.931   1.282
 5524SOL     OW17470   6.553   5.950   6.269
 5524SOL    HW117471   6.596   5.863   6.292
 5524SOL    HW217472   6.481   5.934   6.201
 5525SOL     OW17473   6.561   5.938   4.545
 5525SOL    HW117474   6.543   5.968   4.639
 5525SOL    HW217475   6.659   5.919   4.534
 5526SOL     OW17476   5.546   3.023   4.856
 5526SOL    HW117477   5.582   2.935   4.884
 5526SOL    HW217478   5.506   3.015   4.765
 5527SOL     OW17479   2.436   3.383   1.022
 5527SOL    HW117480   2.431   3.483   1.027
 5527SOL    HW217481   2.363   3.343   1.077
 5528SOL     OW17482   0.170   3.300   2.960
 5528SOL    HW117483   0.269   3.313   2.963
 5528SOL    HW217484   0.128   3.345   3.039
 5529SOL     OW17485   1.864   1.489   5.038
 5529SOL    HW117486   1.931   1.467   5.109
 5529SOL    HW217487   1.772   1.479   5.076
 5530SOL     OW17488   0.693   3.060   0.901
 5530SOL    HW117489   0.783   3.043   0.861
 5530SOL    HW217490   0.625   3.005   0.854
 5531SOL     OW17491   2.053   2.739   5.907
 5531SOL    HW117492   2.020   2.646   5.923
 5531SOL    HW217493   2.032   2.766   5.813
 5532SOL     OW17494   2.480   1.843   0.920
 5532SOL    HW117495   2.577   1.848   0.946
 5532SOL    HW217496   2.470   1.781   0.843
 5533SOL     OW17497   4.097   0.030   0.255
 5533SOL    HW117498   4.119   0.071   0.343
 5533SOL    HW217499   3.997   0.030   0.243
 5534SOL     OW17500   6.955   4.674   5.426
 5534SOL    HW117501   6.898   4.737   5.374
 5534SOL    HW217502   6.905   4.588   5.440
 5535SOL     OW17503   5.912   3.686   3.448
 5535SOL    HW117504   5.912   3.605   3.388
 5535SOL    HW217505   5.888   3.767   3.395
 5536SOL     OW17506   2.179   0.718   3.668
 5536SOL    HW117507   2.152   0.751   3.759
 5536SOL    HW217508   2.104   0.731   3.604
 5537SOL     OW17509   4.463   1.388   4.885
 5537SOL    HW117510   4.419   1.311   4.931
 5537SOL    HW217511   4.431   1.474   4.925
 5538SOL     OW17512   5.775   2.358   1.294
 5538SOL    HW117513   5.679   2.370   1.271
 5538SOL    HW217514   5.810   2.442   1.337
 5539SOL     OW17515   3.182   6.384   0.167
 5539SOL    HW117516   3.258   6.428   0.120
 5539SOL    HW217517   3.156   6.439   0.246
 5540SOL     OW17518   5.236   0.605   6.889
 5540SOL    HW117519   5.326   0.646   6.884
 5540SOL    HW217520   5.234   0.537   6.962
 5541SOL     OW17521   4.472   3.633   6.485
 5541SOL    HW117522   4.494   3.662   6.392
 5541SOL    HW217523   4.547   3.579   6.522
 5542SOL     OW17524   4.378   5.063   0.121
 5542SOL    HW117525   4.371   4.995   0.047
 5542SOL    HW217526   4.301   5.050   0.184
 5543SOL     OW17527   1.980   0.274   0.415
 5543SOL    HW117528   2.009   0.369   0.425
 5543SOL    HW217529   2.051   0.214   0.451
 5544SOL     OW17530   3.725   5.708   6.408
 5544SOL    HW117531   3.758   5.629   6.357
 5544SOL    HW217532   3.765   5.792   6.369
 5545SOL     OW17533   4.576   0.643   2.937
 5545SOL    HW117534   4.658   0.676   2.983
 5545SOL    HW217535   4.504   0.712   2.943
 5546SOL     OW17536   0.424   5.098   4.727
 5546SOL    HW117537   0.326   5.087   4.743
 5546SOL    HW217538   0.441   5.185   4.681
 5547SOL     OW17539   5.224   1.395   4.840
 5547SOL    HW117540   5.193   1.378   4.934
 5547SOL    HW217541   5.158   1.455   4.795
 5548SOL     OW17542   0.300   4.340   4.726
 5548SOL    HW117543   0.202   4.326   4.740
 5548SOL    HW217544   0.350   4.265   4.770
 5549SOL     OW17545   4.200   3.002   0.665
 5549SOL    HW117546   4.100   2.998   0.666
 5549SOL    HW217547   4.237   2.911   0.683
 5550SOL     OW17548   1.799   4.339   1.659
 5550SOL    HW117549   1.724   4.405   1.666
 5550SOL    HW217550   1.761   4.247   1.654
 5551SOL     OW17551   1.919   5.542   3.410
 5551SOL    HW117552   1.891   5.577   3.321
 5551SOL    HW217553   1.940   5.444   3.403
 5552SOL     OW17554   0.267   6.693   0.125
 5552SOL    HW117555   0.355   6.657   0.155
 5552SOL    HW217556   0.208   6.617   0.096
 5553SOL     OW17557   5.046   0.197   6.946
 5553SOL    HW117558   5.002   0.285   6.926
 5553SOL    HW217559   5.024   0.132   6.873
 5554SOL     OW17560   5.913   2.193   1.470
 5554SOL    HW117561   5.850   2.164   1.542
 5554SOL    HW217562   5.861   2.222   1.390
 5555SOL     OW17563   1.748   5.209   2.514
 5555SOL    HW117564   1.748   5.152   2.432
 5555SOL    HW217565   1.655   5.217   2.549
 5556SOL     OW17566   0.169   1.187   4.616
 5556SOL    HW117567   0.191   1.231   4.529
 5556SOL    HW217568   0.218   1.233   4.690
 5557SOL     OW17569   3.133   5.870   2.829
 5557SOL    HW117570   3.080   5.822   2.899
 5557SOL    HW217571   3.209   5.918   2.872
 5558SOL     OW17572   4.259   4.473   6.998
 5558SOL    HW117573   4.226   4.554   6.949
 5558SOL    HW217574   4.315   4.417   6.938
 5559SOL     OW17575   2.373   0.959   2.532
 5559SOL    HW117576   2.357   0.962   2.631
 5559SOL    HW217577   2.386   0.863   2.504
 5560SOL     OW17578   0.637   6.546   3.197
 5560SOL    HW117579   0.565   6.500   3.146
 5560SOL    HW217580   0.663   6.630   3.148
 5561SOL     OW17581   3.582   6.801   3.292
 5561SOL    HW117582   3.574   6.894   3.257
 5561SOL    HW217583   3.600   6.738   3.217
 5562SOL     OW17584   3.809   4.577   0.590
 5562SOL    HW117585   3.807   4.498   0.651
 5562SOL    HW217586   3.903   4.607   0.576
 5563SOL     OW17587   2.687   4.600   2.784
 5563SOL    HW117588   2.771   4.549   2.766
 5563SOL    HW217589   2.639   4.616   2.697
 5564SOL     OW17590   5.218   0.624   5.922
 5564SOL    HW117591   5.196   0.588   6.012
 5564SOL    HW217592   5.298   0.684   5.929
 5565SOL     OW17593   3.376   2.345   6.285
 5565SOL    HW117594   3.376   2.426   6.344
 5565SOL    HW217595   3.426   2.365   6.201
 5566SOL     OW17596   1.404   3.544   6.571
 5566SOL    HW117597   1.353   3.466   6.607
 5566SOL    HW217598   1.342   3.619   6.551
 5567SOL     OW17599   7.012   4.376   1.356
 5567SOL    HW117600   6.960   4.308   1.407
 5567SOL    HW217601   0.017   4.336   1.269
 5568SOL     OW17602   4.353   5.417   1.432
 5568SOL    HW117603   4.356   5.321   1.458
 5568SOL    HW217604   4.399   5.473   1.501
 5569SOL     OW17605   2.253   3.082   3.617
 5569SOL    HW117606   2.224   3.046   3.528
 5569SOL    HW217607   2.220   3.176   3.627
 5570SOL     OW17608   0.399   3.911   2.819
 5570SOL    HW117609   0.433   3.964   2.896
 5570SOL    HW217610   0.353   3.828   2.852
 5571SOL     OW17611   6.087   4.883   1.702
 5571SOL    HW117612   6.056   4.925   1.787
 5571SOL    HW217613   6.039   4.797   1.687
 5572SOL     OW17614   1.848   4.190   5.195
 5572SOL    HW117615   1.933   4.189   5.143
 5572SOL    HW217616   1.801   4.102   5.186
 5573SOL     OW17617   2.792   5.077   3.568
 5573SOL    HW117618   2.776   4.981   3.547
 5573SOL    HW217619   2.705   5.123   3.585
 5574SOL     OW17620   0.844   2.620   6.596
 5574SOL    HW117621   0.934   2.596   6.558
 5574SOL    HW217622   0.812   2.704   6.552
 5575SOL     OW17623   0.306   0.049   1.584
 5575SOL    HW117624   0.316   6.989   1.533
 5575SOL    HW217625   0.336   0.036   1.678
 5576SOL     OW17626   1.728   4.610   3.366
 5576SOL    HW117627   1.701   4.636   3.273
 5576SOL    HW217628   1.759   4.691   3.416
 5577SOL     OW17629   1.759   2.487   5.378
 5577SOL    HW117630   1.748   2.586   5.373
 5577SOL    HW217631   1.684   2.447   5.431
 5578SOL     OW17632   3.816   3.628   3.469
 5578SOL    HW117633   3.831   3.553   3.534
 5578SOL    HW217634   3.750   3.693   3.508
 5579SOL     OW17635   0.234   3.563   1.312
 5579SOL    HW117636   0.189   3.570   1.223
 5579SOL    HW217637   0.309   3.497   1.308
 5580SOL     OW17638   5.182   1.682   5.206
 5580SOL    HW117639   5.219   1.764   5.162
 5580SOL    HW217640   5.256   1.620   5.228
 5581SOL     OW17641   1.323   2.175   6.938
 5581SOL    HW117642   1.277   2.257   6.906
 5581SOL    HW217643   1.292   2.096   6.884
 5582SOL     OW17644   2.599   2.618   6.063
 5582SOL    HW117645   2.575   2.547   5.996
 5582SOL    HW217646   2.623   2.703   6.015
 5583SOL     OW17647   5.686   0.745   2.458
 5583SOL    HW117648   5.649   0.815   2.519
 5583SOL    HW217649   5.615   0.679   2.435
 5584SOL     OW17650   1.063   3.348   4.757
 5584SOL    HW117651   1.038   3.445   4.749
 5584SOL    HW217652   0.987   3.291   4.724
 5585SOL     OW17653   4.512   5.041   2.514
 5585SOL    HW117654   4.551   5.056   2.606
 5585SOL    HW217655   4.467   5.124   2.483
 5586SOL     OW17656   6.511   3.296   6.730
 5586SOL    HW117657   6.508   3.388   6.768
 5586SOL    HW217658   6.578   3.294   6.656
 5587SOL     OW17659   5.890   0.890   6.284
 5587SOL    HW117660   5.883   0.863   6.188
 5587SOL    HW217661   5.963   0.958   6.294
 5588SOL     OW17662   3.343   6.879   1.472
 5588SOL    HW117663   3.442   6.867   1.463
 5588SOL    HW217664   3.309   6.936   1.397
 5589SOL     OW17665   5.876   4.820   5.905
 5589SOL    HW117666   5.847   4.826   6.001
 5589SOL    HW217667   5.916   4.730   5.888
 5590SOL     OW17668   5.585   5.763   4.024
 5590SOL    HW117669   5.629   5.740   4.111
 5590SOL    HW217670   5.631   5.842   3.982
 5591SOL     OW17671   5.828   1.285   1.463
 5591SOL    HW117672   5.923   1.278   1.433
 5591SOL    HW217673   5.772   1.221   1.411
 5592SOL     OW17674   0.583   3.965   3.071
 5592SOL    HW117675   0.650   3.930   3.136
 5592SOL    HW217676   0.621   4.044   3.022
 5593SOL     OW17677   0.155   3.159   0.155
 5593SOL    HW117678   0.102   3.148   0.238
 5593SOL    HW217679   0.128   3.090   0.088
 5594SOL     OW17680   5.758   2.608   5.565
 5594SOL    HW117681   5.681   2.545   5.562
 5594SOL    HW217682   5.802   2.603   5.655
 5595SOL     OW17683   0.663   2.531   5.376
 5595SOL    HW117684   0.570   2.529   5.413
 5595SOL    HW217685   0.717   2.458   5.417
 5596SOL     OW17686   3.866   6.723   3.033
 5596SOL    HW117687   3.781   6.749   2.989
 5596SOL    HW217688   3.872   6.765   3.124
 5597SOL     OW17689   5.678   3.474   3.156
 5597SOL    HW117690   5.653   3.379   3.170
 5597SOL    HW217691   5.660   3.501   3.062
 5598SOL     OW17692   5.659   2.218   5.379
 5598SOL    HW117693   5.706   2.144   5.330
 5598SOL    HW217694   5.567   2.229   5.342
 5599SOL     OW17695   0.522   1.413   3.808
 5599SOL    HW117696   0.532   1.401   3.907
 5599SOL    HW217697   0.562   1.334   3.760
 5600SOL     OW17698   1.347   2.366   3.928
 5600SOL    HW117699   1.305   2.280   3.958
 5600SOL    HW217700   1.432   2.346   3.878
 5601SOL     OW17701   2.642   0.792   5.459
 5601SOL    HW117702   2.645   0.757   5.553
 5601SOL    HW217703   2.549   0.784   5.424
 5602SOL     OW17704   1.438   2.023   0.595
 5602SOL    HW117705   1.376   1.995   0.521
 5602SOL    HW217706   1.384   2.044   0.677
 5603SOL     OW17707   6.181   2.728   6.580
 5603SOL    HW117708   6.177   2.809   6.522
 5603SOL    HW217709   6.185   2.646   6.523
 5604SOL     OW17710   6.558   1.890   6.049
 5604SOL    HW117711   6.495   1.878   6.125
 5604SOL    HW217712   6.597   1.982   6.052
 5605SOL     OW17713   0.374   2.288   5.114
 5605SOL    HW117714   0.335   2.368   5.070
 5605SOL    HW217715   0.474   2.294   5.111
 5606SOL     OW17716   4.706   0.114   2.174
 5606SOL    HW117717   4.791   0.063   2.159
 5606SOL    HW217718   4.716   0.207   2.138
 5607SOL     OW17719   5.856   0.906   1.862
 5607SOL    HW117720   5.944   0.951   1.849
 5607SOL    HW217721   5.856   0.854   1.948
 5608SOL     OW17722   3.958   6.775   5.218
 5608SOL    HW117723   3.963   6.701   5.285
 5608SOL    HW217724   4.041   6.831   5.222
 5609SOL     OW17725   2.448   6.211   5.924
 5609SOL    HW117726   2.465   6.167   6.012
 5609SOL    HW217727   2.389   6.153   5.868
 5610SOL     OW17728   4.982   0.637   6.793
 5610SOL    HW117729   5.078   0.631   6.819
 5610SOL    HW217730   4.963   0.729   6.758
 5611SOL     OW17731   1.729   5.245   3.185
 5611SOL    HW117732   1.696   5.155   3.157
 5611SOL    HW217733   1.661   5.314   3.161
 5612SOL     OW17734   2.545   6.938   5.370
 5612SOL    HW117735   2.492   6.853   5.370
 5612SOL    HW217736   2.544   6.977   5.461
 5613SOL     OW17737   4.004   4.809   1.974
 5613SOL    HW117738   4.102   4.791   1.966
 5613SOL    HW217739   3.988   4.863   2.057
 5614SOL     OW17740   4.524   2.045   2.985
 5614SOL    HW117741   4.483   1.954   2.995
 5614SOL    HW217742   4.623   2.037   2.992
 5615SOL     OW17743   1.398   1.303   1.308
 5615SOL    HW117744   1.328   1.338   1.247
 5615SOL    HW217745   1.469   1.256   1.254
 5616SOL     OW17746   2.303   0.879   4.472
 5616SOL    HW117747   2.394   0.916   4.458
 5616SOL    HW217748   2.280   0.884   4.569
 5617SOL     OW17749   1.844   0.647   4.911
 5617SOL    HW117750   1.829   0.549   4.895
 5617SOL    HW217751   1.760   0.697   4.889
 5618SOL     OW17752   0.025   4.264   3.039
 5618SOL    HW117753   6.985   4.251   3.115
 5618SOL    HW217754   0.024   4.360   3.011
 5619SOL     OW17755   2.211   3.507   5.239
 5619SOL    HW117756   2.243   3.424   5.284
 5619SOL    HW217757   2.176   3.485   5.148
 5620SOL     OW17758   3.599   1.885   5.915
 5620SOL    HW117759   3.556   1.930   5.836
 5620SOL    HW217760   3.614   1.953   5.987
 5621SOL     OW17761   2.229   2.775   5.399
 5621SOL    HW117762   2.322   2.789   5.433
 5621SOL    HW217763   2.206   2.678   5.404
 5622SOL     OW17764   6.254   0.247   6.054
 5622SOL    HW117765   6.333   0.250   6.116
 5622SOL    HW217766   6.277   0.289   5.967
 5623SOL     OW17767   1.009   5.989   0.356
 5623SOL    HW117768   1.046   6.028   0.271
 5623SOL    HW217769   1.085   5.952   0.411
 5624SOL     OW17770   0.896   4.223   3.459
 5624SOL    HW117771   0.961   4.185   3.395
 5624SOL    HW217772   0.803   4.203   3.428
 5625SOL     OW17773   6.452   2.659   5.239
 5625SOL    HW117774   6.519   2.601   5.286
 5625SOL    HW217775   6.361   2.618   5.248
 5626SOL     OW17776   4.037   0.026   4.650
 5626SOL    HW117777   4.099   0.027   4.571
 5626SOL    HW217778   4.088   0.048   4.733
 5627SOL     OW17779   1.497   6.153   0.739
 5627SOL    HW117780   1.417   6.203   0.773
 5627SOL    HW217781   1.479   6.055   0.740
 5628SOL     OW17782   1.900   1.360   4.458
 5628SOL    HW117783   1.816   1.414   4.466
 5628SOL    HW217784   1.884   1.283   4.396
 5629SOL     OW17785   3.572   3.642   2.626
 5629SOL    HW117786   3.602   3.703   2.552
 5629SOL    HW217787   3.576   3.547   2.595
 5630SOL     OW17788   0.542   4.476   1.829
 5630SOL    HW117789   0.579   4.530   1.904
 5630SOL    HW217790   0.605   4.402   1.806
 5631SOL     OW17791   4.870   0.667   0.089
 5631SOL    HW117792   4.948   0.723   0.117
 5631SOL    HW217793   4.786   0.707   0.125
 5632SOL     OW17794   3.994   3.815   0.155
 5632SOL    HW117795   3.951   3.859   0.234
 5632SOL    HW217796   4.035   3.728   0.183
 5633SOL     OW17797   6.105   2.323   4.603
 5633SOL    HW117798   6.106   2.329   4.503
 5633SOL    HW217799   6.010   2.328   4.635
 5634SOL     OW17800   3.915   5.820   4.561
 5634SOL    HW117801   3.827   5.810   4.514
 5634SOL    HW217802   3.968   5.735   4.551
 5635SOL     OW17803   3.194   2.075   4.926
 5635SOL    HW117804   3.113   2.031   4.888
 5635SOL    HW217805   3.166   2.147   4.989
 5636SOL     OW17806   3.758   5.429   3.574
 5636SOL    HW117807   3.680   5.483   3.543
 5636SOL    HW217808   3.782   5.456   3.667
 5637SOL     OW17809   5.539   0.548   3.512
 5637SOL    HW117810   5.619   0.518   3.564
 5637SOL    HW217811   5.466   0.481   3.521
 5638SOL     OW17812   5.568   3.071   6.167
 5638SOL    HW117813   5.632   3.037   6.237
 5638SOL    HW217814   5.618   3.088   6.082
 5639SOL     OW17815   2.865   1.261   6.051
 5639SOL    HW117816   2.811   1.293   5.973
 5639SOL    HW217817   2.883   1.163   6.041
 5640SOL     OW17818   2.297   0.160   3.369
 5640SOL    HW117819   2.279   0.220   3.447
 5640SOL    HW217820   2.240   0.078   3.377
 5641SOL     OW17821   5.773   5.410   5.173
 5641SOL    HW117822   5.746   5.315   5.190
 5641SOL    HW217823   5.743   5.437   5.081
 5642SOL     OW17824   1.224   1.579   6.388
 5642SOL    HW117825   1.184   1.565   6.298
 5642SOL    HW217826   1.179   1.656   6.433
 5643SOL     OW17827   5.735   2.813   4.706
 5643SOL    HW117828   5.653   2.843   4.656
 5643SOL    HW217829   5.708   2.776   4.795
 5644SOL     OW17830   3.548   0.182   6.153
 5644SOL    HW117831   3.589   0.235   6.227
 5644SOL    HW217832   3.616   0.167   6.081
 5645SOL     OW17833   5.258   2.539   4.827
 5645SOL    HW117834   5.229   2.443   4.833
 5645SOL    HW217835   5.195   2.588   4.767
 5646SOL     OW17836   1.861   4.582   2.558
 5646SOL    HW117837   1.832   4.538   2.643
 5646SOL    HW217838   1.870   4.680   2.573
 5647SOL     OW17839   6.909   5.930   2.499
 5647SOL    HW117840   6.920   6.020   2.457
 5647SOL    HW217841   6.862   5.869   2.435
 5648SOL     OW17842   4.312   6.638   3.176
 5648SOL    HW117843   4.311   6.656   3.274
 5648SOL    HW217844   4.248   6.700   3.130
 5649SOL     OW17845   1.171   6.373   4.120
 5649SOL    HW117846   1.120   6.446   4.167
 5649SOL    HW217847   1.192   6.301   4.186
 5650SOL     OW17848   6.654   4.600   6.995
 5650SOL    HW117849   6.725   4.560   6.935
 5650SOL    HW217850   6.575   4.627   6.940
 5651SOL     OW17851   2.086   0.952   2.001
 5651SOL    HW117852   2.044   1.018   1.940
 5651SOL    HW217853   2.021   0.878   2.020
 5652SOL     OW17854   1.338   5.833   1.641
 5652SOL    HW117855   1.422   5.861   1.686
 5652SOL    HW217856   1.285   5.915   1.616
 5653SOL     OW17857   6.882   6.986   1.051
 5653SOL    HW117858   6.960   6.943   1.005
 5653SOL    HW217859   6.899   0.059   1.060
 5654SOL     OW17860   3.218   5.305   4.214
 5654SOL    HW117861   3.246   5.284   4.121
 5654SOL    HW217862   3.160   5.386   4.215
 5655SOL     OW17863   6.110   2.939   4.984
 5655SOL    HW117864   6.164   3.022   4.974
 5655SOL    HW217865   6.037   2.938   4.915
 5656SOL     OW17866   0.057   3.411   0.107
 5656SOL    HW117867   0.081   3.325   0.151
 5656SOL    HW217868   0.094   3.413   0.014
 5657SOL     OW17869   4.810   5.827   5.434
 5657SOL    HW117870   4.805   5.859   5.340
 5657SOL    HW217871   4.900   5.790   5.452
 5658SOL     OW17872   2.664   2.888   5.931
 5658SOL    HW117873   2.658   2.923   6.025
 5658SOL    HW217874   2.589   2.924   5.877
 5659SOL     OW17875   3.925   4.061   6.610
 5659SOL    HW117876   3.940   4.117   6.691
 5659SOL    HW217877   3.848   3.998   6.626
 5660SOL     OW17878   4.635   0.827   6.218
 5660SOL    HW117879   4.691   0.893   6.269
 5660SOL    HW217880   4.593   0.872   6.139
 5661SOL     OW17881   1.155   5.041   5.164
 5661SOL    HW117882   1.232   5.071   5.220
 5661SOL    HW217883   1.154   4.941   5.161
 5662SOL     OW17884   2.594   6.445   2.680
 5662SOL    HW117885   2.625   6.360   2.722
 5662SOL    HW217886   2.539   6.424   2.599
 5663SOL     OW17887   1.419   3.001   6.317
 5663SOL    HW117888   1.400   3.041   6.407
 5663SOL    HW217889   1.367   3.050   6.247
 5664SOL     OW17890   4.697   4.787   4.804
 5664SOL    HW117891   4.632   4.710   4.806
 5664SOL    HW217892   4.722   4.807   4.709
 5665SOL     OW17893   1.970   2.347   0.711
 5665SOL    HW117894   1.949   2.256   0.675
 5665SOL    HW217895   1.899   2.375   0.776
 5666SOL     OW17896   5.512   1.393   5.070
 5666SOL    HW117897   5.492   1.403   4.973
 5666SOL    HW217898   5.610   1.376   5.081
 5667SOL     OW17899   2.585   5.205   4.416
 5667SOL    HW117900   2.661   5.248   4.368
 5667SOL    HW217901   2.565   5.116   4.374
 5668SOL     OW17902   5.187   3.420   3.664
 5668SOL    HW117903   5.192   3.349   3.593
 5668SOL    HW217904   5.101   3.470   3.656
 5669SOL     OW17905   6.149   4.558   6.062
 5669SOL    HW117906   6.220   4.624   6.083
 5669SOL    HW217907   6.119   4.512   6.146
 5670SOL     OW17908   0.318   1.907   2.902
 5670SOL    HW117909   0.262   1.962   2.840
 5670SOL    HW217910   0.398   1.960   2.930
 5671SOL     OW17911   6.896   6.471   3.418
 5671SOL    HW117912   6.839   6.504   3.343
 5671SOL    HW217913   6.850   6.487   3.505
 5672SOL     OW17914   5.002   2.854   5.277
 5672SOL    HW117915   5.044   2.764   5.279
 5672SOL    HW217916   4.962   2.871   5.187
 5673SOL     OW17917   0.432   0.934   1.269
 5673SOL    HW117918   0.398   1.028   1.269
 5673SOL    HW217919   0.374   0.877   1.327
 5674SOL     OW17920   2.190   5.096   5.556
 5674SOL    HW117921   2.154   5.101   5.649
 5674SOL    HW217922   2.160   5.011   5.513
 5675SOL     OW17923   2.723   2.248   0.949
 5675SOL    HW117924   2.757   2.166   0.902
 5675SOL    HW217925   2.800   2.296   0.991
 5676SOL     OW17926   2.715   1.997   2.063
 5676SOL    HW117927   2.617   1.981   2.077
 5676SOL    HW217928   2.737   1.988   1.967
 5677SOL     OW17929   6.346   1.140   0.774
 5677SOL    HW117930   6.355   1.144   0.675
 5677SOL    HW217931   6.424   1.091   0.813
 5678SOL     OW17932   3.118   2.086   1.868
 5678SOL    HW117933   3.070   2.135   1.795
 5678SOL    HW217934   3.070   2.099   1.954
 5679SOL     OW17935   6.211   3.622   4.889
 5679SOL    HW117936   6.191   3.645   4.984
 5679SOL    HW217937   6.125   3.620   4.837
 5680SOL     OW17938   1.378   6.131   5.233
 5680SOL    HW117939   1.372   6.045   5.283
 5680SOL    HW217940   1.351   6.207   5.293
 5681SOL     OW17941   1.428   3.536   4.338
 5681SOL    HW117942   1.378   3.535   4.252
 5681SOL    HW217943   1.447   3.442   4.367
 5682SOL     OW17944   1.770   4.503   2.131
 5682SOL    HW117945   1.841   4.544   2.188
 5682SOL    HW217946   1.682   4.509   2.178
 5683SOL     OW17947   6.875   1.206   6.097
 5683SOL    HW117948   6.907   1.295   6.129
 5683SOL    HW217949   6.930   1.134   6.139
 5684SOL     OW17950   1.913   2.322   4.810
 5684SOL    HW117951   1.840   2.333   4.743
 5684SOL    HW217952   2.001   2.338   4.765
 5685SOL     OW17953   1.918   2.305   2.705
 5685SOL    HW117954   1.989   2.251   2.751
 5685SOL    HW217955   1.860   2.245   2.651
 5686SOL     OW17956   4.017   5.343   6.185
 5686SOL    HW117957   3.959   5.423   6.199
 5686SOL    HW217958   3.975   5.282   6.118
 5687SOL     OW17959   2.409   6.759   6.727
 5687SOL    HW117960   2.344   6.720   6.662
 5687SOL    HW217961   2.359   6.794   6.807
 5688SOL     OW17962   2.063   1.819   3.383
 5688SOL    HW117963   2.148   1.830   3.434
 5688SOL    HW217964   2.057   1.726   3.347
 5689SOL     OW17965   0.739   2.854   1.374
 5689SOL    HW117966   0.808   2.912   1.418
 5689SOL    HW217967   0.655   2.855   1.428
 5690SOL     OW17968   1.876   4.998   0.292
 5690SOL    HW117969   1.818   5.050   0.229
 5690SOL    HW217970   1.968   4.988   0.253
 5691SOL     OW17971   3.589   1.289   2.535
 5691SOL    HW117972   3.518   1.357   2.519
 5691SOL    HW217973   3.586   1.220   2.463
 5692SOL     OW17974   4.602   5.081   2.065
 5692SOL    HW117975   4.665   5.004   2.059
 5692SOL    HW217976   4.586   5.103   2.162
 5693SOL     OW17977   4.556   0.995   1.144
 5693SOL    HW117978   4.604   1.040   1.220
 5693SOL    HW217979   4.621   0.937   1.095
 5694SOL     OW17980   0.611   6.145   1.694
 5694SOL    HW117981   0.708   6.168   1.701
 5694SOL    HW217982   0.600   6.045   1.701
 5695SOL     OW17983   2.072   0.360   1.165
 5695SOL    HW117984   2.114   0.449   1.185
 5695SOL    HW217985   1.996   0.345   1.229
 5696SOL     OW17986   1.730   0.668   4.141
 5696SOL    HW117987   1.750   0.713   4.054
 5696SOL    HW217988   1.810   0.671   4.200
 5697SOL     OW17989   6.565   3.125   0.559
 5697SOL    HW117990   6.582   3.030   0.536
 5697SOL    HW217991   6.607   3.146   0.647
 5698SOL     OW17992   2.838   2.316   3.662
 5698SOL    HW117993   2.781   2.309   3.580
 5698SOL    HW217994   2.893   2.400   3.657
 5699SOL     OW17995   1.944   3.173   2.776
 5699SOL    HW117996   1.903   3.224   2.700
 5699SOL    HW217997   1.877   3.108   2.813
 5700SOL     OW17998   6.250   0.216   2.967
 5700SOL    HW117999   6.312   0.179   2.897
 5700SOL    HW218000   6.192   0.287   2.926
 5701SOL     OW18001   0.263   0.729   1.379
 5701SOL    HW118002   0.304   0.657   1.436
 5701SOL    HW218003   0.205   0.787   1.436
 5702SOL     OW18004   2.806   6.716   4.493
 5702SOL    HW118005   2.850   6.652   4.430
 5702SOL    HW218006   2.725   6.674   4.533
 5703SOL     OW18007   6.869   2.837   6.299
 5703SOL    HW118008   6.877   2.864   6.395
 5703SOL    HW218009   6.948   2.781   6.274
 5704SOL     OW18010   4.506   5.225   4.144
 5704SOL    HW118011   4.433   5.158   4.128
 5704SOL    HW218012   4.465   5.314   4.163
 5705SOL     OW18013   6.087   7.005   5.302
 5705SOL    HW118014   6.147   0.050   5.339
 5705SOL    HW218015   6.129   6.965   5.220
 5706SOL     OW18016   5.055   2.118   6.735
 5706SOL    HW118017   4.974   2.101   6.791
 5706SOL    HW218018   5.137   2.111   6.792
 5707SOL     OW18019   5.116   5.913   1.928
 5707SOL    HW118020   5.173   5.977   1.876
 5707SOL    HW218021   5.051   5.869   1.867
 5708SOL     OW18022   4.420   5.822   2.847
 5708SOL    HW118023   4.500   5.762   2.836
 5708SOL    HW218024   4.341   5.768   2.874
 5709SOL     OW18025   0.246   1.776   2.132
 5709SOL    HW118026   0.229   1.680   2.157
 5709SOL    HW218027   0.298   1.821   2.205
 5710SOL     OW18028   3.579   1.805   1.372
 5710SOL    HW118029   3.555   1.874   1.441
 5710SOL    HW218030   3.530   1.720   1.391
 5711SOL     OW18031   5.315   1.771   2.495
 5711SOL    HW118032   5.386   1.831   2.458
 5711SOL    HW218033   5.357   1.689   2.532
 5712SOL     OW18034   5.957   0.326   1.018
 5712SOL    HW118035   5.914   0.400   0.966
 5712SOL    HW218036   5.982   0.252   0.955
 5713SOL     OW18037   2.377   0.374   0.785
 5713SOL    HW118038   2.340   0.444   0.846
 5713SOL    HW218039   2.473   0.357   0.809
 5714SOL     OW18040   6.333   6.918   0.929
 5714SOL    HW118041   6.432   6.912   0.935
 5714SOL    HW218042   6.307   7.006   0.891
 5715SOL     OW18043   0.092   0.453   1.560
 5715SOL    HW118044   0.057   0.531   1.613
 5715SOL    HW218045   0.073   0.368   1.609
 5716SOL     OW18046   6.347   4.891   5.028
 5716SOL    HW118047   6.275   4.825   5.048
 5716SOL    HW218048   6.309   4.967   4.975
 5717SOL     OW18049   1.522   5.453   3.150
 5717SOL    HW118050   1.487   5.485   3.238
 5717SOL    HW218051   1.461   5.484   3.076
 5718SOL     OW18052   0.825   3.051   0.121
 5718SOL    HW118053   0.784   3.135   0.158
 5718SOL    HW218054   0.913   3.074   0.077
 5719SOL     OW18055   2.029   3.326   0.737
 5719SOL    HW118056   2.004   3.288   0.648
 5719SOL    HW218057   2.126   3.309   0.754
 5720SOL     OW18058   2.422   5.252   6.388
 5720SOL    HW118059   2.329   5.264   6.424
 5720SOL    HW218060   2.418   5.201   6.303
 5721SOL     OW18061   2.148   3.361   0.417
 5721SOL    HW118062   2.177   3.280   0.468
 5721SOL    HW218063   2.148   3.341   0.319
 5722SOL     OW18064   1.670   0.692   6.376
 5722SOL    HW118065   1.695   0.749   6.454
 5722SOL    HW218066   1.599   0.738   6.322
 5723SOL     OW18067   4.219   3.114   0.982
 5723SOL    HW118068   4.195   3.196   1.033
 5723SOL    HW218069   4.140   3.053   0.976
 5724SOL     OW18070   5.446   2.027   5.281
 5724SOL    HW118071   5.508   1.971   5.336
 5724SOL    HW218072   5.359   2.039   5.330
 5725SOL     OW18073   6.699   4.010   4.657
 5725SOL    HW118074   6.632   3.938   4.675
 5725SOL    HW218075   6.785   3.987   4.703
 5726SOL     OW18076   5.350   4.235   2.310
 5726SOL    HW118077   5.294   4.269   2.234
 5726SOL    HW218078   5.296   4.175   2.368
 5727SOL     OW18079   0.633   1.817   5.000
 5727SOL    HW118080   0.648   1.916   5.002
 5727SOL    HW218081   0.620   1.787   4.906
 5728SOL     OW18082   4.496   6.849   5.268
 5728SOL    HW118083   4.499   6.939   5.225
 5728SOL    HW218084   4.558   6.787   5.218
 5729SOL     OW18085   2.118   1.914   5.129
 5729SOL    HW118086   2.049   1.903   5.057
 5729SOL    HW218087   2.074   1.905   5.219
 5730SOL     OW18088   0.063   3.638   4.692
 5730SOL    HW118089   0.099   3.729   4.715
 5730SOL    HW218090   6.992   3.647   4.664
 5731SOL     OW18091   0.466   6.804   2.557
 5731SOL    HW118092   0.526   6.876   2.520
 5731SOL    HW218093   0.520   6.721   2.572
 5732SOL     OW18094   0.766   0.056   3.644
 5732SOL    HW118095   0.835   0.077   3.713
 5732SOL    HW218096   0.711   7.002   3.674
 5733SOL     OW18097   3.118   6.682   5.965
 5733SOL    HW118098   3.053   6.702   5.891
 5733SOL    HW218099   3.092   6.734   6.047
 5734SOL     OW18100   2.193   6.074   3.286
 5734SOL    HW118101   2.174   6.047   3.192
 5734SOL    HW218102   2.137   6.021   3.349
 5735SOL     OW18103   3.046   0.989   1.646
 5735SOL    HW118104   3.088   1.036   1.569
 5735SOL    HW218105   3.032   0.892   1.623
 5736SOL     OW18106   1.095   5.220   6.676
 5736SOL    HW118107   1.133   5.146   6.621
 5736SOL    HW218108   1.157   5.298   6.674
 5737SOL     OW18109   5.442   4.419   0.667
 5737SOL    HW118110   5.465   4.363   0.747
 5737SOL    HW218111   5.508   4.494   0.659
 5738SOL     OW18112   1.334   4.127   6.032
 5738SOL    HW118113   1.430   4.116   6.007
 5738SOL    HW218114   1.276   4.088   5.960
 5739SOL     OW18115   0.987   1.610   1.539
 5739SOL    HW118116   1.082   1.627   1.568
 5739SOL    HW218117   0.973   1.511   1.530
 5740SOL     OW18118   3.998   5.746   6.197
 5740SOL    HW118119   3.930   5.673   6.198
 5740SOL    HW218120   3.951   5.835   6.205
 5741SOL     OW18121   7.007   4.577   2.971
 5741SOL    HW118122   6.967   4.594   2.882
 5741SOL    HW218123   7.003   4.660   3.027
 5742SOL     OW18124   6.784   6.432   4.858
 5742SOL    HW118125   6.796   6.531   4.870
 5742SOL    HW218126   6.727   6.415   4.778
 5743SOL     OW18127   1.747   6.781   4.228
 5743SOL    HW118128   1.679   6.716   4.263
 5743SOL    HW218129   1.704   6.840   4.160
 5744SOL     OW18130   5.411   6.588   1.778
 5744SOL    HW118131   5.422   6.492   1.803
 5744SOL    HW218132   5.450   6.603   1.687
 5745SOL     OW18133   0.831   2.003   3.661
 5745SOL    HW118134   0.863   1.972   3.572
 5745SOL    HW218135   0.811   2.101   3.657
 5746SOL     OW18136   6.251   4.356   0.157
 5746SOL    HW118137   6.251   4.308   0.245
 5746SOL    HW218138   6.172   4.418   0.153
 5747SOL     OW18139   0.496   6.389   3.008
 5747SOL    HW118140   0.558   6.312   2.994
 5747SOL    HW218141   0.511   6.458   2.937
 5748SOL     OW18142   2.082   6.604   3.227
 5748SOL    HW118143   2.144   6.528   3.212
 5748SOL    HW218144   2.119   6.686   3.184
 5749SOL     OW18145   2.308   1.472   2.927
 5749SOL    HW118146   2.408   1.478   2.929
 5749SOL    HW218147   2.274   1.462   3.021
 5750SOL     OW18148   6.423   5.415   2.874
 5750SOL    HW118149   6.409   5.484   2.945
 5750SOL    HW218150   6.439   5.326   2.917
 5751SOL     OW18151   1.898   2.872   6.066
 5751SOL    HW118152   1.922   2.969   6.071
 5751SOL    HW218153   1.976   2.820   6.031
 5752SOL     OW18154   0.072   1.337   0.211
 5752SOL    HW118155   0.068   1.338   0.111
 5752SOL    HW218156   7.004   1.335   0.248
 5753SOL     OW18157   4.567   2.156   0.397
 5753SOL    HW118158   4.665   2.142   0.380
 5753SOL    HW218159   4.514   2.113   0.325
 5754SOL     OW18160   6.200   4.921   0.824
 5754SOL    HW118161   6.290   4.955   0.851
 5754SOL    HW218162   6.195   4.913   0.724
 5755SOL     OW18163   3.481   3.583   1.354
 5755SOL    HW118164   3.564   3.630   1.382
 5755SOL    HW218165   3.419   3.574   1.432
 5756SOL     OW18166   6.888   6.702   4.464
 5756SOL    HW118167   6.935   6.790   4.463
 5756SOL    HW218168   6.921   6.647   4.540
 5757SOL     OW18169   0.376   5.782   1.804
 5757SOL    HW118170   0.457   5.739   1.844
 5757SOL    HW218171   0.391   5.797   1.706
 5758SOL     OW18172   1.820   1.463   5.644
 5758SOL    HW118173   1.773   1.457   5.733
 5758SOL    HW218174   1.852   1.372   5.617
 5759SOL     OW18175   6.190   1.843   5.387
 5759SOL    HW118176   6.173   1.813   5.480
 5759SOL    HW218177   6.110   1.893   5.353
 5760SOL     OW18178   1.535   5.311   1.545
 5760SOL    HW118179   1.510   5.353   1.632
 5760SOL    HW218180   1.482   5.352   1.471
 5761SOL     OW18181   5.276   1.053   4.831
 5761SOL    HW118182   5.298   1.089   4.922
 5761SOL    HW218183   5.343   1.087   4.765
 5762SOL     OW18184   5.755   6.206   1.456
 5762SOL    HW118185   5.706   6.204   1.369
 5762SOL    HW218186   5.740   6.295   1.500
 5763SOL     OW18187   1.486   1.580   1.321
 5763SOL    HW118188   1.555   1.579   1.248
 5763SOL    HW218189   1.459   1.487   1.343
 5764SOL     OW18190   4.660   3.295   5.896
 5764SOL    HW118191   4.675   3.234   5.974
 5764SOL    HW218192   4.563   3.300   5.875
 5765SOL     OW18193   5.874   4.893   0.290
 5765SOL    HW118194   5.938   4.824   0.323
 5765SOL    HW218195   5.869   4.969   0.355
 5766SOL     OW18196   2.707   0.766   3.424
 5766SOL    HW118197   2.800   0.788   3.395
 5766SOL    HW218198   2.693   0.797   3.518
 5767SOL     OW18199   6.577   0.143   0.981
 5767SOL    HW118200   6.620   0.056   1.006
 5767SOL    HW218201   6.564   0.147   0.882
 5768SOL     OW18202   6.084   0.378   2.802
 5768SOL    HW118203   5.997   0.398   2.847
 5768SOL    HW218204   6.121   0.461   2.761
 5769SOL     OW18205   2.173   5.695   3.287
 5769SOL    HW118206   2.109   5.619   3.279
 5769SOL    HW218207   2.263   5.667   3.254
 5770SOL     OW18208   6.298   1.196   1.615
 5770SOL    HW118209   6.355   1.265   1.571
 5770SOL    HW218210   6.346   1.108   1.615
 5771SOL     OW18211   0.470   1.511   2.043
 5771SOL    HW118212   0.505   1.602   2.063
 5771SOL    HW218213   0.530   1.467   1.976
 5772SOL     OW18214   6.842   4.487   6.837
 5772SOL    HW118215   6.799   4.405   6.800
 5772SOL    HW218216   6.936   4.466   6.864
 5773SOL     OW18217   5.406   5.968   4.452
 5773SOL    HW118218   5.476   5.897   4.461
 5773SOL    HW218219   5.410   6.029   4.530
 5774SOL     OW18220   2.883   4.996   2.451
 5774SOL    HW118221   2.885   4.931   2.528
 5774SOL    HW218222   2.969   5.047   2.449
 5775SOL     OW18223   0.808   0.406   0.290
 5775SOL    HW118224   0.844   0.316   0.268
 5775SOL    HW218225   0.880   0.461   0.334
 5776SOL     OW18226   4.934   1.276   6.066
 5776SOL    HW118227   5.002   1.203   6.065
 5776SOL    HW218228   4.970   1.356   6.016
 5777SOL     OW18229   5.888   0.810   5.757
 5777SOL    HW118230   5.935   0.890   5.721
 5777SOL    HW218231   5.824   0.776   5.689
 5778SOL     OW18232   2.378   7.019   3.887
 5778SOL    HW118233   2.286   0.016   3.853
 5778SOL    HW218234   2.396   0.047   3.969
 5779SOL     OW18235   4.187   0.958   1.778
 5779SOL    HW118236   4.234   0.957   1.867
 5779SOL    HW218237   4.125   0.880   1.772
 5780SOL     OW18238   5.868   3.492   1.390
 5780SOL    HW118239   5.780   3.532   1.416
 5780SOL    HW218240   5.879   3.403   1.434
 5781SOL     OW18241   2.739   4.849   5.160
 5781SOL    HW118242   2.755   4.863   5.258
 5781SOL    HW218243   2.780   4.762   5.132
 5782SOL     OW18244   3.991   1.464   3.362
 5782SOL    HW118245   4.008   1.454   3.264
 5782SOL    HW218246   4.035   1.388   3.411
 5783SOL     OW18247   2.618   6.484   1.527
 5783SOL    HW118248   2.601   6.582   1.527
 5783SOL    HW218249   2.531   6.435   1.519
 5784SOL     OW18250   1.251   5.322   0.410
 5784SOL    HW118251   1.267   5.354   0.503
 5784SOL    HW218252   1.234   5.224   0.411
 5785SOL     OW18253   2.864   1.185   0.127
 5785SOL    HW118254   2.825   1.196   0.219
 5785SOL    HW218255   2.942   1.247   0.116
 5786SOL     OW18256   0.841   3.444   6.850
 5786SOL    HW118257   0.893   3.500   6.785
 5786SOL    HW218258   0.858   3.347   6.831
 5787SOL     OW18259   0.396   3.216   5.547
 5787SOL    HW118260   0.450   3.243   5.467
 5787SOL    HW218261   0.301   3.203   5.519
 5788SOL     OW18262   1.915   2.602   2.375
 5788SOL    HW118263   2.009   2.573   2.358
 5788SOL    HW218264   1.852   2.531   2.345
 5789SOL     OW18265   2.976   4.980   0.027
 5789SOL    HW118266   2.938   5.023   0.109
 5789SOL    HW218267   3.064   5.022   0.006
 5790SOL     OW18268   6.538   5.820   3.060
 5790SOL    HW118269   6.519   5.830   2.962
 5790SOL    HW218270   6.633   5.846   3.079
 5791SOL     OW18271   4.339   1.501   1.210
 5791SOL    HW118272   4.303   1.593   1.227
 5791SOL    HW218273   4.327   1.445   1.292
 5792SOL     OW18274   4.356   2.128   3.193
 5792SOL    HW118275   4.298   2.128   3.111
 5792SOL    HW218276   4.452   2.139   3.165
 5793SOL     OW18277   3.818   2.493   6.858
 5793SOL    HW118278   3.767   2.475   6.942
 5793SOL    HW218279   3.916   2.478   6.875
 5794SOL     OW18280   3.596   6.000   0.046
 5794SOL    HW118281   3.591   5.905   0.076
 5794SOL    HW218282   3.634   6.003   6.978
 5795SOL     OW18283   2.271   6.875   1.597
 5795SOL    HW118284   2.258   6.970   1.568
 5795SOL    HW218285   2.199   6.819   1.557
 5796SOL     OW18286   5.192   0.831   6.550
 5796SOL    HW118287   5.184   0.743   6.503
 5796SOL    HW218288   5.111   0.887   6.531
 5797SOL     OW18289   0.117   2.921   0.716
 5797SOL    HW118290   0.117   2.987   0.792
 5797SOL    HW218291   0.176   2.954   0.643
 5798SOL     OW18292   1.849   3.494   4.318
 5798SOL    HW118293   1.927   3.449   4.273
 5798SOL    HW218294   1.880   3.580   4.358
 5799SOL     OW18295   3.060   0.192   3.254
 5799SOL    HW118296   3.033   0.101   3.222
 5799SOL    HW218297   3.044   0.199   3.352
 5800SOL     OW18298   1.166   0.138   2.075
 5800SOL    HW118299   1.107   0.141   1.994
 5800SOL    HW218300   1.118   0.095   2.151
 5801SOL     OW18301   1.753   1.409   2.321
 5801SOL    HW118302   1.703   1.462   2.391
 5801SOL    HW218303   1.696   1.332   2.291
 5802SOL     OW18304   0.649   0.330   2.895
 5802SOL    HW118305   0.607   0.249   2.936
 5802SOL    HW218306   0.591   0.410   2.912
 5803SOL     OW18307   0.312   6.435   4.486
 5803SOL    HW118308   0.259   6.380   4.550
 5803SOL    HW218309   0.313   6.390   4.397
 5804SOL     OW18310   6.244   1.974   3.324
 5804SOL    HW118311   6.175   1.935   3.262
 5804SOL    HW218312   6.316   2.017   3.271
 5805SOL     OW18313   1.317   2.928   2.255
 5805SOL    HW118314   1.351   3.001   2.195
 5805SOL    HW218315   1.321   2.958   2.350
 5806SOL     OW18316   6.606   3.753   2.266
 5806SOL    HW118317   6.552   3.741   2.350
 5806SOL    HW218318   6.607   3.850   2.241
 5807SOL     OW18319   1.324   1.231   1.985
 5807SOL    HW118320   1.363   1.320   2.008
 5807SOL    HW218321   1.388   1.159   2.011
 5808SOL     OW18322   0.229   0.494   5.875
 5808SOL    HW118323   0.226   0.409   5.823
 5808SOL    HW218324   0.233   0.571   5.813
 5809SOL     OW18325   0.336   3.021   4.718
 5809SOL    HW118326   0.302   3.082   4.790
 5809SOL    HW218327   0.267   2.952   4.697
 5810SOL     OW18328   2.639   6.165   5.026
 5810SOL    HW118329   2.606   6.155   5.119
 5810SOL    HW218330   2.705   6.241   5.022
 5811SOL     OW18331   3.970   4.427   6.751
 5811SOL    HW118332   3.888   4.385   6.790
 5811SOL    HW218333   4.001   4.502   6.811
 5812SOL     OW18334   5.715   2.618   6.203
 5812SOL    HW118335   5.736   2.712   6.177
 5812SOL    HW218336   5.645   2.581   6.141
 5813SOL     OW18337   4.959   5.188   0.586
 5813SOL    HW118338   4.963   5.089   0.580
 5813SOL    HW218339   4.949   5.227   0.494
 5814SOL     OW18340   6.194   0.968   2.321
 5814SOL    HW118341   6.192   1.067   2.335
 5814SOL    HW218342   6.104   0.931   2.343
 5815SOL     OW18343   6.164   3.048   4.483
 5815SOL    HW118344   6.072   3.076   4.509
 5815SOL    HW218345   6.180   2.954   4.514
 5816SOL     OW18346   0.182   3.905   1.848
 5816SOL    HW118347   0.229   3.967   1.786
 5816SOL    HW218348   0.114   3.956   1.901
 5817SOL     OW18349   6.028   2.926   3.114
 5817SOL    HW118350   6.113   2.911   3.064
 5817SOL    HW218351   5.977   3.001   3.071
 5818SOL     OW18352   2.331   0.390   4.774
 5818SOL    HW118353   2.349   0.344   4.861
 5818SOL    HW218354   2.273   0.331   4.717
 5819SOL     OW18355   3.863   3.980   0.388
 5819SOL    HW118356   3.881   4.077   0.373
 5819SOL    HW218357   3.784   3.952   0.333
 5820SOL     OW18358   6.627   0.122   3.001
 5820SOL    HW118359   6.577   0.145   2.918
 5820SOL    HW218360   6.653   0.205   3.049
 5821SOL     OW18361   6.342   6.845   1.826
 5821SOL    HW118362   6.349   6.944   1.838
 5821SOL    HW218363   6.389   6.798   1.901
 5822SOL     OW18364   0.499   4.169   2.636
 5822SOL    HW118365   0.583   4.129   2.672
 5822SOL    HW218366   0.430   4.097   2.626
 5823SOL     OW18367   2.538   6.851   4.170
 5823SOL    HW118368   2.485   6.787   4.113
 5823SOL    HW218369   2.478   6.890   4.241
 5824SOL     OW18370   1.818   6.767   2.254
 5824SOL    HW118371   1.765   6.713   2.319
 5824SOL    HW218372   1.827   6.717   2.168
 5825SOL     OW18373   4.791   1.408   4.279
 5825SOL    HW118374   4.694   1.433   4.285
 5825SOL    HW218375   4.801   1.330   4.217
 5826SOL     OW18376   1.506   6.288   5.072
 5826SOL    HW118377   1.572   6.233   5.021
 5826SOL    HW218378   1.455   6.230   5.135
 5827SOL     OW18379   2.111   3.763   3.481
 5827SOL    HW118380   2.155   3.847   3.512
 5827SOL    HW218381   2.130   3.750   3.384
 5828SOL     OW18382   4.736   0.665   5.586
 5828SOL    HW118383   4.794   0.690   5.508
 5828SOL    HW218384   4.648   0.710   5.578
 5829SOL     OW18385   2.100   0.834   3.241
 5829SOL    HW118386   2.075   0.929   3.260
 5829SOL    HW218387   2.023   0.789   3.195
 5830SOL     OW18388   4.047   5.144   4.268
 5830SOL    HW118389   3.993   5.143   4.184
 5830SOL    HW218390   3.987   5.160   4.346
 5831SOL     OW18391   2.140   2.408   4.692
 5831SOL    HW118392   2.200   2.328   4.697
 5831SOL    HW218393   2.178   2.474   4.627
 5832SOL     OW18394   2.944   5.565   2.612
 5832SOL    HW118395   2.880   5.526   2.546
 5832SOL    HW218396   2.924   5.662   2.625
 5833SOL     OW18397   3.762   5.470   0.388
 5833SOL    HW118398   3.756   5.565   0.360
 5833SOL    HW218399   3.849   5.454   0.435
 5834SOL     OW18400   6.730   3.463   5.969
 5834SOL    HW118401   6.765   3.403   6.042
 5834SOL    HW218402   6.670   3.532   6.009
 5835SOL     OW18403   4.457   1.321   3.255
 5835SOL    HW118404   4.418   1.309   3.347
 5835SOL    HW218405   4.398   1.276   3.188
 5836SOL     OW18406   4.587   6.363   1.873
 5836SOL    HW118407   4.672   6.414   1.857
 5836SOL    HW218408   4.541   6.346   1.785
 5837SOL     OW18409   3.088   4.519   6.450
 5837SOL    HW118410   3.098   4.617   6.430
 5837SOL    HW218411   3.028   4.507   6.529
 5838SOL     OW18412   3.623   3.099   0.294
 5838SOL    HW118413   3.599   3.121   0.389
 5838SOL    HW218414   3.717   3.066   0.290
 5839SOL     OW18415   2.062   1.976   0.530
 5839SOL    HW118416   1.988   2.008   0.589
 5839SOL    HW218417   2.150   1.998   0.572
 5840SOL     OW18418   0.868   3.875   3.178
 5840SOL    HW118419   0.891   3.963   3.219
 5840SOL    HW218420   0.915   3.866   3.090
 5841SOL     OW18421   5.343   1.568   0.048
 5841SOL    HW118422   5.353   1.508   6.993
 5841SOL    HW218423   5.395   1.652   0.033
 5842SOL     OW18424   3.199   1.941   1.408
 5842SOL    HW118425   3.289   1.974   1.437
 5842SOL    HW218426   3.141   1.925   1.488
 5843SOL     OW18427   3.808   3.462   6.974
 5843SOL    HW118428   3.779   3.479   0.044
 5843SOL    HW218429   3.896   3.507   6.958
 5844SOL     OW18430   0.259   5.591   5.210
 5844SOL    HW118431   0.200   5.511   5.194
 5844SOL    HW218432   0.307   5.613   5.125
 5845SOL     OW18433   1.795   0.178   2.658
 5845SOL    HW118434   1.709   0.127   2.654
 5845SOL    HW218435   1.792   0.243   2.734
 5846SOL     OW18436   1.052   4.172   5.222
 5846SOL    HW118437   0.971   4.230   5.230
 5846SOL    HW218438   1.091   4.180   5.131
 5847SOL     OW18439   1.607   4.137   6.341
 5847SOL    HW118440   1.654   4.060   6.299
 5847SOL    HW218441   1.611   4.216   6.279
 5848SOL     OW18442   2.514   6.178   1.706
 5848SOL    HW118443   2.513   6.087   1.665
 5848SOL    HW218444   2.445   6.235   1.661
 5849SOL     OW18445   2.903   5.350   6.823
 5849SOL    HW118446   2.886   5.383   6.730
 5849SOL    HW218447   3.000   5.361   6.846
 5850SOL     OW18448   0.470   1.958   1.594
 5850SOL    HW118449   0.495   1.907   1.512
 5850SOL    HW218450   0.462   1.894   1.671
 5851SOL     OW18451   6.394   3.614   4.499
 5851SOL    HW118452   6.342   3.534   4.529
 5851SOL    HW218453   6.489   3.587   4.481
 5852SOL     OW18454   4.660   4.300   2.137
 5852SOL    HW118455   4.621   4.307   2.229
 5852SOL    HW218456   4.590   4.319   2.069
 5853SOL     OW18457   4.519   4.871   6.573
 5853SOL    HW118458   4.431   4.831   6.597
 5853SOL    HW218459   4.504   4.951   6.515
 5854SOL     OW18460   3.246   4.970   5.102
 5854SOL    HW118461   3.191   4.888   5.115
 5854SOL    HW218462   3.193   5.050   5.129
 5855SOL     OW18463   2.429   2.483   3.288
 5855SOL    HW118464   2.337   2.491   3.250
 5855SOL    HW218465   2.441   2.391   3.327
 5856SOL     OW18466   0.699   6.751   3.024
 5856SOL    HW118467   0.792   6.722   2.999
 5856SOL    HW218468   0.687   6.847   3.000
 5857SOL     OW18469   5.507   4.587   6.797
 5857SOL    HW118470   5.499   4.652   6.872
 5857SOL    HW218471   5.573   4.515   6.822
 5858SOL     OW18472   2.315   1.551   2.559
 5858SOL    HW118473   2.280   1.542   2.466
 5858SOL    HW218474   2.263   1.490   2.619
 5859SOL     OW18475   5.572   5.698   1.963
 5859SOL    HW118476   5.476   5.727   1.959
 5859SOL    HW218477   5.611   5.723   2.051
 5860SOL     OW18478   0.275   4.317   2.718
 5860SOL    HW118479   0.246   4.373   2.641
 5860SOL    HW218480   0.356   4.264   2.693
 5861SOL     OW18481   4.848   0.845   5.958
 5861SOL    HW118482   4.882   0.834   6.052
 5861SOL    HW218483   4.906   0.793   5.896
 5862SOL     OW18484   6.779   4.973   3.267
 5862SOL    HW118485   6.833   5.041   3.218
 5862SOL    HW218486   6.685   5.006   3.277
 5863SOL     OW18487   4.311   7.022   6.053
 5863SOL    HW118488   4.307   6.932   6.096
 5863SOL    HW218489   4.404   0.034   6.060
 5864SOL     OW18490   3.903   3.465   2.582
 5864SOL    HW118491   3.827   3.521   2.550
 5864SOL    HW218492   3.868   3.389   2.637
 5865SOL     OW18493   6.627   0.523   6.946
 5865SOL    HW118494   6.671   0.578   7.016
 5865SOL    HW218495   6.537   0.561   6.925
 5866SOL     OW18496   2.972   3.346   2.493
 5866SOL    HW118497   3.052   3.293   2.465
 5866SOL    HW218498   2.928   3.384   2.412
 5867SOL     OW18499   3.444   1.563   1.669
 5867SOL    HW118500   3.453   1.548   1.571
 5867SOL    HW218501   3.510   1.633   1.698
 5868SOL     OW18502   1.027   0.594   0.743
 5868SOL    HW118503   1.030   0.615   0.645
 5868SOL    HW218504   0.997   0.500   0.756
 5869SOL     OW18505   1.315   5.747   3.329
 5869SOL    HW118506   1.355   5.659   3.355
 5869SOL    HW218507   1.222   5.732   3.295
 5870SOL     OW18508   4.266   0.323   3.877
 5870SOL    HW118509   4.211   0.402   3.904
 5870SOL    HW218510   4.274   0.259   3.954
 5871SOL     OW18511   4.108   3.293   3.748
 5871SOL    HW118512   4.068   3.212   3.704
 5871SOL    HW218513   4.207   3.285   3.745
 5872SOL     OW18514   4.466   6.335   0.595
 5872SOL    HW118515   4.392   6.323   0.529
 5872SOL    HW218516   4.552   6.351   0.546
 5873SOL     OW18517   3.586   5.966   1.828
 5873SOL    HW118518   3.664   5.936   1.884
 5873SOL    HW218519   3.557   5.890   1.770
 5874SOL     OW18520   0.809   3.949   5.031
 5874SOL    HW118521   0.749   3.884   5.077
 5874SOL    HW218522   0.903   3.934   5.061
 5875SOL     OW18523   3.809   1.731   1.285
 5875SOL    HW118524   3.713   1.754   1.299
 5875SOL    HW218525   3.822   1.633   1.300
 5876SOL     OW18526   3.288   3.719   1.957
 5876SOL    HW118527   3.371   3.693   1.907
 5876SOL    HW218528   3.295   3.688   2.051
 5877SOL     OW18529   5.331   4.749   1.461
 5877SOL    HW118530   5.281   4.698   1.531
 5877SOL    HW218531   5.328   4.699   1.375
 5878SOL     OW18532   1.962   3.811   2.792
 5878SOL    HW118533   1.936   3.906   2.807
 5878SOL    HW218534   2.019   3.780   2.867
 5879SOL     OW18535   1.115   4.133   3.961
 5879SOL    HW118536   1.135   4.189   3.881
 5879SOL    HW218537   1.164   4.168   4.040
 5880SOL     OW18538   3.683   6.115   0.287
 5880SOL    HW118539   3.644   6.093   0.197
 5880SOL    HW218540   3.769   6.066   0.299
 5881SOL     OW18541   0.956   5.793   4.199
 5881SOL    HW118542   0.969   5.861   4.127
 5881SOL    HW218543   0.960   5.838   4.289
 5882SOL     OW18544   4.784   0.469   2.828
 5882SOL    HW118545   4.713   0.539   2.837
 5882SOL    HW218546   4.778   0.406   2.906
 5883SOL     OW18547   0.544   3.338   5.303
 5883SOL    HW118548   0.608   3.268   5.270
 5883SOL    HW218549   0.594   3.421   5.325
 5884SOL     OW18550   0.829   0.827   3.560
 5884SOL    HW118551   0.834   0.836   3.460
 5884SOL    HW218552   0.758   0.761   3.583
 5885SOL     OW18553   6.130   6.234   1.389
 5885SOL    HW118554   6.072   6.160   1.355
 5885SOL    HW218555   6.088   6.322   1.368
 5886SOL     OW18556   0.293   1.317   6.518
 5886SOL    HW118557   0.364   1.386   6.531
 5886SOL    HW218558   0.319   1.256   6.443
 5887SOL     OW18559   3.723   6.432   2.862
 5887SOL    HW118560   3.660   6.423   2.785
 5887SOL    HW218561   3.801   6.489   2.835
 5888SOL     OW18562   0.591   0.972   2.873
 5888SOL    HW118563   0.550   0.955   2.784
 5888SOL    HW218564   0.683   1.010   2.861
 5889SOL     OW18565   2.626   6.915   6.602
 5889SOL    HW118566   2.633   7.005   6.559
 5889SOL    HW218567   2.529   6.894   6.618
 5890SOL     OW18568   3.321   4.652   5.647
 5890SOL    HW118569   3.237   4.681   5.693
 5890SOL    HW218570   3.306   4.564   5.602
 5891SOL     OW18571   2.237   3.915   6.600
 5891SOL    HW118572   2.159   3.947   6.546
 5891SOL    HW218573   2.245   3.816   6.592
 5892SOL     OW18574   2.123   6.752   2.210
 5892SOL    HW118575   2.171   6.760   2.297
 5892SOL    HW218576   2.028   6.780   2.221
 5893SOL     OW18577   2.076   1.119   3.338
 5893SOL    HW118578   2.171   1.145   3.320
 5893SOL    HW218579   2.018   1.200   3.330
 5894SOL     OW18580   0.781   3.284   3.762
 5894SOL    HW118581   0.698   3.272   3.708
 5894SOL    HW218582   0.776   3.225   3.843
 5895SOL     OW18583   5.803   4.043   3.498
 5895SOL    HW118584   5.774   4.058   3.592
 5895SOL    HW218585   5.844   4.126   3.462
 5896SOL     OW18586   4.781   3.010   5.698
 5896SOL    HW118587   4.776   2.963   5.610
 5896SOL    HW218588   4.864   3.065   5.702
 5897SOL     OW18589   4.427   6.453   1.644
 5897SOL    HW118590   4.363   6.413   1.710
 5897SOL    HW218591   4.399   6.546   1.622
 5898SOL     OW18592   2.764   6.656   2.992
 5898SOL    HW118593   2.698   6.641   2.918
 5898SOL    HW218594   2.714   6.666   3.079
 5899SOL     OW18595   5.605   0.810   3.528
 5899SOL    HW118596   5.691   0.796   3.478
 5899SOL    HW218597   5.567   0.721   3.553
 5900SOL     OW18598   3.756   4.887   2.581
 5900SOL    HW118599   3.671   4.835   2.587
 5900SOL    HW218600   3.738   4.978   2.546
 5901SOL     OW18601   3.200   6.388   4.512
 5901SOL    HW118602   3.263   6.378   4.435
 5901SOL    HW218603   3.150   6.302   4.525
 5902SOL     OW18604   6.193   2.000   6.988
 5902SOL    HW118605   6.145   2.087   6.979
 5902SOL    HW218606   6.136   1.926   6.951
 5903SOL     OW18607   6.632   3.830   6.652
 5903SOL    HW118608   6.566   3.900   6.628
 5903SOL    HW218609   6.634   3.759   6.582
 5904SOL     OW18610   0.728   3.887   1.966
 5904SOL    HW118611   0.642   3.881   1.916
 5904SOL    HW218612   0.749   3.798   2.007
 5905SOL     OW18613   6.481   4.893   2.011
 5905SOL    HW118614   6.392   4.847   2.006
 5905SOL    HW218615   6.548   4.832   2.053
 5906SOL     OW18616   0.242   1.294   3.602
 5906SOL    HW118617   0.268   1.388   3.582
 5906SOL    HW218618   0.152   1.293   3.645
 5907SOL     OW18619   1.995   0.543   2.111
 5907SOL    HW118620   1.917   0.490   2.077
 5907SOL    HW218621   2.020   0.511   2.202
 5908SOL     OW18622   0.495   2.506   6.162
 5908SOL    HW118623   0.447   2.591   6.182
 5908SOL    HW218624   0.588   2.526   6.132
 5909SOL     OW18625   6.706   4.044   0.733
 5909SOL    HW118626   6.780   4.028   0.667
 5909SOL    HW218627   6.620   4.008   0.696
 5910SOL     OW18628   1.891   1.733   3.887
 5910SOL    HW118629   1.970   1.784   3.923
 5910SOL    HW218630   1.873   1.654   3.946
 5911SOL     OW18631   6.484   5.943   6.695
 5911SOL    HW118632   6.461   6.034   6.731
 5911SOL    HW218633   6.555   5.952   6.625
 5912SOL     OW18634   0.661   0.317   4.129
 5912SOL    HW118635   0.602   0.243   4.096
 5912SOL    HW218636   0.740   0.326   4.070
 5913SOL     OW18637   6.278   2.084   0.605
 5913SOL    HW118638   6.279   2.052   0.700
 5913SOL    HW218639   6.187   2.069   0.566
 5914SOL     OW18640   1.202   6.099   0.138
 5914SOL    HW118641   1.206   6.135   0.231
 5914SOL    HW218642   1.294   6.101   0.098
 5915SOL     OW18643   3.587   1.591   5.920
 5915SOL    HW118644   3.578   1.686   5.890
 5915SOL    HW218645   3.601   1.589   6.019
 5916SOL     OW18646   0.722   6.872   1.894
 5916SOL    HW118647   0.703   6.966   1.922
 5916SOL    HW218648   0.796   6.834   1.949
 5917SOL     OW18649   3.593   4.149   6.951
 5917SOL    HW118650   3.579   4.141   6.852
 5917SOL    HW218651   3.648   4.230   6.971
 5918SOL     OW18652   2.929   6.748   4.762
 5918SOL    HW118653   2.862   6.787   4.699
 5918SOL    HW218654   2.881   6.693   4.831
 5919SOL     OW18655   3.393   3.203   4.522
 5919SOL    HW118656   3.462   3.270   4.547
 5919SOL    HW218657   3.368   3.150   4.603
 5920SOL     OW18658   6.880   0.277   5.755
 5920SOL    HW118659   6.877   0.354   5.818
 5920SOL    HW218660   6.930   0.201   5.796
 5921SOL     OW18661   2.436   4.198   6.606
 5921SOL    HW118662   2.427   4.218   6.508
 5921SOL    HW218663   2.356   4.148   6.637
 5922SOL     OW18664   4.992   2.817   2.498
 5922SOL    HW118665   5.011   2.779   2.588
 5922SOL    HW218666   4.919   2.763   2.454
 5923SOL     OW18667   5.875   1.316   3.628
 5923SOL    HW118668   5.813   1.385   3.591
 5923SOL    HW218669   5.822   1.245   3.675
 5924SOL     OW18670   5.092   6.881   3.645
 5924SOL    HW118671   5.162   6.930   3.594
 5924SOL    HW218672   5.002   6.898   3.604
 5925SOL     OW18673   4.618   1.240   0.902
 5925SOL    HW118674   4.683   1.302   0.858
 5925SOL    HW218675   4.661   1.198   0.982
 5926SOL     OW18676   5.168   4.302   3.404
 5926SOL    HW118677   5.195   4.227   3.345
 5926SOL    HW218678   5.236   4.315   3.476
 5927SOL     OW18679   0.312   5.243   2.062
 5927SOL    HW118680   0.339   5.150   2.037
 5927SOL    HW218681   0.274   5.243   2.155
 5928SOL     OW18682   3.087   6.785   6.941
 5928SOL    HW118683   3.082   6.872   6.892
 5928SOL    HW218684   3.001   6.736   6.930
 5929SOL     OW18685   1.703   0.810   7.005
 5929SOL    HW118686   1.764   0.848   6.936
 5929SOL    HW218687   1.685   0.714   6.985
 5930SOL     OW18688   1.629   4.057   2.642
 5930SOL    HW118689   1.702   4.037   2.576
 5930SOL    HW218690   1.651   4.141   2.691
 5931SOL     OW18691   5.165   6.592   2.627
 5931SOL    HW118692   5.085   6.651   2.636
 5931SOL    HW218693   5.198   6.595   2.532
 5932SOL     OW18694   2.994   0.352   6.829
 5932SOL    HW118695   3.056   0.428   6.845
 5932SOL    HW218696   2.978   0.342   6.730
 5933SOL     OW18697   5.983   6.072   4.645
 5933SOL    HW118698   5.977   6.084   4.744
 5933SOL    HW218699   6.035   6.148   4.605
 5934SOL     OW18700   2.750   3.582   6.991
 5934SOL    HW118701   2.847   3.573   7.011
 5934SOL    HW218702   2.697   3.551   0.045
 5935SOL     OW18703   0.956   5.984   5.864
 5935SOL    HW118704   1.011   5.904   5.888
 5935SOL    HW218705   1.007   6.042   5.801
 5936SOL     OW18706   3.918   2.967   2.251
 5936SOL    HW118707   3.881   2.997   2.163
 5936SOL    HW218708   4.018   2.966   2.246
 5937SOL     OW18709   0.372   3.122   0.969
 5937SOL    HW118710   0.407   3.131   1.062
 5937SOL    HW218711   0.420   3.186   0.909
 5938SOL     OW18712   0.538   4.286   3.999
 5938SOL    HW118713   0.557   4.189   4.014
 5938SOL    HW218714   0.601   4.322   3.930
 5939SOL     OW18715   3.758   1.375   5.461
 5939SOL    HW118716   3.692   1.439   5.500
 5939SOL    HW218717   3.849   1.417   5.461
 5940SOL     OW18718   4.865   5.510   1.754
 5940SOL    HW118719   4.850   5.440   1.684
 5940SOL    HW218720   4.963   5.522   1.768
 5941SOL     OW18721   0.217   2.274   2.843
 5941SOL    HW118722   0.151   2.216   2.794
 5941SOL    HW218723   0.191   2.278   2.939
 5942SOL     OW18724   4.970   3.001   6.360
 5942SOL    HW118725   4.983   3.028   6.265
 5942SOL    HW218726   5.022   3.063   6.420
 5943SOL     OW18727   2.661   4.243   1.690
 5943SOL    HW118728   2.639   4.340   1.704
 5943SOL    HW218729   2.580   4.188   1.711
 5944SOL     OW18730   6.385   3.271   5.751
 5944SOL    HW118731   6.354   3.231   5.665
 5944SOL    HW218732   6.485   3.270   5.754
 5945SOL     OW18733   6.712   6.753   4.965
 5945SOL    HW118734   6.634   6.733   5.024
 5945SOL    HW218735   6.681   6.760   4.870
 5946SOL     OW18736   2.182   4.118   6.755
 5946SOL    HW118737   2.213   4.024   6.737
 5946SOL    HW218738   2.090   4.115   6.795
 5947SOL     OW18739   4.125   3.290   4.391
 5947SOL    HW118740   4.052   3.358   4.384
 5947SOL    HW218741   4.159   3.267   4.300
 5948SOL     OW18742   4.827   3.417   1.887
 5948SOL    HW118743   4.873   3.384   1.970
 5948SOL    HW218744   4.862   3.507   1.863
 5949SOL     OW18745   0.254   4.592   2.940
 5949SOL    HW118746   0.158   4.565   2.952
 5949SOL    HW218747   0.264   4.688   2.966
 5950SOL     OW18748   3.896   0.287   4.466
 5950SOL    HW118749   3.836   0.209   4.452
 5950SOL    HW218750   3.893   0.315   4.562
 5951SOL     OW18751   0.228   3.744   6.911
 5951SOL    HW118752   0.215   3.805   6.833
 5951SOL    HW218753   0.325   3.738   6.932
 5952SOL     OW18754   4.263   4.580   1.487
 5952SOL    HW118755   4.208   4.655   1.523
 5952SOL    HW218756   4.360   4.605   1.491
 5953SOL     OW18757   6.835   3.072   5.087
 5953SOL    HW118758   6.849   2.987   5.036
 5953SOL    HW218759   6.907   3.081   5.156
 5954SOL     OW18760   1.690   6.069   4.278
 5954SOL    HW118761   1.612   6.132   4.271
 5954SOL    HW218762   1.659   5.976   4.261
 5955SOL     OW18763   5.351   3.532   0.182
 5955SOL    HW118764   5.416   3.468   0.140
 5955SOL    HW218765   5.402   3.598   0.238
 5956SOL     OW18766   5.229   2.588   5.497
 5956SOL    HW118767   5.193   2.630   5.414
 5956SOL    HW218768   5.312   2.536   5.475
 5957SOL     OW18769   0.035   1.579   3.472
 5957SOL    HW118770   0.127   1.555   3.443
 5957SOL    HW218771   7.000   1.499   3.469
 5958SOL     OW18772   2.912   6.802   3.293
 5958SOL    HW118773   2.813   6.805   3.278
 5958SOL    HW218774   2.957   6.865   3.230
 5959SOL     OW18775   5.165   2.401   3.818
 5959SOL    HW118776   5.098   2.475   3.828
 5959SOL    HW218777   5.126   2.316   3.853
 5960SOL     OW18778   4.604   0.386   5.993
 5960SOL    HW118779   4.594   0.300   6.043
 5960SOL    HW218780   4.597   0.369   5.895
 5961SOL     OW18781   2.949   2.167   3.315
 5961SOL    HW118782   2.987   2.095   3.258
 5961SOL    HW218783   2.864   2.136   3.357
 5962SOL     OW18784   5.140   5.805   0.440
 5962SOL    HW118785   5.164   5.735   0.508
 5962SOL    HW218786   5.045   5.834   0.454
 5963SOL     OW18787   2.752   3.831   0.269
 5963SOL    HW118788   2.656   3.804   0.269
 5963SOL    HW218789   2.780   3.854   0.175
 5964SOL     OW18790   2.543   6.727   2.234
 5964SOL    HW118791   2.550   6.627   2.227
 5964SOL    HW218792   2.490   6.762   2.157
 5965SOL     OW18793   2.379   0.042   0.692
 5965SOL    HW118794   2.364   0.094   0.777
 5965SOL    HW218795   2.315   0.073   0.622
 5966SOL     OW18796   2.983   1.637   4.959
 5966SOL    HW118797   3.019   1.548   4.931
 5966SOL    HW218798   3.053   1.687   5.010
 5967SOL     OW18799   4.412   2.088   4.873
 5967SOL    HW118800   4.409   2.188   4.880
 5967SOL    HW218801   4.321   2.052   4.894
 5968SOL     OW18802   5.689   2.628   1.515
 5968SOL    HW118803   5.779   2.627   1.471
 5968SOL    HW218804   5.640   2.711   1.487
 5969SOL     OW18805   5.569   0.227   0.314
 5969SOL    HW118806   5.530   0.135   0.324
 5969SOL    HW218807   5.506   0.285   0.263
 5970SOL     OW18808   0.031   3.643   0.262
 5970SOL    HW118809   7.023   3.685   0.177
 5970SOL    HW218810   0.069   3.553   0.243
 5971SOL     OW18811   6.817   6.556   4.075
 5971SOL    HW118812   6.816   6.644   4.122
 5971SOL    HW218813   6.862   6.488   4.133
 5972SOL     OW18814   5.246   5.164   0.252
 5972SOL    HW118815   5.332   5.164   0.302
 5972SOL    HW218816   5.192   5.084   0.277
 5973SOL     OW18817   3.101   1.454   2.625
 5973SOL    HW118818   3.062   1.442   2.534
 5973SOL    HW218819   3.146   1.543   2.630
 5974SOL     OW18820   5.495   1.742   5.387
 5974SOL    HW118821   5.460   1.649   5.374
 5974SOL    HW218822   5.427   1.797   5.435
 5975SOL     OW18823   4.644   4.501   1.135
 5975SOL    HW118824   4.734   4.509   1.177
 5975SOL    HW218825   4.591   4.585   1.152
 5976SOL     OW18826   2.393   3.356   5.449
 5976SOL    HW118827   2.395   3.434   5.513
 5976SOL    HW218828   2.315   3.298   5.471
 5977SOL     OW18829   6.856   4.525   0.618
 5977SOL    HW118830   6.896   4.491   0.703
 5977SOL    HW218831   6.756   4.523   0.624
 5978SOL     OW18832   2.756   3.654   6.473
 5978SOL    HW118833   2.834   3.615   6.522
 5978SOL    HW218834   2.705   3.715   6.533
 5979SOL     OW18835   6.011   0.601   1.925
 5979SOL    HW118836   5.963   0.517   1.901
 5979SOL    HW218837   5.974   0.637   2.011
 5980SOL     OW18838   2.909   3.144   1.193
 5980SOL    HW118839   2.882   3.102   1.106
 5980SOL    HW218840   2.956   3.076   1.249
 5981SOL     OW18841   3.154   2.137   0.170
 5981SOL    HW118842   3.239   2.142   0.223
 5981SOL    HW218843   3.119   2.229   0.154
 5982SOL     OW18844   5.111   3.163   0.473
 5982SOL    HW118845   5.168   3.245   0.484
 5982SOL    HW218846   5.066   3.143   0.560
 5983SOL     OW18847   6.889   0.778   3.605
 5983SOL    HW118848   6.975   0.726   3.602
 5983SOL    HW218849   6.907   0.874   3.584
 5984SOL     OW18850   5.671   0.056   4.330
 5984SOL    HW118851   5.645   0.116   4.406
 5984SOL    HW218852   5.705   0.110   4.254
 5985SOL     OW18853   6.458   3.335   2.126
 5985SOL    HW118854   6.550   3.332   2.087
 5985SOL    HW218855   6.435   3.429   2.149
 5986SOL     OW18856   3.813   3.305   4.445
 5986SOL    HW118857   3.837   3.395   4.408
 5986SOL    HW218858   3.785   3.245   4.370
 5987SOL     OW18859   0.140   6.301   5.419
 5987SOL    HW118860   0.108   6.390   5.453
 5987SOL    HW218861   0.232   6.311   5.382
 5988SOL     OW18862   1.096   2.570   6.439
 5988SOL    HW118863   1.134   2.643   6.383
 5988SOL    HW218864   1.083   2.488   6.382
 5989SOL     OW18865   0.623   6.604   6.254
 5989SOL    HW118866   0.610   6.505   6.262
 5989SOL    HW218867   0.589   6.649   6.336
 5990SOL     OW18868   2.698   4.820   1.916
 5990SOL    HW118869   2.770   4.752   1.936
 5990SOL    HW218870   2.615   4.772   1.887
 5991SOL     OW18871   4.419   0.419   0.431
 5991SOL    HW118872   4.326   0.448   0.407
 5991SOL    HW218873   4.477   0.500   0.440
 5992SOL     OW18874   3.319   6.224   2.255
 5992SOL    HW118875   3.386   6.280   2.206
 5992SOL    HW218876   3.313   6.254   2.350
 5993SOL     OW18877   5.503   1.789   7.002
 5993SOL    HW118878   5.585   1.732   6.997
 5993SOL    HW218879   5.511   1.854   0.052
 5994SOL     OW18880   0.334   3.322   0.017
 5994SOL    HW118881   0.428   3.326   0.051
 5994SOL    HW218882   0.281   3.258   0.073
 5995SOL     OW18883   4.848   3.550   1.447
 5995SOL    HW118884   4.899   3.594   1.373
 5995SOL    HW218885   4.837   3.616   1.522
 5996SOL     OW18886   2.870   5.697   1.389
 5996SOL    HW118887   2.899   5.675   1.483
 5996SOL    HW218888   2.951   5.718   1.334
 5997SOL     OW18889   6.359   0.552   3.904
 5997SOL    HW118890   6.316   0.592   3.985
 5997SOL    HW218891   6.456   0.537   3.923
 5998SOL     OW18892   6.237   5.603   0.203
 5998SOL    HW118893   6.296   5.581   0.125
 5998SOL    HW218894   6.285   5.667   0.263
 5999SOL     OW18895   5.155   3.071   1.696
 5999SOL    HW118896   5.215   3.145   1.667
 5999SOL    HW218897   5.123   3.088   1.789
 6000SOL     OW18898   0.309   4.112   0.883
 6000SOL    HW118899   0.293   4.209   0.861
 6000SOL    HW218900   0.380   4.077   0.822
 6001SOL     OW18901   6.567   5.710   5.855
 6001SOL    HW118902   6.567   5.810   5.865
 6001SOL    HW218903   6.474   5.675   5.870
 6002SOL     OW18904   5.648   4.507   5.316
 6002SOL    HW118905   5.737   4.546   5.292
 6002SOL    HW218906   5.587   4.580   5.346
 6003SOL     OW18907   1.985   2.650   4.818
 6003SOL    HW118908   1.969   2.599   4.902
 6003SOL    HW218909   1.996   2.586   4.742
 6004SOL     OW18910   5.305   2.130   4.481
 6004SOL    HW118911   5.271   2.038   4.499
 6004SOL    HW218912   5.405   2.128   4.475
 6005SOL     OW18913   4.277   4.508   6.599
 6005SOL    HW118914   4.222   4.491   6.516
 6005SOL    HW218915   4.255   4.439   6.668
 6006SOL     OW18916   3.349   6.161   6.967
 6006SOL    HW118917   3.426   6.103   6.996
 6006SOL    HW218918   3.273   6.147   0.005
 6007SOL     OW18919   2.481   5.678   5.861
 6007SOL    HW118920   2.464   5.591   5.909
 6007SOL    HW218921   2.548   5.664   5.789
 6008SOL     OW18922   3.265   3.991   6.406
 6008SOL    HW118923   3.349   3.956   6.449
 6008SOL    HW218924   3.261   3.960   6.311
 6009SOL     OW18925   4.012   5.335   3.063
 6009SOL    HW118926   4.020   5.260   2.997
 6009SOL    HW218927   3.975   5.415   3.016
 6010SOL     OW18928   0.210   4.960   3.857
 6010SOL    HW118929   0.230   5.058   3.867
 6010SOL    HW218930   0.146   4.932   3.929
 6011SOL     OW18931   6.032   1.774   2.426
 6011SOL    HW118932   6.130   1.791   2.431
 6011SOL    HW218933   6.016   1.676   2.417
 6012SOL     OW18934   6.834   0.325   6.209
 6012SOL    HW118935   6.873   0.260   6.143
 6012SOL    HW218936   6.895   0.402   6.220
 6013SOL     OW18937   6.142   1.245   2.038
 6013SOL    HW118938   6.148   1.156   1.993
 6013SOL    HW218939   6.077   1.303   1.989
 6014SOL     OW18940   3.090   3.896   3.911
 6014SOL    HW118941   3.031   3.853   3.979
 6014SOL    HW218942   3.156   3.956   3.956
 6015SOL     OW18943   6.150   0.625   4.100
 6015SOL    HW118944   6.200   0.672   4.173
 6015SOL    HW218945   6.086   0.689   4.058
 6016SOL     OW18946   4.647   1.740   4.372
 6016SOL    HW118947   4.602   1.653   4.352
 6016SOL    HW218948   4.698   1.732   4.458
 6017SOL     OW18949   0.971   1.322   5.711
 6017SOL    HW118950   0.962   1.374   5.626
 6017SOL    HW218951   0.888   1.269   5.725
 6018SOL     OW18952   2.803   1.086   4.531
 6018SOL    HW118953   2.860   1.132   4.599
 6018SOL    HW218954   2.857   1.067   4.449
 6019SOL     OW18955   6.434   4.345   6.985
 6019SOL    HW118956   6.385   4.339   0.048
 6019SOL    HW218957   6.408   4.430   6.938
 6020SOL     OW18958   0.795   5.007   5.733
 6020SOL    HW118959   0.856   4.953   5.675
 6020SOL    HW218960   0.807   4.979   5.828
 6021SOL     OW18961   6.105   0.011   3.712
 6021SOL    HW118962   6.051   0.029   3.629
 6021SOL    HW218963   6.202   0.018   3.690
 6022SOL     OW18964   6.395   2.492   1.385
 6022SOL    HW118965   6.347   2.409   1.357
 6022SOL    HW218966   6.465   2.469   1.452
 6023SOL     OW18967   3.855   0.377   1.643
 6023SOL    HW118968   3.772   0.322   1.646
 6023SOL    HW218969   3.831   0.472   1.623
 6024SOL     OW18970   1.484   6.125   0.094
 6024SOL    HW118971   1.503   6.196   0.026
 6024SOL    HW218972   1.537   6.043   0.072
 6025SOL     OW18973   3.137   0.293   4.691
 6025SOL    HW118974   3.042   0.264   4.704
 6025SOL    HW218975   3.149   0.330   4.599
 6026SOL     OW18976   5.754   5.928   4.709
 6026SOL    HW118977   5.819   5.997   4.676
 6026SOL    HW218978   5.699   5.968   4.783
 6027SOL     OW18979   5.299   4.355   6.697
 6027SOL    HW118980   5.341   4.441   6.668
 6027SOL    HW218981   5.226   4.374   6.763
 6028SOL     OW18982   5.929   5.021   5.743
 6028SOL    HW118983   5.906   4.951   5.811
 6028SOL    HW218984   5.902   5.111   5.776
 6029SOL     OW18985   2.911   1.042   2.797
 6029SOL    HW118986   3.003   1.012   2.822
 6029SOL    HW218987   2.907   1.058   2.698
 6030SOL     OW18988   5.918   3.421   4.459
 6030SOL    HW118989   5.851   3.364   4.506
 6030SOL    HW218990   5.941   3.379   4.371
 6031SOL     OW18991   7.021   6.082   5.456
 6031SOL    HW118992   0.046   6.169   5.459
 6031SOL    HW218993   0.041   6.020   5.392
 6032SOL     OW18994   3.604   6.060   3.176
 6032SOL    HW118995   3.531   6.025   3.235
 6032SOL    HW218996   3.679   5.994   3.174
 6033SOL     OW18997   1.086   1.536   2.546
 6033SOL    HW118998   1.070   1.523   2.448
 6033SOL    HW218999   1.105   1.632   2.564
 6034SOL     OW19000   1.255   6.626   1.170
 6034SOL    HW119001   1.163   6.633   1.209
 6034SOL    HW219002   1.271   6.532   1.140
 6035SOL     OW19003   2.213   0.476   2.849
 6035SOL    HW119004   2.276   0.399   2.842
 6035SOL    HW219005   2.239   0.547   2.783
 6036SOL     OW19006   6.481   3.295   0.939
 6036SOL    HW119007   6.500   3.342   1.025
 6036SOL    HW219008   6.560   3.239   0.913
 6037SOL     OW19009   5.012   1.839   6.842
 6037SOL    HW119010   4.955   1.908   6.887
 6037SOL    HW219011   5.100   1.879   6.818
 6038SOL     OW19012   1.388   1.449   6.153
 6038SOL    HW119013   1.392   1.403   6.241
 6038SOL    HW219014   1.368   1.382   6.081
 6039SOL     OW19015   4.071   3.460   3.413
 6039SOL    HW119016   4.037   3.484   3.504
 6039SOL    HW219017   4.010   3.393   3.372
 6040SOL     OW19018   0.448   1.510   0.368
 6040SOL    HW119019   0.531   1.563   0.354
 6040SOL    HW219020   0.369   1.571   0.371
 6041SOL     OW19021   2.451   3.581   5.580
 6041SOL    HW119022   2.467   3.611   5.486
 6041SOL    HW219023   2.507   3.635   5.642
 6042SOL     OW19024   3.387   5.916   3.869
 6042SOL    HW119025   3.296   5.887   3.838
 6042SOL    HW219026   3.413   6.000   3.821
 6043SOL     OW19027   2.441   0.366   3.201
 6043SOL    HW119028   2.375   0.304   3.243
 6043SOL    HW219029   2.492   0.413   3.273
 6044SOL     OW19030   0.975   3.466   1.241
 6044SOL    HW119031   1.059   3.516   1.218
 6044SOL    HW219032   0.898   3.531   1.245
 6045SOL     OW19033   5.522   1.797   3.446
 6045SOL    HW119034   5.521   1.737   3.367
 6045SOL    HW219035   5.533   1.892   3.416
 6046SOL     OW19036   3.449   2.915   2.841
 6046SOL    HW119037   3.370   2.930   2.781
 6046SOL    HW219038   3.533   2.918   2.786
 6047SOL     OW19039   6.890   1.695   0.753
 6047SOL    HW119040   6.985   1.726   0.755
 6047SOL    HW219041   6.829   1.771   0.773
 6048SOL     OW19042   5.755   5.972   4.024
 6048SOL    HW119043   5.842   5.928   4.044
 6048SOL    HW219044   5.770   6.069   4.004
 6049SOL     OW19045   4.592   4.850   6.068
 6049SOL    HW119046   4.688   4.861   6.042
 6049SOL    HW219047   4.587   4.819   6.163
 6050SOL     OW19048   3.010   6.202   2.256
 6050SOL    HW119049   2.980   6.295   2.278
 6050SOL    HW219050   3.103   6.189   2.291
 6051SOL     OW19051   0.515   1.184   3.165
 6051SOL    HW119052   0.482   1.204   3.073
 6051SOL    HW219053   0.495   1.262   3.225
 6052SOL     OW19054   4.894   5.843   0.318
 6052SOL    HW119055   4.861   5.749   0.327
 6052SOL    HW219056   4.879   5.875   0.224
 6053SOL     OW19057   3.864   2.594   5.945
 6053SOL    HW119058   3.861   2.691   5.918
 6053SOL    HW219059   3.955   2.557   5.926
 6054SOL     OW19060   3.776   4.361   0.757
 6054SOL    HW119061   3.795   4.263   0.769
 6054SOL    HW219062   3.784   4.407   0.845
 6055SOL     OW19063   3.017   3.917   0.957
 6055SOL    HW119064   2.946   3.852   0.985
 6055SOL    HW219065   3.106   3.873   0.963
 6056SOL     OW19066   5.238   6.013   3.964
 6056SOL    HW119067   5.268   6.034   4.057
 6056SOL    HW219068   5.300   6.056   3.898
 6057SOL     OW19069   4.842   0.566   4.259
 6057SOL    HW119070   4.842   0.480   4.310
 6057SOL    HW219071   4.821   0.549   4.163
 6058SOL     OW19072   6.009   2.565   5.952
 6058SOL    HW119073   5.963   2.652   5.931
 6058SOL    HW219074   6.080   2.582   6.020
 6059SOL     OW19075   4.397   2.814   0.047
 6059SOL    HW119076   4.375   2.881   0.118
 6059SOL    HW219077   4.493   2.788   0.053
 6060SOL     OW19078   2.181   3.275   0.153
 6060SOL    HW119079   2.081   3.282   0.150
 6060SOL    HW219080   2.211   3.201   0.093
 6061SOL     OW19081   3.000   4.496   6.927
 6061SOL    HW119082   2.970   4.591   6.937
 6061SOL    HW219083   3.067   4.475   6.999
 6062SOL     OW19084   2.074   2.212   6.803
 6062SOL    HW119085   2.105   2.295   6.755
 6062SOL    HW219086   1.995   2.174   6.757
 6063SOL     OW19087   4.750   4.176   6.335
 6063SOL    HW119088   4.664   4.186   6.385
 6063SOL    HW219089   4.760   4.252   6.271
 6064SOL     OW19090   6.659   5.353   1.112
 6064SOL    HW119091   6.698   5.297   1.186
 6064SOL    HW219092   6.649   5.448   1.144
 6065SOL     OW19093   1.541   0.114   2.360
 6065SOL    HW119094   1.578   0.116   2.453
 6065SOL    HW219095   1.613   0.085   2.297
 6066SOL     OW19096   5.377   5.577   3.567
 6066SOL    HW119097   5.380   5.568   3.667
 6066SOL    HW219098   5.444   5.645   3.537
 6067SOL     OW19099   6.357   6.520   6.463
 6067SOL    HW119100   6.282   6.548   6.402
 6067SOL    HW219101   6.444   6.543   6.421
 6068SOL     OW19102   4.887   2.552   4.195
 6068SOL    HW119103   4.898   2.528   4.292
 6068SOL    HW219104   4.791   2.571   4.176
 6069SOL     OW19105   0.159   4.418   5.939
 6069SOL    HW119106   0.059   4.421   5.939
 6069SOL    HW219107   0.190   4.323   5.945
 6070SOL     OW19108   2.552   1.069   0.252
 6070SOL    HW119109   2.505   1.143   0.203
 6070SOL    HW219110   2.594   1.007   0.186
 6071SOL     OW19111   6.026   1.022   5.617
 6071SOL    HW119112   5.982   1.104   5.654
 6071SOL    HW219113   6.089   1.048   5.544
 6072SOL     OW19114   7.023   2.521   0.697
 6072SOL    HW119115   0.017   2.608   0.650
 6072SOL    HW219116   7.025   2.535   0.796
 6073SOL     OW19117   5.076   2.870   0.073
 6073SOL    HW119118   5.000   2.935   0.066
 6073SOL    HW219119   5.107   2.865   0.168
 6074SOL     OW19120   0.650   6.616   2.575
 6074SOL    HW119121   0.658   6.546   2.504
 6074SOL    HW219122   0.721   6.686   2.561
 6075SOL     OW19123   5.432   0.418   6.421
 6075SOL    HW119124   5.528   0.392   6.406
 6075SOL    HW219125   5.377   0.336   6.433
 6076SOL     OW19126   0.947   6.002   2.773
 6076SOL    HW119127   0.964   6.079   2.834
 6076SOL    HW219128   0.848   5.995   2.756
 6077SOL     OW19129   5.491   6.962   2.746
 6077SOL    HW119130   5.545   0.019   2.767
 6077SOL    HW219131   5.457   6.922   2.832
 6078SOL     OW19132   4.145   4.183   0.629
 6078SOL    HW119133   4.193   4.105   0.588
 6078SOL    HW219134   4.107   4.240   0.556
 6079SOL     OW19135   2.988   2.867   0.612
 6079SOL    HW119136   3.036   2.926   0.677
 6079SOL    HW219137   2.889   2.886   0.617
 6080SOL     OW19138   6.978   5.031   6.415
 6080SOL    HW119139   6.977   5.057   6.512
 6080SOL    HW219140   7.012   4.938   6.406
 6081SOL     OW19141   1.225   3.984   3.635
 6081SOL    HW119142   1.151   3.941   3.686
 6081SOL    HW219143   1.244   4.075   3.673
 6082SOL     OW19144   4.978   1.050   1.029
 6082SOL    HW119145   5.060   1.016   0.984
 6082SOL    HW219146   4.898   1.000   0.993
 6083SOL     OW19147   4.734   0.681   6.614
 6083SOL    HW119148   4.758   0.695   6.710
 6083SOL    HW219149   4.637   0.657   6.607
 6084SOL     OW19150   0.297   6.001   2.441
 6084SOL    HW119151   0.319   6.099   2.443
 6084SOL    HW219152   0.220   5.986   2.380
 6085SOL     OW19153   0.340   0.058   0.730
 6085SOL    HW119154   0.289   0.142   0.711
 6085SOL    HW219155   0.438   0.079   0.733
 6086SOL     OW19156   3.521   4.135   6.688
 6086SOL    HW119157   3.550   4.230   6.674
 6086SOL    HW219158   3.424   4.126   6.667
 6087SOL     OW19159   4.972   6.987   0.724
 6087SOL    HW119160   5.065   6.952   0.712
 6087SOL    HW219161   4.908   6.910   0.733
 6088SOL     OW19162   5.277   5.973   3.472
 6088SOL    HW119163   5.346   5.902   3.486
 6088SOL    HW219164   5.232   5.958   3.383
 6089SOL     OW19165   6.205   3.692   4.087
 6089SOL    HW119166   6.144   3.693   4.008
 6089SOL    HW219167   6.183   3.613   4.145
 6090SOL     OW19168   3.985   5.902   3.880
 6090SOL    HW119169   3.887   5.921   3.874
 6090SOL    HW219170   4.000   5.828   3.946
 6091SOL     OW19171   1.340   1.728   2.085
 6091SOL    HW119172   1.278   1.652   2.069
 6091SOL    HW219173   1.340   1.750   2.183
 6092SOL     OW19174   2.840   6.041   0.847
 6092SOL    HW119175   2.823   6.033   0.749
 6092SOL    HW219176   2.779   5.979   0.896
 6093SOL     OW19177   2.331   2.381   2.503
 6093SOL    HW119178   2.354   2.465   2.553
 6093SOL    HW219179   2.326   2.305   2.567
 6094SOL     OW19180   0.539   6.041   5.004
 6094SOL    HW119181   0.575   6.105   4.936
 6094SOL    HW219182   0.460   5.993   4.965
 6095SOL     OW19183   4.785   4.872   2.024
 6095SOL    HW119184   4.866   4.903   1.974
 6095SOL    HW219185   4.810   4.845   2.117
 6096SOL     OW19186   5.621   6.041   3.106
 6096SOL    HW119187   5.559   6.114   3.136
 6096SOL    HW219188   5.649   6.058   3.012
 6097SOL     OW19189   1.586   5.131   1.866
 6097SOL    HW119190   1.583   5.042   1.911
 6097SOL    HW219191   1.600   5.118   1.768
 6098SOL     OW19192   6.993   0.348   4.981
 6098SOL    HW119193   0.005   0.422   5.036
 6098SOL    HW219194   6.953   0.384   4.897
 6099SOL     OW19195   3.607   0.527   6.012
 6099SOL    HW119196   3.678   0.498   5.948
 6099SOL    HW219197   3.517   0.515   5.970
 6100SOL     OW19198   0.187   6.172   5.152
 6100SOL    HW119199   0.187   6.218   5.241
 6100SOL    HW219200   0.157   6.077   5.164
 6101SOL     OW19201   0.157   3.369   1.773
 6101SOL    HW119202   0.191   3.462   1.788
 6101SOL    HW219203   0.060   3.364   1.800
 6102SOL     OW19204   4.107   0.261   2.617
 6102SOL    HW119205   4.190   0.206   2.622
 6102SOL    HW219206   4.027   0.200   2.616
 6103SOL     OW19207   6.330   1.686   2.169
 6103SOL    HW119208   6.286   1.628   2.237
 6103SOL    HW219209   6.378   1.629   2.102
 6104SOL     OW19210   0.056   0.841   4.312
 6104SOL    HW119211   0.137   0.861   4.365
 6104SOL    HW219212   0.038   0.743   4.314
 6105SOL     OW19213   3.051   4.827   5.483
 6105SOL    HW119214   2.974   4.892   5.477
 6105SOL    HW219215   3.061   4.797   5.578
 6106SOL     OW19216   6.095   4.976   5.322
 6106SOL    HW119217   6.047   4.933   5.399
 6106SOL    HW219218   6.057   5.067   5.306
 6107SOL     OW19219   5.312   5.664   5.474
 6107SOL    HW119220   5.330   5.584   5.417
 6107SOL    HW219221   5.346   5.746   5.429
 6108SOL     OW19222   2.341   1.308   0.201
 6108SOL    HW119223   2.313   1.389   0.150
 6108SOL    HW219224   2.424   1.329   0.255
 6109SOL     OW19225   6.518   6.877   3.782
 6109SOL    HW119226   6.446   6.925   3.732
 6109SOL    HW219227   6.548   6.934   3.859
 6110SOL     OW19228   1.624   1.327   4.454
 6110SOL    HW119229   1.575   1.315   4.540
 6110SOL    HW219230   1.584   1.267   4.385
 6111SOL     OW19231   1.636   4.417   0.977
 6111SOL    HW119232   1.548   4.371   0.992
 6111SOL    HW219233   1.625   4.515   0.988
 6112SOL     OW19234   4.580   6.691   3.186
 6112SOL    HW119235   4.596   6.781   3.144
 6112SOL    HW219236   4.488   6.659   3.161
 6113SOL     OW19237   3.298   5.194   0.716
 6113SOL    HW119238   3.219   5.217   0.659
 6113SOL    HW219239   3.296   5.251   0.799
 6114SOL     OW19240   5.294   2.197   0.003
 6114SOL    HW119241   5.241   2.270   0.046
 6114SOL    HW219242   5.362   2.238   6.966
 6115SOL     OW19243   1.126   0.554   5.702
 6115SOL    HW119244   1.089   0.468   5.668
 6115SOL    HW219245   1.188   0.593   5.634
 6116SOL     OW19246   5.750   2.125   6.461
 6116SOL    HW119247   5.677   2.097   6.523
 6116SOL    HW219248   5.724   2.208   6.413
 6117SOL     OW19249   1.901   2.051   1.208
 6117SOL    HW119250   1.940   2.132   1.252
 6117SOL    HW219251   1.871   1.987   1.279
 6118SOL     OW19252   5.714   0.664   1.004
 6118SOL    HW119253   5.756   0.592   0.949
 6118SOL    HW219254   5.641   0.708   0.952
 6119SOL     OW19255   0.219   1.938   7.016
 6119SOL    HW119256   0.269   1.872   0.047
 6119SOL    HW219257   0.125   1.947   0.026
 6120SOL     OW19258   2.454   1.077   4.812
 6120SOL    HW119259   2.475   1.063   4.715
 6120SOL    HW219260   2.356   1.066   4.826
 6121SOL     OW19261   0.428   2.602   5.488
 6121SOL    HW119262   0.393   2.693   5.507
 6121SOL    HW219263   0.357   2.534   5.506
 6122SOL     OW19264   4.944   4.745   5.729
 6122SOL    HW119265   5.011   4.803   5.774
 6122SOL    HW219266   4.946   4.762   5.630
 6123SOL     OW19267   5.379   1.489   5.332
 6123SOL    HW119268   5.415   1.436   5.410
 6123SOL    HW219269   5.416   1.453   5.247
 6124SOL     OW19270   2.372   5.832   3.946
 6124SOL    HW119271   2.371   5.736   3.976
 6124SOL    HW219272   2.447   5.847   3.882
 6125SOL     OW19273   2.560   2.132   6.607
 6125SOL    HW119274   2.514   2.216   6.635
 6125SOL    HW219275   2.548   2.119   6.508
 6126SOL     OW19276   5.712   3.317   5.348
 6126SOL    HW119277   5.695   3.315   5.446
 6126SOL    HW219278   5.715   3.412   5.317
 6127SOL     OW19279   4.279   2.122   1.810
 6127SOL    HW119280   4.279   2.218   1.784
 6127SOL    HW219281   4.335   2.070   1.745
 6128SOL     OW19282   5.412   5.548   0.162
 6128SOL    HW119283   5.382   5.501   0.079
 6128SOL    HW219284   5.511   5.535   0.174
 6129SOL     OW19285   1.674   5.882   2.125
 6129SOL    HW119286   1.697   5.788   2.149
 6129SOL    HW219287   1.575   5.890   2.113
 6130SOL     OW19288   6.023   2.212   7.008
 6130SOL    HW119289   5.979   2.181   0.067
 6130SOL    HW219290   6.041   2.310   7.014
 6131SOL     OW19291   6.478   1.371   2.988
 6131SOL    HW119292   6.518   1.335   3.073
 6131SOL    HW219293   6.380   1.386   3.002
 6132SOL     OW19294   3.703   1.735   6.382
 6132SOL    HW119295   3.646   1.711   6.461
 6132SOL    HW219296   3.652   1.796   6.322
 6133SOL     OW19297   1.565   1.942   3.231
 6133SOL    HW119298   1.665   1.941   3.233
 6133SOL    HW219299   1.531   1.848   3.232
 6134SOL     OW19300   6.456   6.877   6.343
 6134SOL    HW119301   6.492   6.784   6.344
 6134SOL    HW219302   6.453   6.910   6.249
 6135SOL     OW19303   6.750   6.981   6.885
 6135SOL    HW119304   6.698   0.023   6.939
 6135SOL    HW219305   6.753   7.010   6.790
 6136SOL     OW19306   1.039   3.025   2.226
 6136SOL    HW119307   1.137   3.014   2.244
 6136SOL    HW219308   0.988   3.006   2.310
 6137SOL     OW19309   6.623   3.996   2.177
 6137SOL    HW119310   6.632   4.014   2.275
 6137SOL    HW219311   6.662   4.072   2.125
 6138SOL     OW19312   4.106   0.140   2.035
 6138SOL    HW119313   4.202   0.112   2.041
 6138SOL    HW219314   4.096   0.212   1.967
 6139SOL     OW19315   1.735   0.624   5.801
 6139SOL    HW119316   1.762   0.701   5.743
 6139SOL    HW219317   1.795   0.619   5.881
 6140SOL     OW19318   1.334   0.167   3.382
 6140SOL    HW119319   1.279   0.121   3.313
 6140SOL    HW219320   1.412   0.109   3.406
 6141SOL     OW19321   0.724   1.192   5.730
 6141SOL    HW119322   0.734   1.094   5.749
 6141SOL    HW219323   0.635   1.223   5.762
 6142SOL     OW19324   0.073   0.826   1.568
 6142SOL    HW119325   0.064   0.762   1.644
 6142SOL    HW219326   7.019   0.887   1.567
 6143SOL     OW19327   0.216   4.090   5.318
 6143SOL    HW119328   0.275   4.012   5.337
 6143SOL    HW219329   0.232   4.121   5.224
 6144SOL     OW19330   3.817   5.061   3.111
 6144SOL    HW119331   3.791   4.992   3.043
 6144SOL    HW219332   3.757   5.140   3.103
 6145SOL     OW19333   4.840   3.292   3.803
 6145SOL    HW119334   4.825   3.270   3.899
 6145SOL    HW219335   4.938   3.299   3.785
 6146SOL     OW19336   5.450   7.003   5.000
 6146SOL    HW119337   5.467   6.928   5.064
 6146SOL    HW219338   5.462   0.065   5.047
 6147SOL     OW19339   1.502   2.479   4.167
 6147SOL    HW119340   1.586   2.469   4.221
 6147SOL    HW219341   1.511   2.426   4.082
 6148SOL     OW19342   3.484   5.797   0.275
 6148SOL    HW119343   3.458   5.889   0.303
 6148SOL    HW219344   3.463   5.784   0.178
 6149SOL     OW19345   2.822   0.833   1.242
 6149SOL    HW119346   2.842   0.744   1.201
 6149SOL    HW219347   2.897   0.896   1.222
 6150SOL     OW19348   0.750   3.775   5.503
 6150SOL    HW119349   0.728   3.858   5.452
 6150SOL    HW219350   0.818   3.795   5.573
 6151SOL     OW19351   4.665   5.638   4.104
 6151SOL    HW119352   4.631   5.582   4.180
 6151SOL    HW219353   4.702   5.578   4.033
 6152SOL     OW19354   1.422   4.793   4.040
 6152SOL    HW119355   1.427   4.863   3.969
 6152SOL    HW219356   1.503   4.736   4.037
 6153SOL     OW19357   5.586   5.283   1.405
 6153SOL    HW119358   5.593   5.343   1.325
 6153SOL    HW219359   5.664   5.300   1.466
 6154SOL     OW19360   4.902   3.342   2.143
 6154SOL    HW119361   4.944   3.414   2.198
 6154SOL    HW219362   4.872   3.267   2.202
 6155SOL     OW19363   1.878   1.318   3.029
 6155SOL    HW119364   1.865   1.399   2.971
 6155SOL    HW219365   1.838   1.238   2.985
 6156SOL     OW19366   4.967   5.406   1.338
 6156SOL    HW119367   5.008   5.358   1.415
 6156SOL    HW219368   5.039   5.439   1.277
 6157SOL     OW19369   1.465   2.700   2.240
 6157SOL    HW119370   1.404   2.778   2.255
 6157SOL    HW219371   1.499   2.702   2.146
 6158SOL     OW19372   2.801   2.354   4.779
 6158SOL    HW119373   2.871   2.336   4.848
 6158SOL    HW219374   2.821   2.301   4.696
 6159SOL     OW19375   6.425   2.945   1.020
 6159SOL    HW119376   6.507   2.984   0.978
 6159SOL    HW219377   6.353   2.939   0.951
 6160SOL     OW19378   1.437   0.619   0.608
 6160SOL    HW119379   1.506   0.567   0.557
 6160SOL    HW219380   1.439   0.715   0.580
 6161SOL     OW19381   4.475   3.364   6.675
 6161SOL    HW119382   4.414   3.311   6.735
 6161SOL    HW219383   4.553   3.397   6.728
 6162SOL     OW19384   6.140   4.943   3.100
 6162SOL    HW119385   6.133   4.994   3.014
 6162SOL    HW219386   6.104   4.999   3.175
 6163SOL     OW19387   5.386   6.300   4.034
 6163SOL    HW119388   5.421   6.215   4.074
 6163SOL    HW219389   5.426   6.378   4.082
 6164SOL     OW19390   2.879   3.494   4.738
 6164SOL    HW119391   2.783   3.512   4.760
 6164SOL    HW219392   2.900   3.399   4.761
 6165SOL     OW19393   3.940   1.343   0.314
 6165SOL    HW119394   3.954   1.434   0.275
 6165SOL    HW219395   4.012   1.324   0.381
 6166SOL     OW19396   1.780   3.036   6.513
 6166SOL    HW119397   1.758   2.972   6.587
 6166SOL    HW219398   1.746   3.001   6.427
 6167SOL     OW19399   1.697   3.961   3.399
 6167SOL    HW119400   1.794   3.940   3.406
 6167SOL    HW219401   1.647   3.919   3.474
 6168SOL     OW19402   0.492   3.973   3.882
 6168SOL    HW119403   0.403   4.010   3.909
 6168SOL    HW219404   0.486   3.874   3.876
 6169SOL     OW19405   2.451   0.096   0.045
 6169SOL    HW119406   2.486   0.144   6.990
 6169SOL    HW219407   2.371   0.144   0.081
 6170SOL     OW19408   3.308   3.859   6.966
 6170SOL    HW119409   3.223   3.836   6.919
 6170SOL    HW219410   3.303   3.954   6.998
 6171SOL     OW19411   2.177   3.994   1.947
 6171SOL    HW119412   2.115   3.943   1.888
 6171SOL    HW219413   2.173   4.091   1.924
 6172SOL     OW19414   1.720   6.364   2.586
 6172SOL    HW119415   1.701   6.321   2.498
 6172SOL    HW219416   1.666   6.320   2.658
 6173SOL     OW19417   1.357   5.950   2.244
 6173SOL    HW119418   1.282   5.918   2.301
 6173SOL    HW219419   1.330   5.944   2.147
 6174SOL     OW19420   5.244   5.242   2.895
 6174SOL    HW119421   5.284   5.327   2.860
 6174SOL    HW219422   5.145   5.254   2.905
 6175SOL     OW19423   5.129   0.417   3.002
 6175SOL    HW119424   5.077   0.496   2.969
 6175SOL    HW219425   5.068   0.337   3.008
 6176SOL     OW19426   6.846   3.534   5.669
 6176SOL    HW119427   6.937   3.560   5.637
 6176SOL    HW219428   6.840   3.546   5.768
 6177SOL     OW19429   6.433   2.445   0.155
 6177SOL    HW119430   6.394   2.364   0.199
 6177SOL    HW219431   6.451   2.515   0.224
 6178SOL     OW19432   5.973   3.245   1.101
 6178SOL    HW119433   5.880   3.241   1.066
 6178SOL    HW219434   6.037   3.220   1.028
 6179SOL     OW19435   0.404   1.795   5.520
 6179SOL    HW119436   0.500   1.788   5.544
 6179SOL    HW219437   0.395   1.827   5.426
 6180SOL     OW19438   3.567   0.125   6.811
 6180SOL    HW119439   3.545   0.195   6.743
 6180SOL    HW219440   3.484   0.075   6.835
 6181SOL     OW19441   5.341   6.440   6.755
 6181SOL    HW119442   5.422   6.401   6.712
 6181SOL    HW219443   5.260   6.389   6.727
 6182SOL     OW19444   4.720   5.940   6.639
 6182SOL    HW119445   4.661   5.902   6.568
 6182SOL    HW219446   4.720   5.880   6.718
 6183SOL     OW19447   3.662   0.357   3.106
 6183SOL    HW119448   3.756   0.325   3.116
 6183SOL    HW219449   3.630   0.337   3.013
 6184SOL     OW19450   0.603   0.195   6.981
 6184SOL    HW119451   0.574   0.253   0.033
 6184SOL    HW219452   0.647   0.251   6.911
 6185SOL     OW19453   0.539   3.650   6.044
 6185SOL    HW119454   0.464   3.598   6.086
 6185SOL    HW219455   0.519   3.665   5.947
 6186SOL     OW19456   5.873   0.315   5.124
 6186SOL    HW119457   5.886   0.321   5.025
 6186SOL    HW219458   5.883   0.219   5.153
 6187SOL     OW19459   4.229   4.919   3.937
 6187SOL    HW119460   4.260   4.951   3.847
 6187SOL    HW219461   4.251   4.822   3.947
 6188SOL     OW19462   2.863   6.353   1.538
 6188SOL    HW119463   2.776   6.400   1.524
 6188SOL    HW219464   2.852   6.256   1.515
 6189SOL     OW19465   5.920   4.624   3.011
 6189SOL    HW119466   5.990   4.672   2.958
 6189SOL    HW219467   5.960   4.541   3.050
 6190SOL     OW19468   5.722   2.412   6.961
 6190SOL    HW119469   5.737   2.314   6.950
 6190SOL    HW219470   5.810   2.457   6.975
 6191SOL     OW19471   6.533   2.417   6.883
 6191SOL    HW119472   6.513   2.369   6.969
 6191SOL    HW219473   6.506   2.513   6.892
 6192SOL     OW19474   3.227   2.962   6.615
 6192SOL    HW119475   3.309   2.956   6.673
 6192SOL    HW219476   3.254   2.950   6.519
 6193SOL     OW19477   5.845   0.225   1.240
 6193SOL    HW119478   5.884   0.253   1.153
 6193SOL    HW219479   5.859   0.298   1.308
 6194SOL     OW19480   2.036   0.766   0.529
 6194SOL    HW119481   2.079   0.856   0.539
 6194SOL    HW219482   2.001   0.757   0.435
 6195SOL     OW19483   3.610   0.493   6.587
 6195SOL    HW119484   3.626   0.588   6.561
 6195SOL    HW219485   3.697   0.450   6.613
 6196SOL     OW19486   0.753   1.370   6.204
 6196SOL    HW119487   0.742   1.422   6.119
 6196SOL    HW219488   0.808   1.423   6.269
 6197SOL     OW19489   2.317   3.515   0.545
 6197SOL    HW119490   2.252   3.473   0.482
 6197SOL    HW219491   2.269   3.570   0.612
 6198SOL     OW19492   4.021   4.749   2.624
 6198SOL    HW119493   4.001   4.692   2.545
 6198SOL    HW219494   3.951   4.820   2.633
 6199SOL     OW19495   1.607   6.792   6.306
 6199SOL    HW119496   1.522   6.747   6.281
 6199SOL    HW219497   1.671   6.724   6.342
 6200SOL     OW19498   4.110   0.274   6.080
 6200SOL    HW119499   4.182   0.290   6.148
 6200SOL    HW219500   4.030   0.328   6.102
 6201SOL     OW19501   2.212   4.702   5.130
 6201SOL    HW119502   2.217   4.663   5.038
 6201SOL    HW219503   2.139   4.658   5.181
 6202SOL     OW19504   3.182   1.627   1.360
 6202SOL    HW119505   3.137   1.629   1.449
 6202SOL    HW219506   3.137   1.692   1.299
 6203SOL     OW19507   4.578   1.650   4.715
 6203SOL    HW119508   4.661   1.703   4.696
 6203SOL    HW219509   4.560   1.589   4.637
 6204SOL     OW19510   1.790   6.485   5.854
 6204SOL    HW119511   1.764   6.574   5.818
 6204SOL    HW219512   1.724   6.457   5.924
 6205SOL     OW19513   5.695   6.121   6.806
 6205SOL    HW119514   5.758   6.081   6.872
 6205SOL    HW219515   5.628   6.178   6.854
 6206SOL     OW19516   5.283   0.169   2.530
 6206SOL    HW119517   5.363   0.198   2.478
 6206SOL    HW219518   5.278   0.221   2.616
 6207SOL     OW19519   1.640   4.127   4.914
 6207SOL    HW119520   1.627   4.199   4.846
 6207SOL    HW219521   1.736   4.098   4.915
 6208SOL     OW19522   6.030   6.752   5.701
 6208SOL    HW119523   6.047   6.837   5.751
 6208SOL    HW219524   5.978   6.689   5.759
 6209SOL     OW19525   3.761   5.397   0.854
 6209SOL    HW119526   3.853   5.407   0.892
 6209SOL    HW219527   3.736   5.481   0.805
 6210SOL     OW19528   6.091   4.329   3.839
 6210SOL    HW119529   6.061   4.422   3.859
 6210SOL    HW219530   6.097   4.316   3.740
 6211SOL     OW19531   3.164   6.906   4.785
 6211SOL    HW119532   3.083   6.847   4.778
 6211SOL    HW219533   3.215   6.904   4.699
 6212SOL     OW19534   6.698   6.526   3.636
 6212SOL    HW119535   6.638   6.603   3.613
 6212SOL    HW219536   6.642   6.444   3.650
 6213SOL     OW19537   0.249   6.567   6.718
 6213SOL    HW119538   0.177   6.584   6.651
 6213SOL    HW219539   0.259   6.647   6.777
 6214SOL     OW19540   6.024   4.609   2.357
 6214SOL    HW119541   5.946   4.669   2.340
 6214SOL    HW219542   6.001   4.544   2.429
 6215SOL     OW19543   3.357   3.397   0.587
 6215SOL    HW119544   3.297   3.353   0.653
 6215SOL    HW219545   3.303   3.452   0.523
 6216SOL     OW19546   5.531   1.877   2.379
 6216SOL    HW119547   5.590   1.928   2.442
 6216SOL    HW219548   5.582   1.801   2.339
 6217SOL     OW19549   5.008   3.088   1.425
 6217SOL    HW119550   4.918   3.054   1.398
 6217SOL    HW219551   5.015   3.090   1.524
 6218SOL     OW19552   3.174   5.197   5.273
 6218SOL    HW119553   3.256   5.227   5.323
 6218SOL    HW219554   3.148   5.267   5.206
 6219SOL     OW19555   0.899   1.915   4.625
 6219SOL    HW119556   0.916   2.005   4.585
 6219SOL    HW219557   0.927   1.915   4.721
 6220SOL     OW19558   2.013   4.194   5.429
 6220SOL    HW119559   2.056   4.217   5.342
 6220SOL    HW219560   1.924   4.151   5.412
 6221SOL     OW19561   3.892   5.195   4.499
 6221SOL    HW119562   3.795   5.176   4.483
 6221SOL    HW219563   3.906   5.220   4.595
 6222SOL     OW19564   0.093   1.306   1.104
 6222SOL    HW119565   0.103   1.405   1.094
 6222SOL    HW219566   0.113   1.262   1.016
 6223SOL     OW19567   4.759   2.724   4.810
 6223SOL    HW119568   4.718   2.765   4.892
 6223SOL    HW219569   4.758   2.791   4.736
 6224SOL     OW19570   2.886   1.475   5.246
 6224SOL    HW119571   2.835   1.450   5.164
 6224SOL    HW219572   2.984   1.470   5.227
 6225SOL     OW19573   3.688   2.827   0.036
 6225SOL    HW119574   3.718   2.823   0.132
 6225SOL    HW219575   3.630   2.749   0.016
 6226SOL     OW19576   5.494   0.557   4.704
 6226SOL    HW119577   5.585   0.589   4.676
 6226SOL    HW219578   5.453   0.624   4.766
 6227SOL     OW19579   3.003   4.679   6.094
 6227SOL    HW119580   3.058   4.625   6.031
 6227SOL    HW219581   2.911   4.640   6.099
 6228SOL     OW19582   6.722   0.312   3.148
 6228SOL    HW119583   6.809   0.345   3.184
 6228SOL    HW219584   6.667   0.273   3.222
 6229SOL     OW19585   2.347   2.710   2.045
 6229SOL    HW119586   2.390   2.625   2.015
 6229SOL    HW219587   2.320   2.764   1.964
 6230SOL     OW19588   2.473   2.391   3.603
 6230SOL    HW119589   2.483   2.323   3.531
 6230SOL    HW219590   2.406   2.360   3.670
 6231SOL     OW19591   0.220   4.867   1.482
 6231SOL    HW119592   0.179   4.958   1.471
 6231SOL    HW219593   0.164   4.799   1.436
 6232SOL     OW19594   0.897   1.122   6.895
 6232SOL    HW119595   0.800   1.119   6.871
 6232SOL    HW219596   0.907   1.150   6.990
 6233SOL     OW19597   4.870   2.016   6.983
 6233SOL    HW119598   4.874   2.087   0.028
 6233SOL    HW219599   4.790   1.958   6.998
 6234SOL     OW19600   2.053   2.460   3.935
 6234SOL    HW119601   2.074   2.435   3.840
 6234SOL    HW219602   1.960   2.495   3.941
 6235SOL     OW19603   2.380   6.799   3.210
 6235SOL    HW119604   2.387   6.726   3.143
 6235SOL    HW219605   2.403   6.887   3.167
 6236SOL     OW19606   0.070   4.221   0.711
 6236SOL    HW119607   0.046   4.125   0.725
 6236SOL    HW219608   0.129   4.230   0.631
 6237SOL     OW19609   4.231   0.092   0.527
 6237SOL    HW119610   4.227   0.053   0.619
 6237SOL    HW219611   4.323   0.080   0.490
 6238SOL     OW19612   4.826   4.890   1.297
 6238SOL    HW119613   4.727   4.891   1.284
 6238SOL    HW219614   4.866   4.971   1.254
 6239SOL     OW19615   2.663   0.333   3.561
 6239SOL    HW119616   2.687   0.241   3.530
 6239SOL    HW219617   2.572   0.331   3.603
 6240SOL     OW19618   1.674   3.900   0.474
 6240SOL    HW119619   1.630   3.975   0.524
 6240SOL    HW219620   1.620   3.876   0.394
 6241SOL     OW19621   4.412   0.275   1.328
 6241SOL    HW119622   4.404   0.283   1.229
 6241SOL    HW219623   4.464   0.193   1.351
 6242SOL     OW19624   4.723   2.159   3.673
 6242SOL    HW119625   4.744   2.125   3.581
 6242SOL    HW219626   4.630   2.133   3.697
 6243SOL     OW19627   6.057   6.049   4.009
 6243SOL    HW119628   6.045   5.983   4.083
 6243SOL    HW219629   6.151   6.047   3.977
 6244SOL     OW19630   2.906   1.787   2.123
 6244SOL    HW119631   2.951   1.799   2.212
 6244SOL    HW219632   2.834   1.855   2.113
 6245SOL     OW19633   3.160   4.271   0.613
 6245SOL    HW119634   3.086   4.304   0.555
 6245SOL    HW219635   3.150   4.173   0.629
 6246SOL     OW19636   2.742   1.020   5.752
 6246SOL    HW119637   2.768   0.926   5.730
 6246SOL    HW219638   2.790   1.084   5.692
 6247SOL     OW19639   0.402   6.066   2.932
 6247SOL    HW119640   0.340   6.018   2.994
 6247SOL    HW219641   0.351   6.096   2.851
 6248SOL     OW19642   0.425   4.844   1.321
 6248SOL    HW119643   0.452   4.748   1.320
 6248SOL    HW219644   0.352   4.857   1.389
 6249SOL     OW19645   5.841   3.969   6.500
 6249SOL    HW119646   5.768   4.036   6.509
 6249SOL    HW219647   5.814   3.883   6.543
 6250SOL     OW19648   5.914   5.979   6.964
 6250SOL    HW119649   5.903   5.881   6.949
 6250SOL    HW219650   6.010   6.003   6.957
 6251SOL     OW19651   4.265   1.709   0.651
 6251SOL    HW119652   4.293   1.618   0.621
 6251SOL    HW219653   4.236   1.763   0.572
 6252SOL     OW19654   2.528   6.162   5.279
 6252SOL    HW119655   2.491   6.229   5.344
 6252SOL    HW219656   2.466   6.084   5.274
 6253SOL     OW19657   1.722   4.069   1.585
 6253SOL    HW119658   1.641   4.013   1.603
 6253SOL    HW219659   1.792   4.013   1.541
 6254SOL     OW19660   5.161   0.557   0.347
 6254SOL    HW119661   5.176   0.490   0.275
 6254SOL    HW219662   5.141   0.510   0.433
 6255SOL     OW19663   0.815   1.251   2.347
 6255SOL    HW119664   0.882   1.258   2.421
 6255SOL    HW219665   0.808   1.156   2.317
 6256SOL     OW19666   3.118   5.177   2.723
 6256SOL    HW119667   3.094   5.271   2.744
 6256SOL    HW219668   3.086   5.154   2.630
 6257SOL     OW19669   5.536   2.450   6.522
 6257SOL    HW119670   5.442   2.483   6.528
 6257SOL    HW219671   5.545   2.367   6.577
 6258SOL     OW19672   5.068   1.696   2.383
 6258SOL    HW119673   5.153   1.739   2.415
 6258SOL    HW219674   5.021   1.655   2.461
 6259SOL     OW19675   2.838   2.616   1.675
 6259SOL    HW119676   2.810   2.549   1.606
 6259SOL    HW219677   2.885   2.569   1.750
 6260SOL     OW19678   3.739   3.745   0.081
 6260SOL    HW119679   3.783   3.677   0.140
 6260SOL    HW219680   3.809   3.794   0.029
 6261SOL     OW19681   4.099   1.288   0.574
 6261SOL    HW119682   4.188   1.243   0.579
 6261SOL    HW219683   4.046   1.267   0.657
 6262SOL     OW19684   0.507   5.023   6.140
 6262SOL    HW119685   0.599   5.053   6.113
 6262SOL    HW219686   0.463   5.095   6.194
 6263SOL     OW19687   6.579   0.195   0.697
 6263SOL    HW119688   6.536   0.274   0.653
 6263SOL    HW219689   6.581   0.118   0.634
 6264SOL     OW19690   2.671   1.335   0.723
 6264SOL    HW119691   2.731   1.402   0.680
 6264SOL    HW219692   2.654   1.361   0.818
 6265SOL     OW19693   3.595   2.771   1.108
 6265SOL    HW119694   3.658   2.781   1.185
 6265SOL    HW219695   3.513   2.722   1.138
 6266SOL     OW19696   2.579   0.259   2.970
 6266SOL    HW119697   2.673   0.284   2.945
 6266SOL    HW219698   2.546   0.320   3.042
 6267SOL     OW19699   3.392   6.981   6.228
 6267SOL    HW119700   3.437   6.893   6.213
 6267SOL    HW219701   3.452   0.030   6.198
 6268SOL     OW19702   3.521   5.285   2.549
 6268SOL    HW119703   3.494   5.189   2.556
 6268SOL    HW219704   3.577   5.310   2.627
 6269SOL     OW19705   6.364   4.826   1.328
 6269SOL    HW119706   6.425   4.903   1.348
 6269SOL    HW219707   6.384   4.791   1.236
 6270SOL     OW19708   0.906   0.564   4.795
 6270SOL    HW119709   0.870   0.476   4.763
 6270SOL    HW219710   0.837   0.609   4.851
 6271SOL     OW19711   5.781   1.512   0.632
 6271SOL    HW119712   5.881   1.508   0.637
 6271SOL    HW219713   5.753   1.538   0.539
 6272SOL     OW19714   1.816   2.012   3.511
 6272SOL    HW119715   1.877   1.933   3.523
 6272SOL    HW219716   1.771   2.006   3.422
 6273SOL     OW19717   3.380   0.976   1.775
 6273SOL    HW119718   3.343   0.900   1.723
 6273SOL    HW219719   3.327   1.059   1.756
 6274SOL     OW19720   4.274   6.787   6.162
 6274SOL    HW119721   4.356   6.754   6.208
 6274SOL    HW219722   4.199   6.791   6.227
 6275SOL     OW19723   2.214   0.875   4.728
 6275SOL    HW119724   2.250   0.797   4.778
 6275SOL    HW219725   2.118   0.858   4.704
 6276SOL     OW19726   1.366   5.481   3.962
 6276SOL    HW119727   1.354   5.494   4.061
 6276SOL    HW219728   1.462   5.497   3.939
 6277SOL     OW19729   5.537   3.538   2.895
 6277SOL    HW119730   5.438   3.537   2.906
 6277SOL    HW219731   5.563   3.611   2.831
 6278SOL     OW19732   5.126   0.708   4.568
 6278SOL    HW119733   5.047   0.650   4.589
 6278SOL    HW219734   5.116   0.796   4.615
 6279SOL     OW19735   4.860   1.913   0.330
 6279SOL    HW119736   4.888   1.818   0.316
 6279SOL    HW219737   4.929   1.961   0.383
 6280SOL     OW19738   0.658   4.644   5.528
 6280SOL    HW119739   0.571   4.670   5.570
 6280SOL    HW219740   0.691   4.719   5.470
 6281SOL     OW19741   2.791   6.759   5.308
 6281SOL    HW119742   2.692   6.763   5.300
 6281SOL    HW219743   2.833   6.794   5.224
 6282SOL     OW19744   1.474   0.209   4.118
 6282SOL    HW119745   1.415   0.200   4.037
 6282SOL    HW219746   1.419   0.241   4.195
 6283SOL     OW19747   6.696   2.309   5.170
 6283SOL    HW119748   6.677   2.217   5.137
 6283SOL    HW219749   6.696   2.373   5.092
 6284SOL     OW19750   2.024   4.466   6.095
 6284SOL    HW119751   2.089   4.441   6.166
 6284SOL    HW219752   2.072   4.509   6.019
 6285SOL     OW19753   1.745   4.334   2.436
 6285SOL    HW119754   1.792   4.422   2.442
 6285SOL    HW219755   1.678   4.327   2.510
 6286SOL     OW19756   5.942   1.162   3.877
 6286SOL    HW119757   5.999   1.132   3.801
 6286SOL    HW219758   5.850   1.124   3.868
 6287SOL     OW19759   4.516   4.375   1.672
 6287SOL    HW119760   4.467   4.448   1.720
 6287SOL    HW219761   4.518   4.293   1.730
 6288SOL     OW19762   5.510   3.354   0.643
 6288SOL    HW119763   5.518   3.451   0.664
 6288SOL    HW219764   5.442   3.340   0.571
 6289SOL     OW19765   1.753   1.189   3.739
 6289SOL    HW119766   1.734   1.099   3.701
 6289SOL    HW219767   1.676   1.250   3.719
 6290SOL     OW19768   5.641   3.735   3.302
 6290SOL    HW119769   5.604   3.718   3.394
 6290SOL    HW219770   5.646   3.648   3.252
 6291SOL     OW19771   3.600   4.123   3.206
 6291SOL    HW119772   3.631   4.217   3.211
 6291SOL    HW219773   3.573   4.102   3.112
 6292SOL     OW19774   1.203   2.013   2.364
 6292SOL    HW119775   1.236   2.094   2.413
 6292SOL    HW219776   1.126   2.039   2.306
 6293SOL     OW19777   4.479   0.137   0.417
 6293SOL    HW119778   4.523   0.133   0.327
 6293SOL    HW219779   4.440   0.228   0.431
 6294SOL     OW19780   4.102   5.220   2.823
 6294SOL    HW119781   4.065   5.198   2.732
 6294SOL    HW219782   4.138   5.313   2.822
 6295SOL     OW19783   6.194   6.751   6.359
 6295SOL    HW119784   6.147   6.825   6.407
 6295SOL    HW219785   6.288   6.779   6.339
 6296SOL     OW19786   6.267   1.129   3.501
 6296SOL    HW119787   6.326   1.087   3.570
 6296SOL    HW219788   6.243   1.061   3.432
 6297SOL     OW19789   5.257   0.117   5.566
 6297SOL    HW119790   5.181   0.176   5.540
 6297SOL    HW219791   5.291   0.142   5.657
 6298SOL     OW19792   1.173   1.742   4.749
 6298SOL    HW119793   1.082   1.751   4.788
 6298SOL    HW219794   1.166   1.695   4.661
 6299SOL     OW19795   6.220   2.912   0.206
 6299SOL    HW119796   6.121   2.913   0.221
 6299SOL    HW219797   6.267   2.918   0.294
 6300SOL     OW19798   5.388   0.163   3.782
 6300SOL    HW119799   5.336   0.216   3.848
 6300SOL    HW219800   5.467   0.121   3.828
 6301SOL     OW19801   3.192   6.787   0.574
 6301SOL    HW119802   3.151   6.873   0.604
 6301SOL    HW219803   3.287   6.783   0.604
 6302SOL     OW19804   1.163   0.787   3.453
 6302SOL    HW119805   1.082   0.727   3.451
 6302SOL    HW219806   1.246   0.731   3.444
 6303SOL     OW19807   1.709   5.896   5.600
 6303SOL    HW119808   1.700   5.876   5.502
 6303SOL    HW219809   1.742   5.814   5.647
 6304SOL     OW19810   3.253   1.258   6.541
 6304SOL    HW119811   3.164   1.304   6.545
 6304SOL    HW219812   3.269   1.224   6.448
 6305SOL     OW19813   6.078   0.985   1.340
 6305SOL    HW119814   6.177   0.970   1.327
 6305SOL    HW219815   6.027   0.922   1.282
 6306SOL     OW19816   6.182   2.867   4.180
 6306SOL    HW119817   6.157   2.778   4.143
 6306SOL    HW219818   6.121   2.937   4.143
 6307SOL     OW19819   2.500   4.709   0.861
 6307SOL    HW119820   2.458   4.680   0.947
 6307SOL    HW219821   2.598   4.693   0.865
 6308SOL     OW19822   2.888   2.234   5.190
 6308SOL    HW119823   2.847   2.324   5.204
 6308SOL    HW219824   2.978   2.244   5.148
 6309SOL     OW19825   5.823   2.067   4.414
 6309SOL    HW119826   5.914   2.057   4.454
 6309SOL    HW219827   5.795   1.981   4.372
 6310SOL     OW19828   1.665   4.831   5.169
 6310SOL    HW119829   1.714   4.772   5.105
 6310SOL    HW219830   1.573   4.795   5.184
 6311SOL     OW19831   5.826   0.598   4.976
 6311SOL    HW119832   5.893   0.609   5.049
 6311SOL    HW219833   5.736   0.580   5.016
 6312SOL     OW19834   4.248   5.036   5.775
 6312SOL    HW119835   4.257   4.940   5.749
 6312SOL    HW219836   4.333   5.067   5.817
 6313SOL     OW19837   2.373   5.376   2.963
 6313SOL    HW119838   2.348   5.281   2.980
 6313SOL    HW219839   2.295   5.426   2.926
 6314SOL     OW19840   3.256   5.926   3.153
 6314SOL    HW119841   3.185   5.920   3.083
 6314SOL    HW219842   3.245   6.011   3.204
 6315SOL     OW19843   3.031   3.121   0.741
 6315SOL    HW119844   2.966   3.187   0.703
 6315SOL    HW219845   3.124   3.156   0.730
 6316SOL     OW19846   5.617   1.806   6.143
 6316SOL    HW119847   5.672   1.792   6.061
 6316SOL    HW219848   5.534   1.750   6.138
 6317SOL     OW19849   5.971   6.189   4.279
 6317SOL    HW119850   6.046   6.204   4.214
 6317SOL    HW219851   5.888   6.235   4.246
 6318SOL     OW19852   2.616   1.539   4.696
 6318SOL    HW119853   2.657   1.570   4.782
 6318SOL    HW219854   2.520   1.515   4.712
 6319SOL     OW19855   0.266   1.641   2.934
 6319SOL    HW119856   0.297   1.628   3.029
 6319SOL    HW219857   0.283   1.736   2.907
 6320SOL     OW19858   6.347   2.964   3.738
 6320SOL    HW119859   6.307   2.876   3.712
 6320SOL    HW219860   6.402   2.954   3.821
 6321SOL     OW19861   2.295   3.850   0.620
 6321SOL    HW119862   2.257   3.941   0.605
 6321SOL    HW219863   2.393   3.857   0.637
 6322SOL     OW19864   1.210   1.349   7.002
 6322SOL    HW119865   1.255   1.261   7.015
 6322SOL    HW219866   1.258   1.401   6.932
 6323SOL     OW19867   3.813   2.513   0.529
 6323SOL    HW119868   3.823   2.452   0.607
 6323SOL    HW219869   3.717   2.541   0.520
 6324SOL     OW19870   4.473   0.939   6.628
 6324SOL    HW119871   4.537   0.980   6.693
 6324SOL    HW219872   4.483   0.983   6.539
 6325SOL     OW19873   1.257   2.247   2.496
 6325SOL    HW119874   1.160   2.267   2.510
 6325SOL    HW219875   1.302   2.328   2.457
 6326SOL     OW19876   5.061   6.156   1.015
 6326SOL    HW119877   4.972   6.112   1.004
 6326SOL    HW219878   5.109   6.117   1.094
 6327SOL     OW19879   5.142   5.707   6.277
 6327SOL    HW119880   5.200   5.632   6.309
 6327SOL    HW219881   5.147   5.712   6.177
 6328SOL     OW19882   2.710   4.287   6.492
 6328SOL    HW119883   2.639   4.345   6.453
 6328SOL    HW219884   2.726   4.311   6.587
 6329SOL     OW19885   0.767   1.588   3.241
 6329SOL    HW119886   0.790   1.621   3.150
 6329SOL    HW219887   0.813   1.501   3.258
 6330SOL     OW19888   3.719   1.604   0.321
 6330SOL    HW119889   3.764   1.665   0.385
 6330SOL    HW219890   3.690   1.521   0.369
 6331SOL     OW19891   6.284   3.081   1.545
 6331SOL    HW119892   6.323   3.049   1.458
 6331SOL    HW219893   6.340   3.155   1.582
 6332SOL     OW19894   5.445   6.291   1.660
 6332SOL    HW119895   5.466   6.195   1.641
 6332SOL    HW219896   5.520   6.348   1.628
 6333SOL     OW19897   2.910   4.805   2.663
 6333SOL    HW119898   2.910   4.815   2.762
 6333SOL    HW219899   2.953   4.719   2.638
 6334SOL     OW19900   2.517   1.885   2.730
 6334SOL    HW119901   2.526   1.969   2.677
 6334SOL    HW219902   2.576   1.814   2.691
 6335SOL     OW19903   6.727   1.570   0.177
 6335SOL    HW119904   6.693   1.650   0.128
 6335SOL    HW219905   6.759   1.597   0.268
 6336SOL     OW19906   0.235   2.523   5.010
 6336SOL    HW119907   0.137   2.519   4.991
 6336SOL    HW219908   0.253   2.594   5.077
 6337SOL     OW19909   6.331   4.500   5.386
 6337SOL    HW119910   6.318   4.566   5.461
 6337SOL    HW219911   6.244   4.455   5.367
 6338SOL     OW19912   4.007   1.127   3.516
 6338SOL    HW119913   3.980   1.081   3.431
 6338SOL    HW219914   4.052   1.061   3.576
 6339SOL     OW19915   6.550   2.137   4.796
 6339SOL    HW119916   6.487   2.194   4.849
 6339SOL    HW219917   6.518   2.042   4.798
 6340SOL     OW19918   1.844   5.442   4.089
 6340SOL    HW119919   1.843   5.445   3.989
 6340SOL    HW219920   1.927   5.396   4.121
 6341SOL     OW19921   0.400   4.166   3.218
 6341SOL    HW119922   0.426   4.217   3.136
 6341SOL    HW219923   0.348   4.085   3.192
 6342SOL     OW19924   1.453   2.762   1.048
 6342SOL    HW119925   1.525   2.747   1.115
 6342SOL    HW219926   1.364   2.759   1.093
 6343SOL     OW19927   4.044   1.467   6.849
 6343SOL    HW119928   4.024   1.500   6.756
 6343SOL    HW219929   3.980   1.394   6.872
 6344SOL     OW19930   0.858   4.082   4.180
 6344SOL    HW119931   0.920   4.074   4.102
 6344SOL    HW219932   0.783   4.017   4.169
 6345SOL     OW19933   3.828   1.895   2.202
 6345SOL    HW119934   3.743   1.947   2.196
 6345SOL    HW219935   3.905   1.959   2.203
 6346SOL     OW19936   1.117   4.831   3.582
 6346SOL    HW119937   1.097   4.772   3.661
 6346SOL    HW219938   1.126   4.925   3.613
 6347SOL     OW19939   3.421   0.650   1.461
 6347SOL    HW119940   3.393   0.676   1.553
 6347SOL    HW219941   3.396   0.723   1.397
 6348SOL     OW19942   1.390   3.096   3.987
 6348SOL    HW119943   1.468   3.053   3.942
 6348SOL    HW219944   1.420   3.181   4.031
 6349SOL     OW19945   2.731   0.303   0.369
 6349SOL    HW119946   2.810   0.266   0.320
 6349SOL    HW219947   2.763   0.365   0.441
 6350SOL     OW19948   1.015   6.388   2.128
 6350SOL    HW119949   1.045   6.331   2.205
 6350SOL    HW219950   1.063   6.475   2.129
 6351SOL     OW19951   6.881   1.015   2.999
 6351SOL    HW119952   6.939   1.009   2.919
 6351SOL    HW219953   6.859   0.923   3.033
 6352SOL     OW19954   0.465   5.472   1.871
 6352SOL    HW119955   0.387   5.508   1.820
 6352SOL    HW219956   0.446   5.378   1.901
 6353SOL     OW19957   7.009   6.837   1.734
 6353SOL    HW119958   6.956   6.894   1.797
 6353SOL    HW219959   0.059   6.794   1.783
 6354SOL     OW19960   0.469   6.845   3.765
 6354SOL    HW119961   0.407   6.767   3.757
 6354SOL    HW219962   0.511   6.845   3.856
 6355SOL     OW19963   2.127   2.643   2.965
 6355SOL    HW119964   2.155   2.569   3.026
 6355SOL    HW219965   2.104   2.606   2.875
 6356SOL     OW19966   3.340   3.503   1.129
 6356SOL    HW119967   3.398   3.534   1.054
 6356SOL    HW219968   3.390   3.513   1.216
 6357SOL     OW19969   4.533   2.202   6.846
 6357SOL    HW119970   4.570   2.109   6.845
 6357SOL    HW219971   4.563   2.248   6.930
 6358SOL     OW19972   0.090   2.519   3.827
 6358SOL    HW119973   0.075   2.434   3.778
 6358SOL    HW219974   0.052   2.596   3.775
 6359SOL     OW19975   0.063   1.014   0.196
 6359SOL    HW119976   6.993   1.043   0.207
 6359SOL    HW219977   0.096   1.041   0.106
 6360SOL     OW19978   3.285   5.651   4.055
 6360SOL    HW119979   3.381   5.622   4.056
 6360SOL    HW219980   3.268   5.706   3.974
 6361SOL     OW19981   3.947   6.157   6.116
 6361SOL    HW119982   4.041   6.161   6.083
 6361SOL    HW219983   3.945   6.124   6.210
 6362SOL     OW19984   6.256   5.301   6.441
 6362SOL    HW119985   6.285   5.327   6.533
 6362SOL    HW219986   6.331   5.318   6.376
 6363SOL     OW19987   0.776   5.880   3.933
 6363SOL    HW119988   0.864   5.833   3.921
 6363SOL    HW219989   0.722   5.832   4.002
 6364SOL     OW19990   2.623   2.418   5.880
 6364SOL    HW119991   2.588   2.363   5.805
 6364SOL    HW219992   2.723   2.418   5.878
 6365SOL     OW19993   5.019   6.324   2.735
 6365SOL    HW119994   4.928   6.327   2.694
 6365SOL    HW219995   5.063   6.413   2.724
 6366SOL     OW19996   0.111   5.026   5.753
 6366SOL    HW119997   0.149   5.097   5.693
 6366SOL    HW219998   0.042   5.067   5.813
 6367SOL     OW19999   5.636   6.227   3.841
 6367SOL    HW120000   5.565   6.229   3.911
 6367SOL    HW220001   5.726   6.223   3.885
 6368SOL     OW20002   2.642   0.172   4.259
 6368SOL    HW120003   2.697   0.096   4.226
 6368SOL    HW220004   2.589   0.142   4.339
 6369SOL     OW20005   2.344   5.342   4.397
 6369SOL    HW120006   2.412   5.270   4.398
 6369SOL    HW220007   2.282   5.332   4.475
 6370SOL     OW20008   6.010   3.004   1.564
 6370SOL    HW120009   5.970   2.986   1.473
 6370SOL    HW220010   6.109   3.014   1.555
 6371SOL     OW20011   5.059   2.080   3.369
 6371SOL    HW120012   5.052   2.168   3.321
 6371SOL    HW220013   5.136   2.083   3.433
 6372SOL     OW20014   2.747   6.061   2.559
 6372SOL    HW120015   2.687   6.095   2.631
 6372SOL    HW220016   2.826   6.122   2.550
 6373SOL     OW20017   3.481   4.745   0.144
 6373SOL    HW120018   3.465   4.702   0.055
 6373SOL    HW220019   3.395   4.785   0.178
 6374SOL     OW20020   2.881   3.203   2.091
 6374SOL    HW120021   2.801   3.157   2.129
 6374SOL    HW220022   2.959   3.140   2.090
 6375SOL     OW20023   1.583   6.597   2.775
 6375SOL    HW120024   1.535   6.524   2.823
 6375SOL    HW220025   1.628   6.561   2.694
 6376SOL     OW20026   0.036   2.319   5.411
 6376SOL    HW120027   0.063   2.409   5.443
 6376SOL    HW220028   0.045   2.315   5.311
 6377SOL     OW20029   0.954   0.919   4.006
 6377SOL    HW120030   1.017   0.952   4.076
 6377SOL    HW220031   0.947   0.986   3.932
 6378SOL     OW20032   4.777   4.019   3.750
 6378SOL    HW120033   4.730   4.039   3.836
 6378SOL    HW220034   4.811   4.104   3.710
 6379SOL     OW20035   2.572   4.670   3.027
 6379SOL    HW120036   2.640   4.644   2.958
 6379SOL    HW220037   2.618   4.691   3.113
 6380SOL     OW20038   0.672   0.935   6.086
 6380SOL    HW120039   0.655   0.837   6.079
 6380SOL    HW220040   0.585   0.984   6.080
 6381SOL     OW20041   3.136   4.022   2.781
 6381SOL    HW120042   3.164   4.070   2.698
 6381SOL    HW220043   3.075   3.947   2.757
 6382SOL     OW20044   1.128   3.859   5.439
 6382SOL    HW120045   1.093   3.922   5.509
 6382SOL    HW220046   1.213   3.895   5.402
 6383SOL     OW20047   3.375   1.141   4.022
 6383SOL    HW120048   3.408   1.235   4.032
 6383SOL    HW220049   3.352   1.123   3.927
 6384SOL     OW20050   6.350   4.425   3.110
 6384SOL    HW120051   6.355   4.363   3.188
 6384SOL    HW220052   6.392   4.512   3.133
 6385SOL     OW20053   0.436   5.830   4.458
 6385SOL    HW120054   0.491   5.781   4.525
 6385SOL    HW220055   0.361   5.771   4.426
 6386SOL     OW20056   2.764   5.182   1.238
 6386SOL    HW120057   2.853   5.214   1.270
 6386SOL    HW220058   2.746   5.091   1.275
 6387SOL     OW20059   6.372   0.793   5.478
 6387SOL    HW120060   6.305   0.733   5.522
 6387SOL    HW220061   6.341   0.814   5.386
 6388SOL     OW20062   2.631   4.644   2.514
 6388SOL    HW120063   2.659   4.594   2.432
 6388SOL    HW220064   2.617   4.740   2.492
 6389SOL     OW20065   1.027   4.806   2.759
 6389SOL    HW120066   0.947   4.828   2.702
 6389SOL    HW220067   1.068   4.721   2.726
 6390SOL     OW20068   0.509   3.338   3.694
 6390SOL    HW120069   0.485   3.308   3.602
 6390SOL    HW220070   0.500   3.262   3.758
 6391SOL     OW20071   3.239   1.113   0.119
 6391SOL    HW120072   3.320   1.140   0.171
 6391SOL    HW220073   3.266   1.082   0.028
 6392SOL     OW20074   1.319   6.984   3.754
 6392SOL    HW120075   1.293   6.909   3.815
 6392SOL    HW220076   1.334   0.042   3.807
 6393SOL     OW20077   5.632   0.067   0.603
 6393SOL    HW120078   5.645   0.164   0.621
 6393SOL    HW220079   5.678   0.042   0.518
 6394SOL     OW20080   2.773   4.632   0.830
 6394SOL    HW120081   2.856   4.600   0.784
 6394SOL    HW220082   2.738   4.560   0.890
 6395SOL     OW20083   5.875   1.793   1.091
 6395SOL    HW120084   5.941   1.734   1.138
 6395SOL    HW220085   5.863   1.761   0.997
 6396SOL     OW20086   5.053   4.147   4.979
 6396SOL    HW120087   5.037   4.158   4.881
 6396SOL    HW220088   5.151   4.152   4.997
 6397SOL     OW20089   0.242   1.025   1.032
 6397SOL    HW120090   0.281   1.106   1.075
 6397SOL    HW220091   0.278   0.943   1.077
 6398SOL     OW20092   3.636   1.770   1.715
 6398SOL    HW120093   3.726   1.764   1.672
 6398SOL    HW220094   3.646   1.786   1.813
 6399SOL     OW20095   2.299   5.426   6.749
 6399SOL    HW120096   2.377   5.482   6.776
 6399SOL    HW220097   2.310   5.334   6.787
 6400SOL     OW20098   2.730   5.546   3.715
 6400SOL    HW120099   2.711   5.471   3.779
 6400SOL    HW220100   2.812   5.595   3.744
 6401SOL     OW20101   0.825   4.993   4.062
 6401SOL    HW120102   0.893   4.972   4.132
 6401SOL    HW220103   0.829   5.091   4.040
 6402SOL     OW20104   2.378   1.526   3.202
 6402SOL    HW120105   2.442   1.602   3.201
 6402SOL    HW220106   2.328   1.526   3.289
 6403SOL     OW20107   0.126   6.137   0.565
 6403SOL    HW120108   0.203   6.175   0.514
 6403SOL    HW220109   0.159   6.088   0.646
 6404SOL     OW20110   5.346   0.649   2.779
 6404SOL    HW120111   5.388   0.593   2.707
 6404SOL    HW220112   5.356   0.604   2.867
 6405SOL     OW20113   2.964   1.423   2.396
 6405SOL    HW120114   2.895   1.495   2.398
 6405SOL    HW220115   2.973   1.389   2.303
 6406SOL     OW20116   2.984   1.780   4.033
 6406SOL    HW120117   2.984   1.880   4.042
 6406SOL    HW220118   2.897   1.750   3.995
 6407SOL     OW20119   3.820   5.512   6.218
 6407SOL    HW120120   3.791   5.435   6.274
 6407SOL    HW220121   3.746   5.538   6.156
 6408SOL     OW20122   6.567   1.978   0.223
 6408SOL    HW120123   6.602   1.923   0.298
 6408SOL    HW220124   6.472   2.004   0.242
 6409SOL     OW20125   1.210   4.936   2.356
 6409SOL    HW120126   1.120   4.894   2.350
 6409SOL    HW220127   1.248   4.947   2.264
 6410SOL     OW20128   0.923   1.275   1.196
 6410SOL    HW120129   0.965   1.366   1.207
 6410SOL    HW220130   0.867   1.254   1.276
 6411SOL     OW20131   1.426   1.098   3.594
 6411SOL    HW120132   1.406   1.194   3.576
 6411SOL    HW220133   1.427   1.047   3.508
 6412SOL     OW20134   0.197   1.909   4.777
 6412SOL    HW120135   0.255   1.893   4.697
 6412SOL    HW220136   0.101   1.905   4.750
 6413SOL     OW20137   6.895   4.800   0.531
 6413SOL    HW120138   6.866   4.712   0.568
 6413SOL    HW220139   6.959   4.786   0.456
 6414SOL     OW20140   5.743   6.930   2.092
 6414SOL    HW120141   5.650   6.922   2.127
 6414SOL    HW220142   5.803   6.868   2.142
 6415SOL     OW20143   1.650   2.048   1.952
 6415SOL    HW120144   1.551   2.040   1.941
 6415SOL    HW220145   1.674   2.041   2.049
 6416SOL     OW20146   1.535   0.253   6.729
 6416SOL    HW120147   1.562   0.292   6.640
 6416SOL    HW220148   1.510   0.157   6.717
 6417SOL     OW20149   0.898   6.991   2.842
 6417SOL    HW120150   0.937   0.014   2.763
 6417SOL    HW220151   0.882   6.895   2.817
 6418SOL     OW20152   6.148   6.150   2.132
 6418SOL    HW120153   6.193   6.202   2.059
 6418SOL    HW220154   6.177   6.055   2.127
 6419SOL     OW20155   3.082   4.824   1.530
 6419SOL    HW120156   3.088   4.743   1.589
 6419SOL    HW220157   3.027   4.803   1.450
 6420SOL     OW20158   1.313   3.702   0.030
 6420SOL    HW120159   1.405   3.680   7.022
 6420SOL    HW220160   1.246   3.664   6.991
 6421SOL     OW20161   5.363   1.869   0.852
 6421SOL    HW120162   5.380   1.827   0.941
 6421SOL    HW220163   5.449   1.874   0.801
 6422SOL     OW20164   5.620   1.613   3.228
 6422SOL    HW120165   5.687   1.538   3.230
 6422SOL    HW220166   5.644   1.676   3.154
 6423SOL     OW20167   4.907   4.220   0.384
 6423SOL    HW120168   4.834   4.154   0.404
 6423SOL    HW220169   4.996   4.178   0.404
 6424SOL     OW20170   6.811   5.233   5.103
 6424SOL    HW120171   6.837   5.180   5.184
 6424SOL    HW220172   6.715   5.216   5.082
 6425SOL     OW20173   0.595   4.711   1.691
 6425SOL    HW120174   0.555   4.621   1.710
 6425SOL    HW220175   0.692   4.709   1.715
 6426SOL     OW20176   6.786   3.023   3.748
 6426SOL    HW120177   6.741   2.935   3.763
 6426SOL    HW220178   6.759   3.060   3.659
 6427SOL     OW20179   1.852   3.508   5.088
 6427SOL    HW120180   1.946   3.501   5.055
 6427SOL    HW220181   1.842   3.457   5.173
 6428SOL     OW20182   6.632   3.161   2.396
 6428SOL    HW120183   6.566   3.235   2.412
 6428SOL    HW220184   6.664   3.125   2.483
 6429SOL     OW20185   1.186   1.009   4.180
 6429SOL    HW120186   1.219   0.916   4.192
 6429SOL    HW220187   1.168   1.050   4.269
 6430SOL     OW20188   5.824   3.578   0.915
 6430SOL    HW120189   5.865   3.573   1.006
 6430SOL    HW220190   5.836   3.671   0.878
 6431SOL     OW20191   5.344   0.068   2.990
 6431SOL    HW120192   5.433   0.057   3.036
 6431SOL    HW220193   5.271   0.058   3.057
 6432SOL     OW20194   5.709   3.151   0.650
 6432SOL    HW120195   5.668   3.242   0.656
 6432SOL    HW220196   5.768   3.147   0.570
 6433SOL     OW20197   2.444   3.764   1.479
 6433SOL    HW120198   2.403   3.853   1.500
 6433SOL    HW220199   2.462   3.715   1.564
 6434SOL     OW20200   1.390   4.832   0.995
 6434SOL    HW120201   1.342   4.778   0.926
 6434SOL    HW220202   1.393   4.928   0.966
 6435SOL     OW20203   4.892   4.315   6.783
 6435SOL    HW120204   4.810   4.362   6.816
 6435SOL    HW220205   4.898   4.324   6.683
 6436SOL     OW20206   1.391   3.065   2.793
 6436SOL    HW120207   1.424   3.151   2.833
 6436SOL    HW220208   1.340   3.014   2.863
 6437SOL     OW20209   1.117   0.981   6.828
 6437SOL    HW120210   1.092   0.926   6.749
 6437SOL    HW220211   1.035   1.021   6.869
 6438SOL     OW20212   1.616   3.493   3.375
 6438SOL    HW120213   1.609   3.478   3.276
 6438SOL    HW220214   1.703   3.539   3.395
 6439SOL     OW20215   0.409   0.348   1.866
 6439SOL    HW120216   0.319   0.310   1.885
 6439SOL    HW220217   0.401   0.423   1.800
 6440SOL     OW20218   0.857   1.550   2.694
 6440SOL    HW120219   0.790   1.477   2.686
 6440SOL    HW220220   0.941   1.524   2.647
 6441SOL     OW20221   3.432   1.273   3.497
 6441SOL    HW120222   3.361   1.220   3.449
 6441SOL    HW220223   3.435   1.366   3.459
 6442SOL     OW20224   3.486   0.879   3.342
 6442SOL    HW120225   3.449   0.803   3.288
 6442SOL    HW220226   3.478   0.858   3.439
 6443SOL     OW20227   3.075   1.226   0.318
 6443SOL    HW120228   3.152   1.235   0.381
 6443SOL    HW220229   3.109   1.196   0.229
 6444SOL     OW20230   0.484   0.682   3.344
 6444SOL    HW120231   0.547   0.697   3.267
 6444SOL    HW220232   0.411   0.621   3.314
 6445SOL     OW20233   3.963   3.125   5.057
 6445SOL    HW120234   3.894   3.060   5.089
 6445SOL    HW220235   3.942   3.154   4.964
 6446SOL     OW20236   6.306   1.760   0.463
 6446SOL    HW120237   6.340   1.704   0.539
 6446SOL    HW220238   6.258   1.839   0.500
 6447SOL     OW20239   1.247   0.754   2.834
 6447SOL    HW120240   1.255   0.688   2.758
 6447SOL    HW220241   1.270   0.708   2.920
 6448SOL     OW20242   5.788   2.126   2.874
 6448SOL    HW120243   5.881   2.110   2.841
 6448SOL    HW220244   5.728   2.054   2.840
 6449SOL     OW20245   3.558   2.980   0.940
 6449SOL    HW120246   3.568   2.893   0.987
 6449SOL    HW220247   3.620   3.047   0.981
 6450SOL     OW20248   6.750   3.240   6.912
 6450SOL    HW120249   6.717   3.285   6.995
 6450SOL    HW220250   6.688   3.258   6.836
 6451SOL     OW20251   1.996   6.931   4.493
 6451SOL    HW120252   2.042   6.843   4.504
 6451SOL    HW220253   1.899   6.916   4.470
 6452SOL     OW20254   4.205   6.236   3.263
 6452SOL    HW120255   4.109   6.240   3.237
 6452SOL    HW220256   4.262   6.264   3.186
 6453SOL     OW20257   1.652   5.506   6.385
 6453SOL    HW120258   1.596   5.431   6.351
 6453SOL    HW220259   1.725   5.470   6.442
 6454SOL     OW20260   2.982   1.326   4.595
 6454SOL    HW120261   2.940   1.413   4.568
 6454SOL    HW220262   3.061   1.308   4.536
 6455SOL     OW20263   6.549   2.890   5.337
 6455SOL    HW120264   6.474   2.944   5.374
 6455SOL    HW220265   6.516   2.798   5.313
 6456SOL     OW20266   6.767   0.646   4.555
 6456SOL    HW120267   6.720   0.558   4.556
 6456SOL    HW220268   6.702   0.719   4.533
 6457SOL     OW20269   6.923   2.851   1.222
 6457SOL    HW120270   6.905   2.898   1.309
 6457SOL    HW220271   6.880   2.761   1.222
 6458SOL     OW20272   1.077   5.882   2.328
 6458SOL    HW120273   1.061   5.831   2.412
 6458SOL    HW220274   1.057   5.824   2.249
 6459SOL     OW20275   5.298   4.674   0.355
 6459SOL    HW120276   5.264   4.668   0.448
 6459SOL    HW220277   5.223   4.659   0.290
 6460SOL     OW20278   3.455   5.139   6.193
 6460SOL    HW120279   3.499   5.059   6.151
 6460SOL    HW220280   3.456   5.130   6.292
 6461SOL     OW20281   3.497   5.604   4.640
 6461SOL    HW120282   3.485   5.539   4.715
 6461SOL    HW220283   3.589   5.596   4.603
 6462SOL     OW20284   2.055   3.359   4.151
 6462SOL    HW120285   2.049   3.261   4.168
 6462SOL    HW220286   2.095   3.375   4.060
 6463SOL     OW20287   1.427   4.372   5.491
 6463SOL    HW120288   1.406   4.287   5.540
 6463SOL    HW220289   1.517   4.364   5.447
 6464SOL     OW20290   0.835   5.355   3.130
 6464SOL    HW120291   0.796   5.392   3.214
 6464SOL    HW220292   0.905   5.287   3.153
 6465SOL     OW20293   5.996   0.537   3.085
 6465SOL    HW120294   5.945   0.592   3.018
 6465SOL    HW220295   5.937   0.463   3.118
 6466SOL     OW20296   6.699   2.487   4.965
 6466SOL    HW120297   6.796   2.510   4.955
 6466SOL    HW220298   6.644   2.570   4.953
 6467SOL     OW20299   2.734   0.632   6.626
 6467SOL    HW120300   2.774   0.704   6.569
 6467SOL    HW220301   2.723   0.548   6.572
 6468SOL     OW20302   4.902   4.799   0.895
 6468SOL    HW120303   4.851   4.724   0.852
 6468SOL    HW220304   4.837   4.865   0.934
 6469SOL     OW20305   0.103   1.359   5.732
 6469SOL    HW120306   0.088   1.335   5.636
 6469SOL    HW220307   0.032   1.319   5.788
 6470SOL     OW20308   6.719   6.528   5.843
 6470SOL    HW120309   6.621   6.545   5.853
 6470SOL    HW220310   6.737   6.431   5.852
 6471SOL     OW20311   5.608   4.759   5.805
 6471SOL    HW120312   5.622   4.754   5.904
 6471SOL    HW220313   5.691   4.728   5.758
 6472SOL     OW20314   1.511   5.893   0.788
 6472SOL    HW120315   1.519   5.890   0.888
 6472SOL    HW220316   1.532   5.802   0.751
 6473SOL     OW20317   2.741   1.580   6.046
 6473SOL    HW120318   2.719   1.659   5.988
 6473SOL    HW220319   2.741   1.497   5.990
 6474SOL     OW20320   1.891   3.370   5.305
 6474SOL    HW120321   1.953   3.292   5.296
 6474SOL    HW220322   1.923   3.430   5.378
 6475SOL     OW20323   4.331   6.409   3.995
 6475SOL    HW120324   4.401   6.383   3.929
 6475SOL    HW220325   4.243   6.372   3.968
 6476SOL     OW20326   4.732   5.280   3.004
 6476SOL    HW120327   4.747   5.181   2.999
 6476SOL    HW220328   4.647   5.303   2.957
 6477SOL     OW20329   6.990   5.848   6.991
 6477SOL    HW120330   6.962   5.793   0.045
 6477SOL    HW220331   6.951   5.809   6.908
 6478SOL     OW20332   4.615   6.599   1.158
 6478SOL    HW120333   4.621   6.526   1.090
 6478SOL    HW220334   4.552   6.572   1.231
 6479SOL     OW20335   3.617   5.333   2.848
 6479SOL    HW120336   3.712   5.362   2.860
 6479SOL    HW220337   3.570   5.333   2.937
 6480SOL     OW20338   2.978   2.370   6.918
 6480SOL    HW120339   2.916   2.292   6.912
 6480SOL    HW220340   3.008   2.395   6.825
 6481SOL     OW20341   5.067   0.721   1.002
 6481SOL    HW120342   5.109   0.653   1.063
 6481SOL    HW220343   4.968   0.706   0.998
 6482SOL     OW20344   0.372   0.543   6.779
 6482SOL    HW120345   0.405   0.632   6.748
 6482SOL    HW220346   0.292   0.556   6.838
 6483SOL     OW20347   1.687   6.654   2.471
 6483SOL    HW120348   1.752   6.715   2.517
 6483SOL    HW220349   1.703   6.560   2.501
 6484SOL     OW20350   5.687   6.424   3.643
 6484SOL    HW120351   5.671   6.355   3.714
 6484SOL    HW220352   5.634   6.400   3.562
 6485SOL     OW20353   1.582   2.779   3.048
 6485SOL    HW120354   1.677   2.756   3.030
 6485SOL    HW220355   1.565   2.777   3.147
 6486SOL     OW20356   1.823   3.154   3.096
 6486SOL    HW120357   1.882   3.100   3.156
 6486SOL    HW220358   1.789   3.096   3.022
 6487SOL     OW20359   5.869   6.227   3.973
 6487SOL    HW120360   5.945   6.163   3.985
 6487SOL    HW220361   5.901   6.320   3.992
 6488SOL     OW20362   3.428   5.637   5.951
 6488SOL    HW120363   3.331   5.617   5.935
 6488SOL    HW220364   3.466   5.685   5.872
 6489SOL     OW20365   1.833   1.730   5.653
 6489SOL    HW120366   1.782   1.762   5.733
 6489SOL    HW220367   1.820   1.631   5.644
 6490SOL     OW20368   3.191   0.858   0.296
 6490SOL    HW120369   3.152   0.948   0.275
 6490SOL    HW220370   3.185   0.842   0.395
 6491SOL     OW20371   3.383   1.794   6.407
 6491SOL    HW120372   3.394   1.892   6.421
 6491SOL    HW220373   3.321   1.757   6.476
 6492SOL     OW20374   6.115   5.830   0.093
 6492SOL    HW120375   6.163   5.917   0.107
 6492SOL    HW220376   6.164   5.757   0.140
 6493SOL     OW20377   0.913   6.397   5.970
 6493SOL    HW120378   0.814   6.381   5.977
 6493SOL    HW220379   0.959   6.310   5.954
 6494SOL     OW20380   1.432   0.625   3.856
 6494SOL    HW120381   1.427   0.723   3.840
 6494SOL    HW220382   1.390   0.604   3.945
 6495SOL     OW20383   5.309   5.010   2.781
 6495SOL    HW120384   5.296   4.925   2.832
 6495SOL    HW220385   5.267   5.086   2.830
 6496SOL     OW20386   2.204   0.159   2.445
 6496SOL    HW120387   2.109   0.180   2.423
 6496SOL    HW220388   2.218   0.060   2.444
 6497SOL     OW20389   0.803   4.455   6.852
 6497SOL    HW120390   0.866   4.526   6.883
 6497SOL    HW220391   0.854   4.370   6.839
 6498SOL     OW20392   1.843   4.469   4.039
 6498SOL    HW120393   1.868   4.405   4.111
 6498SOL    HW220394   1.868   4.431   3.950
 6499SOL     OW20395   6.105   1.202   4.138
 6499SOL    HW120396   6.039   1.152   4.083
 6499SOL    HW220397   6.169   1.251   4.078
 6500SOL     OW20398   5.547   4.821   3.539
 6500SOL    HW120399   5.597   4.740   3.570
 6500SOL    HW220400   5.570   4.838   3.443
 6501SOL     OW20401   0.032   3.954   1.141
 6501SOL    HW120402   7.015   3.885   1.082
 6501SOL    HW220403   0.010   3.935   1.236
 6502SOL     OW20404   1.342   5.475   2.675
 6502SOL    HW120405   1.259   5.466   2.730
 6502SOL    HW220406   1.328   5.544   2.604
 6503SOL     OW20407   4.524   0.179   4.607
 6503SOL    HW120408   4.481   0.176   4.517
 6503SOL    HW220409   4.623   0.172   4.597
 6504SOL     OW20410   2.777   1.049   0.856
 6504SOL    HW120411   2.784   1.127   0.794
 6504SOL    HW220412   2.868   1.023   0.887
 6505SOL     OW20413   5.500   4.972   1.003
 6505SOL    HW120414   5.480   4.912   1.081
 6505SOL    HW220415   5.429   5.042   0.996
 6506SOL     OW20416   2.244   2.357   0.603
 6506SOL    HW120417   2.248   2.438   0.545
 6506SOL    HW220418   2.164   2.363   0.663
 6507SOL     OW20419   2.414   1.103   2.023
 6507SOL    HW120420   2.351   1.152   1.963
 6507SOL    HW220421   2.396   1.004   2.017
 6508SOL     OW20422   1.851   1.783   2.800
 6508SOL    HW120423   1.891   1.783   2.708
 6508SOL    HW220424   1.755   1.754   2.795
 6509SOL     OW20425   0.249   2.258   4.451
 6509SOL    HW120426   0.198   2.326   4.399
 6509SOL    HW220427   0.347   2.279   4.445
 6510SOL     OW20428   5.464   4.513   6.167
 6510SOL    HW120429   5.497   4.421   6.145
 6510SOL    HW220430   5.416   4.551   6.088
 6511SOL     OW20431   6.287   5.937   6.048
 6511SOL    HW120432   6.198   5.974   6.074
 6511SOL    HW220433   6.298   5.846   6.089
 6512SOL     OW20434   4.992   6.746   3.867
 6512SOL    HW120435   5.035   6.781   3.784
 6512SOL    HW220436   4.964   6.822   3.925
 6513SOL     OW20437   3.280   0.140   2.825
 6513SOL    HW120438   3.313   0.088   2.904
 6513SOL    HW220439   3.233   0.222   2.856
 6514SOL     OW20440   3.429   6.915   3.624
 6514SOL    HW120441   3.512   6.971   3.627
 6514SOL    HW220442   3.376   6.939   3.543
 6515SOL     OW20443   1.430   0.589   5.053
 6515SOL    HW120444   1.482   0.668   5.085
 6515SOL    HW220445   1.474   0.551   4.972
 6516SOL     OW20446   1.203   1.612   5.724
 6516SOL    HW120447   1.140   1.621   5.646
 6516SOL    HW220448   1.295   1.595   5.690
 6517SOL     OW20449   1.258   1.972   6.780
 6517SOL    HW120450   1.203   2.022   6.713
 6517SOL    HW220451   1.201   1.904   6.826
 6518SOL     OW20452   6.620   6.143   0.974
 6518SOL    HW120453   6.579   6.229   1.004
 6518SOL    HW220454   6.607   6.074   1.045
 6519SOL     OW20455   2.447   2.029   3.603
 6519SOL    HW120456   2.414   2.087   3.677
 6519SOL    HW220457   2.444   2.080   3.517
 6520SOL     OW20458   5.621   5.827   1.433
 6520SOL    HW120459   5.718   5.852   1.437
 6520SOL    HW220460   5.601   5.755   1.499
 6521SOL     OW20461   1.057   1.926   5.581
 6521SOL    HW120462   1.101   1.860   5.520
 6521SOL    HW220463   1.029   2.007   5.529
 6522SOL     OW20464   2.149   5.324   5.416
 6522SOL    HW120465   2.172   5.236   5.457
 6522SOL    HW220466   2.226   5.355   5.360
 6523SOL     OW20467   1.841   2.047   6.314
 6523SOL    HW120468   1.827   2.114   6.387
 6523SOL    HW220469   1.938   2.029   6.303
 6524SOL     OW20470   3.421   4.159   4.350
 6524SOL    HW120471   3.501   4.109   4.384
 6524SOL    HW220472   3.367   4.192   4.428
 6525SOL     OW20473   0.050   2.710   4.034
 6525SOL    HW120474   0.054   2.619   3.992
 6525SOL    HW220475   7.010   2.709   4.110
 6526SOL     OW20476   1.608   6.323   4.504
 6526SOL    HW120477   1.566   6.293   4.417
 6526SOL    HW220478   1.706   6.304   4.502
 6527SOL     OW20479   1.513   1.192   4.230
 6527SOL    HW120480   1.428   1.210   4.180
 6527SOL    HW220481   1.591   1.225   4.178
 6528SOL     OW20482   6.416   0.846   3.679
 6528SOL    HW120483   6.483   0.773   3.669
 6528SOL    HW220484   6.331   0.807   3.715
 6529SOL     OW20485   0.044   2.319   2.204
 6529SOL    HW120486   6.976   2.288   2.226
 6529SOL    HW220487   0.063   2.300   2.107
 6530SOL     OW20488   6.799   2.291   0.642
 6530SOL    HW120489   6.721   2.350   0.661
 6530SOL    HW220490   6.882   2.333   0.678
 6531SOL     OW20491   4.847   2.853   4.536
 6531SOL    HW120492   4.825   2.941   4.495
 6531SOL    HW220493   4.808   2.780   4.480
 6532SOL     OW20494   0.335   1.699   6.421
 6532SOL    HW120495   0.328   1.725   6.518
 6532SOL    HW220496   0.375   1.774   6.369
 6533SOL     OW20497   4.817   0.644   0.981
 6533SOL    HW120498   4.757   0.604   1.049
 6533SOL    HW220499   4.864   0.571   0.931
 6534SOL     OW20500   1.927   3.742   1.061
 6534SOL    HW120501   1.856   3.795   1.015
 6534SOL    HW220502   1.943   3.657   1.011
 6535SOL     OW20503   1.372   4.136   5.605
 6535SOL    HW120504   1.282   4.131   5.649
 6535SOL    HW220505   1.367   4.091   5.515
 6536SOL     OW20506   0.151   2.665   0.131
 6536SOL    HW120507   0.096   2.702   0.205
 6536SOL    HW220508   0.113   2.577   0.102
 6537SOL     OW20509   1.060   0.046   0.597
 6537SOL    HW120510   1.089   0.127   0.546
 6537SOL    HW220511   0.973   0.065   0.642
 6538SOL     OW20512   2.139   3.336   6.343
 6538SOL    HW120513   2.119   3.248   6.385
 6538SOL    HW220514   2.058   3.370   6.296
 6539SOL     OW20515   2.530   1.590   6.789
 6539SOL    HW120516   2.550   1.682   6.755
 6539SOL    HW220517   2.598   1.566   6.859
 6540SOL     OW20518   3.282   0.753   3.931
 6540SOL    HW120519   3.225   0.835   3.924
 6540SOL    HW220520   3.370   0.777   3.971
 6541SOL     OW20521   2.262   2.195   5.920
 6541SOL    HW120522   2.237   2.150   5.834
 6541SOL    HW220523   2.278   2.127   5.990
 6542SOL     OW20524   6.072   4.406   3.091
 6542SOL    HW120525   6.053   4.318   3.135
 6542SOL    HW220526   6.163   4.438   3.119
 6543SOL     OW20527   6.835   5.763   0.168
 6543SOL    HW120528   6.854   5.801   0.258
 6543SOL    HW220529   6.761   5.815   0.125
 6544SOL     OW20530   6.569   6.356   4.559
 6544SOL    HW120531   6.502   6.408   4.613
 6544SOL    HW220532   6.599   6.412   4.482
 6545SOL     OW20533   5.273   2.053   5.742
 6545SOL    HW120534   5.197   2.104   5.782
 6545SOL    HW220535   5.352   2.114   5.730
 6546SOL     OW20536   2.877   4.311   6.222
 6546SOL    HW120537   2.847   4.252   6.297
 6546SOL    HW220538   2.823   4.395   6.222
 6547SOL     OW20539   4.506   2.198   6.565
 6547SOL    HW120540   4.410   2.188   6.538
 6547SOL    HW220541   4.516   2.171   6.661
 6548SOL     OW20542   6.546   5.196   5.044
 6548SOL    HW120543   6.543   5.108   5.091
 6548SOL    HW220544   6.473   5.255   5.078
 6549SOL     OW20545   3.530   1.418   1.128
 6549SOL    HW120546   3.625   1.433   1.157
 6549SOL    HW220547   3.508   1.482   1.054
 6550SOL     OW20548   0.728   5.442   3.382
 6550SOL    HW120549   0.696   5.534   3.405
 6550SOL    HW220550   0.820   5.428   3.420
 6551SOL     OW20551   2.056   5.170   2.449
 6551SOL    HW120552   2.143   5.162   2.496
 6551SOL    HW220553   1.982   5.179   2.515
 6552SOL     OW20554   3.561   4.917   6.060
 6552SOL    HW120555   3.618   4.962   5.992
 6552SOL    HW220556   3.616   4.850   6.111
 6553SOL     OW20557   0.059   2.813   2.648
 6553SOL    HW120558   0.008   2.881   2.596
 6553SOL    HW220559   0.049   2.832   2.746
 6554SOL     OW20560   0.383   2.924   5.298
 6554SOL    HW120561   0.394   2.949   5.394
 6554SOL    HW220562   0.423   2.995   5.240
 6555SOL     OW20563   0.103   1.542   2.261
 6555SOL    HW120564   0.119   1.486   2.180
 6555SOL    HW220565   0.017   1.592   2.250
 6556SOL     OW20566   3.764   6.988   4.225
 6556SOL    HW120567   3.726   6.904   4.262
 6556SOL    HW220568   3.856   7.001   4.262
 6557SOL     OW20569   6.467   5.698   1.045
 6557SOL    HW120570   6.437   5.634   1.116
 6557SOL    HW220571   6.494   5.784   1.088
 6558SOL     OW20572   6.288   5.396   6.719
 6558SOL    HW120573   6.203   5.444   6.741
 6558SOL    HW220574   6.359   5.462   6.694
 6559SOL     OW20575   3.587   3.424   0.783
 6559SOL    HW120576   3.672   3.378   0.756
 6559SOL    HW220577   3.521   3.417   0.708
 6560SOL     OW20578   3.895   2.519   0.130
 6560SOL    HW120579   3.960   2.468   0.074
 6560SOL    HW220580   3.934   2.534   0.221
 6561SOL     OW20581   3.921   3.865   4.824
 6561SOL    HW120582   3.825   3.884   4.846
 6561SOL    HW220583   3.942   3.902   4.734
 6562SOL     OW20584   6.000   3.894   5.762
 6562SOL    HW120585   6.064   3.866   5.690
 6562SOL    HW220586   6.017   3.840   5.845
 6563SOL     OW20587   1.693   5.610   1.996
 6563SOL    HW120588   1.704   5.511   1.996
 6563SOL    HW220589   1.658   5.640   1.907
 6564SOL     OW20590   1.232   5.654   2.476
 6564SOL    HW120591   1.186   5.732   2.519
 6564SOL    HW220592   1.167   5.603   2.420
 6565SOL     OW20593   6.442   3.117   5.466
 6565SOL    HW120594   6.427   3.200   5.412
 6565SOL    HW220595   6.531   3.122   5.511
 6566SOL     OW20596   3.485   0.031   0.373
 6566SOL    HW120597   3.482   0.065   0.279
 6566SOL    HW220598   3.467   0.107   0.436
 6567SOL     OW20599   5.644   3.140   1.423
 6567SOL    HW120600   5.725   3.122   1.367
 6567SOL    HW220601   5.568   3.085   1.391
 6568SOL     OW20602   4.016   4.627   1.338
 6568SOL    HW120603   3.944   4.566   1.371
 6568SOL    HW220604   4.105   4.588   1.358
 6569SOL     OW20605   0.225   4.537   6.600
 6569SOL    HW120606   0.293   4.605   6.629
 6569SOL    HW220607   0.182   4.566   6.515
 6570SOL     OW20608   6.549   2.581   1.055
 6570SOL    HW120609   6.498   2.521   1.116
 6570SOL    HW220610   6.575   2.664   1.104
 6571SOL     OW20611   2.589   5.800   3.786
 6571SOL    HW120612   2.679   5.841   3.775
 6571SOL    HW220613   2.595   5.701   3.769
 6572SOL     OW20614   0.884   3.702   6.340
 6572SOL    HW120615   0.915   3.612   6.311
 6572SOL    HW220616   0.911   3.771   6.272
 6573SOL     OW20617   2.090   2.018   2.690
 6573SOL    HW120618   2.157   1.950   2.660
 6573SOL    HW220619   2.006   2.008   2.637
 6574SOL     OW20620   2.946   5.151   3.054
 6574SOL    HW120621   2.924   5.224   2.989
 6574SOL    HW220622   2.879   5.077   3.044
 6575SOL     OW20623   0.806   1.153   3.119
 6575SOL    HW120624   0.810   1.150   3.019
 6575SOL    HW220625   0.711   1.150   3.149
 6576SOL     OW20626   0.906   6.150   5.572
 6576SOL    HW120627   0.967   6.183   5.644
 6576SOL    HW220628   0.943   6.066   5.532
 6577SOL     OW20629   6.197   1.895   4.200
 6577SOL    HW120630   6.230   1.863   4.289
 6577SOL    HW220631   6.147   1.821   4.155
 6578SOL     OW20632   6.201   5.137   3.426
 6578SOL    HW120633   6.254   5.060   3.462
 6578SOL    HW220634   6.212   5.216   3.486
 6579SOL     OW20635   0.445   3.700   2.474
 6579SOL    HW120636   0.355   3.744   2.484
 6579SOL    HW220637   0.444   3.613   2.522
 6580SOL     OW20638   6.222   2.591   1.813
 6580SOL    HW120639   6.269   2.663   1.763
 6580SOL    HW220640   6.164   2.539   1.751
 6581SOL     OW20641   2.460   1.900   5.728
 6581SOL    HW120642   2.406   1.815   5.728
 6581SOL    HW220643   2.407   1.973   5.685
 6582SOL     OW20644   6.694   6.864   2.890
 6582SOL    HW120645   6.725   6.894   2.799
 6582SOL    HW220646   6.655   6.942   2.939
 6583SOL     OW20647   6.127   1.810   5.675
 6583SOL    HW120648   6.071   1.892   5.663
 6583SOL    HW220649   6.211   1.835   5.724
 6584SOL     OW20650   5.979   1.473   6.620
 6584SOL    HW120651   5.955   1.432   6.708
 6584SOL    HW220652   6.049   1.418   6.575
 6585SOL     OW20653   1.939   1.266   0.066
 6585SOL    HW120654   1.950   1.224   0.156
 6585SOL    HW220655   1.841   1.278   0.047
 6586SOL     OW20656   6.987   2.453   6.246
 6586SOL    HW120657   7.022   2.539   6.282
 6586SOL    HW220658   0.037   2.387   6.240
 6587SOL     OW20659   1.910   6.800   2.738
 6587SOL    HW120660   1.989   6.759   2.784
 6587SOL    HW220661   1.845   6.833   2.806
 6588SOL     OW20662   2.215   3.110   6.954
 6588SOL    HW120663   2.240   3.112   6.857
 6588SOL    HW220664   2.116   3.101   6.963
 6589SOL     OW20665   4.642   1.702   5.728
 6589SOL    HW120666   4.678   1.745   5.811
 6589SOL    HW220667   4.668   1.605   5.727
 6590SOL     OW20668   6.743   1.091   5.490
 6590SOL    HW120669   6.754   1.186   5.519
 6590SOL    HW220670   6.811   1.069   5.421
 6591SOL     OW20671   5.623   0.976   2.653
 6591SOL    HW120672   5.623   1.013   2.561
 6591SOL    HW220673   5.701   1.013   2.704
 6592SOL     OW20674   4.796   5.815   4.726
 6592SOL    HW120675   4.718   5.838   4.784
 6592SOL    HW220676   4.846   5.738   4.766
 6593SOL     OW20677   4.004   0.861   2.192
 6593SOL    HW120678   3.919   0.808   2.190
 6593SOL    HW220679   3.996   0.934   2.259
 6594SOL     OW20680   5.997   0.617   6.257
 6594SOL    HW120681   5.962   0.700   6.301
 6594SOL    HW220682   6.000   0.630   6.158
 6595SOL     OW20683   1.069   3.976   0.590
 6595SOL    HW120684   1.003   4.036   0.544
 6595SOL    HW220685   1.097   3.904   0.527
 6596SOL     OW20686   3.975   6.791   4.795
 6596SOL    HW120687   4.040   6.800   4.871
 6596SOL    HW220688   3.978   6.874   4.738
 6597SOL     OW20689   0.189   4.602   5.328
 6597SOL    HW120690   0.119   4.670   5.353
 6597SOL    HW220691   0.197   4.598   5.228
 6598SOL     OW20692   1.735   5.697   5.766
 6598SOL    HW120693   1.828   5.674   5.796
 6598SOL    HW220694   1.669   5.642   5.817
 6599SOL     OW20695   4.240   4.260   5.888
 6599SOL    HW120696   4.153   4.274   5.937
 6599SOL    HW220697   4.261   4.341   5.834
 6600SOL     OW20698   4.868   6.121   4.518
 6600SOL    HW120699   4.865   6.176   4.435
 6600SOL    HW220700   4.828   6.031   4.500
 6601SOL     OW20701   1.686   0.056   1.350
 6601SOL    HW120702   1.662   6.983   1.353
 6601SOL    HW220703   1.677   0.089   1.256
 6602SOL     OW20704   6.593   1.458   1.407
 6602SOL    HW120705   6.618   1.489   1.499
 6602SOL    HW220706   6.498   1.428   1.407
 6603SOL     OW20707   2.199   3.057   3.230
 6603SOL    HW120708   2.193   3.053   3.130
 6603SOL    HW220709   2.270   2.994   3.262
 6604SOL     OW20710   3.363   6.006   2.909
 6604SOL    HW120711   3.400   6.014   3.001
 6604SOL    HW220712   3.436   5.983   2.845
 6605SOL     OW20713   6.030   6.709   0.349
 6605SOL    HW120714   6.040   6.783   0.415
 6605SOL    HW220715   5.946   6.721   0.297
 6606SOL     OW20716   5.149   1.127   2.719
 6606SOL    HW120717   5.145   1.175   2.632
 6606SOL    HW220718   5.232   1.071   2.723
 6607SOL     OW20719   1.180   2.753   2.933
 6607SOL    HW120720   1.125   2.694   2.993
 6607SOL    HW220721   1.239   2.812   2.989
 6608SOL     OW20722   5.974   3.681   4.616
 6608SOL    HW120723   5.954   3.584   4.603
 6608SOL    HW220724   6.057   3.705   4.566
 6609SOL     OW20725   6.035   1.805   6.841
 6609SOL    HW120726   5.947   1.812   6.794
 6609SOL    HW220727   6.108   1.797   6.773
 6610SOL     OW20728   2.849   0.720   0.252
 6610SOL    HW120729   2.908   0.716   0.172
 6610SOL    HW220730   2.787   0.799   0.244
 6611SOL     OW20731   5.558   2.901   3.065
 6611SOL    HW120732   5.586   2.931   2.974
 6611SOL    HW220733   5.638   2.893   3.124
 6612SOL     OW20734   1.593   6.202   6.659
 6612SOL    HW120735   1.661   6.136   6.627
 6612SOL    HW220736   1.519   6.154   6.705
 6613SOL     OW20737   4.758   5.375   1.512
 6613SOL    HW120738   4.832   5.388   1.446
 6613SOL    HW220739   4.745   5.277   1.529
 6614SOL     OW20740   5.614   5.678   5.982
 6614SOL    HW120741   5.544   5.623   6.028
 6614SOL    HW220742   5.575   5.766   5.955
 6615SOL     OW20743   1.017   3.841   5.165
 6615SOL    HW120744   1.003   3.856   5.263
 6615SOL    HW220745   1.101   3.886   5.135
 6616SOL     OW20746   4.719   0.364   4.828
 6616SOL    HW120747   4.696   0.326   4.739
 6616SOL    HW220748   4.641   0.416   4.863
 6617SOL     OW20749   4.191   6.879   4.994
 6617SOL    HW120750   4.144   6.964   5.019
 6617SOL    HW220751   4.227   6.836   5.077
 6618SOL     OW20752   0.853   4.294   1.551
 6618SOL    HW120753   0.776   4.278   1.490
 6618SOL    HW220754   0.927   4.231   1.528
 6619SOL     OW20755   5.254   5.820   2.549
 6619SOL    HW120756   5.198   5.809   2.631
 6619SOL    HW220757   5.263   5.732   2.503
 6620SOL     OW20758   2.391   2.921   5.619
 6620SOL    HW120759   2.386   2.826   5.650
 6620SOL    HW220760   2.410   2.981   5.697
 6621SOL     OW20761   2.681   4.118   6.900
 6621SOL    HW120762   2.646   4.192   6.842
 6621SOL    HW220763   2.719   4.046   6.843
 6622SOL     OW20764   6.597   7.013   0.494
 6622SOL    HW120765   6.637   6.948   0.558
 6622SOL    HW220766   6.547   6.964   0.423
 6623SOL     OW20767   3.558   3.893   1.822
 6623SOL    HW120768   3.557   3.817   1.758
 6623SOL    HW220769   3.486   3.958   1.798
 6624SOL     OW20770   4.249   4.767   4.231
 6624SOL    HW120771   4.265   4.866   4.227
 6624SOL    HW220772   4.307   4.727   4.302
 6625SOL     OW20773   6.465   0.461   0.631
 6625SOL    HW120774   6.411   0.492   0.710
 6625SOL    HW220775   6.559   0.496   0.639
 6626SOL     OW20776   3.125   4.899   3.416
 6626SOL    HW120777   3.215   4.903   3.460
 6626SOL    HW220778   3.078   4.986   3.427
 6627SOL     OW20779   2.231   6.176   1.180
 6627SOL    HW120780   2.195   6.113   1.110
 6627SOL    HW220781   2.330   6.187   1.168
 6628SOL     OW20782   3.923   6.272   3.167
 6628SOL    HW120783   3.865   6.318   3.100
 6628SOL    HW220784   3.894   6.298   3.259
 6629SOL     OW20785   3.169   4.371   0.104
 6629SOL    HW120786   3.269   4.376   0.102
 6629SOL    HW220787   3.133   4.438   0.169
 6630SOL     OW20788   2.787   2.057   6.255
 6630SOL    HW120789   2.756   2.151   6.260
 6630SOL    HW220790   2.821   2.037   6.164
 6631SOL     OW20791   4.465   0.667   2.127
 6631SOL    HW120792   4.405   0.715   2.191
 6631SOL    HW220793   4.560   0.675   2.159
 6632SOL     OW20794   0.203   2.062   2.211
 6632SOL    HW120795   0.184   1.966   2.189
 6632SOL    HW220796   0.185   2.118   2.130
 6633SOL     OW20797   0.261   7.001   1.236
 6633SOL    HW120798   0.292   6.919   1.284
 6633SOL    HW220799   0.223   6.976   1.147
 6634SOL     OW20800   6.837   3.058   5.777
 6634SOL    HW120801   6.782   3.017   5.851
 6634SOL    HW220802   6.933   3.038   5.792
 6635SOL     OW20803   4.819   4.287   3.640
 6635SOL    HW120804   4.832   4.310   3.544
 6635SOL    HW220805   4.770   4.361   3.687
 6636SOL     OW20806   1.545   2.781   4.373
 6636SOL    HW120807   1.576   2.724   4.449
 6636SOL    HW220808   1.577   2.742   4.287
 6637SOL     OW20809   6.411   1.205   1.201
 6637SOL    HW120810   6.479   1.245   1.139
 6637SOL    HW220811   6.366   1.278   1.252
 6638SOL     OW20812   2.140   5.822   5.640
 6638SOL    HW120813   2.231   5.850   5.608
 6638SOL    HW220814   2.096   5.899   5.686
 6639SOL     OW20815   5.690   5.680   0.077
 6639SOL    HW120816   5.753   5.735   0.132
 6639SOL    HW220817   5.628   5.741   0.027
 6640SOL     OW20818   5.665   3.305   3.644
 6640SOL    HW120819   5.635   3.399   3.633
 6640SOL    HW220820   5.663   3.281   3.741
 6641SOL     OW20821   1.809   4.433   6.432
 6641SOL    HW120822   1.751   4.488   6.372
 6641SOL    HW220823   1.882   4.390   6.379
 6642SOL     OW20824   0.376   6.285   0.425
 6642SOL    HW120825   0.406   6.362   0.482
 6642SOL    HW220826   0.455   6.246   0.378
 6643SOL     OW20827   4.479   5.419   6.768
 6643SOL    HW120828   4.475   5.330   6.812
 6643SOL    HW220829   4.388   5.462   6.771
 6644SOL     OW20830   2.951   4.757   2.203
 6644SOL    HW120831   2.878   4.823   2.220
 6644SOL    HW220832   2.915   4.682   2.147
 6645SOL     OW20833   0.362   5.004   5.436
 6645SOL    HW120834   0.289   5.059   5.479
 6645SOL    HW220835   0.444   5.007   5.493
 6646SOL     OW20836   2.305   5.706   3.628
 6646SOL    HW120837   2.333   5.792   3.671
 6646SOL    HW220838   2.207   5.693   3.640
 6647SOL     OW20839   3.344   1.987   2.348
 6647SOL    HW120840   3.270   2.053   2.349
 6647SOL    HW220841   3.360   1.956   2.254
 6648SOL     OW20842   4.693   5.657   2.601
 6648SOL    HW120843   4.677   5.651   2.502
 6648SOL    HW220844   4.747   5.738   2.621
 6649SOL     OW20845   3.920   2.707   6.225
 6649SOL    HW120846   3.846   2.723   6.159
 6649SOL    HW220847   3.891   2.638   6.292
 6650SOL     OW20848   3.036   1.932   3.186
 6650SOL    HW120849   3.104   1.913   3.258
 6650SOL    HW220850   3.014   1.847   3.138
 6651SOL     OW20851   1.211   2.596   6.708
 6651SOL    HW120852   1.199   2.695   6.714
 6651SOL    HW220853   1.169   2.562   6.624
 6652SOL     OW20854   6.744   5.294   2.918
 6652SOL    HW120855   6.697   5.357   2.979
 6652SOL    HW220856   6.808   5.345   2.859
 6653SOL     OW20857   3.631   3.322   3.487
 6653SOL    HW120858   3.635   3.411   3.533
 6653SOL    HW220859   3.551   3.320   3.427
 6654SOL     OW20860   2.021   3.395   1.782
 6654SOL    HW120861   2.092   3.434   1.840
 6654SOL    HW220862   2.060   3.370   1.694
 6655SOL     OW20863   2.499   6.901   1.287
 6655SOL    HW120864   2.448   6.964   1.228
 6655SOL    HW220865   2.537   6.952   1.365
 6656SOL     OW20866   5.931   2.608   1.386
 6656SOL    HW120867   5.911   2.625   1.289
 6656SOL    HW220868   6.026   2.630   1.405
 6657SOL     OW20869   2.905   6.275   6.193
 6657SOL    HW120870   2.929   6.194   6.247
 6657SOL    HW220871   2.807   6.276   6.175
 6658SOL     OW20872   5.033   0.789   5.764
 6658SOL    HW120873   5.103   0.841   5.715
 6658SOL    HW220874   5.078   0.724   5.825
 6659SOL     OW20875   1.373   3.161   6.544
 6659SOL    HW120876   1.446   3.214   6.501
 6659SOL    HW220877   1.405   3.126   6.632
 6660SOL     OW20878   6.790   6.609   2.908
 6660SOL    HW120879   6.718   6.541   2.891
 6660SOL    HW220880   6.753   6.701   2.895
 6661SOL     OW20881   0.047   6.269   3.723
 6661SOL    HW120882   0.122   6.281   3.658
 6661SOL    HW220883   6.994   6.325   3.693
 6662SOL     OW20884   0.934   3.209   6.703
 6662SOL    HW120885   1.010   3.234   6.644
 6662SOL    HW220886   0.930   3.109   6.711
 6663SOL     OW20887   0.484   5.754   2.080
 6663SOL    HW120888   0.498   5.850   2.061
 6663SOL    HW220889   0.570   5.704   2.071
 6664SOL     OW20890   1.124   1.645   3.202
 6664SOL    HW120891   1.104   1.602   3.114
 6664SOL    HW220892   1.094   1.741   3.200
 6665SOL     OW20893   2.495   6.684   2.826
 6665SOL    HW120894   2.460   6.767   2.782
 6665SOL    HW220895   2.530   6.622   2.757
 6666SOL     OW20896   6.666   0.556   0.231
 6666SOL    HW120897   6.598   0.485   0.215
 6666SOL    HW220898   6.621   0.641   0.256
 6667SOL     OW20899   6.795   5.042   4.722
 6667SOL    HW120900   6.851   5.005   4.797
 6667SOL    HW220901   6.845   5.033   4.636
 6668SOL     OW20902   0.658   5.012   1.684
 6668SOL    HW120903   0.664   5.036   1.587
 6668SOL    HW220904   0.625   4.919   1.693
 6669SOL     OW20905   2.318   6.113   2.726
 6669SOL    HW120906   2.301   6.110   2.628
 6669SOL    HW220907   2.288   6.027   2.768
 6670SOL     OW20908   3.813   4.664   6.881
 6670SOL    HW120909   3.725   4.707   6.863
 6670SOL    HW220910   3.825   4.651   6.979
 6671SOL     OW20911   6.965   2.680   4.763
 6671SOL    HW120912   6.941   2.612   4.694
 6671SOL    HW220913   6.988   2.634   4.849
 6672SOL     OW20914   2.074   0.905   5.412
 6672SOL    HW120915   2.022   0.821   5.426
 6672SOL    HW220916   2.119   0.903   5.323
 6673SOL     OW20917   4.558   4.858   1.230
 6673SOL    HW120918   4.537   4.945   1.184
 6673SOL    HW220919   4.521   4.859   1.322
 6674SOL     OW20920   0.756   6.983   4.438
 6674SOL    HW120921   0.788   6.939   4.522
 6674SOL    HW220922   0.831   0.010   4.397
 6675SOL     OW20923   5.986   5.299   0.381
 6675SOL    HW120924   6.077   5.338   0.380
 6675SOL    HW220925   5.936   5.328   0.299
 6676SOL     OW20926   1.027   2.697   5.962
 6676SOL    HW120927   1.104   2.759   5.977
 6676SOL    HW220928   0.945   2.735   6.007
 6677SOL     OW20929   0.303   3.697   0.188
 6677SOL    HW120930   0.207   3.692   0.215
 6677SOL    HW220931   0.352   3.758   0.251
 6678SOL     OW20932   1.181   3.036   5.387
 6678SOL    HW120933   1.265   3.040   5.441
 6678SOL    HW220934   1.130   3.122   5.396
 6679SOL     OW20935   1.304   2.105   4.378
 6679SOL    HW120936   1.363   2.162   4.435
 6679SOL    HW220937   1.306   2.139   4.284
 6680SOL     OW20938   2.926   6.797   6.345
 6680SOL    HW120939   2.901   6.830   6.436
 6680SOL    HW220940   3.013   6.748   6.351
 6681SOL     OW20941   5.728   5.246   0.048
 6681SOL    HW120942   5.742   5.315   0.119
 6681SOL    HW220943   5.798   5.175   0.057
 6682SOL     OW20944   6.899   6.159   2.022
 6682SOL    HW120945   6.933   6.250   2.044
 6682SOL    HW220946   6.976   6.097   2.006
 6683SOL     OW20947   5.543   2.244   4.199
 6683SOL    HW120948   5.568   2.269   4.292
 6683SOL    HW220949   5.477   2.310   4.162
 6684SOL     OW20950   2.214   6.764   2.463
 6684SOL    HW120951   2.175   6.677   2.492
 6684SOL    HW220952   2.173   6.839   2.515
 6685SOL     OW20953   5.129   3.587   6.491
 6685SOL    HW120954   5.217   3.579   6.444
 6685SOL    HW220955   5.104   3.684   6.500
 6686SOL     OW20956   6.036   3.610   3.880
 6686SOL    HW120957   5.959   3.551   3.902
 6686SOL    HW220958   6.003   3.693   3.835
 6687SOL     OW20959   1.686   1.875   0.152
 6687SOL    HW120960   1.626   1.831   0.219
 6687SOL    HW220961   1.781   1.859   0.177
 6688SOL     OW20962   0.641   4.968   2.955
 6688SOL    HW120963   0.629   5.066   2.963
 6688SOL    HW220964   0.734   4.943   2.982
 6689SOL     OW20965   4.517   4.511   0.263
 6689SOL    HW120966   4.542   4.463   0.347
 6689SOL    HW220967   4.429   4.477   0.230
 6690SOL     OW20968   1.914   2.268   1.002
 6690SOL    HW120969   1.862   2.205   1.059
 6690SOL    HW220970   2.012   2.254   1.017
 6691SOL     OW20971   1.672   4.667   1.658
 6691SOL    HW120972   1.617   4.749   1.641
 6691SOL    HW220973   1.759   4.674   1.610
 6692SOL     OW20974   3.368   4.117   6.075
 6692SOL    HW120975   3.309   4.191   6.106
 6692SOL    HW220976   3.339   4.031   6.116
 6693SOL     OW20977   4.138   3.368   5.064
 6693SOL    HW120978   4.096   3.277   5.060
 6693SOL    HW220979   4.205   3.377   4.990
 6694SOL     OW20980   2.858   6.342   0.685
 6694SOL    HW120981   2.841   6.245   0.700
 6694SOL    HW220982   2.770   6.391   0.681
 6695SOL     OW20983   1.767   2.313   0.254
 6695SOL    HW120984   1.818   2.304   0.168
 6695SOL    HW220985   1.744   2.409   0.268
 6696SOL     OW20986   2.107   3.087   1.968
 6696SOL    HW120987   2.144   3.147   1.897
 6696SOL    HW220988   2.022   3.125   2.003
 6697SOL     OW20989   5.021   1.254   3.221
 6697SOL    HW120990   5.045   1.189   3.293
 6697SOL    HW220991   4.955   1.320   3.257
 6698SOL     OW20992   3.826   3.545   0.257
 6698SOL    HW120993   3.894   3.475   0.275
 6698SOL    HW220994   3.763   3.550   0.335
 6699SOL     OW20995   0.965   3.722   0.078
 6699SOL    HW120996   0.908   3.783   0.023
 6699SOL    HW220997   0.910   3.644   0.109
 6700SOL     OW20998   6.721   6.308   0.175
 6700SOL    HW120999   6.695   6.242   0.105
 6700SOL    HW221000   6.804   6.357   0.146
 6701SOL     OW21001   1.107   1.868   1.080
 6701SOL    HW121002   1.161   1.855   1.163
 6701SOL    HW221003   1.116   1.787   1.022
 6702SOL     OW21004   2.515   2.344   0.804
 6702SOL    HW121005   2.609   2.333   0.834
 6702SOL    HW221006   2.464   2.260   0.824
 6703SOL     OW21007   0.491   2.189   6.511
 6703SOL    HW121008   0.561   2.260   6.520
 6703SOL    HW221009   0.535   2.099   6.513
 6704SOL     OW21010   5.224   1.873   2.769
 6704SOL    HW121011   5.243   1.828   2.681
 6704SOL    HW221012   5.128   1.899   2.772
 6705SOL     OW21013   5.920   1.312   0.213
 6705SOL    HW121014   5.960   1.296   0.303
 6705SOL    HW221015   5.991   1.303   0.143
 6706SOL     OW21016   0.329   4.826   6.279
 6706SOL    HW121017   0.387   4.787   6.350
 6706SOL    HW221018   0.386   4.861   6.205
 6707SOL     OW21019   1.146   6.455   2.564
 6707SOL    HW121020   1.090   6.375   2.545
 6707SOL    HW221021   1.233   6.447   2.514
 6708SOL     OW21022   2.535   6.085   1.372
 6708SOL    HW121023   2.500   5.993   1.353
 6708SOL    HW221024   2.634   6.086   1.362
 6709SOL     OW21025   4.667   1.332   2.968
 6709SOL    HW121026   4.707   1.395   3.035
 6709SOL    HW221027   4.738   1.299   2.907
 6710SOL     OW21028   2.681   2.652   0.874
 6710SOL    HW121029   2.628   2.726   0.915
 6710SOL    HW221030   2.645   2.633   0.783
 6711SOL     OW21031   3.837   3.840   0.820
 6711SOL    HW121032   3.808   3.797   0.905
 6711SOL    HW221033   3.798   3.932   0.814
 6712SOL     OW21034   3.325   5.708   0.471
 6712SOL    HW121035   3.395   5.708   0.399
 6712SOL    HW221036   3.368   5.686   0.559
 6713SOL     OW21037   2.010   2.008   2.370
 6713SOL    HW121038   1.987   1.957   2.287
 6713SOL    HW221039   2.109   2.017   2.377
 6714SOL     OW21040   6.312   0.273   3.902
 6714SOL    HW121041   6.317   0.373   3.899
 6714SOL    HW221042   6.333   0.237   3.811
 6715SOL     OW21043   0.912   1.831   1.352
 6715SOL    HW121044   0.961   1.907   1.396
 6715SOL    HW221045   0.936   1.745   1.399
 6716SOL     OW21046   2.432   5.997   0.638
 6716SOL    HW121047   2.447   6.046   0.551
 6716SOL    HW221048   2.359   6.043   0.689
 6717SOL     OW21049   3.608   1.671   6.667
 6717SOL    HW121050   3.665   1.607   6.718
 6717SOL    HW221051   3.515   1.635   6.660
 6718SOL     OW21052   3.755   0.329   6.928
 6718SOL    HW121053   3.692   0.255   6.905
 6718SOL    HW221054   3.710   0.392   6.992
 6719SOL     OW21055   0.774   0.442   5.821
 6719SOL    HW121056   0.842   0.514   5.806
 6719SOL    HW221057   0.683   0.476   5.795
 6720SOL     OW21058   1.821   4.705   1.953
 6720SOL    HW121059   1.793   4.616   1.989
 6720SOL    HW221060   1.784   4.718   1.861
 6721SOL     OW21061   6.395   6.663   3.912
 6721SOL    HW121062   6.432   6.751   3.883
 6721SOL    HW221063   6.468   6.594   3.910
 6722SOL     OW21064   4.670   3.860   6.916
 6722SOL    HW121065   4.654   3.888   7.010
 6722SOL    HW221066   4.736   3.922   6.873
 6723SOL     OW21067   3.830   6.627   2.169
 6723SOL    HW121068   3.831   6.627   2.069
 6723SOL    HW221069   3.751   6.575   2.202
 6724SOL     OW21070   3.417   4.709   5.337
 6724SOL    HW121071   3.336   4.651   5.323
 6724SOL    HW221072   3.473   4.670   5.410
 6725SOL     OW21073   0.339   4.683   2.676
 6725SOL    HW121074   0.323   4.627   2.757
 6725SOL    HW221075   0.437   4.683   2.655
 6726SOL     OW21076   2.454   2.295   2.273
 6726SOL    HW121077   2.435   2.332   2.365
 6726SOL    HW221078   2.553   2.286   2.261
 6727SOL     OW21079   3.992   4.305   0.105
 6727SOL    HW121080   3.971   4.264   0.194
 6727SOL    HW221081   4.072   4.364   0.113
 6728SOL     OW21082   4.734   0.953   4.184
 6728SOL    HW121083   4.692   1.036   4.147
 6728SOL    HW221084   4.819   0.934   4.136
 6729SOL     OW21085   5.921   0.061   2.796
 6729SOL    HW121086   5.968   0.052   2.709
 6729SOL    HW221087   5.978   0.114   2.859
 6730SOL     OW21088   1.579   0.313   0.844
 6730SOL    HW121089   1.533   0.231   0.812
 6730SOL    HW221090   1.663   0.327   0.793
 6731SOL     OW21091   2.468   4.607   1.846
 6731SOL    HW121092   2.475   4.553   1.930
 6731SOL    HW221093   2.372   4.612   1.818
 6732SOL     OW21094   1.782   4.225   0.806
 6732SOL    HW121095   1.748   4.131   0.801
 6732SOL    HW221096   1.766   4.262   0.897
 6733SOL     OW21097   5.482   5.917   5.929
 6733SOL    HW121098   5.412   5.940   5.996
 6733SOL    HW221099   5.447   5.935   5.837
 6734SOL     OW21100   2.224   3.561   5.791
 6734SOL    HW121101   2.237   3.463   5.804
 6734SOL    HW221102   2.269   3.590   5.706
 6735SOL     OW21103   0.039   5.078   6.162
 6735SOL    HW121104   0.046   4.983   6.129
 6735SOL    HW221105   0.004   5.078   6.255
 6736SOL     OW21106   2.186   3.791   2.472
 6736SOL    HW121107   2.175   3.701   2.515
 6736SOL    HW221108   2.260   3.787   2.404
 6737SOL     OW21109   2.119   1.296   0.764
 6737SOL    HW121110   2.145   1.223   0.827
 6737SOL    HW221111   2.201   1.331   0.718
 6738SOL     OW21112   3.916   1.667   2.089
 6738SOL    HW121113   3.887   1.752   2.132
 6738SOL    HW221114   4.014   1.671   2.070
 6739SOL     OW21115   3.831   6.620   4.637
 6739SOL    HW121116   3.854   6.636   4.541
 6739SOL    HW221117   3.891   6.674   4.696
 6740SOL     OW21118   6.269   2.791   4.568
 6740SOL    HW121119   6.180   2.762   4.533
 6740SOL    HW221120   6.311   2.715   4.618
 6741SOL     OW21121   7.004   6.886   6.428
 6741SOL    HW121122   0.023   6.859   6.342
 6741SOL    HW221123   6.910   6.917   6.409
 6742SOL     OW21124   6.558   5.983   5.905
 6742SOL    HW121125   6.595   6.047   5.838
 6742SOL    HW221126   6.461   6.001   5.920
 6743SOL     OW21127   4.801   3.332   0.708
 6743SOL    HW121128   4.724   3.389   0.736
 6743SOL    HW221129   4.811   3.335   0.608
 6744SOL     OW21130   5.327   5.356   5.819
 6744SOL    HW121131   5.341   5.257   5.811
 6744SOL    HW221132   5.244   5.381   5.768
 6745SOL     OW21133   0.038   3.896   3.857
 6745SOL    HW121134   0.079   3.818   3.809
 6745SOL    HW221135   6.989   3.934   3.801
 6746SOL     OW21136   0.196   1.626   1.083
 6746SOL    HW121137   0.097   1.638   1.072
 6746SOL    HW221138   0.232   1.699   1.140
 6747SOL     OW21139   5.622   6.050   6.316
 6747SOL    HW121140   5.565   6.036   6.236
 6747SOL    HW221141   5.674   6.135   6.305
 6748SOL     OW21142   6.901   0.066   2.117
 6748SOL    HW121143   6.904   0.059   2.017
 6748SOL    HW221144   6.868   0.156   2.143
 6749SOL     OW21145   3.697   5.949   1.357
 6749SOL    HW121146   3.773   5.947   1.292
 6749SOL    HW221147   3.703   6.033   1.412
 6750SOL     OW21148   2.618   3.269   5.335
 6750SOL    HW121149   2.548   3.297   5.400
 6750SOL    HW221150   2.582   3.196   5.276
 6751SOL     OW21151   3.119   2.106   5.602
 6751SOL    HW121152   3.024   2.102   5.633
 6751SOL    HW221153   3.123   2.143   5.509
 6752SOL     OW21154   6.391   2.237   0.361
 6752SOL    HW121155   6.387   2.180   0.443
 6752SOL    HW221156   6.346   2.191   0.285
 6753SOL     OW21157   5.184   2.077   6.024
 6753SOL    HW121158   5.104   2.110   5.975
 6753SOL    HW221159   5.156   2.034   6.110
 6754SOL     OW21160   5.541   0.982   0.391
 6754SOL    HW121161   5.634   0.945   0.396
 6754SOL    HW221162   5.483   0.919   0.339
 6755SOL     OW21163   5.117   1.642   2.955
 6755SOL    HW121164   5.022   1.669   2.937
 6755SOL    HW221165   5.169   1.721   2.986
 6756SOL     OW21166   5.052   4.217   4.009
 6756SOL    HW121167   5.002   4.132   3.992
 6756SOL    HW221168   5.150   4.198   4.010
 6757SOL     OW21169   5.182   5.137   2.230
 6757SOL    HW121170   5.083   5.154   2.223
 6757SOL    HW221171   5.204   5.053   2.182
 6758SOL     OW21172   5.617   1.816   3.029
 6758SOL    HW121173   5.600   1.861   2.941
 6758SOL    HW221174   5.662   1.881   3.091
 6759SOL     OW21175   0.382   4.621   3.278
 6759SOL    HW121176   0.473   4.656   3.300
 6759SOL    HW221177   0.386   4.522   3.265
 6760SOL     OW21178   6.948   3.985   4.801
 6760SOL    HW121179   6.989   3.934   4.877
 6760SOL    HW221180   7.021   4.020   4.742
 6761SOL     OW21181   5.769   3.235   6.470
 6761SOL    HW121182   5.800   3.156   6.417
 6761SOL    HW221183   5.674   3.255   6.448
 6762SOL     OW21184   5.252   4.812   3.502
 6762SOL    HW121185   5.352   4.811   3.504
 6762SOL    HW221186   5.218   4.718   3.498
 6763SOL     OW21187   5.318   6.251   5.850
 6763SOL    HW121188   5.246   6.248   5.780
 6763SOL    HW221189   5.399   6.295   5.812
 6764SOL     OW21190   2.201   3.627   0.141
 6764SOL    HW121191   2.200   3.651   0.238
 6764SOL    HW221192   2.127   3.563   0.121
 6765SOL     OW21193   4.989   5.333   2.863
 6765SOL    HW121194   4.918   5.322   2.932
 6765SOL    HW221195   4.986   5.426   2.826
 6766SOL     OW21196   1.284   1.420   5.281
 6766SOL    HW121197   1.276   1.351   5.354
 6766SOL    HW221198   1.340   1.496   5.313
 6767SOL     OW21199   1.350   2.738   5.595
 6767SOL    HW121200   1.295   2.735   5.512
 6767SOL    HW221201   1.308   2.799   5.661
 6768SOL     OW21202   0.368   0.341   5.628
 6768SOL    HW121203   0.288   0.281   5.618
 6768SOL    HW221204   0.446   0.286   5.659
 6769SOL     OW21205   1.366   2.832   6.615
 6769SOL    HW121206   1.417   2.790   6.540
 6769SOL    HW221207   1.414   2.817   6.701
 6770SOL     OW21208   6.844   1.316   4.174
 6770SOL    HW121209   6.898   1.327   4.258
 6770SOL    HW221210   6.834   1.218   4.153
 6771SOL     OW21211   4.176   1.682   1.975
 6771SOL    HW121212   4.242   1.682   2.050
 6771SOL    HW221213   4.150   1.776   1.953
 6772SOL     OW21214   0.291   0.982   1.570
 6772SOL    HW121215   0.291   1.027   1.659
 6772SOL    HW221216   0.204   0.935   1.556
 6773SOL     OW21217   1.413   1.090   2.227
 6773SOL    HW121218   1.341   1.121   2.289
 6773SOL    HW221219   1.395   0.996   2.200
 6774SOL     OW21220   3.042   1.133   5.354
 6774SOL    HW121221   3.053   1.072   5.275
 6774SOL    HW221222   3.094   1.217   5.339
 6775SOL     OW21223   0.693   3.016   4.906
 6775SOL    HW121224   0.717   3.112   4.898
 6775SOL    HW221225   0.752   2.972   4.974
 6776SOL     OW21226   3.549   3.720   3.413
 6776SOL    HW121227   3.504   3.786   3.353
 6776SOL    HW221228   3.526   3.740   3.508
 6777SOL     OW21229   6.974   6.401   6.762
 6777SOL    HW121230   6.945   6.373   6.670
 6777SOL    HW221231   6.987   6.500   6.764
 6778SOL     OW21232   6.002   6.012   2.350
 6778SOL    HW121233   5.930   6.034   2.415
 6778SOL    HW221234   6.037   6.096   2.309
 6779SOL     OW21235   5.030   4.166   6.409
 6779SOL    HW121236   4.951   4.105   6.414
 6779SOL    HW221237   5.035   4.207   6.318
 6780SOL     OW21238   3.829   1.466   1.949
 6780SOL    HW121239   3.857   1.541   2.009
 6780SOL    HW221240   3.815   1.384   2.003
 6781SOL     OW21241   6.093   2.563   3.083
 6781SOL    HW121242   6.116   2.531   3.175
 6781SOL    HW221243   6.011   2.622   3.088
 6782SOL     OW21244   0.024   1.759   3.205
 6782SOL    HW121245   0.022   1.680   3.266
 6782SOL    HW221246   0.119   1.780   3.182
 6783SOL     OW21247   0.616   6.281   6.007
 6783SOL    HW121248   0.604   6.185   5.983
 6783SOL    HW221249   0.556   6.338   5.950
 6784SOL     OW21250   1.156   4.571   1.402
 6784SOL    HW121251   1.164   4.591   1.500
 6784SOL    HW221252   1.187   4.650   1.349
 6785SOL     OW21253   5.113   4.581   3.426
 6785SOL    HW121254   5.093   4.622   3.337
 6785SOL    HW221255   5.080   4.486   3.428
 6786SOL     OW21256   6.468   2.185   5.900
 6786SOL    HW121257   6.394   2.246   5.928
 6786SOL    HW221258   6.545   2.194   5.964
 6787SOL     OW21259   3.166   1.473   0.556
 6787SOL    HW121260   3.190   1.539   0.627
 6787SOL    HW221261   3.072   1.441   0.570
 6788SOL     OW21262   0.485   4.242   1.113
 6788SOL    HW121263   0.398   4.289   1.096
 6788SOL    HW221264   0.468   4.157   1.163
 6789SOL     OW21265   5.802   4.787   2.393
 6789SOL    HW121266   5.748   4.769   2.476
 6789SOL    HW221267   5.740   4.803   2.316
 6790SOL     OW21268   0.682   6.098   0.679
 6790SOL    HW121269   0.652   6.016   0.629
 6790SOL    HW221270   0.607   6.134   0.734
 6791SOL     OW21271   2.238   6.346   3.306
 6791SOL    HW121272   2.302   6.363   3.231
 6791SOL    HW221273   2.217   6.249   3.311
 6792SOL     OW21274   3.623   6.820   5.942
 6792SOL    HW121275   3.651   6.849   6.033
 6792SOL    HW221276   3.535   6.773   5.947
 6793SOL     OW21277   2.040   3.102   6.135
 6793SOL    HW121278   2.039   3.201   6.121
 6793SOL    HW221279   2.038   3.082   6.233
 6794SOL     OW21280   5.454   2.578   5.280
 6794SOL    HW121281   5.463   2.588   5.181
 6794SOL    HW221282   5.498   2.656   5.325
 6795SOL     OW21283   0.886   0.783   1.760
 6795SOL    HW121284   0.963   0.834   1.798
 6795SOL    HW221285   0.891   0.783   1.660
 6796SOL     OW21286   6.760   1.836   2.812
 6796SOL    HW121287   6.679   1.784   2.840
 6796SOL    HW221288   6.842   1.786   2.837
 6797SOL     OW21289   0.981   3.065   0.814
 6797SOL    HW121290   1.038   3.119   0.875
 6797SOL    HW221291   1.021   2.974   0.801
 6798SOL     OW21292   4.825   1.143   1.871
 6798SOL    HW121293   4.828   1.110   1.965
 6798SOL    HW221294   4.788   1.237   1.870
 6799SOL     OW21295   6.961   0.122   2.928
 6799SOL    HW121296   6.941   0.071   3.012
 6799SOL    HW221297   0.004   0.071   2.874
 6800SOL     OW21298   6.582   2.971   1.450
 6800SOL    HW121299   6.576   2.922   1.537
 6800SOL    HW221300   6.565   2.907   1.375
 6801SOL     OW21301   1.199   5.682   5.953
 6801SOL    HW121302   1.260   5.760   5.941
 6801SOL    HW221303   1.196   5.657   6.050
 6802SOL     OW21304   3.134   4.596   1.683
 6802SOL    HW121305   3.231   4.611   1.703
 6802SOL    HW221306   3.097   4.528   1.747
 6803SOL     OW21307   5.269   5.274   6.624
 6803SOL    HW121308   5.242   5.182   6.596
 6803SOL    HW221309   5.366   5.275   6.644
 6804SOL     OW21310   3.475   5.405   2.117
 6804SOL    HW121311   3.527   5.489   2.103
 6804SOL    HW221312   3.378   5.426   2.126
 6805SOL     OW21313   0.801   3.745   4.084
 6805SOL    HW121314   0.740   3.818   4.115
 6805SOL    HW221315   0.836   3.767   3.993
 6806SOL     OW21316   5.996   3.425   2.270
 6806SOL    HW121317   5.911   3.373   2.260
 6806SOL    HW221318   6.052   3.412   2.188
 6807SOL     OW21319   3.246   4.082   2.538
 6807SOL    HW121320   3.298   4.000   2.512
 6807SOL    HW221321   3.232   4.140   2.458
 6808SOL     OW21322   3.733   0.473   3.589
 6808SOL    HW121323   3.672   0.453   3.666
 6808SOL    HW221324   3.812   0.412   3.593
 6809SOL     OW21325   5.773   2.551   0.521
 6809SOL    HW121326   5.779   2.452   0.529
 6809SOL    HW221327   5.749   2.591   0.610
 6810SOL     OW21328   2.692   0.679   5.065
 6810SOL    HW121329   2.641   0.764   5.072
 6810SOL    HW221330   2.762   0.687   4.994
 6811SOL     OW21331   6.563   1.747   1.346
 6811SOL    HW121332   6.605   1.657   1.356
 6811SOL    HW221333   6.612   1.813   1.404
 6812SOL     OW21334   3.078   4.743   5.189
 6812SOL    HW121335   3.087   4.779   5.282
 6812SOL    HW221336   3.019   4.662   5.190
 6813SOL     OW21337   0.119   3.820   2.218
 6813SOL    HW121338   0.207   3.868   2.219
 6813SOL    HW221339   0.131   3.732   2.173
 6814SOL     OW21340   5.612   1.489   1.196
 6814SOL    HW121341   5.700   1.451   1.168
 6814SOL    HW221342   5.562   1.421   1.250
 6815SOL     OW21343   0.695   6.068   6.827
 6815SOL    HW121344   0.605   6.109   6.814
 6815SOL    HW221345   0.689   5.969   6.815
 6816SOL     OW21346   6.609   6.751   4.715
 6816SOL    HW121347   6.648   6.822   4.656
 6816SOL    HW221348   6.509   6.757   4.711
 6817SOL     OW21349   4.733   1.729   1.351
 6817SOL    HW121350   4.805   1.666   1.320
 6817SOL    HW221351   4.704   1.703   1.444
 6818SOL     OW21352   0.981   6.927   5.299
 6818SOL    HW121353   0.916   6.918   5.374
 6818SOL    HW221354   0.981   7.021   5.266
 6819SOL     OW21355   4.929   4.322   1.657
 6819SOL    HW121356   4.876   4.402   1.631
 6819SOL    HW221357   4.887   4.240   1.617
 6820SOL     OW21358   2.542   5.024   1.577
 6820SOL    HW121359   2.599   5.089   1.628
 6820SOL    HW221360   2.594   4.940   1.562
 6821SOL     OW21361   3.327   2.858   5.917
 6821SOL    HW121362   3.315   2.860   6.016
 6821SOL    HW221363   3.283   2.939   5.877
 6822SOL     OW21364   5.823   3.887   5.422
 6822SOL    HW121365   5.797   3.807   5.475
 6822SOL    HW221366   5.749   3.954   5.426
 6823SOL     OW21367   0.759   2.447   6.043
 6823SOL    HW121368   0.756   2.465   5.945
 6823SOL    HW221369   0.717   2.358   6.063
 6824SOL     OW21370   1.334   0.417   5.254
 6824SOL    HW121371   1.362   0.481   5.182
 6824SOL    HW221372   1.251   0.369   5.225
 6825SOL     OW21373   4.137   4.275   1.201
 6825SOL    HW121374   4.053   4.259   1.149
 6825SOL    HW221375   4.216   4.263   1.140
 6826SOL     OW21376   6.021   0.542   3.640
 6826SOL    HW121377   6.083   0.524   3.564
 6826SOL    HW221378   6.007   0.458   3.693
 6827SOL     OW21379   4.454   5.991   5.137
 6827SOL    HW121380   4.414   6.083   5.139
 6827SOL    HW221381   4.514   5.979   5.217
 6828SOL     OW21382   3.565   2.047   2.151
 6828SOL    HW121383   3.492   2.054   2.083
 6828SOL    HW221384   3.636   2.115   2.131
 6829SOL     OW21385   4.400   6.758   3.622
 6829SOL    HW121386   4.339   6.737   3.545
 6829SOL    HW221387   4.473   6.689   3.626
 6830SOL     OW21388   4.234   5.143   2.162
 6830SOL    HW121389   4.145   5.109   2.133
 6830SOL    HW221390   4.281   5.073   2.215
 6831SOL     OW21391   2.083   1.330   6.419
 6831SOL    HW121392   2.121   1.341   6.512
 6831SOL    HW221393   2.158   1.314   6.355
 6832SOL     OW21394   2.729   2.531   6.778
 6832SOL    HW121395   2.717   2.486   6.867
 6832SOL    HW221396   2.809   2.493   6.732
 6833SOL     OW21397   3.827   5.138   6.077
 6833SOL    HW121398   3.901   5.132   6.010
 6833SOL    HW221399   3.741   5.111   6.033
 6834SOL     OW21400   6.452   6.273   6.520
 6834SOL    HW121401   6.518   6.257   6.446
 6834SOL    HW221402   6.402   6.358   6.503
 6835SOL     OW21403   3.661   0.973   3.831
 6835SOL    HW121404   3.667   0.890   3.776
 6835SOL    HW221405   3.721   1.043   3.793
 6836SOL     OW21406   0.426   4.335   6.095
 6836SOL    HW121407   0.399   4.359   6.189
 6836SOL    HW221408   0.398   4.407   6.033
 6837SOL     OW21409   6.180   0.713   2.131
 6837SOL    HW121410   6.148   0.680   2.042
 6837SOL    HW221411   6.213   0.807   2.122
 6838SOL     OW21412   3.027   3.802   6.019
 6838SOL    HW121413   3.000   3.870   5.952
 6838SOL    HW221414   3.063   3.721   5.973
 6839SOL     OW21415   5.908   3.192   4.693
 6839SOL    HW121416   5.873   3.150   4.609
 6839SOL    HW221417   5.897   3.127   4.769
 6840SOL     OW21418   2.369   6.258   4.494
 6840SOL    HW121419   2.345   6.352   4.474
 6840SOL    HW221420   2.329   6.197   4.425
 6841SOL     OW21421   4.534   6.866   1.048
 6841SOL    HW121422   4.502   6.907   1.133
 6841SOL    HW221423   4.601   6.795   1.068
 6842SOL     OW21424   0.627   3.921   4.193
 6842SOL    HW121425   0.560   3.963   4.132
 6842SOL    HW221426   0.584   3.898   4.280
 6843SOL     OW21427   4.514   2.643   1.641
 6843SOL    HW121428   4.531   2.592   1.725
 6843SOL    HW221429   4.536   2.585   1.562
 6844SOL     OW21430   3.454   5.865   4.163
 6844SOL    HW121431   3.510   5.804   4.105
 6844SOL    HW221432   3.372   5.816   4.193
 6845SOL     OW21433   3.912   4.249   0.368
 6845SOL    HW121434   3.822   4.277   0.401
 6845SOL    HW221435   3.982   4.302   0.416
 6846SOL     OW21436   4.009   3.257   2.763
 6846SOL    HW121437   3.952   3.290   2.838
 6846SOL    HW221438   4.082   3.322   2.744
 6847SOL     OW21439   6.560   3.617   1.221
 6847SOL    HW121440   6.598   3.663   1.141
 6847SOL    HW221441   6.515   3.684   1.280
 6848SOL     OW21442   6.586   6.196   3.949
 6848SOL    HW121443   6.600   6.181   4.047
 6848SOL    HW221444   6.593   6.109   3.900
 6849SOL     OW21445   3.670   6.725   4.251
 6849SOL    HW121446   3.745   6.668   4.218
 6849SOL    HW221447   3.599   6.731   4.180
 6850SOL     OW21448   5.502   3.454   1.641
 6850SOL    HW121449   5.590   3.433   1.684
 6850SOL    HW221450   5.428   3.433   1.705
 6851SOL     OW21451   1.152   5.599   4.867
 6851SOL    HW121452   1.196   5.688   4.873
 6851SOL    HW221453   1.197   5.535   4.930
 6852SOL     OW21454   6.870   4.938   2.151
 6852SOL    HW121455   6.907   5.030   2.147
 6852SOL    HW221456   6.938   4.876   2.189
 6853SOL     OW21457   6.389   3.832   5.327
 6853SOL    HW121458   6.460   3.840   5.397
 6853SOL    HW221459   6.348   3.921   5.311
 6854SOL     OW21460   0.418   2.073   6.890
 6854SOL    HW121461   0.483   2.099   6.963
 6854SOL    HW221462   0.349   2.012   6.928
 6855SOL     OW21463   2.871   7.017   1.965
 6855SOL    HW121464   2.944   7.010   2.033
 6855SOL    HW221465   2.815   6.933   1.967
 6856SOL     OW21466   0.554   4.670   5.147
 6856SOL    HW121467   0.578   4.766   5.132
 6856SOL    HW221468   0.512   4.634   5.064
 6857SOL     OW21469   3.974   1.246   5.858
 6857SOL    HW121470   3.892   1.303   5.858
 6857SOL    HW221471   4.026   1.262   5.941
 6858SOL     OW21472   3.754   2.802   5.205
 6858SOL    HW121473   3.763   2.835   5.111
 6858SOL    HW221474   3.657   2.790   5.227
 6859SOL     OW21475   3.495   0.612   0.528
 6859SOL    HW121476   3.540   0.600   0.616
 6859SOL    HW221477   3.407   0.564   0.529
 6860SOL     OW21478   4.416   4.814   7.016
 6860SOL    HW121479   4.445   4.746   6.948
 6860SOL    HW221480   4.477   4.811   0.070
 6861SOL     OW21481   5.831   4.198   0.949
 6861SOL    HW121482   5.919   4.165   0.982
 6861SOL    HW221483   5.844   4.282   0.896
 6862SOL     OW21484   2.808   5.169   3.906
 6862SOL    HW121485   2.710   5.186   3.918
 6862SOL    HW221486   2.851   5.249   3.864
 6863SOL     OW21487   0.804   3.085   3.973
 6863SOL    HW121488   0.818   3.000   4.023
 6863SOL    HW221489   0.830   3.162   4.031
 6864SOL     OW21490   4.663   5.625   5.919
 6864SOL    HW121491   4.607   5.568   5.980
 6864SOL    HW221492   4.755   5.587   5.914
 6865SOL     OW21493   6.835   3.087   4.391
 6865SOL    HW121494   6.841   3.107   4.489
 6865SOL    HW221495   6.822   3.173   4.340
 6866SOL     OW21496   0.367   3.085   2.023
 6866SOL    HW121497   0.410   3.099   1.934
 6866SOL    HW221498   0.399   3.156   2.087
 6867SOL     OW21499   2.293   5.050   2.581
 6867SOL    HW121500   2.242   4.964   2.570
 6867SOL    HW221501   2.376   5.033   2.633
 6868SOL     OW21502   1.659   5.270   4.550
 6868SOL    HW121503   1.583   5.214   4.582
 6868SOL    HW221504   1.666   5.264   4.451
 6869SOL     OW21505   6.387   3.157   4.987
 6869SOL    HW121506   6.309   3.215   5.009
 6869SOL    HW221507   6.451   3.157   5.063
 6870SOL     OW21508   5.211   3.484   2.436
 6870SOL    HW121509   5.156   3.565   2.413
 6870SOL    HW221510   5.169   3.403   2.396
 6871SOL     OW21511   4.677   0.102   1.703
 6871SOL    HW121512   4.735   0.020   1.699
 6871SOL    HW221513   4.639   0.111   1.795
 6872SOL     OW21514   2.666   3.380   6.671
 6872SOL    HW121515   2.761   3.377   6.640
 6872SOL    HW221516   2.660   3.337   6.762
 6873SOL     OW21517   4.824   4.101   5.737
 6873SOL    HW121518   4.756   4.042   5.779
 6873SOL    HW221519   4.792   4.129   5.646
 6874SOL     OW21520   1.203   2.662   5.360
 6874SOL    HW121521   1.174   2.732   5.294
 6874SOL    HW221522   1.177   2.572   5.326
 6875SOL     OW21523   3.476   2.134   3.835
 6875SOL    HW121524   3.391   2.099   3.872
 6875SOL    HW221525   3.459   2.175   3.745
 6876SOL     OW21526   3.718   6.473   4.967
 6876SOL    HW121527   3.655   6.432   5.033
 6876SOL    HW221528   3.696   6.570   4.956
 6877SOL     OW21529   2.660   3.655   6.736
 6877SOL    HW121530   2.638   3.568   6.692
 6877SOL    HW221531   2.661   3.642   6.835
 6878SOL     OW21532   1.325   2.104   4.900
 6878SOL    HW121533   1.363   2.045   4.828
 6878SOL    HW221534   1.247   2.057   4.942
 6879SOL     OW21535   1.152   1.066   5.680
 6879SOL    HW121536   1.238   1.014   5.679
 6879SOL    HW221537   1.106   1.053   5.767
 6880SOL     OW21538   1.913   4.035   4.926
 6880SOL    HW121539   1.941   3.983   4.845
 6880SOL    HW221540   1.905   3.974   5.005
 6881SOL     OW21541   6.045   5.439   1.906
 6881SOL    HW121542   5.955   5.427   1.864
 6881SOL    HW221543   6.088   5.350   1.920
 6882SOL     OW21544   2.599   6.425   4.887
 6882SOL    HW121545   2.570   6.451   4.979
 6882SOL    HW221546   2.519   6.401   4.832
 6883SOL     OW21547   2.979   6.274   1.237
 6883SOL    HW121548   3.053   6.277   1.304
 6883SOL    HW221549   3.017   6.263   1.145
 6884SOL     OW21550   2.515   4.974   2.706
 6884SOL    HW121551   2.590   5.038   2.720
 6884SOL    HW221552   2.521   4.899   2.772
 6885SOL     OW21553   3.665   5.483   5.243
 6885SOL    HW121554   3.700   5.389   5.251
 6885SOL    HW221555   3.741   5.547   5.252
 6886SOL     OW21556   5.333   2.349   2.383
 6886SOL    HW121557   5.433   2.343   2.377
 6886SOL    HW221558   5.297   2.396   2.303
 6887SOL     OW21559   4.861   1.117   5.122
 6887SOL    HW121560   4.818   1.111   5.031
 6887SOL    HW221561   4.889   1.211   5.139
 6888SOL     OW21562   5.464   6.483   5.179
 6888SOL    HW121563   5.554   6.526   5.180
 6888SOL    HW221564   5.469   6.394   5.224
 6889SOL     OW21565   1.473   4.339   6.169
 6889SOL    HW121566   1.412   4.279   6.117
 6889SOL    HW221567   1.499   4.416   6.111
 6890SOL     OW21568   2.123   0.751   0.793
 6890SOL    HW121569   2.086   0.792   0.709
 6890SOL    HW221570   2.063   0.677   0.823
 6891SOL     OW21571   3.776   4.836   5.238
 6891SOL    HW121572   3.684   4.869   5.217
 6891SOL    HW221573   3.827   4.824   5.152
 6892SOL     OW21574   3.481   1.193   4.442
 6892SOL    HW121575   3.438   1.116   4.395
 6892SOL    HW221576   3.516   1.258   4.374
 6893SOL     OW21577   6.195   6.725   1.379
 6893SOL    HW121578   6.177   6.783   1.300
 6893SOL    HW221579   6.134   6.646   1.377
 6894SOL     OW21580   6.241   4.690   5.566
 6894SOL    HW121581   6.294   4.710   5.649
 6894SOL    HW221582   6.159   4.746   5.564
 6895SOL     OW21583   3.607   5.233   6.563
 6895SOL    HW121584   3.557   5.314   6.595
 6895SOL    HW221585   3.544   5.171   6.516
 6896SOL     OW21586   4.371   0.475   3.158
 6896SOL    HW121587   4.389   0.455   3.254
 6896SOL    HW221588   4.453   0.516   3.116
 6897SOL     OW21589   3.576   1.703   0.668
 6897SOL    HW121590   3.497   1.692   0.608
 6897SOL    HW221591   3.639   1.770   0.629
 6898SOL     OW21592   3.774   1.433   2.992
 6898SOL    HW121593   3.699   1.385   3.036
 6898SOL    HW221594   3.763   1.428   2.893
 6899SOL     OW21595   5.778   6.413   6.850
 6899SOL    HW121596   5.714   6.339   6.831
 6899SOL    HW221597   5.736   6.501   6.826
 6900SOL     OW21598   4.203   1.400   5.810
 6900SOL    HW121599   4.105   1.393   5.791
 6900SOL    HW221600   4.237   1.311   5.839
 6901SOL     OW21601   1.360   0.703   0.186
 6901SOL    HW121602   1.319   0.788   0.219
 6901SOL    HW221603   1.342   0.630   0.252
 6902SOL     OW21604   6.400   5.449   1.533
 6902SOL    HW121605   6.329   5.468   1.601
 6902SOL    HW221606   6.480   5.409   1.579
 6903SOL     OW21607   4.068   4.640   0.649
 6903SOL    HW121608   4.057   4.593   0.737
 6903SOL    HW221609   4.164   4.634   0.621
 6904SOL     OW21610   0.484   1.896   3.295
 6904SOL    HW121611   0.445   1.988   3.305
 6904SOL    HW221612   0.558   1.884   3.361
 6905SOL     OW21613   4.183   4.854   1.003
 6905SOL    HW121614   4.186   4.919   0.928
 6905SOL    HW221615   4.092   4.814   1.010
 6906SOL     OW21616   4.650   5.856   3.677
 6906SOL    HW121617   4.690   5.775   3.721
 6906SOL    HW221618   4.616   5.832   3.587
 6907SOL     OW21619   3.806   1.161   1.237
 6907SOL    HW121620   3.858   1.083   1.204
 6907SOL    HW221621   3.803   1.232   1.167
 6908SOL     OW21622   6.963   6.699   6.780
 6908SOL    HW121623   0.007   6.772   6.783
 6908SOL    HW221624   6.905   6.704   6.861
 6909SOL     OW21625   4.290   3.310   6.858
 6909SOL    HW121626   4.197   3.288   6.829
 6909SOL    HW221627   4.330   3.232   6.906
 6910SOL     OW21628   6.890   1.295   1.845
 6910SOL    HW121629   6.990   1.299   1.847
 6910SOL    HW221630   6.860   1.261   1.755
 6911SOL     OW21631   4.645   0.717   5.136
 6911SOL    HW121632   4.603   0.626   5.126
 6911SOL    HW221633   4.716   0.713   5.207
 6912SOL     OW21634   4.703   5.121   1.516
 6912SOL    HW121635   4.609   5.086   1.509
 6912SOL    HW221636   4.765   5.044   1.528
 6913SOL     OW21637   4.294   5.804   5.431
 6913SOL    HW121638   4.281   5.796   5.530
 6913SOL    HW221639   4.251   5.888   5.399
 6914SOL     OW21640   6.077   5.169   6.673
 6914SOL    HW121641   6.168   5.140   6.701
 6914SOL    HW221642   6.057   5.133   6.582
 6915SOL     OW21643   1.275   5.704   1.412
 6915SOL    HW121644   1.274   5.742   1.504
 6915SOL    HW221645   1.366   5.715   1.372
 6916SOL     OW21646   6.563   0.814   6.268
 6916SOL    HW121647   6.604   0.876   6.201
 6916SOL    HW221648   6.627   0.740   6.288
 6917SOL     OW21649   4.996   0.042   6.660
 6917SOL    HW121650   4.948   0.130   6.666
 6917SOL    HW221651   4.999   0.012   6.565
 6918SOL     OW21652   2.073   2.863   3.944
 6918SOL    HW121653   1.990   2.840   3.893
 6918SOL    HW221654   2.148   2.881   3.880
 6919SOL     OW21655   1.229   6.219   3.359
 6919SOL    HW121656   1.200   6.311   3.385
 6919SOL    HW221657   1.290   6.225   3.280
 6920SOL     OW21658   5.069   6.830   4.691
 6920SOL    HW121659   5.144   6.832   4.757
 6920SOL    HW221660   5.055   6.921   4.654
 6921SOL     OW21661   0.225   6.497   3.103
 6921SOL    HW121662   0.297   6.434   3.075
 6921SOL    HW221663   0.255   6.548   3.184
 6922SOL     OW21664   1.771   5.867   6.843
 6922SOL    HW121665   1.732   5.793   6.788
 6922SOL    HW221666   1.794   5.944   6.783
 6923SOL     OW21667   4.272   6.661   4.147
 6923SOL    HW121668   4.225   6.606   4.216
 6923SOL    HW221669   4.285   6.607   4.064
 6924SOL     OW21670   6.736   5.845   1.351
 6924SOL    HW121671   6.799   5.905   1.400
 6924SOL    HW221672   6.755   5.750   1.374
 6925SOL     OW21673   6.360   5.370   3.262
 6925SOL    HW121674   6.276   5.408   3.301
 6925SOL    HW221675   6.393   5.430   3.189
 6926SOL     OW21676   3.058   4.067   4.963
 6926SOL    HW121677   3.007   4.137   5.012
 6926SOL    HW221678   3.156   4.082   4.977
 6927SOL     OW21679   4.104   3.565   6.940
 6927SOL    HW121680   4.094   3.489   6.875
 6927SOL    HW221681   4.141   3.644   6.892
 6928SOL     OW21682   6.711   0.018   6.607
 6928SOL    HW121683   6.761   0.039   6.523
 6928SOL    HW221684   6.654   0.097   6.632
 6929SOL     OW21685   3.767   5.199   0.517
 6929SOL    HW121686   3.729   5.291   0.517
 6929SOL    HW221687   3.695   5.133   0.542
 6930SOL     OW21688   1.130   0.081   3.213
 6930SOL    HW121689   1.056   0.141   3.242
 6930SOL    HW221690   1.105   7.010   3.231
 6931SOL     OW21691   1.825   0.735   1.774
 6931SOL    HW121692   1.825   0.747   1.873
 6931SOL    HW221693   1.862   0.645   1.750
 6932SOL     OW21694   2.647   1.982   0.285
 6932SOL    HW121695   2.744   1.983   0.261
 6932SOL    HW221696   2.592   1.977   0.201
 6933SOL     OW21697   3.030   6.469   6.971
 6933SOL    HW121698   3.061   6.457   0.040
 6933SOL    HW221699   3.077   6.404   6.911
 6934SOL     OW21700   5.989   4.322   6.392
 6934SOL    HW121701   5.927   4.337   6.469
 6934SOL    HW221702   6.039   4.406   6.373
 6935SOL     OW21703   4.232   5.414   3.508
 6935SOL    HW121704   4.150   5.432   3.453
 6935SOL    HW221705   4.286   5.498   3.515
 6936SOL     OW21706   1.012   4.681   1.109
 6936SOL    HW121707   1.012   4.582   1.092
 6936SOL    HW221708   0.938   4.723   1.056
 6937SOL     OW21709   4.404   6.312   5.978
 6937SOL    HW121710   4.455   6.286   6.060
 6937SOL    HW221711   4.320   6.359   6.005
 6938SOL     OW21712   5.788   2.024   5.228
 6938SOL    HW121713   5.735   2.032   5.144
 6938SOL    HW221714   5.885   2.039   5.208
 6939SOL     OW21715   0.414   5.047   2.303
 6939SOL    HW121716   0.405   4.978   2.375
 6939SOL    HW221717   0.378   5.134   2.336
 6940SOL     OW21718   3.981   1.036   5.022
 6940SOL    HW121719   3.927   0.953   5.009
 6940SOL    HW221720   4.064   1.030   4.966
 6941SOL     OW21721   3.728   2.874   3.502
 6941SOL    HW121722   3.744   2.776   3.508
 6941SOL    HW221723   3.636   2.891   3.465
 6942SOL     OW21724   7.016   1.869   0.460
 6942SOL    HW121725   6.965   1.897   0.541
 6942SOL    HW221726   7.010   1.940   0.390
 6943SOL     OW21727   5.734   6.461   0.109
 6943SOL    HW121728   5.642   6.499   0.117
 6943SOL    HW221729   5.752   6.437   0.014
 6944SOL     OW21730   1.261   6.341   5.964
 6944SOL    HW121731   1.302   6.431   5.982
 6944SOL    HW221732   1.331   6.270   5.977
 6945SOL     OW21733   4.493   2.021   5.462
 6945SOL    HW121734   4.500   1.927   5.428
 6945SOL    HW221735   4.568   2.039   5.525
 6946SOL     OW21736   5.814   4.323   3.680
 6946SOL    HW121737   5.880   4.330   3.605
 6946SOL    HW221738   5.815   4.408   3.733
 6947SOL     OW21739   3.881   0.135   2.621
 6947SOL    HW121740   3.787   0.155   2.595
 6947SOL    HW221741   3.883   0.057   2.684
 6948SOL     OW21742   3.877   2.177   4.788
 6948SOL    HW121743   3.961   2.192   4.839
 6948SOL    HW221744   3.864   2.252   4.723
 6949SOL     OW21745   4.704   0.922   2.314
 6949SOL    HW121746   4.773   0.853   2.290
 6949SOL    HW221747   4.647   0.941   2.234
 6950SOL     OW21748   2.403   1.216   3.744
 6950SOL    HW121749   2.410   1.173   3.654
 6950SOL    HW221750   2.330   1.285   3.743
 6951SOL     OW21751   5.859   5.209   5.516
 6951SOL    HW121752   5.768   5.233   5.549
 6951SOL    HW221753   5.928   5.249   5.576
 6952SOL     OW21754   0.430   5.362   4.631
 6952SOL    HW121755   0.516   5.395   4.592
 6952SOL    HW221756   0.404   5.421   4.708
 6953SOL     OW21757   5.562   2.413   5.568
 6953SOL    HW121758   5.519   2.371   5.489
 6953SOL    HW221759   5.492   2.434   5.637
 6954SOL     OW21760   0.861   5.555   2.899
 6954SOL    HW121761   0.871   5.488   2.973
 6954SOL    HW221762   0.783   5.615   2.919
 6955SOL     OW21763   6.449   5.820   2.777
 6955SOL    HW121764   6.350   5.811   2.769
 6955SOL    HW221765   6.482   5.890   2.714
 6956SOL     OW21766   3.235   4.920   1.186
 6956SOL    HW121767   3.306   4.964   1.132
 6956SOL    HW221768   3.275   4.845   1.239
 6957SOL     OW21769   0.599   3.589   0.479
 6957SOL    HW121770   0.598   3.508   0.537
 6957SOL    HW221771   0.683   3.641   0.495
 6958SOL     OW21772   2.166   3.618   6.093
 6958SOL    HW121773   2.255   3.604   6.134
 6958SOL    HW221774   2.177   3.653   6.000
 6959SOL     OW21775   3.369   1.064   3.759
 6959SOL    HW121776   3.464   1.057   3.788
 6959SOL    HW221777   3.362   1.128   3.683
 6960SOL     OW21778   6.887   4.953   0.201
 6960SOL    HW121779   6.945   4.873   0.215
 6960SOL    HW221780   6.824   4.963   0.278
 6961SOL     OW21781   6.636   1.069   3.091
 6961SOL    HW121782   6.719   1.049   3.040
 6961SOL    HW221783   6.557   1.028   3.045
 6962SOL     OW21784   4.056   3.455   0.784
 6962SOL    HW121785   4.016   3.472   0.694
 6962SOL    HW221786   4.073   3.542   0.830
 6963SOL     OW21787   5.993   5.831   2.152
 6963SOL    HW121788   5.988   5.871   2.060
 6963SOL    HW221789   6.012   5.903   2.218
 6964SOL     OW21790   3.684   6.076   4.730
 6964SOL    HW121791   3.667   6.146   4.660
 6964SOL    HW221792   3.781   6.051   4.729
 6965SOL     OW21793   6.652   3.307   5.772
 6965SOL    HW121794   6.716   3.232   5.760
 6965SOL    HW221795   6.677   3.359   5.854
 6966SOL     OW21796   4.696   2.728   3.667
 6966SOL    HW121797   4.711   2.813   3.717
 6966SOL    HW221798   4.682   2.748   3.570
 6967SOL     OW21799   2.118   1.733   6.399
 6967SOL    HW121800   2.036   1.759   6.347
 6967SOL    HW221801   2.092   1.677   6.476
 6968SOL     OW21802   4.544   7.005   2.352
 6968SOL    HW121803   4.511   6.932   2.292
 6968SOL    HW221804   4.603   0.041   2.300
 6969SOL     OW21805   3.096   1.858   1.178
 6969SOL    HW121806   3.146   1.878   1.262
 6969SOL    HW221807   3.119   1.925   1.108
 6970SOL     OW21808   4.610   3.885   0.443
 6970SOL    HW121809   4.630   3.798   0.489
 6970SOL    HW221810   4.632   3.961   0.505
 6971SOL     OW21811   5.526   0.527   2.409
 6971SOL    HW121812   5.468   0.513   2.329
 6971SOL    HW221813   5.486   0.480   2.488
 6972SOL     OW21814   5.242   5.099   4.739
 6972SOL    HW121815   5.273   5.188   4.704
 6972SOL    HW221816   5.288   5.080   4.825
 6973SOL     OW21817   1.780   4.806   3.567
 6973SOL    HW121818   1.870   4.768   3.589
 6973SOL    HW221819   1.719   4.795   3.646
 6974SOL     OW21820   3.768   4.144   4.684
 6974SOL    HW121821   3.687   4.112   4.636
 6974SOL    HW221822   3.850   4.104   4.642
 6975SOL     OW21823   3.808   1.099   5.425
 6975SOL    HW121824   3.768   1.190   5.419
 6975SOL    HW221825   3.871   1.096   5.503
 6976SOL     OW21826   1.950   5.524   0.001
 6976SOL    HW121827   1.965   5.467   6.945
 6976SOL    HW221828   1.951   5.620   6.999
 6977SOL     OW21829   4.170   2.162   2.981
 6977SOL    HW121830   4.129   2.071   2.979
 6977SOL    HW221831   4.168   2.201   2.889
 6978SOL     OW21832   6.375   0.829   2.971
 6978SOL    HW121833   6.358   0.733   2.993
 6978SOL    HW221834   6.466   0.839   2.930
 6979SOL     OW21835   0.655   4.422   3.346
 6979SOL    HW121836   0.686   4.327   3.358
 6979SOL    HW221837   0.570   4.435   3.397
 6980SOL     OW21838   3.469   1.646   4.277
 6980SOL    HW121839   3.520   1.731   4.282
 6980SOL    HW221840   3.531   1.568   4.289
 6981SOL     OW21841   2.494   4.769   6.690
 6981SOL    HW121842   2.438   4.702   6.640
 6981SOL    HW221843   2.506   4.851   6.633
 6982SOL     OW21844   0.218   6.671   4.662
 6982SOL    HW121845   0.261   6.618   4.735
 6982SOL    HW221846   0.285   6.688   4.589
 6983SOL     OW21847   6.249   0.908   3.994
 6983SOL    HW121848   6.225   0.997   4.034
 6983SOL    HW221849   6.334   0.876   4.035
 6984SOL     OW21850   2.582   1.070   6.505
 6984SOL    HW121851   2.514   1.008   6.465
 6984SOL    HW221852   2.584   1.058   6.604
 6985SOL     OW21853   5.322   6.073   2.465
 6985SOL    HW121854   5.273   6.153   2.499
 6985SOL    HW221855   5.272   5.990   2.489
 6986SOL     OW21856   2.303   6.635   4.924
 6986SOL    HW121857   2.229   6.678   4.872
 6986SOL    HW221858   2.334   6.553   4.877
 6987SOL     OW21859   6.882   3.627   6.635
 6987SOL    HW121860   6.806   3.680   6.673
 6987SOL    HW221861   6.890   3.540   6.683
 6988SOL     OW21862   5.039   1.348   5.373
 6988SOL    HW121863   5.015   1.251   5.377
 6988SOL    HW221864   4.956   1.403   5.388
 6989SOL     OW21865   1.550   2.933   3.829
 6989SOL    HW121866   1.499   2.850   3.809
 6989SOL    HW221867   1.550   2.992   3.749
 6990SOL     OW21868   4.057   3.289   0.331
 6990SOL    HW121869   4.010   3.202   0.349
 6990SOL    HW221870   4.075   3.336   0.417
 6991SOL     OW21871   4.469   4.493   5.374
 6991SOL    HW121872   4.557   4.484   5.327
 6991SOL    HW221873   4.419   4.407   5.370
 6992SOL     OW21874   5.792   6.039   5.444
 6992SOL    HW121875   5.875   6.042   5.388
 6992SOL    HW221876   5.813   5.994   5.531
 6993SOL     OW21877   0.613   6.458   3.460
 6993SOL    HW121878   0.587   6.540   3.512
 6993SOL    HW221879   0.640   6.485   3.367
 6994SOL     OW21880   1.474   2.935   0.308
 6994SOL    HW121881   1.395   2.880   0.282
 6994SOL    HW221882   1.483   2.937   0.407
 6995SOL     OW21883   0.565   5.226   3.355
 6995SOL    HW121884   0.611   5.139   3.371
 6995SOL    HW221885   0.629   5.301   3.373
 6996SOL     OW21886   2.586   6.930   5.668
 6996SOL    HW121887   2.516   6.993   5.703
 6996SOL    HW221888   2.672   6.979   5.656
 6997SOL     OW21889   4.961   0.079   4.390
 6997SOL    HW121890   4.957   0.071   4.290
 6997SOL    HW221891   5.053   0.055   4.421
 6998SOL     OW21892   1.771   2.413   3.331
 6998SOL    HW121893   1.706   2.369   3.269
 6998SOL    HW221894   1.839   2.465   3.278
 6999SOL     OW21895   4.115   1.844   6.462
 6999SOL    HW121896   4.131   1.764   6.405
 6999SOL    HW221897   4.103   1.925   6.404
 7000SOL     OW21898   6.832   6.307   1.171
 7000SOL    HW121899   6.834   6.347   1.262
 7000SOL    HW221900   6.788   6.369   1.107
 7001SOL     OW21901   2.929   1.804   5.556
 7001SOL    HW121902   2.876   1.723   5.532
 7001SOL    HW221903   2.985   1.832   5.479
 7002SOL     OW21904   2.047   5.173   2.864
 7002SOL    HW121905   1.990   5.093   2.845
 7002SOL    HW221906   1.989   5.254   2.872
 7003SOL     OW21907   2.251   6.144   7.006
 7003SOL    HW121908   2.291   6.227   0.019
 7003SOL    HW221909   2.158   6.133   0.017
 7004SOL     OW21910   1.099   5.099   0.888
 7004SOL    HW121911   1.021   5.057   0.934
 7004SOL    HW221912   1.138   5.034   0.823
 7005SOL     OW21913   5.450   6.596   5.618
 7005SOL    HW121914   5.365   6.631   5.578
 7005SOL    HW221915   5.464   6.502   5.588
 7006SOL     OW21916   4.223   4.825   4.911
 7006SOL    HW121917   4.222   4.759   4.987
 7006SOL    HW221918   4.151   4.893   4.924
 7007SOL     OW21919   5.095   5.397   2.405
 7007SOL    HW121920   5.060   5.337   2.477
 7007SOL    HW221921   5.105   5.345   2.320
 7008SOL     OW21922   1.034   4.967   4.265
 7008SOL    HW121923   1.075   4.879   4.240
 7008SOL    HW221924   1.083   5.006   4.342
 7009SOL     OW21925   0.009   4.810   2.606
 7009SOL    HW121926   0.047   4.869   2.677
 7009SOL    HW221927   7.022   4.863   2.522
 7010SOL     OW21928   4.114   4.860   6.462
 7010SOL    HW121929   4.038   4.842   6.525
 7010SOL    HW221930   4.083   4.920   6.389
 7011SOL     OW21931   2.362   1.485   4.814
 7011SOL    HW121932   2.363   1.578   4.850
 7011SOL    HW221933   2.374   1.420   4.890
 7012SOL     OW21934   1.218   1.267   1.711
 7012SOL    HW121935   1.293   1.214   1.671
 7012SOL    HW221936   1.235   1.280   1.809
 7013SOL     OW21937   0.555   0.954   2.402
 7013SOL    HW121938   0.467   0.906   2.405
 7013SOL    HW221939   0.617   0.915   2.471
 7014SOL     OW21940   2.279   4.764   1.492
 7014SOL    HW121941   2.363   4.742   1.441
 7014SOL    HW221942   2.203   4.773   1.428
 7015SOL     OW21943   5.008   2.324   2.086
 7015SOL    HW121944   4.925   2.373   2.112
 7015SOL    HW221945   4.984   2.238   2.040
 7016SOL     OW21946   3.097   4.559   1.050
 7016SOL    HW121947   3.063   4.526   1.138
 7016SOL    HW221948   3.049   4.643   1.025
 7017SOL     OW21949   4.366   1.563   4.146
 7017SOL    HW121950   4.410   1.521   4.067
 7017SOL    HW221951   4.338   1.656   4.123
 7018SOL     OW21952   0.295   5.152   3.251
 7018SOL    HW121953   0.382   5.197   3.271
 7018SOL    HW221954   0.257   5.114   3.336
 7019SOL     OW21955   1.951   6.069   0.717
 7019SOL    HW121956   1.891   6.137   0.675
 7019SOL    HW221957   1.974   5.999   0.650
 7020SOL     OW21958   0.508   6.652   5.789
 7020SOL    HW121959   0.488   6.554   5.798
 7020SOL    HW221960   0.607   6.665   5.788
 7021SOL     OW21961   3.496   0.260   5.346
 7021SOL    HW121962   3.540   0.346   5.321
 7021SOL    HW221963   3.451   0.270   5.435
 7022SOL     OW21964   5.167   4.978   6.159
 7022SOL    HW121965   5.174   5.076   6.141
 7022SOL    HW221966   5.110   4.962   6.240
 7023SOL     OW21967   6.113   3.955   2.914
 7023SOL    HW121968   6.184   3.894   2.949
 7023SOL    HW221969   6.144   3.997   2.829
 7024SOL     OW21970   0.417   5.989   1.163
 7024SOL    HW121971   0.386   5.910   1.111
 7024SOL    HW221972   0.390   5.978   1.259
 7025SOL     OW21973   2.807   0.491   6.219
 7025SOL    HW121974   2.734   0.490   6.286
 7025SOL    HW221975   2.793   0.566   6.155
 7026SOL     OW21976   3.842   1.822   0.909
 7026SOL    HW121977   3.906   1.752   0.876
 7026SOL    HW221978   3.853   1.833   1.007
 7027SOL     OW21979   4.542   6.912   4.418
 7027SOL    HW121980   4.542   6.903   4.517
 7027SOL    HW221981   4.593   6.835   4.378
 7028SOL     OW21982   3.145   6.420   4.113
 7028SOL    HW121983   3.225   6.447   4.167
 7028SOL    HW221984   3.152   6.460   4.022
 7029SOL     OW21985   3.569   0.163   4.539
 7029SOL    HW121986   3.499   0.181   4.608
 7029SOL    HW221987   3.647   0.118   4.583
 7030SOL     OW21988   2.091   3.675   3.745
 7030SOL    HW121989   1.991   3.673   3.748
 7030SOL    HW221990   2.121   3.703   3.654
 7031SOL     OW21991   2.137   6.927   5.451
 7031SOL    HW121992   2.188   6.876   5.382
 7031SOL    HW221993   2.055   6.875   5.477
 7032SOL     OW21994   6.297   2.386   3.023
 7032SOL    HW121995   6.214   2.429   3.057
 7032SOL    HW221996   6.289   2.371   2.924
 7033SOL     OW21997   6.731   0.089   4.783
 7033SOL    HW121998   6.813   0.033   4.790
 7033SOL    HW221999   6.690   0.077   4.693
 7034SOL     OW22000   6.900   5.621   2.570
 7034SOL    HW122001   6.983   5.610   2.515
 7034SOL    HW222002   6.856   5.708   2.548
 7035SOL     OW22003   6.442   5.126   2.089
 7035SOL    HW122004   6.400   5.129   2.180
 7035SOL    HW222005   6.443   5.032   2.056
 7036SOL     OW22006   6.663   4.281   1.312
 7036SOL    HW122007   6.677   4.182   1.302
 7036SOL    HW222008   6.714   4.314   1.391
 7037SOL     OW22009   1.166   0.119   0.285
 7037SOL    HW122010   1.108   0.175   0.344
 7037SOL    HW222011   1.131   0.122   0.191
 7038SOL     OW22012   1.818   3.860   4.019
 7038SOL    HW122013   1.759   3.876   4.098
 7038SOL    HW222014   1.806   3.765   3.987
 7039SOL     OW22015   4.291   1.758   6.013
 7039SOL    HW122016   4.263   1.738   5.919
 7039SOL    HW222017   4.229   1.713   6.077
 7040SOL     OW22018   4.848   2.531   6.355
 7040SOL    HW122019   4.790   2.491   6.426
 7040SOL    HW222020   4.907   2.601   6.395
 7041SOL     OW22021   2.571   1.441   2.647
 7041SOL    HW122022   2.600   1.403   2.559
 7041SOL    HW222023   2.481   1.483   2.637
 7042SOL     OW22024   1.757   0.543   6.982
 7042SOL    HW122025   1.785   0.509   0.047
 7042SOL    HW222026   1.819   0.507   6.912
 7043SOL     OW22027   1.471   2.469   3.189
 7043SOL    HW122028   1.447   2.379   3.224
 7043SOL    HW222029   1.475   2.467   3.089
 7044SOL     OW22030   4.817   6.077   2.403
 7044SOL    HW122031   4.816   6.034   2.312
 7044SOL    HW222032   4.724   6.106   2.426
 7045SOL     OW22033   5.894   5.108   1.229
 7045SOL    HW122034   5.987   5.071   1.232
 7045SOL    HW222035   5.873   5.138   1.136
 7046SOL     OW22036   2.653   0.870   4.199
 7046SOL    HW122037   2.753   0.868   4.196
 7046SOL    HW222038   2.619   0.781   4.230
 7047SOL     OW22039   2.279   1.487   4.207
 7047SOL    HW122040   2.281   1.554   4.282
 7047SOL    HW222041   2.315   1.529   4.124
 7048SOL     OW22042   6.619   6.357   0.556
 7048SOL    HW122043   6.696   6.294   0.562
 7048SOL    HW222044   6.607   6.387   0.461
 7049SOL     OW22045   1.822   1.001   0.376
 7049SOL    HW122046   1.887   0.957   0.439
 7049SOL    HW222047   1.846   1.098   0.366
 7050SOL     OW22048   4.160   3.582   5.343
 7050SOL    HW122049   4.161   3.500   5.401
 7050SOL    HW222050   4.253   3.615   5.330
 7051SOL     OW22051   6.478   6.502   2.213
 7051SOL    HW122052   6.445   6.416   2.173
 7051SOL    HW222053   6.418   6.528   2.289
 7052SOL     OW22054   6.856   1.784   3.484
 7052SOL    HW122055   6.940   1.732   3.498
 7052SOL    HW222056   6.829   1.780   3.388
 7053SOL     OW22057   6.456   4.370   6.093
 7053SOL    HW122058   6.428   4.331   6.006
 7053SOL    HW222059   6.402   4.330   6.167
 7054SOL     OW22060   6.545   0.050   1.883
 7054SOL    HW122061   6.521   0.115   1.811
 7054SOL    HW222062   6.556   0.099   1.969
 7055SOL     OW22063   3.570   0.007   5.436
 7055SOL    HW122064   3.491   6.971   5.431
 7055SOL    HW222065   3.551   0.090   5.382
 7056SOL     OW22066   4.927   4.854   4.209
 7056SOL    HW122067   5.023   4.873   4.192
 7056SOL    HW222068   4.884   4.818   4.126
 7057SOL     OW22069   0.434   5.956   3.380
 7057SOL    HW122070   0.423   5.888   3.452
 7057SOL    HW222071   0.433   6.047   3.420
 7058SOL     OW22072   0.061   5.358   5.216
 7058SOL    HW122073   7.022   5.424   5.254
 7058SOL    HW222074   0.013   5.274   5.193
 7059SOL     OW22075   1.818   0.540   2.736
 7059SOL    HW122076   1.797   0.488   2.819
 7059SOL    HW222077   1.877   0.486   2.676
 7060SOL     OW22078   3.359   0.272   1.607
 7060SOL    HW122079   3.311   0.184   1.608
 7060SOL    HW222080   3.368   0.304   1.513
 7061SOL     OW22081   0.179   0.898   2.588
 7061SOL    HW122082   0.222   0.827   2.531
 7061SOL    HW222083   0.157   0.977   2.531
 7062SOL     OW22084   6.191   1.393   5.340
 7062SOL    HW122085   6.242   1.455   5.399
 7062SOL    HW222086   6.096   1.422   5.335
 7063SOL     OW22087   2.888   0.129   1.448
 7063SOL    HW122088   2.919   0.046   1.401
 7063SOL    HW222089   2.792   0.145   1.429
 7064SOL     OW22090   4.343   2.296   0.449
 7064SOL    HW122091   4.433   2.252   0.455
 7064SOL    HW222092   4.353   2.387   0.411
 7065SOL     OW22093   4.188   4.175   1.718
 7065SOL    HW122094   4.199   4.183   1.619
 7065SOL    HW222095   4.278   4.170   1.761
 7066SOL     OW22096   3.230   6.392   0.767
 7066SOL    HW122097   3.239   6.491   0.783
 7066SOL    HW222098   3.209   6.376   0.671
 7067SOL     OW22099   0.164   3.868   4.727
 7067SOL    HW122100   0.223   3.875   4.647
 7067SOL    HW222101   0.217   3.891   4.809
 7068SOL     OW22102   0.753   0.914   2.627
 7068SOL    HW122103   0.760   0.848   2.703
 7068SOL    HW222104   0.845   0.930   2.589
 7069SOL     OW22105   1.523   3.868   4.962
 7069SOL    HW122106   1.567   3.812   4.892
 7069SOL    HW222107   1.555   3.963   4.953
 7070SOL     OW22108   5.094   5.859   4.249
 7070SOL    HW122109   5.093   5.857   4.349
 7070SOL    HW222110   5.177   5.906   4.218
 7071SOL     OW22111   1.698   6.488   5.350
 7071SOL    HW122112   1.766   6.505   5.422
 7071SOL    HW222113   1.708   6.395   5.316
 7072SOL     OW22114   6.990   6.302   6.476
 7072SOL    HW122115   6.932   6.327   6.398
 7072SOL    HW222116   6.948   6.227   6.527
 7073SOL     OW22117   1.254   1.162   6.384
 7073SOL    HW122118   1.328   1.228   6.400
 7073SOL    HW222119   1.173   1.210   6.350
 7074SOL     OW22120   3.326   2.252   0.995
 7074SOL    HW122121   3.311   2.155   1.012
 7074SOL    HW222122   3.424   2.272   1.000
 7075SOL     OW22123   1.081   5.731   3.182
 7075SOL    HW122124   1.130   5.735   3.095
 7075SOL    HW222125   1.010   5.802   3.183
 7076SOL     OW22126   2.970   2.502   6.637
 7076SOL    HW122127   2.980   2.514   6.538
 7076SOL    HW222128   3.026   2.570   6.684
 7077SOL     OW22129   1.880   5.331   5.739
 7077SOL    HW122130   1.807   5.341   5.806
 7077SOL    HW222131   1.859   5.386   5.658
 7078SOL     OW22132   6.637   0.555   3.039
 7078SOL    HW122133   6.565   0.547   2.969
 7078SOL    HW222134   6.642   0.470   3.091
 7079SOL     OW22135   5.303   5.347   5.457
 7079SOL    HW122136   5.286   5.250   5.441
 7079SOL    HW222137   5.340   5.389   5.374
 7080SOL     OW22138   5.620   0.387   4.154
 7080SOL    HW122139   5.657   0.465   4.205
 7080SOL    HW222140   5.693   0.322   4.134
 7081SOL     OW22141   3.650   0.948   5.250
 7081SOL    HW122142   3.724   0.996   5.298
 7081SOL    HW222143   3.572   0.937   5.312
 7082SOL     OW22144   5.438   0.952   6.441
 7082SOL    HW122145   5.345   0.944   6.476
 7082SOL    HW222146   5.455   0.880   6.374
 7083SOL     OW22147   3.607   6.547   5.697
 7083SOL    HW122148   3.634   6.616   5.630
 7083SOL    HW222149   3.605   6.588   5.788
 7084SOL     OW22150   6.227   6.557   0.492
 7084SOL    HW122151   6.183   6.626   0.434
 7084SOL    HW222152   6.170   6.475   0.496
 7085SOL     OW22153   2.632   2.841   0.651
 7085SOL    HW122154   2.560   2.778   0.622
 7085SOL    HW222155   2.608   2.879   0.741
 7086SOL     OW22156   6.757   0.930   6.590
 7086SOL    HW122157   6.775   0.851   6.531
 7086SOL    HW222158   6.664   0.963   6.574
 7087SOL     OW22159   1.970   2.587   4.445
 7087SOL    HW122160   2.068   2.580   4.464
 7087SOL    HW222161   1.954   2.585   4.346
 7088SOL     OW22162   6.635   2.517   5.371
 7088SOL    HW122163   6.591   2.472   5.449
 7088SOL    HW222164   6.654   2.450   5.300
 7089SOL     OW22165   2.707   1.703   0.303
 7089SOL    HW122166   2.774   1.686   0.231
 7089SOL    HW222167   2.679   1.799   0.300
 7090SOL     OW22168   2.490   2.598   4.577
 7090SOL    HW122169   2.423   2.671   4.594
 7090SOL    HW222170   2.509   2.550   4.662
 7091SOL     OW22171   0.260   6.140   0.133
 7091SOL    HW122172   0.239   6.097   0.045
 7091SOL    HW222173   0.227   6.081   0.207
 7092SOL     OW22174   3.042   3.323   0.355
 7092SOL    HW122175   3.115   3.260   0.382
 7092SOL    HW222176   3.078   3.389   0.288
 7093SOL     OW22177   3.493   2.863   4.803
 7093SOL    HW122178   3.510   2.900   4.711
 7093SOL    HW222179   3.403   2.819   4.805
 7094SOL     OW22180   1.083   0.615   5.977
 7094SOL    HW122181   1.127   0.603   5.888
 7094SOL    HW222182   1.089   0.529   6.029
 7095SOL     OW22183   0.344   3.128   6.442
 7095SOL    HW122184   0.372   3.079   6.359
 7095SOL    HW222185   0.410   3.109   6.515
 7096SOL     OW22186   5.075   1.270   2.185
 7096SOL    HW122187   5.135   1.350   2.175
 7096SOL    HW222188   5.112   1.193   2.134
 7097SOL     OW22189   0.561   0.937   1.920
 7097SOL    HW122190   0.584   1.029   1.890
 7097SOL    HW222191   0.644   0.880   1.917
 7098SOL     OW22192   1.862   6.902   5.823
 7098SOL    HW122193   1.819   6.871   5.908
 7098SOL    HW222194   1.868   6.826   5.759
 7099SOL     OW22195   0.731   0.957   6.521
 7099SOL    HW122196   0.816   0.987   6.477
 7099SOL    HW222197   0.704   0.868   6.484
 7100SOL     OW22198   5.579   2.601   1.061
 7100SOL    HW122199   5.502   2.662   1.045
 7100SOL    HW222200   5.547   2.517   1.104
 7101SOL     OW22201   2.142   0.032   4.751
 7101SOL    HW122202   2.113   7.016   4.665
 7101SOL    HW222203   2.061   0.063   4.802
 7102SOL     OW22204   4.539   2.690   0.532
 7102SOL    HW122205   4.599   2.647   0.600
 7102SOL    HW222206   4.588   2.767   0.490
 7103SOL     OW22207   3.885   6.675   6.203
 7103SOL    HW122208   3.851   6.582   6.190
 7103SOL    HW222209   3.901   6.718   6.114
 7104SOL     OW22210   0.910   1.941   2.607
 7104SOL    HW122211   0.878   1.867   2.548
 7104SOL    HW222212   0.924   1.906   2.700
 7105SOL     OW22213   2.716   3.959   5.252
 7105SOL    HW122214   2.760   3.943   5.165
 7105SOL    HW222215   2.622   3.925   5.249
 7106SOL     OW22216   3.079   2.538   5.355
 7106SOL    HW122217   2.990   2.512   5.316
 7106SOL    HW222218   3.152   2.492   5.305
 7107SOL     OW22219   3.074   0.847   6.878
 7107SOL    HW122220   2.986   0.895   6.882
 7107SOL    HW222221   3.149   0.912   6.890
 7108SOL     OW22222   4.566   0.052   1.438
 7108SOL    HW122223   4.633   0.061   1.364
 7108SOL    HW222224   4.613   0.055   1.526
 7109SOL     OW22225   3.490   6.028   6.532
 7109SOL    HW122226   3.587   6.049   6.523
 7109SOL    HW222227   3.461   5.971   6.455
 7110SOL     OW22228   4.300   4.628   3.700
 7110SOL    HW122229   4.277   4.724   3.682
 7110SOL    HW222230   4.278   4.606   3.795
 7111SOL     OW22231   1.830   2.941   3.553
 7111SOL    HW122232   1.879   2.855   3.568
 7111SOL    HW222233   1.751   2.924   3.493
 7112SOL     OW22234   0.976   6.674   3.008
 7112SOL    HW122235   0.986   6.577   3.030
 7112SOL    HW222236   1.061   6.722   3.030
 7113SOL     OW22237   3.951   3.960   4.534
 7113SOL    HW122238   4.023   3.949   4.466
 7113SOL    HW222239   3.870   3.909   4.506
 7114SOL     OW22240   4.058   0.952   0.962
 7114SOL    HW122241   4.066   0.852   0.963
 7114SOL    HW222242   4.145   0.992   0.992
 7115SOL     OW22243   4.125   2.137   0.903
 7115SOL    HW122244   4.111   2.106   0.809
 7115SOL    HW222245   4.084   2.227   0.915
 7116SOL     OW22246   5.897   3.538   2.668
 7116SOL    HW122247   5.831   3.465   2.690
 7116SOL    HW222248   5.863   3.592   2.591
 7117SOL     OW22249   5.935   6.570   1.463
 7117SOL    HW122250   5.938   6.546   1.560
 7117SOL    HW222251   5.843   6.554   1.428
 7118SOL     OW22252   6.902   3.343   1.318
 7118SOL    HW122253   6.865   3.260   1.358
 7118SOL    HW222254   6.969   3.384   1.380
 7119SOL     OW22255   6.559   1.625   2.885
 7119SOL    HW122256   6.627   1.601   2.817
 7119SOL    HW222257   6.542   1.546   2.944
 7120SOL     OW22258   5.377   0.373   3.617
 7120SOL    HW122259   5.399   0.292   3.670
 7120SOL    HW222260   5.355   0.448   3.679
 7121SOL     OW22261   3.376   6.611   2.035
 7121SOL    HW122262   3.351   6.524   1.993
 7121SOL    HW222263   3.452   6.652   1.984
 7122SOL     OW22264   6.596   0.850   6.922
 7122SOL    HW122265   6.636   0.940   6.938
 7122SOL    HW222266   6.578   0.838   6.825
 7123SOL     OW22267   2.738   4.572   1.287
 7123SOL    HW122268   2.653   4.582   1.339
 7123SOL    HW222269   2.813   4.616   1.337
 7124SOL     OW22270   0.809   5.379   1.247
 7124SOL    HW122271   0.829   5.468   1.288
 7124SOL    HW222272   0.873   5.311   1.283
 7125SOL     OW22273   6.336   6.339   2.521
 7125SOL    HW122274   6.425   6.381   2.541
 7125SOL    HW222275   6.335   6.245   2.556
 7126SOL     OW22276   0.914   4.478   0.216
 7126SOL    HW122277   0.898   4.389   0.172
 7126SOL    HW222278   0.922   4.464   0.315
 7127SOL     OW22279   3.654   6.822   4.497
 7127SOL    HW122280   3.638   6.754   4.568
 7127SOL    HW222281   3.647   6.779   4.407
 7128SOL     OW22282   2.926   4.537   1.507
 7128SOL    HW122283   3.012   4.552   1.556
 7128SOL    HW222284   2.853   4.516   1.571
 7129SOL     OW22285   2.694   1.167   1.897
 7129SOL    HW122286   2.615   1.114   1.930
 7129SOL    HW222287   2.687   1.261   1.930
 7130SOL     OW22288   2.262   5.566   2.383
 7130SOL    HW122289   2.187   5.614   2.338
 7130SOL    HW222290   2.314   5.514   2.315
 7131SOL     OW22291   2.856   0.769   2.983
 7131SOL    HW122292   2.763   0.743   2.957
 7131SOL    HW222293   2.860   0.867   3.004
 7132SOL     OW22294   3.487   4.087   2.976
 7132SOL    HW122295   3.464   4.098   2.879
 7132SOL    HW222296   3.410   4.119   3.032
 7133SOL     OW22297   5.124   4.944   2.596
 7133SOL    HW122298   5.202   4.954   2.657
 7133SOL    HW222299   5.154   4.904   2.509
 7134SOL     OW22300   5.378   3.745   3.786
 7134SOL    HW122301   5.337   3.796   3.710
 7134SOL    HW222302   5.377   3.648   3.765
 7135SOL     OW22303   0.958   1.825   4.903
 7135SOL    HW122304   0.997   1.821   4.994
 7135SOL    HW222305   0.885   1.757   4.895
 7136SOL     OW22306   2.427   1.693   0.434
 7136SOL    HW122307   2.404   1.642   0.517
 7136SOL    HW222308   2.482   1.635   0.373
 7137SOL     OW22309   4.191   0.991   4.865
 7137SOL    HW122310   4.146   1.000   4.776
 7137SOL    HW222311   4.262   0.920   4.859
 7138SOL     OW22312   2.330   4.007   0.161
 7138SOL    HW122313   2.259   3.989   0.230
 7138SOL    HW222314   2.374   3.922   0.135
 7139SOL     OW22315   3.310   1.945   0.717
 7139SOL    HW122316   3.399   1.989   0.707
 7139SOL    HW222317   3.264   1.942   0.628
 7140SOL     OW22318   6.373   3.658   5.136
 7140SOL    HW122319   6.449   3.597   5.158
 7140SOL    HW222320   6.370   3.733   5.203
 7141SOL     OW22321   2.951   6.641   0.650
 7141SOL    HW122322   2.928   6.619   0.745
 7141SOL    HW222323   3.033   6.698   0.648
 7142SOL     OW22324   3.897   6.293   4.354
 7142SOL    HW122325   3.818   6.293   4.414
 7142SOL    HW222326   3.932   6.200   4.343
 7143SOL     OW22327   1.939   3.699   4.760
 7143SOL    HW122328   1.985   3.619   4.724
 7143SOL    HW222329   1.997   3.743   4.829
 7144SOL     OW22330   0.838   2.822   4.057
 7144SOL    HW122331   0.849   2.725   4.081
 7144SOL    HW222332   0.778   2.866   4.123
 7145SOL     OW22333   4.625   0.226   6.549
 7145SOL    HW122334   4.572   0.152   6.589
 7145SOL    HW222335   4.563   0.296   6.513
 7146SOL     OW22336   2.949   4.325   0.452
 7146SOL    HW122337   2.855   4.355   0.436
 7146SOL    HW222338   2.971   4.251   0.389
 7147SOL     OW22339   0.355   0.106   4.170
 7147SOL    HW122340   0.405   0.057   4.241
 7147SOL    HW222341   0.279   0.157   4.212
 7148SOL     OW22342   0.622   1.419   0.684
 7148SOL    HW122343   0.647   1.327   0.713
 7148SOL    HW222344   0.555   1.413   0.610
 7149SOL     OW22345   6.259   1.297   3.937
 7149SOL    HW122346   6.194   1.354   3.886
 7149SOL    HW222347   6.343   1.348   3.953
 7150SOL     OW22348   5.578   3.509   6.943
 7150SOL    HW122349   5.495   3.543   6.898
 7150SOL    HW222350   5.604   3.573   7.016
 7151SOL     OW22351   2.776   6.067   1.232
 7151SOL    HW122352   2.808   5.987   1.282
 7151SOL    HW222353   2.818   6.149   1.269
 7152SOL     OW22354   1.354   2.701   3.797
 7152SOL    HW122355   1.327   2.710   3.893
 7152SOL    HW222356   1.273   2.688   3.740
 7153SOL     OW22357   3.661   1.582   3.921
 7153SOL    HW122358   3.582   1.636   3.951
 7153SOL    HW222359   3.689   1.611   3.829
 7154SOL     OW22360   5.026   5.867   4.528
 7154SOL    HW122361   4.957   5.828   4.588
 7154SOL    HW222362   5.012   5.966   4.520
 7155SOL     OW22363   2.891   0.449   1.941
 7155SOL    HW122364   2.851   0.423   1.853
 7155SOL    HW222365   2.890   0.549   1.949
 7156SOL     OW22366   0.162   5.697   4.384
 7156SOL    HW122367   0.169   5.631   4.310
 7156SOL    HW222368   0.120   5.782   4.350
 7157SOL     OW22369   4.860   4.201   1.035
 7157SOL    HW122370   4.766   4.202   1.002
 7157SOL    HW222371   4.913   4.134   0.983
 7158SOL     OW22372   6.009   6.566   4.488
 7158SOL    HW122373   5.996   6.645   4.548
 7158SOL    HW222374   6.078   6.588   4.419
 7159SOL     OW22375   0.786   5.805   0.264
 7159SOL    HW122376   0.852   5.875   0.292
 7159SOL    HW222377   0.762   5.818   0.168
 7160SOL     OW22378   5.876   0.772   2.109
 7160SOL    HW122379   5.832   0.691   2.149
 7160SOL    HW222380   5.909   0.832   2.182
 7161SOL     OW22381   4.081   3.736   3.745
 7161SOL    HW122382   4.155   3.790   3.706
 7161SOL    HW222383   4.033   3.789   3.814
 7162SOL     OW22384   2.687   4.754   3.276
 7162SOL    HW122385   2.755   4.754   3.349
 7162SOL    HW222386   2.667   4.849   3.249
 7163SOL     OW22387   2.439   0.011   3.118
 7163SOL    HW122388   2.519   0.020   3.059
 7163SOL    HW222389   2.426   0.095   3.170
 7164SOL     OW22390   2.740   1.745   2.925
 7164SOL    HW122391   2.763   1.812   2.854
 7164SOL    HW222392   2.818   1.733   2.986
 7165SOL     OW22393   4.987   0.356   1.744
 7165SOL    HW122394   4.995   0.434   1.682
 7165SOL    HW222395   4.905   0.303   1.720
 7166SOL     OW22396   5.000   4.958   1.860
 7166SOL    HW122397   5.003   5.046   1.907
 7166SOL    HW222398   4.987   4.973   1.762
 7167SOL     OW22399   4.500   2.941   5.254
 7167SOL    HW122400   4.568   3.000   5.296
 7167SOL    HW222401   4.545   2.863   5.211
 7168SOL     OW22402   1.346   1.095   4.463
 7168SOL    HW122403   1.397   1.128   4.383
 7168SOL    HW222404   1.393   1.124   4.547
 7169SOL     OW22405   1.950   2.763   6.324
 7169SOL    HW122406   1.927   2.821   6.246
 7169SOL    HW222407   2.025   2.805   6.376
 7170SOL     OW22408   6.902   5.047   4.472
 7170SOL    HW122409   6.845   5.006   4.400
 7170SOL    HW222410   6.999   5.032   4.450
 7171SOL     OW22411   3.749   2.924   4.945
 7171SOL    HW122412   3.659   2.941   4.906
 7171SOL    HW222413   3.803   2.867   4.882
 7172SOL     OW22414   1.672   6.808   1.329
 7172SOL    HW122415   1.759   6.821   1.281
 7172SOL    HW222416   1.684   6.744   1.405
 7173SOL     OW22417   6.022   6.161   5.873
 7173SOL    HW122418   6.012   6.216   5.790
 7173SOL    HW222419   6.084   6.084   5.856
 7174SOL     OW22420   1.030   5.596   0.267
 7174SOL    HW122421   0.962   5.664   0.296
 7174SOL    HW222422   0.994   5.545   0.188
 7175SOL     OW22423   6.575   3.465   5.168
 7175SOL    HW122424   6.673   3.456   5.149
 7175SOL    HW222425   6.542   3.381   5.212
 7176SOL     OW22426   6.211   3.970   1.299
 7176SOL    HW122427   6.198   3.965   1.200
 7176SOL    HW222428   6.227   4.065   1.325
 7177SOL     OW22429   0.557   6.528   1.860
 7177SOL    HW122430   0.576   6.593   1.786
 7177SOL    HW222431   0.621   6.543   1.935
 7178SOL     OW22432   0.074   2.706   6.288
 7178SOL    HW122433   0.115   2.744   6.372
 7178SOL    HW222434   0.147   2.689   6.221
 7179SOL     OW22435   2.701   4.548   6.295
 7179SOL    HW122436   2.710   4.554   6.195
 7179SOL    HW222437   2.606   4.528   6.318
 7180SOL     OW22438   0.230   6.724   2.425
 7180SOL    HW122439   0.320   6.747   2.462
 7180SOL    HW222440   0.177   6.675   2.494
 7181SOL     OW22441   5.112   0.590   2.420
 7181SOL    HW122442   5.044   0.643   2.368
 7181SOL    HW222443   5.138   0.642   2.501
 7182SOL     OW22444   2.987   3.635   5.403
 7182SOL    HW122445   3.062   3.647   5.337
 7182SOL    HW222446   2.924   3.566   5.369
 7183SOL     OW22447   1.095   5.550   2.781
 7183SOL    HW122448   0.998   5.539   2.804
 7183SOL    HW222449   1.118   5.647   2.784
 7184SOL     OW22450   1.726   6.862   3.573
 7184SOL    HW122451   1.718   6.808   3.489
 7184SOL    HW222452   1.783   6.812   3.639
 7185SOL     OW22453   3.981   2.172   6.425
 7185SOL    HW122454   3.964   2.262   6.386
 7185SOL    HW222455   4.007   2.108   6.353
 7186SOL     OW22456   0.633   6.770   4.280
 7186SOL    HW122457   0.689   6.808   4.354
 7186SOL    HW222458   0.637   6.670   4.284
 7187SOL     OW22459   2.012   5.071   1.386
 7187SOL    HW122460   1.923   5.045   1.349
 7187SOL    HW222461   2.004   5.157   1.436
 7188SOL     OW22462   5.243   0.926   1.740
 7188SOL    HW122463   5.255   0.842   1.687
 7188SOL    HW222464   5.246   1.005   1.679
 7189SOL     OW22465   6.421   0.704   4.797
 7189SOL    HW122466   6.324   0.682   4.805
 7189SOL    HW222467   6.431   0.799   4.765
 7190SOL     OW22468   4.804   4.895   3.792
 7190SOL    HW122469   4.837   4.814   3.841
 7190SOL    HW222470   4.840   4.894   3.699
 7191SOL     OW22471   1.523   3.276   2.415
 7191SOL    HW122472   1.427   3.303   2.417
 7191SOL    HW222473   1.538   3.210   2.341
 7192SOL     OW22474   3.671   5.007   5.827
 7192SOL    HW122475   3.694   4.912   5.805
 7192SOL    HW222476   3.620   5.047   5.751
 7193SOL     OW22477   4.828   1.220   2.804
 7193SOL    HW122478   4.915   1.184   2.839
 7193SOL    HW222479   4.807   1.177   2.716
 7194SOL     OW22480   3.056   1.587   1.621
 7194SOL    HW122481   3.121   1.582   1.697
 7194SOL    HW222482   2.984   1.653   1.642
 7195SOL     OW22483   0.699   5.312   2.004
 7195SOL    HW122484   0.661   5.225   1.973
 7195SOL    HW222485   0.645   5.388   1.968
 7196SOL     OW22486   4.068   2.930   1.771
 7196SOL    HW122487   4.051   2.988   1.691
 7196SOL    HW222488   4.146   2.871   1.753
 7197SOL     OW22489   1.426   1.615   5.560
 7197SOL    HW122490   1.472   1.704   5.558
 7197SOL    HW222491   1.485   1.545   5.519
 7198SOL     OW22492   1.143   5.752   6.633
 7198SOL    HW122493   1.191   5.725   6.549
 7198SOL    HW222494   1.210   5.778   6.702
 7199SOL     OW22495   6.117   6.744   2.719
 7199SOL    HW122496   6.074   6.710   2.635
 7199SOL    HW222497   6.077   6.832   2.743
 7200SOL     OW22498   2.244   1.777   1.042
 7200SOL    HW122499   2.221   1.800   1.137
 7200SOL    HW222500   2.342   1.786   1.029
 7201SOL     OW22501   2.454   4.411   3.602
 7201SOL    HW122502   2.355   4.394   3.600
 7201SOL    HW222503   2.480   4.466   3.523
 7202SOL     OW22504   3.890   0.504   6.580
 7202SOL    HW122505   3.932   0.446   6.509
 7202SOL    HW222506   3.847   0.582   6.536
 7203SOL     OW22507   6.056   0.587   6.824
 7203SOL    HW122508   6.110   0.546   6.897
 7203SOL    HW222509   6.102   0.670   6.790
 7204SOL     OW22510   5.786   1.232   2.245
 7204SOL    HW122511   5.798   1.307   2.310
 7204SOL    HW222512   5.827   1.256   2.158
 7205SOL     OW22513   1.999   4.639   2.347
 7205SOL    HW122514   1.960   4.719   2.300
 7205SOL    HW222515   1.948   4.623   2.431
 7206SOL     OW22516   6.108   1.386   1.755
 7206SOL    HW122517   6.057   1.430   1.682
 7206SOL    HW222518   6.191   1.344   1.718
 7207SOL     OW22519   4.106   0.105   1.638
 7207SOL    HW122520   4.102   0.180   1.704
 7207SOL    HW222521   4.105   0.143   1.545
 7208SOL     OW22522   2.957   0.051   4.851
 7208SOL    HW122523   3.030   7.014   4.819
 7208SOL    HW222524   2.938   0.119   4.780
 7209SOL     OW22525   4.194   3.679   5.008
 7209SOL    HW122526   4.122   3.707   4.944
 7209SOL    HW222527   4.253   3.757   5.028
 7210SOL     OW22528   4.004   0.545   4.482
 7210SOL    HW122529   3.923   0.576   4.432
 7210SOL    HW222530   4.009   0.445   4.478
 7211SOL     OW22531   1.640   5.534   2.714
 7211SOL    HW122532   1.546   5.518   2.686
 7211SOL    HW222533   1.674   5.618   2.672
 7212SOL     OW22534   5.297   6.815   4.190
 7212SOL    HW122535   5.237   6.735   4.190
 7212SOL    HW222536   5.245   6.894   4.224
 7213SOL     OW22537   5.317   0.762   5.373
 7213SOL    HW122538   5.260   0.725   5.300
 7213SOL    HW222539   5.407   0.720   5.370
 7214SOL     OW22540   0.946   4.761   4.944
 7214SOL    HW122541   0.993   4.689   4.894
 7214SOL    HW222542   0.854   4.775   4.906
 7215SOL     OW22543   0.921   3.452   2.981
 7215SOL    HW122544   0.859   3.520   2.943
 7215SOL    HW222545   0.999   3.497   3.023
 7216SOL     OW22546   2.062   1.260   1.374
 7216SOL    HW122547   2.154   1.228   1.397
 7216SOL    HW222548   2.043   1.242   1.278
 7217SOL     OW22549   0.643   3.090   2.290
 7217SOL    HW122550   0.606   3.000   2.313
 7217SOL    HW222551   0.690   3.127   2.370
 7218SOL     OW22552   5.819   2.452   5.793
 7218SOL    HW122553   5.864   2.510   5.861
 7218SOL    HW222554   5.825   2.357   5.822
 7219SOL     OW22555   3.709   1.330   1.648
 7219SOL    HW122556   3.700   1.399   1.721
 7219SOL    HW222557   3.656   1.249   1.672
 7220SOL     OW22558   6.924   0.638   2.493
 7220SOL    HW122559   6.984   0.561   2.513
 7220SOL    HW222560   6.869   0.617   2.412
 7221SOL     OW22561   5.832   5.084   5.131
 7221SOL    HW122562   5.768   5.065   5.205
 7221SOL    HW222563   5.842   5.003   5.073
 7222SOL     OW22564   6.155   6.414   2.755
 7222SOL    HW122565   6.204   6.352   2.693
 7222SOL    HW222566   6.154   6.506   2.716
 7223SOL     OW22567   3.684   0.517   5.003
 7223SOL    HW122568   3.607   0.467   4.962
 7223SOL    HW222569   3.768   0.463   4.993
 7224SOL     OW22570   4.450   0.152   4.349
 7224SOL    HW122571   4.502   0.068   4.363
 7224SOL    HW222572   4.441   0.170   4.251
 7225SOL     OW22573   2.192   6.546   6.883
 7225SOL    HW122574   2.210   6.636   6.922
 7225SOL    HW222575   2.094   6.535   6.868
 7226SOL     OW22576   6.235   6.944   0.343
 7226SOL    HW122577   6.179   6.914   0.265
 7226SOL    HW222578   6.297   6.870   0.369
 7227SOL     OW22579   6.601   2.944   6.156
 7227SOL    HW122580   6.581   2.921   6.061
 7227SOL    HW222581   6.698   2.930   6.174
 7228SOL     OW22582   1.545   0.897   2.750
 7228SOL    HW122583   1.506   0.989   2.746
 7228SOL    HW222584   1.513   0.852   2.834
 7229SOL     OW22585   0.584   0.599   4.051
 7229SOL    HW122586   0.638   0.669   4.099
 7229SOL    HW222587   0.623   0.509   4.070
 7230SOL     OW22588   5.500   4.372   3.043
 7230SOL    HW122589   5.450   4.286   3.054
 7230SOL    HW222590   5.590   4.364   3.086
 7231SOL     OW22591   5.852   1.240   6.322
 7231SOL    HW122592   5.777   1.267   6.261
 7231SOL    HW222593   5.817   1.227   6.414
 7232SOL     OW22594   3.653   4.689   1.156
 7232SOL    HW122595   3.627   4.681   1.059
 7232SOL    HW222596   3.694   4.779   1.172
 7233SOL     OW22597   0.258   2.196   5.927
 7233SOL    HW122598   0.207   2.129   5.873
 7233SOL    HW222599   0.304   2.260   5.866
 7234SOL     OW22600   5.705   2.038   2.542
 7234SOL    HW122601   5.799   2.021   2.572
 7234SOL    HW222602   5.699   2.129   2.501
 7235SOL     OW22603   6.570   2.966   4.887
 7235SOL    HW122604   6.536   2.934   4.798
 7235SOL    HW222605   6.507   3.034   4.924
 7236SOL     OW22606   3.178   0.968   2.893
 7236SOL    HW122607   3.220   0.895   2.946
 7236SOL    HW222608   3.245   1.009   2.832
 7237SOL     OW22609   6.304   5.697   6.150
 7237SOL    HW122610   6.317   5.627   6.080
 7237SOL    HW222611   6.253   5.658   6.227
 7238SOL     OW22612   0.938   1.184   1.674
 7238SOL    HW122613   1.003   1.117   1.710
 7238SOL    HW222614   0.983   1.238   1.603
 7239SOL     OW22615   4.565   1.288   2.105
 7239SOL    HW122616   4.649   1.251   2.143
 7239SOL    HW222617   4.487   1.234   2.137
 7240SOL     OW22618   3.352   3.691   0.745
 7240SOL    HW122619   3.322   3.644   0.662
 7240SOL    HW222620   3.438   3.650   0.776
 7241SOL     OW22621   4.084   0.075   5.115
 7241SOL    HW122622   4.162   0.081   5.178
 7241SOL    HW222623   4.001   0.052   5.166
 7242SOL     OW22624   4.682   4.970   0.623
 7242SOL    HW122625   4.690   5.009   0.715
 7242SOL    HW222626   4.747   4.895   0.613
 7243SOL     OW22627   0.166   5.934   0.286
 7243SOL    HW122628   0.079   5.948   0.239
 7243SOL    HW222629   0.151   5.878   0.368
 7244SOL     OW22630   5.413   1.468   0.875
 7244SOL    HW122631   5.314   1.455   0.879
 7244SOL    HW222632   5.439   1.540   0.940
 7245SOL     OW22633   6.567   1.750   4.629
 7245SOL    HW122634   6.526   1.659   4.622
 7245SOL    HW222635   6.523   1.801   4.703
 7246SOL     OW22636   1.094   5.812   5.239
 7246SOL    HW122637   1.040   5.866   5.175
 7246SOL    HW222638   1.110   5.721   5.200
 7247SOL     OW22639   3.672   5.660   2.723
 7247SOL    HW122640   3.693   5.603   2.643
 7247SOL    HW222641   3.643   5.601   2.798
 7248SOL     OW22642   3.101   0.801   4.725
 7248SOL    HW122643   3.121   0.893   4.693
 7248SOL    HW222644   3.130   0.734   4.657
 7249SOL     OW22645   6.041   4.786   6.460
 7249SOL    HW122646   5.988   4.839   6.527
 7249SOL    HW222647   6.087   4.847   6.397
 7250SOL     OW22648   3.006   4.287   6.717
 7250SOL    HW122649   2.959   4.201   6.696
 7250SOL    HW222650   2.944   4.364   6.702
 7251SOL     OW22651   5.537   0.205   5.422
 7251SOL    HW122652   5.470   0.270   5.456
 7251SOL    HW222653   5.499   0.112   5.427
 7252SOL     OW22654   4.441   3.680   5.340
 7252SOL    HW122655   4.513   3.640   5.284
 7252SOL    HW222656   4.482   3.728   5.417
 7253SOL     OW22657   5.278   5.314   0.750
 7253SOL    HW122658   5.367   5.338   0.712
 7253SOL    HW222659   5.222   5.271   0.680
 7254SOL     OW22660   5.134   6.573   5.161
 7254SOL    HW122661   5.151   6.496   5.099
 7254SOL    HW222662   5.082   6.541   5.240
 7255SOL     OW22663   3.682   4.008   2.024
 7255SOL    HW122664   3.641   3.952   1.952
 7255SOL    HW222665   3.781   4.015   2.008
 7256SOL     OW22666   4.643   4.928   4.015
 7256SOL    HW122667   4.576   4.997   3.988
 7256SOL    HW222668   4.696   4.900   3.934
 7257SOL     OW22669   6.103   3.909   3.323
 7257SOL    HW122670   6.100   3.904   3.423
 7257SOL    HW222671   6.148   3.828   3.287
 7258SOL     OW22672   3.157   6.617   5.416
 7258SOL    HW122673   3.138   6.528   5.459
 7258SOL    HW222674   3.085   6.681   5.441
 7259SOL     OW22675   1.569   5.790   6.012
 7259SOL    HW122676   1.669   5.791   6.018
 7259SOL    HW222677   1.537   5.881   5.987
 7260SOL     OW22678   4.099   1.961   1.968
 7260SOL    HW122679   4.133   2.003   1.884
 7260SOL    HW222680   4.103   2.027   2.042
 7261SOL     OW22681   1.094   4.347   1.687
 7261SOL    HW122682   1.141   4.272   1.640
 7261SOL    HW222683   0.997   4.348   1.660
 7262SOL     OW22684   6.310   1.530   5.937
 7262SOL    HW122685   6.329   1.439   5.973
 7262SOL    HW222686   6.280   1.590   6.012
 7263SOL     OW22687   5.038   6.517   1.882
 7263SOL    HW122688   4.943   6.524   1.910
 7263SOL    HW222689   5.062   6.594   1.823
 7264SOL     OW22690   1.312   6.831   4.571
 7264SOL    HW122691   1.348   6.819   4.478
 7264SOL    HW222692   1.366   6.775   4.634
 7265SOL     OW22693   4.213   3.810   6.097
 7265SOL    HW122694   4.148   3.753   6.147
 7265SOL    HW222695   4.208   3.903   6.131
 7266SOL     OW22696   4.776   1.167   1.608
 7266SOL    HW122697   4.774   1.267   1.605
 7266SOL    HW222698   4.809   1.137   1.698
 7267SOL     OW22699   0.450   2.863   4.315
 7267SOL    HW122700   0.405   2.880   4.227
 7267SOL    HW222701   0.454   2.948   4.367
 7268SOL     OW22702   3.174   0.320   0.699
 7268SOL    HW122703   3.234   0.267   0.759
 7268SOL    HW222704   3.119   0.257   0.644
 7269SOL     OW22705   1.170   6.874   2.021
 7269SOL    HW122706   1.171   6.964   2.065
 7269SOL    HW222707   1.261   6.833   2.027
 7270SOL     OW22708   3.174   1.763   2.503
 7270SOL    HW122709   3.203   1.856   2.525
 7270SOL    HW222710   3.222   1.732   2.421
 7271SOL     OW22711   6.165   4.945   4.610
 7271SOL    HW122712   6.090   4.934   4.545
 7271SOL    HW222713   6.241   4.885   4.585
 7272SOL     OW22714   6.180   1.611   1.078
 7272SOL    HW122715   6.266   1.662   1.075
 7272SOL    HW222716   6.132   1.631   1.163
 7273SOL     OW22717   5.873   6.336   6.026
 7273SOL    HW122718   5.839   6.306   6.115
 7273SOL    HW222719   5.933   6.266   5.987
 7274SOL     OW22720   0.296   4.499   4.497
 7274SOL    HW122721   0.298   4.435   4.573
 7274SOL    HW222722   0.249   4.457   4.419
 7275SOL     OW22723   5.314   6.330   1.377
 7275SOL    HW122724   5.271   6.420   1.368
 7275SOL    HW222725   5.281   6.286   1.461
 7276SOL     OW22726   2.913   2.051   4.047
 7276SOL    HW122727   2.996   2.095   4.082
 7276SOL    HW222728   2.850   2.036   4.123
 7277SOL     OW22729   5.378   1.516   3.909
 7277SOL    HW122730   5.337   1.593   3.861
 7277SOL    HW222731   5.448   1.473   3.852
 7278SOL     OW22732   2.580   1.769   3.191
 7278SOL    HW122733   2.554   1.817   3.107
 7278SOL    HW222734   2.660   1.712   3.172
 7279SOL     OW22735   3.917   4.187   1.078
 7279SOL    HW122736   3.872   4.275   1.066
 7279SOL    HW222737   3.965   4.163   0.993
 7280SOL     OW22738   6.679   1.944   5.687
 7280SOL    HW122739   6.751   1.923   5.621
 7280SOL    HW222740   6.684   1.878   5.763
 7281SOL     OW22741   3.624   5.741   2.249
 7281SOL    HW122742   3.578   5.694   2.173
 7281SOL    HW222743   3.609   5.690   2.334
 7282SOL     OW22744   6.774   3.854   1.959
 7282SOL    HW122745   6.722   3.884   2.039
 7282SOL    HW222746   6.871   3.866   1.976
 7283SOL     OW22747   4.366   4.831   3.484
 7283SOL    HW122748   4.326   4.763   3.422
 7283SOL    HW222749   4.294   4.870   3.541
 7284SOL     OW22750   0.751   1.478   2.196
 7284SOL    HW122751   0.765   1.400   2.256
 7284SOL    HW222752   0.680   1.537   2.234
 7285SOL     OW22753   4.769   3.237   1.711
 7285SOL    HW122754   4.794   3.286   1.794
 7285SOL    HW222755   4.716   3.155   1.735
 7286SOL     OW22756   6.508   1.534   3.753
 7286SOL    HW122757   6.453   1.483   3.687
 7286SOL    HW222758   6.534   1.622   3.715
 7287SOL     OW22759   3.126   1.268   3.040
 7287SOL    HW122760   3.100   1.171   3.035
 7287SOL    HW222761   3.161   1.298   2.952
 7288SOL     OW22762   2.693   1.433   2.006
 7288SOL    HW122763   2.599   1.452   1.976
 7288SOL    HW222764   2.756   1.458   1.933
 7289SOL     OW22765   6.637   2.555   1.807
 7289SOL    HW122766   6.711   2.567   1.874
 7289SOL    HW222767   6.550   2.543   1.854
 7290SOL     OW22768   4.107   1.303   4.827
 7290SOL    HW122769   4.138   1.376   4.888
 7290SOL    HW222770   4.020   1.267   4.860
 7291SOL     OW22771   2.407   1.246   0.735
 7291SOL    HW122772   2.352   1.223   0.654
 7291SOL    HW222773   2.492   1.289   0.706
 7292SOL     OW22774   2.245   0.671   2.676
 7292SOL    HW122775   2.155   0.712   2.692
 7292SOL    HW222776   2.253   0.645   2.580
 7293SOL     OW22777   6.361   1.495   4.267
 7293SOL    HW122778   6.412   1.469   4.185
 7293SOL    HW222779   6.423   1.499   4.345
 7294SOL     OW22780   3.269   6.324   2.508
 7294SOL    HW122781   3.218   6.409   2.517
 7294SOL    HW222782   3.242   6.261   2.581
 7295SOL     OW22783   5.372   4.362   1.293
 7295SOL    HW122784   5.374   4.304   1.211
 7295SOL    HW222785   5.303   4.326   1.357
 7296SOL     OW22786   4.136   5.557   2.245
 7296SOL    HW122787   4.151   5.498   2.166
 7296SOL    HW222788   4.218   5.610   2.264
 7297SOL     OW22789   4.175   6.919   0.718
 7297SOL    HW122790   4.111   6.842   0.708
 7297SOL    HW222791   4.260   6.886   0.760
 7298SOL     OW22792   4.357   5.248   0.728
 7298SOL    HW122793   4.270   5.214   0.764
 7298SOL    HW222794   4.408   5.292   0.802
 7299SOL     OW22795   1.234   2.949   5.762
 7299SOL    HW122796   1.266   3.044   5.763
 7299SOL    HW222797   1.135   2.947   5.746
 7300SOL     OW22798   0.451   5.449   2.384
 7300SOL    HW122799   0.546   5.454   2.351
 7300SOL    HW222800   0.396   5.517   2.336
 7301SOL     OW22801   4.131   2.238   6.090
 7301SOL    HW122802   4.074   2.258   6.010
 7301SOL    HW222803   4.183   2.320   6.115
 7302SOL     OW22804   5.685   2.082   6.120
 7302SOL    HW122805   5.767   2.097   6.174
 7302SOL    HW222806   5.659   1.986   6.124
 7303SOL     OW22807   3.064   1.904   1.646
 7303SOL    HW122808   2.988   1.854   1.688
 7303SOL    HW222809   3.115   1.953   1.717
 7304SOL     OW22810   2.409   5.155   0.938
 7304SOL    HW122811   2.366   5.074   0.898
 7304SOL    HW222812   2.508   5.139   0.947
 7305SOL     OW22813   6.170   0.936   6.984
 7305SOL    HW122814   6.077   0.953   7.017
 7305SOL    HW222815   6.214   1.024   6.964
 7306SOL     OW22816   1.163   3.108   1.532
 7306SOL    HW122817   1.114   3.186   1.568
 7306SOL    HW222818   1.099   3.034   1.512
 7307SOL     OW22819   1.992   0.313   1.482
 7307SOL    HW122820   1.988   0.325   1.581
 7307SOL    HW222821   1.933   0.381   1.438
 7308SOL     OW22822   3.722   1.483   2.725
 7308SOL    HW122823   3.663   1.563   2.733
 7308SOL    HW222824   3.671   1.407   2.684
 7309SOL     OW22825   1.869   5.394   3.804
 7309SOL    HW122826   1.885   5.303   3.766
 7309SOL    HW222827   1.856   5.459   3.729
 7310SOL     OW22828   2.798   2.667   6.241
 7310SOL    HW122829   2.740   2.617   6.176
 7310SOL    HW222830   2.747   2.745   6.277
 7311SOL     OW22831   0.370   5.960   5.750
 7311SOL    HW122832   0.420   5.912   5.677
 7311SOL    HW222833   0.380   5.909   5.836
 7312SOL     OW22834   6.138   2.104   4.039
 7312SOL    HW122835   6.177   2.028   4.092
 7312SOL    HW222836   6.046   2.124   4.073
 7313SOL     OW22837   2.524   0.646   2.661
 7313SOL    HW122838   2.560   0.708   2.731
 7313SOL    HW222839   2.425   0.644   2.666
 7314SOL     OW22840   1.277   4.554   5.731
 7314SOL    HW122841   1.250   4.562   5.635
 7314SOL    HW222842   1.368   4.514   5.737
 7315SOL     OW22843   2.503   5.055   2.271
 7315SOL    HW122844   2.418   5.016   2.236
 7315SOL    HW222845   2.541   4.995   2.341
 7316SOL     OW22846   3.963   1.497   1.264
 7316SOL    HW122847   3.875   1.451   1.257
 7316SOL    HW222848   4.010   1.468   1.347
 7317SOL     OW22849   4.383   2.149   0.147
 7317SOL    HW122850   4.321   2.226   0.133
 7317SOL    HW222851   4.469   2.165   0.098
 7318SOL     OW22852   5.201   6.857   0.637
 7318SOL    HW122853   5.165   6.778   0.588
 7318SOL    HW222854   5.299   6.863   0.622
 7319SOL     OW22855   6.077   6.687   6.649
 7319SOL    HW122856   6.100   6.763   6.588
 7319SOL    HW222857   6.150   6.676   6.716
 7320SOL     OW22858   0.593   2.733   0.902
 7320SOL    HW122859   0.502   2.712   0.867
 7320SOL    HW222860   0.646   2.779   0.831
 7321SOL     OW22861   2.028   1.940   0.110
 7321SOL    HW122862   2.101   1.900   0.165
 7321SOL    HW222863   2.053   1.938   0.014
 7322SOL     OW22864   1.025   3.520   3.361
 7322SOL    HW122865   0.950   3.454   3.354
 7322SOL    HW222866   1.047   3.555   3.270
 7323SOL     OW22867   1.365   2.609   0.559
 7323SOL    HW122868   1.413   2.556   0.629
 7323SOL    HW222869   1.362   2.705   0.586
 7324SOL     OW22870   4.861   3.786   3.281
 7324SOL    HW122871   4.827   3.858   3.342
 7324SOL    HW222872   4.910   3.717   3.335
 7325SOL     OW22873   4.138   1.201   6.143
 7325SOL    HW122874   4.181   1.131   6.199
 7325SOL    HW222875   4.206   1.237   6.078
 7326SOL     OW22876   3.655   0.319   0.306
 7326SOL    HW122877   3.561   0.287   0.322
 7326SOL    HW222878   3.653   0.396   0.242
 7327SOL     OW22879   1.659   4.382   3.529
 7327SOL    HW122880   1.614   4.312   3.475
 7327SOL    HW222881   1.648   4.471   3.485
 7328SOL     OW22882   4.678   5.048   5.564
 7328SOL    HW122883   4.667   4.956   5.601
 7328SOL    HW222884   4.719   5.107   5.633
 7329SOL     OW22885   2.667   3.422   0.699
 7329SOL    HW122886   2.630   3.453   0.611
 7329SOL    HW222887   2.763   3.399   0.688
 7330SOL     OW22888   2.203   3.039   1.088
 7330SOL    HW122889   2.300   3.017   1.103
 7330SOL    HW222890   2.169   2.986   1.011
 7331SOL     OW22891   5.582   2.423   2.263
 7331SOL    HW122892   5.585   2.511   2.310
 7331SOL    HW222893   5.523   2.431   2.182
 7332SOL     OW22894   3.182   6.662   6.287
 7332SOL    HW122895   3.282   6.663   6.299
 7332SOL    HW222896   3.147   6.571   6.311
 7333SOL     OW22897   0.574   1.050   1.519
 7333SOL    HW122898   0.601   0.968   1.467
 7333SOL    HW222899   0.474   1.049   1.532
 7334SOL     OW22900   1.457   5.097   4.158
 7334SOL    HW122901   1.445   5.048   4.244
 7334SOL    HW222902   1.512   5.179   4.173
 7335SOL     OW22903   6.871   3.552   2.140
 7335SOL    HW122904   6.818   3.467   2.135
 7335SOL    HW222905   6.822   3.625   2.093
 7336SOL     OW22906   2.364   6.650   1.357
 7336SOL    HW122907   2.409   6.706   1.288
 7336SOL    HW222908   2.410   6.661   1.445
 7337SOL     OW22909   3.045   1.070   3.328
 7337SOL    HW122910   3.140   1.077   3.299
 7337SOL    HW222911   3.020   0.974   3.341
 7338SOL     OW22912   5.315   4.237   1.037
 7338SOL    HW122913   5.397   4.256   0.982
 7338SOL    HW222914   5.283   4.144   1.018
 7339SOL     OW22915   6.989   6.351   5.057
 7339SOL    HW122916   6.909   6.370   5.001
 7339SOL    HW222917   0.037   6.315   4.998
 7340SOL     OW22918   3.366   6.181   0.657
 7340SOL    HW122919   3.450   6.192   0.603
 7340SOL    HW222920   3.343   6.268   0.701
 7341SOL     OW22921   6.697   6.002   5.065
 7341SOL    HW122922   6.728   6.076   5.125
 7341SOL    HW222923   6.649   5.933   5.118
 7342SOL     OW22924   1.400   5.417   1.329
 7342SOL    HW122925   1.416   5.501   1.277
 7342SOL    HW222926   1.306   5.386   1.314
 7343SOL     OW22927   5.319   2.504   3.414
 7343SOL    HW122928   5.328   2.455   3.501
 7343SOL    HW222929   5.339   2.443   3.338
 7344SOL     OW22930   2.670   0.913   0.066
 7344SOL    HW122931   2.741   0.973   0.029
 7344SOL    HW222932   2.676   0.823   0.022
 7345SOL     OW22933   2.873   6.250   0.227
 7345SOL    HW122934   2.883   6.350   0.223
 7345SOL    HW222935   2.926   6.215   0.305
 7346SOL     OW22936   3.860   4.994   1.823
 7346SOL    HW122937   3.767   4.962   1.801
 7346SOL    HW222938   3.909   4.924   1.874
 7347SOL     OW22939   6.718   3.095   2.145
 7347SOL    HW122940   6.689   3.123   2.236
 7347SOL    HW222941   6.799   3.036   2.152
 7348SOL     OW22942   0.494   1.678   4.742
 7348SOL    HW122943   0.459   1.590   4.712
 7348SOL    HW222944   0.426   1.749   4.724
 7349SOL     OW22945   3.441   1.303   0.647
 7349SOL    HW122946   3.369   1.280   0.713
 7349SOL    HW222947   3.528   1.265   0.677
 7350SOL     OW22948   2.231   1.334   2.715
 7350SOL    HW122949   2.265   1.369   2.802
 7350SOL    HW222950   2.131   1.326   2.720
 7351SOL     OW22951   4.571   5.008   0.284
 7351SOL    HW122952   4.560   5.065   0.365
 7351SOL    HW222953   4.496   5.025   0.220
 7352SOL     OW22954   6.128   0.667   3.278
 7352SOL    HW122955   6.068   0.609   3.222
 7352SOL    HW222956   6.209   0.614   3.305
 7353SOL     OW22957   5.148   2.251   4.724
 7353SOL    HW122958   5.150   2.286   4.631
 7353SOL    HW222959   5.169   2.154   4.724
 7354SOL     OW22960   6.879   4.131   5.031
 7354SOL    HW122961   6.908   4.076   4.952
 7354SOL    HW222962   6.861   4.071   5.108
 7355SOL     OW22963   0.842   4.983   1.186
 7355SOL    HW122964   0.783   4.973   1.267
 7355SOL    HW222965   0.822   4.909   1.122
 7356SOL     OW22966   6.969   1.840   6.066
 7356SOL    HW122967   6.973   1.859   6.164
 7356SOL    HW222968   0.025   1.787   6.039
 7357SOL     OW22969   0.824   1.617   0.578
 7357SOL    HW122970   0.727   1.642   0.566
 7357SOL    HW222971   0.830   1.543   0.646
 7358SOL     OW22972   3.556   0.441   3.808
 7358SOL    HW122973   3.499   0.510   3.765
 7358SOL    HW222974   3.506   0.355   3.815
 7359SOL     OW22975   3.284   3.448   3.060
 7359SOL    HW122976   3.205   3.506   3.039
 7359SOL    HW222977   3.272   3.406   3.150
 7360SOL     OW22978   0.487   3.603   5.767
 7360SOL    HW122979   0.411   3.565   5.820
 7360SOL    HW222980   0.533   3.529   5.718
 7361SOL     OW22981   4.903   6.363   1.605
 7361SOL    HW122982   4.833   6.428   1.634
 7361SOL    HW222983   4.932   6.309   1.683
 7362SOL     OW22984   1.836   6.645   6.392
 7362SOL    HW122985   1.875   6.681   6.307
 7362SOL    HW222986   1.881   6.688   6.470
 7363SOL     OW22987   5.277   3.093   6.464
 7363SOL    HW122988   5.296   3.015   6.405
 7363SOL    HW222989   5.306   3.072   6.557
 7364SOL     OW22990   5.303   0.698   1.583
 7364SOL    HW122991   5.303   0.620   1.646
 7364SOL    HW222992   5.260   0.672   1.497
 7365SOL     OW22993   3.528   0.695   1.914
 7365SOL    HW122994   3.614   0.747   1.919
 7365SOL    HW222995   3.506   0.658   2.004
 7366SOL     OW22996   1.474   5.437   6.980
 7366SOL    HW122997   1.512   5.433   6.888
 7366SOL    HW222998   1.535   5.391   0.020
 7367SOL     OW22999   4.531   3.192   0.102
 7367SOL    HW123000   4.492   3.159   0.017
 7367SOL    HW223001   4.616   3.242   0.084
 7368SOL     OW23002   3.159   3.675   3.422
 7368SOL    HW123003   3.107   3.716   3.346
 7368SOL    HW223004   3.125   3.712   3.508
 7369SOL     OW23005   5.132   1.991   6.297
 7369SOL    HW123006   5.062   2.050   6.337
 7369SOL    HW223007   5.223   2.024   6.323
 7370SOL     OW23008   1.725   5.638   1.234
 7370SOL    HW123009   1.776   5.593   1.161
 7370SOL    HW223010   1.714   5.575   1.311
 7371SOL     OW23011   2.552   5.232   3.899
 7371SOL    HW123012   2.552   5.143   3.853
 7371SOL    HW223013   2.461   5.252   3.934
 7372SOL     OW23014   3.057   5.898   5.883
 7372SOL    HW123015   3.050   5.998   5.881
 7372SOL    HW223016   2.968   5.859   5.910
 7373SOL     OW23017   3.840   0.381   2.038
 7373SOL    HW123018   3.904   0.371   2.114
 7373SOL    HW223019   3.884   0.354   1.953
 7374SOL     OW23020   2.295   3.639   6.616
 7374SOL    HW123021   2.226   3.567   6.606
 7374SOL    HW223022   2.344   3.626   6.703
 7375SOL     OW23023   1.686   6.607   3.138
 7375SOL    HW123024   1.746   6.580   3.063
 7375SOL    HW223025   1.741   6.638   3.216
 7376SOL     OW23026   2.733   4.097   5.637
 7376SOL    HW123027   2.691   4.046   5.713
 7376SOL    HW223028   2.753   4.034   5.562
 7377SOL     OW23029   5.111   5.212   1.874
 7377SOL    HW123030   5.039   5.273   1.840
 7377SOL    HW223031   5.170   5.263   1.937
 7378SOL     OW23032   6.736   2.621   6.081
 7378SOL    HW123033   6.705   2.639   5.988
 7378SOL    HW223034   6.796   2.695   6.112
 7379SOL     OW23035   4.378   1.319   0.989
 7379SOL    HW123036   4.469   1.315   0.947
 7379SOL    HW223037   4.386   1.360   1.080
 7380SOL     OW23038   6.296   2.364   5.359
 7380SOL    HW123039   6.201   2.341   5.381
 7380SOL    HW223040   6.326   2.310   5.281
 7381SOL     OW23041   5.391   2.355   6.821
 7381SOL    HW123042   5.340   2.340   6.736
 7381SOL    HW223043   5.351   2.432   6.870
 7382SOL     OW23044   6.893   5.990   3.818
 7382SOL    HW123045   6.807   5.976   3.770
 7382SOL    HW223046   6.880   6.055   3.893
 7383SOL     OW23047   6.790   5.595   3.577
 7383SOL    HW123048   6.863   5.593   3.645
 7383SOL    HW223049   6.819   5.543   3.497
 7384SOL     OW23050   6.322   1.660   1.696
 7384SOL    HW123051   6.368   1.572   1.695
 7384SOL    HW223052   6.247   1.659   1.763
 7385SOL     OW23053   5.234   0.210   1.545
 7385SOL    HW123054   5.234   0.235   1.642
 7385SOL    HW223055   5.314   0.250   1.501
 7386SOL     OW23056   0.242   2.777   6.037
 7386SOL    HW123057   0.255   2.691   5.987
 7386SOL    HW223058   0.316   2.840   6.015
 7387SOL     OW23059   4.658   5.914   4.147
 7387SOL    HW123060   4.663   5.819   4.117
 7387SOL    HW223061   4.749   5.955   4.142
 7388SOL     OW23062   5.876   4.320   4.695
 7388SOL    HW123063   5.892   4.396   4.631
 7388SOL    HW223064   5.830   4.246   4.647
 7389SOL     OW23065   0.757   4.379   4.468
 7389SOL    HW123066   0.836   4.331   4.431
 7389SOL    HW223067   0.700   4.315   4.520
 7390SOL     OW23068   2.640   0.377   5.930
 7390SOL    HW123069   2.703   0.330   5.991
 7390SOL    HW223070   2.635   0.328   5.843
 7391SOL     OW23071   6.923   4.228   0.035
 7391SOL    HW123072   6.892   4.193   0.123
 7391SOL    HW223073   7.021   4.212   0.025
 7392SOL     OW23074   2.368   4.858   2.973
 7392SOL    HW123075   2.291   4.807   2.934
 7392SOL    HW223076   2.447   4.797   2.982
 7393SOL     OW23077   0.589   3.340   0.268
 7393SOL    HW123078   0.566   3.436   0.285
 7393SOL    HW223079   0.670   3.316   0.321
 7394SOL     OW23080   3.113   3.377   6.377
 7394SOL    HW123081   3.145   3.470   6.359
 7394SOL    HW223082   3.028   3.381   6.429
 7395SOL     OW23083   1.512   6.352   0.404
 7395SOL    HW123084   1.501   6.428   0.468
 7395SOL    HW223085   1.586   6.373   0.340
 7396SOL     OW23086   0.713   0.021   1.482
 7396SOL    HW123087   0.651   0.095   1.458
 7396SOL    HW223088   0.680   6.960   1.443
 7397SOL     OW23089   5.907   4.510   4.490
 7397SOL    HW123090   5.828   4.498   4.431
 7397SOL    HW223091   5.892   4.587   4.552
 7398SOL     OW23092   4.010   6.014   3.048
 7398SOL    HW123093   3.951   6.095   3.051
 7398SOL    HW223094   4.084   6.030   2.982
 7399SOL     OW23095   5.202   4.466   4.879
 7399SOL    HW123096   5.296   4.491   4.856
 7399SOL    HW223097   5.197   4.442   4.975
 7400SOL     OW23098   2.007   5.124   6.740
 7400SOL    HW123099   2.107   5.123   6.738
 7400SOL    HW223100   1.971   5.061   6.672
 7401SOL     OW23101   5.539   1.734   4.942
 7401SOL    HW123102   5.539   1.648   4.891
 7401SOL    HW223103   5.613   1.732   5.010
 7402SOL     OW23104   2.353   6.742   3.906
 7402SOL    HW123105   2.401   6.686   3.838
 7402SOL    HW223106   2.371   6.839   3.887
 7403SOL     OW23107   2.000   3.096   1.416
 7403SOL    HW123108   1.919   3.103   1.475
 7403SOL    HW223109   1.978   3.135   1.327
 7404SOL     OW23110   1.229   1.782   2.852
 7404SOL    HW123111   1.167   1.860   2.849
 7404SOL    HW223112   1.304   1.802   2.915
 7405SOL     OW23113   3.428   5.421   6.374
 7405SOL    HW123114   3.507   5.366   6.403
 7405SOL    HW223115   3.456   5.486   6.304
 7406SOL     OW23116   0.738   5.654   2.081
 7406SOL    HW123117   0.709   5.577   2.138
 7406SOL    HW223118   0.832   5.680   2.105
 7407SOL     OW23119   2.248   1.006   5.737
 7407SOL    HW123120   2.252   1.063   5.655
 7407SOL    HW223121   2.275   0.912   5.713
 7408SOL     OW23122   0.879   3.598   5.113
 7408SOL    HW123123   0.935   3.681   5.117
 7408SOL    HW223124   0.824   3.599   5.030
 7409SOL     OW23125   3.056   6.156   5.855
 7409SOL    HW123126   3.024   6.222   5.923
 7409SOL    HW223127   3.142   6.188   5.815
 7410SOL     OW23128   5.577   4.861   0.243
 7410SOL    HW123129   5.585   4.765   0.269
 7410SOL    HW223130   5.647   4.914   0.292
 7411SOL     OW23131   5.121   5.018   5.587
 7411SOL    HW123132   5.077   5.088   5.643
 7411SOL    HW223133   5.053   4.948   5.563
 7412SOL     OW23134   1.745   1.954   6.919
 7412SOL    HW123135   1.700   2.043   6.918
 7412SOL    HW223136   1.732   1.910   7.008
 7413SOL     OW23137   0.168   3.202   4.514
 7413SOL    HW123138   0.229   3.162   4.445
 7413SOL    HW223139   0.143   3.294   4.486
 7414SOL     OW23140   6.931   5.405   2.742
 7414SOL    HW123141   6.919   5.478   2.674
 7414SOL    HW223142   6.936   5.317   2.696
 7415SOL     OW23143   2.899   1.868   2.747
 7415SOL    HW123144   2.829   1.835   2.684
 7415SOL    HW223145   2.944   1.949   2.708
 7416SOL     OW23146   5.579   0.472   3.883
 7416SOL    HW123147   5.669   0.470   3.839
 7416SOL    HW223148   5.587   0.437   3.977
 7417SOL     OW23149   1.008   6.081   0.783
 7417SOL    HW123150   0.934   6.136   0.822
 7417SOL    HW223151   0.973   5.991   0.758
 7418SOL     OW23152   1.140   3.867   0.268
 7418SOL    HW123153   1.101   3.826   0.185
 7418SOL    HW223154   1.234   3.834   0.279
 7419SOL     OW23155   5.570   1.117   5.530
 7419SOL    HW123156   5.630   1.170   5.470
 7419SOL    HW223157   5.508   1.178   5.578
 7420SOL     OW23158   0.123   5.895   2.275
 7420SOL    HW123159   0.030   5.863   2.291
 7420SOL    HW223160   0.187   5.819   2.288
 7421SOL     OW23161   3.781   2.834   1.346
 7421SOL    HW123162   3.763   2.811   1.441
 7421SOL    HW223163   3.879   2.828   1.327
 7422SOL     OW23164   0.822   2.729   1.099
 7422SOL    HW123165   0.739   2.742   1.044
 7422SOL    HW223166   0.798   2.731   1.196
 7423SOL     OW23167   2.380   5.089   0.392
 7423SOL    HW123168   2.367   4.995   0.424
 7423SOL    HW223169   2.299   5.143   0.415
 7424SOL     OW23170   5.930   1.103   4.811
 7424SOL    HW123171   5.990   1.133   4.886
 7424SOL    HW223172   5.874   1.026   4.842
 7425SOL     OW23173   4.288   0.127   5.290
 7425SOL    HW123174   4.372   0.095   5.247
 7425SOL    HW223175   4.308   0.208   5.346
 7426SOL     OW23176   1.384   1.529   0.141
 7426SOL    HW123177   1.339   1.476   0.069
 7426SOL    HW223178   1.470   1.486   0.166
 7427SOL     OW23179   4.253   5.571   4.655
 7427SOL    HW123180   4.260   5.552   4.753
 7427SOL    HW223181   4.327   5.525   4.606
 7428SOL     OW23182   3.125   1.289   5.739
 7428SOL    HW123183   3.116   1.343   5.655
 7428SOL    HW223184   3.125   1.351   5.818
 7429SOL     OW23185   6.576   0.021   3.984
 7429SOL    HW123186   6.577   0.109   4.031
 7429SOL    HW223187   6.663   6.999   3.999
 7430SOL     OW23188   0.617   4.597   4.582
 7430SOL    HW123189   0.547   4.644   4.529
 7430SOL    HW223190   0.642   4.511   4.537
 7431SOL     OW23191   0.889   4.307   2.357
 7431SOL    HW123192   0.837   4.372   2.303
 7431SOL    HW223193   0.831   4.271   2.431
 7432SOL     OW23194   1.286   6.450   4.881
 7432SOL    HW123195   1.258   6.368   4.929
 7432SOL    HW223196   1.341   6.507   4.943
 7433SOL     OW23197   7.010   6.095   1.110
 7433SOL    HW123198   6.932   6.153   1.134
 7433SOL    HW223199   0.036   6.138   1.035
 7434SOL     OW23200   4.872   0.278   6.667
 7434SOL    HW123201   4.783   0.263   6.623
 7434SOL    HW223202   4.858   0.329   6.752
 7435SOL     OW23203   1.405   5.713   0.023
 7435SOL    HW123204   1.398   5.619   7.013
 7435SOL    HW223205   1.353   5.721   0.108
 7436SOL     OW23206   5.037   2.722   6.864
 7436SOL    HW123207   4.951   2.749   6.821
 7436SOL    HW223208   5.044   2.764   6.955
 7437SOL     OW23209   0.161   5.550   5.833
 7437SOL    HW123210   0.241   5.500   5.867
 7437SOL    HW223211   0.147   5.631   5.889
 7438SOL     OW23212   6.082   4.341   1.689
 7438SOL    HW123213   6.119   4.338   1.781
 7438SOL    HW223214   6.120   4.419   1.640
 7439SOL     OW23215   1.080   5.942   3.964
 7439SOL    HW123216   1.093   5.938   3.865
 7439SOL    HW223217   1.164   5.913   4.011
 7440SOL     OW23218   0.559   1.938   3.683
 7440SOL    HW123219   0.541   1.847   3.645
 7440SOL    HW223220   0.657   1.948   3.700
 7441SOL     OW23221   5.800   0.188   4.103
 7441SOL    HW123222   5.864   0.265   4.112
 7441SOL    HW223223   5.837   0.123   4.036
 7442SOL     OW23224   2.124   0.849   6.650
 7442SOL    HW123225   2.164   0.938   6.670
 7442SOL    HW223226   2.107   0.800   6.735
 7443SOL     OW23227   6.886   1.473   0.883
 7443SOL    HW123228   6.888   1.545   0.814
 7443SOL    HW223229   6.979   1.436   0.895
 7444SOL     OW23230   0.480   2.463   5.891
 7444SOL    HW123231   0.513   2.452   5.985
 7444SOL    HW223232   0.532   2.404   5.830
 7445SOL     OW23233   5.620   2.631   1.943
 7445SOL    HW123234   5.698   2.638   1.881
 7445SOL    HW223235   5.543   2.681   1.906
 7446SOL     OW23236   6.799   3.464   0.845
 7446SOL    HW123237   6.814   3.416   0.932
 7446SOL    HW223238   6.705   3.450   0.815
 7447SOL     OW23239   6.841   4.304   6.321
 7447SOL    HW123240   6.774   4.266   6.257
 7447SOL    HW223241   6.815   4.398   6.345
 7448SOL     OW23242   6.899   6.501   6.309
 7448SOL    HW123243   6.999   6.509   6.309
 7448SOL    HW223244   6.860   6.567   6.245
 7449SOL     OW23245   4.508   0.690   1.629
 7449SOL    HW123246   4.535   0.599   1.598
 7449SOL    HW223247   4.411   0.692   1.649
 7450SOL     OW23248   3.126   0.088   2.619
 7450SOL    HW123249   3.176   0.112   2.536
 7450SOL    HW223250   3.184   0.104   2.699
 7451SOL     OW23251   1.485   1.158   2.788
 7451SOL    HW123252   1.474   1.196   2.880
 7451SOL    HW223253   1.427   1.209   2.724
 7452SOL     OW23254   1.593   6.563   4.369
 7452SOL    HW123255   1.569   6.622   4.446
 7452SOL    HW223256   1.629   6.476   4.403
 7453SOL     OW23257   5.786   5.656   5.508
 7453SOL    HW123258   5.851   5.719   5.551
 7453SOL    HW223259   5.728   5.615   5.579
 7454SOL     OW23260   0.437   3.118   0.242
 7454SOL    HW123261   0.484   3.206   0.253
 7454SOL    HW223262   0.344   3.125   0.279
 7455SOL     OW23263   5.498   1.435   0.431
 7455SOL    HW123264   5.507   1.499   0.508
 7455SOL    HW223265   5.536   1.346   0.457
 7456SOL     OW23266   1.709   2.786   5.700
 7456SOL    HW123267   1.636   2.854   5.695
 7456SOL    HW223268   1.730   2.753   5.608
 7457SOL     OW23269   6.486   0.226   6.214
 7457SOL    HW123270   6.469   0.216   6.312
 7457SOL    HW223271   6.552   0.157   6.184
 7458SOL     OW23272   2.341   0.502   0.551
 7458SOL    HW123273   2.247   0.489   0.518
 7458SOL    HW223274   2.357   0.441   0.629
 7459SOL     OW23275   4.418   0.487   4.449
 7459SOL    HW123276   4.436   0.389   4.455
 7459SOL    HW223277   4.371   0.507   4.363
 7460SOL     OW23278   0.822   5.601   6.898
 7460SOL    HW123279   0.807   5.518   6.843
 7460SOL    HW223280   0.888   5.581   6.970
 7461SOL     OW23281   4.818   0.541   3.945
 7461SOL    HW123282   4.853   0.627   3.909
 7461SOL    HW223283   4.719   0.550   3.961
 7462SOL     OW23284   1.520   1.447   2.518
 7462SOL    HW123285   1.582   1.418   2.591
 7462SOL    HW223286   1.455   1.374   2.499
 7463SOL     OW23287   3.700   3.588   2.390
 7463SOL    HW123288   3.683   3.602   2.293
 7463SOL    HW223289   3.667   3.498   2.418
 7464SOL     OW23290   4.929   6.643   6.440
 7464SOL    HW123291   4.874   6.565   6.467
 7464SOL    HW223292   4.931   6.711   6.514
 7465SOL     OW23293   3.290   1.232   2.176
 7465SOL    HW123294   3.199   1.208   2.142
 7465SOL    HW223295   3.294   1.222   2.275
 7466SOL     OW23296   0.381   0.330   6.618
 7466SOL    HW123297   0.405   0.357   6.524
 7466SOL    HW223298   0.378   0.411   6.676
 7467SOL     OW23299   5.744   1.665   1.360
 7467SOL    HW123300   5.797   1.735   1.312
 7467SOL    HW223301   5.703   1.603   1.294
 7468SOL     OW23302   6.218   3.419   4.583
 7468SOL    HW123303   6.133   3.402   4.633
 7468SOL    HW223304   6.253   3.333   4.546
 7469SOL     OW23305   6.746   1.254   1.562
 7469SOL    HW123306   6.780   1.166   1.527
 7469SOL    HW223307   6.683   1.293   1.496
 7470SOL     OW23308   0.238   2.466   2.397
 7470SOL    HW123309   0.176   2.478   2.474
 7470SOL    HW223310   0.196   2.405   2.330
 7471SOL     OW23311   5.868   4.876   6.220
 7471SOL    HW123312   5.808   4.945   6.261
 7471SOL    HW223313   5.864   4.792   6.273
 7472SOL     OW23314   3.606   5.032   3.385
 7472SOL    HW123315   3.594   5.131   3.389
 7472SOL    HW223316   3.702   5.009   3.399
 7473SOL     OW23317   0.750   3.556   4.870
 7473SOL    HW123318   0.680   3.552   4.798
 7473SOL    HW223319   0.838   3.578   4.829
 7474SOL     OW23320   3.947   1.423   2.581
 7474SOL    HW123321   3.888   1.437   2.660
 7474SOL    HW223322   4.041   1.448   2.603
 7475SOL     OW23323   4.359   1.325   0.213
 7475SOL    HW123324   4.284   1.348   0.150
 7475SOL    HW223325   4.420   1.404   0.222
 7476SOL     OW23326   3.247   6.997   5.040
 7476SOL    HW123327   3.299   0.052   5.012
 7476SOL    HW223328   3.197   6.960   4.962
 7477SOL     OW23329   4.876   2.960   3.247
 7477SOL    HW123330   4.936   2.902   3.192
 7477SOL    HW223331   4.850   3.041   3.196
 7478SOL     OW23332   1.786   4.973   1.288
 7478SOL    HW123333   1.687   4.960   1.291
 7478SOL    HW223334   1.827   4.903   1.230
 7479SOL     OW23335   4.527   0.571   6.217
 7479SOL    HW123336   4.569   0.531   6.135
 7479SOL    HW223337   4.570   0.660   6.236
 7480SOL     OW23338   6.976   4.873   1.279
 7480SOL    HW123339   7.005   4.777   1.287
 7480SOL    HW223340   0.026   4.928   1.245
 7481SOL     OW23341   6.449   5.809   0.542
 7481SOL    HW123342   6.358   5.787   0.577
 7481SOL    HW223343   6.487   5.884   0.596
 7482SOL     OW23344   4.961   0.753   3.774
 7482SOL    HW123345   5.018   0.674   3.752
 7482SOL    HW223346   4.891   0.764   3.704
 7483SOL     OW23347   3.227   7.019   5.999
 7483SOL    HW123348   3.130   7.001   5.981
 7483SOL    HW223349   3.261   6.956   6.068
 7484SOL     OW23350   2.897   0.387   2.355
 7484SOL    HW123351   2.921   0.342   2.269
 7484SOL    HW223352   2.980   0.418   2.402
 7485SOL     OW23353   1.331   6.616   5.958
 7485SOL    HW123354   1.354   6.621   5.860
 7485SOL    HW223355   1.250   6.671   5.976
 7486SOL     OW23356   1.645   0.153   4.902
 7486SOL    HW123357   1.652   0.097   4.984
 7486SOL    HW223358   1.580   0.111   4.839
 7487SOL     OW23359   4.141   5.168   3.661
 7487SOL    HW123360   4.208   5.177   3.735
 7487SOL    HW223361   4.165   5.230   3.587
 7488SOL     OW23362   3.554   0.707   5.150
 7488SOL    HW123363   3.597   0.798   5.152
 7488SOL    HW223364   3.604   0.648   5.087
 7489SOL     OW23365   6.256   3.294   2.991
 7489SOL    HW123366   6.326   3.359   2.960
 7489SOL    HW223367   6.174   3.344   3.017
 7490SOL     OW23368   5.509   1.215   2.084
 7490SOL    HW123369   5.563   1.287   2.129
 7490SOL    HW223370   5.509   1.231   1.985
 7491SOL     OW23371   6.687   6.153   6.949
 7491SOL    HW123372   6.627   6.177   6.873
 7491SOL    HW223373   6.776   6.125   6.914
 7492SOL     OW23374   2.415   2.685   4.038
 7492SOL    HW123375   2.404   2.750   3.962
 7492SOL    HW223376   2.485   2.618   4.014
 7493SOL     OW23377   5.338   4.277   6.998
 7493SOL    HW123378   5.248   4.306   6.965
 7493SOL    HW223379   5.407   4.340   6.964
 7494SOL     OW23380   4.928   1.894   0.980
 7494SOL    HW123381   4.926   1.953   0.899
 7494SOL    HW223382   4.846   1.910   1.034
 7495SOL     OW23383   0.324   1.518   2.415
 7495SOL    HW123384   0.245   1.519   2.353
 7495SOL    HW223385   0.297   1.552   2.505
 7496SOL     OW23386   1.250   4.581   5.456
 7496SOL    HW123387   1.319   4.512   5.477
 7496SOL    HW223388   1.183   4.542   5.391
 7497SOL     OW23389   2.022   5.029   1.994
 7497SOL    HW123390   2.037   4.960   1.924
 7497SOL    HW223391   2.030   5.120   1.954
 7498SOL     OW23392   4.817   1.118   4.384
 7498SOL    HW123393   4.796   1.041   4.324
 7498SOL    HW223394   4.895   1.169   4.347
 7499SOL     OW23395   4.436   6.042   3.747
 7499SOL    HW123396   4.412   6.029   3.843
 7499SOL    HW223397   4.517   5.989   3.725
 7500SOL     OW23398   5.187   4.665   1.660
 7500SOL    HW123399   5.092   4.636   1.666
 7500SOL    HW223400   5.202   4.746   1.716
 7501SOL     OW23401   0.061   4.741   4.013
 7501SOL    HW123402   0.045   4.669   3.946
 7501SOL    HW223403   0.147   4.724   4.062
 7502SOL     OW23404   2.505   1.778   4.534
 7502SOL    HW123405   2.441   1.729   4.474
 7502SOL    HW223406   2.534   1.717   4.608
 7503SOL     OW23407   2.534   2.673   6.619
 7503SOL    HW123408   2.575   2.656   6.530
 7503SOL    HW223409   2.586   2.623   6.689
 7504SOL     OW23410   4.423   5.704   3.947
 7504SOL    HW123411   4.505   5.682   4.000
 7504SOL    HW223412   4.409   5.803   3.949
 7505SOL     OW23413   1.461   2.268   4.495
 7505SOL    HW123414   1.466   2.294   4.591
 7505SOL    HW223415   1.518   2.329   4.440
 7506SOL     OW23416   4.225   1.924   3.276
 7506SOL    HW123417   4.290   1.995   3.249
 7506SOL    HW223418   4.225   1.851   3.208
 7507SOL     OW23419   1.578   6.479   6.028
 7507SOL    HW123420   1.590   6.491   6.126
 7507SOL    HW223421   1.537   6.561   5.989
 7508SOL     OW23422   4.917   6.530   4.028
 7508SOL    HW123423   4.939   6.601   3.961
 7508SOL    HW223424   4.983   6.532   4.103
 7509SOL     OW23425   4.369   3.343   5.894
 7509SOL    HW123426   4.383   3.370   5.799
 7509SOL    HW223427   4.309   3.263   5.898
 7510SOL     OW23428   3.352   4.209   4.612
 7510SOL    HW123429   3.382   4.302   4.631
 7510SOL    HW223430   3.386   4.148   4.683
 7511SOL     OW23431   1.061   0.849   2.580
 7511SOL    HW123432   1.077   0.751   2.575
 7511SOL    HW223433   1.147   0.896   2.601
 7512SOL     OW23434   2.295   2.867   1.813
 7512SOL    HW123435   2.222   2.925   1.850
 7512SOL    HW223436   2.372   2.925   1.786
 7513SOL     OW23437   0.704   3.378   6.500
 7513SOL    HW123438   0.761   3.452   6.535
 7513SOL    HW223439   0.698   3.305   6.569
 7514SOL     OW23440   2.477   6.044   3.020
 7514SOL    HW123441   2.566   6.009   2.989
 7514SOL    HW223442   2.455   6.004   3.110
 7515SOL     OW23443   6.197   5.241   3.010
 7515SOL    HW123444   6.296   5.233   3.027
 7515SOL    HW223445   6.181   5.305   2.934
 7516SOL     OW23446   1.239   1.038   3.057
 7516SOL    HW123447   1.329   0.994   3.059
 7516SOL    HW223448   1.251   1.137   3.060
 7517SOL     OW23449   0.751   4.455   1.259
 7517SOL    HW123450   0.828   4.437   1.198
 7517SOL    HW223451   0.786   4.475   1.351
 7518SOL     OW23452   5.150   5.916   3.214
 7518SOL    HW123453   5.179   5.901   3.120
 7518SOL    HW223454   5.077   5.851   3.237
 7519SOL     OW23455   2.019   5.775   3.705
 7519SOL    HW123456   2.021   5.840   3.781
 7519SOL    HW223457   2.024   5.824   3.618
 7520SOL     OW23458   2.222   0.030   4.308
 7520SOL    HW123459   2.298   0.029   4.373
 7520SOL    HW223460   2.157   6.983   4.332
 7521SOL     OW23461   5.367   3.884   6.115
 7521SOL    HW123462   5.383   3.978   6.085
 7521SOL    HW223463   5.364   3.881   6.215
 7522SOL     OW23464   1.885   0.773   2.053
 7522SOL    HW123465   1.941   0.691   2.066
 7522SOL    HW223466   1.846   0.801   2.141
 7523SOL     OW23467   5.890   6.820   6.959
 7523SOL    HW123468   5.810   6.809   6.901
 7523SOL    HW223469   5.943   6.900   6.929
 7524SOL     OW23470   6.102   1.536   4.238
 7524SOL    HW123471   6.199   1.535   4.260
 7524SOL    HW223472   6.085   1.599   4.163
 7525SOL     OW23473   1.785   6.477   1.079
 7525SOL    HW123474   1.734   6.555   1.115
 7525SOL    HW223475   1.724   6.398   1.072
 7526SOL     OW23476   3.370   3.149   5.332
 7526SOL    HW123477   3.360   3.086   5.254
 7526SOL    HW223478   3.389   3.096   5.415
 7527SOL     OW23479   5.605   4.875   2.210
 7527SOL    HW123480   5.538   4.808   2.243
 7527SOL    HW223481   5.606   4.875   2.110
 7528SOL     OW23482   6.290   3.517   5.821
 7528SOL    HW123483   6.324   3.554   5.908
 7528SOL    HW223484   6.335   3.430   5.802
 7529SOL     OW23485   3.097   7.024   5.341
 7529SOL    HW123486   3.132   0.078   5.393
 7529SOL    HW223487   3.155   7.010   5.261
 7530SOL     OW23488   6.902   3.235   2.347
 7530SOL    HW123489   6.809   3.230   2.309
 7530SOL    HW223490   6.900   3.285   2.434
 7531SOL     OW23491   3.356   1.695   3.734
 7531SOL    HW123492   3.260   1.669   3.745
 7531SOL    HW223493   3.397   1.707   3.824
 7532SOL     OW23494   4.924   4.507   2.202
 7532SOL    HW123495   4.895   4.467   2.115
 7532SOL    HW223496   4.881   4.597   2.213
 7533SOL     OW23497   3.459   7.017   4.339
 7533SOL    HW123498   3.460   6.925   4.299
 7533SOL    HW223499   3.535   0.001   4.403
 7534SOL     OW23500   5.530   0.013   4.741
 7534SOL    HW123501   5.501   0.022   4.836
 7534SOL    HW223502   5.553   6.942   4.722
 7535SOL     OW23503   3.378   4.470   6.617
 7535SOL    HW123504   3.347   4.377   6.596
 7535SOL    HW223505   3.404   4.516   6.533
 7536SOL     OW23506   4.133   6.085   4.008
 7536SOL    HW123507   4.225   6.053   4.031
 7536SOL    HW223508   4.091   6.022   3.943
 7537SOL     OW23509   1.995   4.766   5.835
 7537SOL    HW123510   2.065   4.696   5.847
 7537SOL    HW223511   2.037   4.849   5.798
 7538SOL     OW23512   3.079   3.145   2.910
 7538SOL    HW123513   3.119   3.076   2.970
 7538SOL    HW223514   3.033   3.215   2.966
 7539SOL     OW23515   1.919   2.427   4.185
 7539SOL    HW123516   1.884   2.475   4.105
 7539SOL    HW223517   2.018   2.415   4.177
 7540SOL     OW23518   1.902   1.532   0.417
 7540SOL    HW123519   1.916   1.628   0.395
 7540SOL    HW223520   1.835   1.524   0.490
 7541SOL     OW23521   0.023   2.790   5.478
 7541SOL    HW123522   0.041   2.860   5.547
 7541SOL    HW223523   6.950   2.769   5.476
 7542SOL     OW23524   1.947   0.065   6.798
 7542SOL    HW123525   1.899   7.011   6.760
 7542SOL    HW223526   2.032   0.080   6.747
 7543SOL     OW23527   4.042   2.771   0.072
 7543SOL    HW123528   4.075   2.849   0.019
 7543SOL    HW223529   3.944   2.758   0.053
 7544SOL     OW23530   2.077   1.944   3.012
 7544SOL    HW123531   2.170   1.915   2.987
 7544SOL    HW223532   2.029   1.977   2.932
 7545SOL     OW23533   5.644   0.010   3.799
 7545SOL    HW123534   5.667   6.963   3.865
 7545SOL    HW223535   5.728   0.042   3.754
 7546SOL     OW23536   5.229   0.355   6.736
 7546SOL    HW123537   5.217   0.305   6.821
 7546SOL    HW223538   5.219   0.453   6.753
 7547SOL     OW23539   3.185   0.025   0.076
 7547SOL    HW123540   3.109   0.070   0.029
 7547SOL    HW223541   3.150   6.997   0.153
 7548SOL     OW23542   1.286   3.314   1.387
 7548SOL    HW123543   1.273   3.227   1.434
 7548SOL    HW223544   1.229   3.384   1.430
 7549SOL     OW23545   6.058   2.333   2.129
 7549SOL    HW123546   6.006   2.375   2.055
 7549SOL    HW223547   6.040   2.381   2.214
 7550SOL     OW23548   1.601   5.311   1.007
 7550SOL    HW123549   1.654   5.291   0.926
 7550SOL    HW223550   1.659   5.302   1.088
 7551SOL     OW23551   4.470   3.937   6.266
 7551SOL    HW123552   4.483   3.842   6.240
 7551SOL    HW223553   4.451   3.992   6.185
 7552SOL     OW23554   3.274   4.931   3.928
 7552SOL    HW123555   3.196   4.934   3.865
 7552SOL    HW223556   3.244   4.956   4.020
 7553SOL     OW23557   4.537   4.399   6.125
 7553SOL    HW123558   4.567   4.384   6.219
 7553SOL    HW223559   4.466   4.469   6.123
 7554SOL     OW23560   6.624   0.965   1.222
 7554SOL    HW123561   6.562   0.967   1.144
 7554SOL    HW223562   6.713   0.930   1.194
 7555SOL     OW23563   0.663   5.572   5.380
 7555SOL    HW123564   0.680   5.670   5.369
 7555SOL    HW223565   0.704   5.523   5.303
 7556SOL     OW23566   6.889   2.803   4.199
 7556SOL    HW123567   6.967   2.855   4.231
 7556SOL    HW223568   6.807   2.861   4.198
 7557SOL     OW23569   4.418   3.570   6.977
 7557SOL    HW123570   4.497   3.548   6.919
 7557SOL    HW223571   4.341   3.512   6.950
 7558SOL     OW23572   1.817   3.355   3.941
 7558SOL    HW123573   1.909   3.395   3.934
 7558SOL    HW223574   1.805   3.288   3.867
 7559SOL     OW23575   0.822   4.906   0.550
 7559SOL    HW123576   0.855   4.840   0.483
 7559SOL    HW223577   0.846   4.876   0.642
 7560SOL     OW23578   4.697   6.574   6.274
 7560SOL    HW123579   4.695   6.606   6.179
 7560SOL    HW223580   4.741   6.643   6.331
 7561SOL     OW23581   0.843   3.429   0.710
 7561SOL    HW123582   0.756   3.436   0.663
 7561SOL    HW223583   0.830   3.388   0.801
 7562SOL     OW23584   5.136   5.439   5.654
 7562SOL    HW123585   5.198   5.431   5.576
 7562SOL    HW223586   5.074   5.515   5.640
 7563SOL     OW23587   2.402   1.333   2.202
 7563SOL    HW123588   2.392   1.247   2.153
 7563SOL    HW223589   2.389   1.317   2.300
 7564SOL     OW23590   5.217   6.384   4.269
 7564SOL    HW123591   5.203   6.307   4.331
 7564SOL    HW223592   5.268   6.352   4.188
 7565SOL     OW23593   5.017   4.391   0.789
 7565SOL    HW123594   4.941   4.413   0.729
 7565SOL    HW223595   4.985   4.337   0.867
 7566SOL     OW23596   1.771   5.691   5.089
 7566SOL    HW123597   1.696   5.629   5.115
 7566SOL    HW223598   1.748   5.737   5.003
 7567SOL     OW23599   2.449   3.321   6.920
 7567SOL    HW123600   2.363   3.271   6.907
 7567SOL    HW223601   2.526   3.259   6.907
 7568SOL     OW23602   4.556   4.400   3.052
 7568SOL    HW123603   4.483   4.426   3.115
 7568SOL    HW223604   4.635   4.461   3.065
 7569SOL     OW23605   3.826   0.566   1.134
 7569SOL    HW123606   3.891   0.536   1.204
 7569SOL    HW223607   3.871   0.628   1.071
 7570SOL     OW23608   6.098   4.821   4.849
 7570SOL    HW123609   6.156   4.866   4.781
 7570SOL    HW223610   6.101   4.722   4.835
 7571SOL     OW23611   5.091   4.129   1.835
 7571SOL    HW123612   5.032   4.098   1.910
 7571SOL    HW223613   5.055   4.214   1.798
 7572SOL     OW23614   1.539   2.022   4.125
 7572SOL    HW123615   1.496   1.935   4.100
 7572SOL    HW223616   1.484   2.097   4.088
 7573SOL     OW23617   2.648   5.820   5.272
 7573SOL    HW123618   2.695   5.851   5.189
 7573SOL    HW223619   2.573   5.883   5.293
 7574SOL     OW23620   4.880   5.894   2.846
 7574SOL    HW123621   4.977   5.902   2.868
 7574SOL    HW223622   4.828   5.879   2.930
 7575SOL     OW23623   4.457   2.601   4.978
 7575SOL    HW123624   4.491   2.507   4.986
 7575SOL    HW223625   4.357   2.599   4.971
 7576SOL     OW23626   6.240   3.591   1.216
 7576SOL    HW123627   6.289   3.631   1.294
 7576SOL    HW223628   6.192   3.508   1.246
 7577SOL     OW23629   4.508   0.485   4.991
 7577SOL    HW123630   4.431   0.501   4.928
 7577SOL    HW223631   4.475   0.434   5.070
 7578SOL     OW23632   2.642   4.797   4.518
 7578SOL    HW123633   2.670   4.750   4.602
 7578SOL    HW223634   2.721   4.804   4.456
 7579SOL     OW23635   4.492   2.056   3.487
 7579SOL    HW123636   4.451   1.982   3.434
 7579SOL    HW223637   4.543   2.117   3.427
 7580SOL     OW23638   2.138   3.756   2.987
 7580SOL    HW123639   2.178   3.776   3.077
 7580SOL    HW223640   2.158   3.661   2.963
 7581SOL     OW23641   5.940   0.743   1.167
 7581SOL    HW123642   5.865   0.706   1.113
 7581SOL    HW223643   6.025   0.738   1.115
 7582SOL     OW23644   2.852   1.545   1.229
 7582SOL    HW123645   2.756   1.548   1.260
 7582SOL    HW223646   2.879   1.450   1.214
 7583SOL     OW23647   0.139   3.244   2.175
 7583SOL    HW123648   0.049   3.235   2.217
 7583SOL    HW223649   0.209   3.222   2.243
 7584SOL     OW23650   2.110   1.459   1.106
 7584SOL    HW123651   2.023   1.421   1.077
 7584SOL    HW223652   2.183   1.394   1.084
 7585SOL     OW23653   1.552   5.157   5.935
 7585SOL    HW123654   1.586   5.088   5.998
 7585SOL    HW223655   1.622   5.227   5.920
 7586SOL     OW23656   2.478   1.373   1.645
 7586SOL    HW123657   2.400   1.425   1.681
 7586SOL    HW223658   2.479   1.282   1.686
 7587SOL     OW23659   2.232   0.896   5.979
 7587SOL    HW123660   2.200   0.965   6.043
 7587SOL    HW223661   2.224   0.931   5.886
 7588SOL     OW23662   0.281   4.397   1.407
 7588SOL    HW123663   0.186   4.428   1.397
 7588SOL    HW223664   0.292   4.308   1.363
 7589SOL     OW23665   5.531   6.245   6.961
 7589SOL    HW123666   5.526   6.218   0.032
 7589SOL    HW223667   5.445   6.289   6.934
 7590SOL     OW23668   2.472   0.521   6.382
 7590SOL    HW123669   2.507   0.456   6.449
 7590SOL    HW223670   2.392   0.568   6.419
 7591SOL     OW23671   6.687   5.254   0.206
 7591SOL    HW123672   6.682   5.175   0.266
 7591SOL    HW223673   6.749   5.323   0.246
 7592SOL     OW23674   5.383   6.051   0.398
 7592SOL    HW123675   5.407   5.954   0.399
 7592SOL    HW223676   5.443   6.101   0.461
 7593SOL     OW23677   6.153   2.896   6.800
 7593SOL    HW123678   6.169   2.836   6.722
 7593SOL    HW223679   6.224   2.967   6.804
 7594SOL     OW23680   1.378   6.173   3.797
 7594SOL    HW123681   1.470   6.207   3.777
 7594SOL    HW223682   1.356   6.097   3.736
 7595SOL     OW23683   6.561   2.438   0.543
 7595SOL    HW123684   6.488   2.420   0.477
 7595SOL    HW223685   6.530   2.507   0.609
 7596SOL     OW23686   4.878   4.577   1.641
 7596SOL    HW123687   4.813   4.615   1.707
 7596SOL    HW223688   4.851   4.605   1.549
 7597SOL     OW23689   3.284   5.703   1.891
 7597SOL    HW123690   3.317   5.714   1.798
 7597SOL    HW223691   3.193   5.743   1.899
 7598SOL     OW23692   6.573   0.226   3.376
 7598SOL    HW123693   6.581   0.243   3.474
 7598SOL    HW223694   6.497   0.280   3.339
 7599SOL     OW23695   6.310   1.970   2.154
 7599SOL    HW123696   6.226   1.985   2.102
 7599SOL    HW223697   6.330   1.872   2.157
 7600SOL     OW23698   2.371   1.997   1.565
 7600SOL    HW123699   2.313   2.065   1.520
 7600SOL    HW223700   2.465   2.006   1.531
 7601SOL     OW23701   2.027   6.728   4.776
 7601SOL    HW123702   1.936   6.768   4.771
 7601SOL    HW223703   2.072   6.737   4.687
 7602SOL     OW23704   2.170   3.229   4.924
 7602SOL    HW123705   2.259   3.189   4.945
 7602SOL    HW223706   2.116   3.166   4.869
 7603SOL     OW23707   0.924   0.640   2.124
 7603SOL    HW123708   0.888   0.644   2.217
 7603SOL    HW223709   0.851   0.663   2.059
 7604SOL     OW23710   4.853   6.162   6.607
 7604SOL    HW123711   4.858   6.174   6.508
 7604SOL    HW223712   4.815   6.071   6.627
 7605SOL     OW23713   5.878   4.302   5.812
 7605SOL    HW123714   5.832   4.339   5.731
 7605SOL    HW223715   5.953   4.242   5.784
 7606SOL     OW23716   6.010   1.975   3.140
 7606SOL    HW123717   5.996   2.035   3.218
 7606SOL    HW223718   6.055   2.025   3.066
 7607SOL     OW23719   5.340   6.786   6.742
 7607SOL    HW123720   5.334   6.712   6.809
 7607SOL    HW223721   5.364   6.748   6.653
 7608SOL     OW23722   3.932   3.100   3.610
 7608SOL    HW123723   3.876   3.021   3.583
 7608SOL    HW223724   3.928   3.170   3.539
 7609SOL     OW23725   1.740   2.943   4.223
 7609SOL    HW123726   1.756   3.042   4.221
 7609SOL    HW223727   1.717   2.915   4.317
 7610SOL     OW23728   5.165   0.515   1.392
 7610SOL    HW123729   5.162   0.500   1.293
 7610SOL    HW223730   5.247   0.473   1.429
 7611SOL     OW23731   1.589   1.799   1.459
 7611SOL    HW123732   1.579   1.705   1.428
 7611SOL    HW223733   1.512   1.824   1.517
 7612SOL     OW23734   4.303   1.489   2.519
 7612SOL    HW123735   4.353   1.407   2.491
 7612SOL    HW223736   4.256   1.528   2.440
 7613SOL     OW23737   4.809   1.187   2.185
 7613SOL    HW123738   4.818   1.096   2.225
 7613SOL    HW223739   4.899   1.229   2.177
 7614SOL     OW23740   4.250   1.627   0.363
 7614SOL    HW123741   4.263   1.725   0.348
 7614SOL    HW223742   4.330   1.577   0.332
 7615SOL     OW23743   3.655   5.450   5.863
 7615SOL    HW123744   3.564   5.486   5.842
 7615SOL    HW223745   3.653   5.350   5.861
 7616SOL     OW23746   6.332   4.917   3.542
 7616SOL    HW123747   6.333   4.831   3.491
 7616SOL    HW223748   6.423   4.959   3.537
 7617SOL     OW23749   3.090   5.987   2.539
 7617SOL    HW123750   3.026   5.933   2.593
 7617SOL    HW223751   3.120   5.934   2.459
 7618SOL     OW23752   1.970   2.701   0.804
 7618SOL    HW123753   1.928   2.618   0.840
 7618SOL    HW223754   2.064   2.681   0.774
 7619SOL     OW23755   5.739   3.331   5.628
 7619SOL    HW123756   5.820   3.300   5.678
 7619SOL    HW223757   5.656   3.305   5.678
 7620SOL     OW23758   3.173   6.643   1.547
 7620SOL    HW123759   3.244   6.707   1.517
 7620SOL    HW223760   3.095   6.648   1.485
 7621SOL     OW23761   2.840   1.746   1.707
 7621SOL    HW123762   2.800   1.818   1.764
 7621SOL    HW223763   2.767   1.689   1.668
 7622SOL     OW23764   4.502   2.053   0.633
 7622SOL    HW123765   4.408   2.029   0.656
 7622SOL    HW223766   4.505   2.091   0.540
 7623SOL     OW23767   5.181   0.611   5.553
 7623SOL    HW123768   5.234   0.661   5.484
 7623SOL    HW223769   5.123   0.675   5.603
 7624SOL     OW23770   6.839   0.169   4.326
 7624SOL    HW123771   6.915   0.182   4.261
 7624SOL    HW223772   6.753   0.196   4.282
 7625SOL     OW23773   4.169   6.768   1.321
 7625SOL    HW123774   4.159   6.735   1.227
 7625SOL    HW223775   4.107   6.845   1.336
 7626SOL     OW23776   1.740   4.854   4.839
 7626SOL    HW123777   1.761   4.947   4.867
 7626SOL    HW223778   1.817   4.794   4.862
 7627SOL     OW23779   0.203   2.631   0.471
 7627SOL    HW123780   0.220   2.548   0.418
 7627SOL    HW223781   0.246   2.623   0.561
 7628SOL     OW23782   3.749   2.099   0.867
 7628SOL    HW123783   3.818   2.028   0.853
 7628SOL    HW223784   3.705   2.086   0.956
 7629SOL     OW23785   6.422   5.572   3.778
 7629SOL    HW123786   6.367   5.535   3.852
 7629SOL    HW223787   6.402   5.670   3.767
 7630SOL     OW23788   6.432   0.927   2.177
 7630SOL    HW123789   6.449   0.829   2.174
 7630SOL    HW223790   6.347   0.945   2.225
 7631SOL     OW23791   0.768   2.265   3.650
 7631SOL    HW123792   0.715   2.243   3.568
 7631SOL    HW223793   0.774   2.365   3.661
 7632SOL     OW23794   4.090   1.675   6.234
 7632SOL    HW123795   4.090   1.590   6.286
 7632SOL    HW223796   3.996   1.703   6.214
 7633SOL     OW23797   5.845   4.383   6.623
 7633SOL    HW123798   5.830   4.474   6.660
 7633SOL    HW223799   5.789   4.317   6.673
 7634SOL     OW23800   0.931   1.956   1.924
 7634SOL    HW123801   0.939   1.884   1.992
 7634SOL    HW223802   0.933   1.917   1.832
 7635SOL     OW23803   2.973   4.831   6.304
 7635SOL    HW123804   2.990   4.769   6.228
 7635SOL    HW223805   3.043   4.903   6.306
 7636SOL     OW23806   1.337   0.374   4.312
 7636SOL    HW123807   1.245   0.348   4.341
 7636SOL    HW223808   1.332   0.432   4.231
 7637SOL     OW23809   1.788   5.846   4.482
 7637SOL    HW123810   1.817   5.750   4.485
 7637SOL    HW223811   1.691   5.851   4.459
 7638SOL     OW23812   4.726   4.647   1.905
 7638SOL    HW123813   4.808   4.590   1.902
 7638SOL    HW223814   4.747   4.733   1.950
 7639SOL     OW23815   0.719   1.829   4.255
 7639SOL    HW123816   0.782   1.894   4.297
 7639SOL    HW223817   0.710   1.748   4.314
 7640SOL     OW23818   2.177   2.774   6.499
 7640SOL    HW123819   2.234   2.834   6.555
 7640SOL    HW223820   2.214   2.681   6.502
 7641SOL     OW23821   6.451   3.102   3.104
 7641SOL    HW123822   6.449   3.054   3.191
 7641SOL    HW223823   6.362   3.143   3.086
 7642SOL     OW23824   2.830   1.996   2.352
 7642SOL    HW123825   2.846   2.084   2.308
 7642SOL    HW223826   2.768   2.008   2.429
 7643SOL     OW23827   4.903   3.216   3.049
 7643SOL    HW123828   4.903   3.302   2.997
 7643SOL    HW223829   4.945   3.231   3.138
 7644SOL     OW23830   6.571   3.695   3.346
 7644SOL    HW123831   6.593   3.774   3.404
 7644SOL    HW223832   6.592   3.610   3.395
 7645SOL     OW23833   4.701   3.447   6.781
 7645SOL    HW123834   4.727   3.490   6.695
 7645SOL    HW223835   4.782   3.413   6.829
 7646SOL     OW23836   0.878   1.856   1.678
 7646SOL    HW123837   0.789   1.883   1.642
 7646SOL    HW223838   0.903   1.766   1.641
 7647SOL     OW23839   2.004   4.146   1.211
 7647SOL    HW123840   2.049   4.226   1.172
 7647SOL    HW223841   1.906   4.150   1.191
 7648SOL     OW23842   4.011   0.671   3.279
 7648SOL    HW123843   4.038   0.602   3.212
 7648SOL    HW223844   3.928   0.717   3.248
 7649SOL     OW23845   2.640   1.192   1.320
 7649SOL    HW123846   2.543   1.217   1.325
 7649SOL    HW223847   2.681   1.202   1.411
 7650SOL     OW23848   5.300   4.755   2.905
 7650SOL    HW123849   5.354   4.725   2.984
 7650SOL    HW223850   5.277   4.676   2.848
 7651SOL     OW23851   4.065   1.401   6.456
 7651SOL    HW123852   4.003   1.346   6.399
 7651SOL    HW223853   4.011   1.455   6.520
 7652SOL     OW23854   0.642   3.213   2.776
 7652SOL    HW123855   0.592   3.292   2.740
 7652SOL    HW223856   0.579   3.136   2.785
 7653SOL     OW23857   3.618   2.419   1.390
 7653SOL    HW123858   3.569   2.502   1.416
 7653SOL    HW223859   3.669   2.385   1.469
 7654SOL     OW23860   4.882   3.551   3.683
 7654SOL    HW123861   4.906   3.638   3.725
 7654SOL    HW223862   4.814   3.504   3.739
 7655SOL     OW23863   4.489   6.248   5.323
 7655SOL    HW123864   4.442   6.269   5.237
 7655SOL    HW223865   4.528   6.332   5.361
 7656SOL     OW23866   0.826   5.776   4.816
 7656SOL    HW123867   0.871   5.755   4.729
 7656SOL    HW223868   0.727   5.766   4.804
 7657SOL     OW23869   4.459   1.407   4.601
 7657SOL    HW123870   4.455   1.411   4.701
 7657SOL    HW223871   4.503   1.322   4.572
 7658SOL     OW23872   4.231   0.359   6.322
 7658SOL    HW123873   4.140   0.371   6.363
 7658SOL    HW223874   4.300   0.390   6.387
 7659SOL     OW23875   5.458   7.015   0.332
 7659SOL    HW123876   5.442   6.946   0.402
 7659SOL    HW223877   5.517   6.978   0.261
 7660SOL     OW23878   6.390   4.490   3.848
 7660SOL    HW123879   6.319   4.560   3.843
 7660SOL    HW223880   6.388   4.434   3.765
 7661SOL     OW23881   5.926   3.486   3.264
 7661SOL    HW123882   5.941   3.394   3.301
 7661SOL    HW223883   5.838   3.488   3.216
 7662SOL     OW23884   0.025   5.614   1.942
 7662SOL    HW123885   0.002   5.666   1.860
 7662SOL    HW223886   7.000   5.654   2.020
 7663SOL     OW23887   6.954   5.100   6.972
 7663SOL    HW123888   6.939   5.195   7.001
 7663SOL    HW223889   6.921   5.039   0.019
 7664SOL     OW23890   2.214   5.272   4.651
 7664SOL    HW123891   2.119   5.238   4.653
 7664SOL    HW223892   2.277   5.197   4.668
 7665SOL     OW23893   2.341   6.131   4.943
 7665SOL    HW123894   2.440   6.143   4.941
 7665SOL    HW223895   2.303   6.185   5.019
 7666SOL     OW23896   1.420   1.142   1.531
 7666SOL    HW123897   1.397   1.195   1.449
 7666SOL    HW223898   1.509   1.172   1.566
 7667SOL     OW23899   4.986   5.398   6.188
 7667SOL    HW123900   5.066   5.439   6.230
 7667SOL    HW223901   4.904   5.426   6.238
 7668SOL     OW23902   2.970   3.937   1.505
 7668SOL    HW123903   3.063   3.963   1.480
 7668SOL    HW223904   2.931   3.881   1.432
 7669SOL     OW23905   4.664   6.618   4.645
 7669SOL    HW123906   4.625   6.529   4.668
 7669SOL    HW223907   4.739   6.638   4.708
 7670SOL     OW23908   2.031   4.750   0.891
 7670SOL    HW123909   2.101   4.790   0.951
 7670SOL    HW223910   2.001   4.818   0.824
 7671SOL     OW23911   5.409   2.465   4.602
 7671SOL    HW123912   5.365   2.497   4.685
 7671SOL    HW223913   5.352   2.395   4.558
 7672SOL     OW23914   5.297   0.554   2.228
 7672SOL    HW123915   5.216   0.555   2.286
 7672SOL    HW223916   5.352   0.636   2.245
 7673SOL     OW23917   0.318   4.820   0.943
 7673SOL    HW123918   0.263   4.799   0.862
 7673SOL    HW223919   0.274   4.782   1.024
 7674SOL     OW23920   6.720   0.610   5.157
 7674SOL    HW123921   6.792   0.647   5.216
 7674SOL    HW223922   6.636   0.599   5.210
 7675SOL     OW23923   4.566   6.993   3.615
 7675SOL    HW123924   4.538   0.026   3.691
 7675SOL    HW223925   4.507   6.913   3.610
 7676SOL     OW23926   1.816   6.933   0.890
 7676SOL    HW123927   1.803   6.957   0.794
 7676SOL    HW223928   1.878   6.998   0.933
 7677SOL     OW23929   1.713   3.017   2.846
 7677SOL    HW123930   1.635   3.054   2.795
 7677SOL    HW223931   1.740   2.929   2.807
 7678SOL     OW23932   5.506   0.098   6.645
 7678SOL    HW123933   5.439   0.049   6.700
 7678SOL    HW223934   5.494   0.196   6.658
 7679SOL     OW23935   0.844   5.076   5.247
 7679SOL    HW123936   0.749   5.061   5.221
 7679SOL    HW223937   0.900   5.083   5.164
 7680SOL     OW23938   4.280   2.175   6.375
 7680SOL    HW123939   4.193   2.150   6.417
 7680SOL    HW223940   4.288   2.133   6.285
 7681SOL     OW23941   2.903   1.679   0.124
 7681SOL    HW123942   2.941   1.772   0.119
 7681SOL    HW223943   2.960   1.623   0.183
 7682SOL     OW23944   3.452   6.990   0.873
 7682SOL    HW123945   3.545   7.010   0.902
 7682SOL    HW223946   3.402   6.946   0.949
 7683SOL     OW23947   5.924   1.846   3.414
 7683SOL    HW123948   5.892   1.868   3.322
 7683SOL    HW223949   5.961   1.754   3.416
 7684SOL     OW23950   3.972   1.646   5.699
 7684SOL    HW123951   4.054   1.698   5.723
 7684SOL    HW223952   3.903   1.707   5.661
 7685SOL     OW23953   3.698   3.757   0.565
 7685SOL    HW123954   3.640   3.835   0.586
 7685SOL    HW223955   3.788   3.770   0.607
 7686SOL     OW23956   3.283   0.321   4.060
 7686SOL    HW123957   3.293   0.239   4.117
 7686SOL    HW223958   3.300   0.297   3.964
 7687SOL     OW23959   4.381   5.010   5.442
 7687SOL    HW123960   4.450   5.056   5.498
 7687SOL    HW223961   4.319   5.077   5.402
 7688SOL     OW23962   6.956   6.982   4.446
 7688SOL    HW123963   6.933   0.042   4.399
 7688SOL    HW223964   0.029   6.980   4.465
 7689SOL     OW23965   4.117   6.470   4.411
 7689SOL    HW123966   4.161   6.473   4.501
 7689SOL    HW223967   4.033   6.416   4.418
 7690SOL     OW23968   6.741   6.170   3.359
 7690SOL    HW123969   6.778   6.206   3.444
 7690SOL    HW223970   6.768   6.074   3.349
 7691SOL     OW23971   5.327   4.156   5.009
 7691SOL    HW123972   5.412   4.208   5.020
 7691SOL    HW223973   5.336   4.068   5.056
 7692SOL     OW23974   1.995   6.530   1.551
 7692SOL    HW123975   2.010   6.626   1.528
 7692SOL    HW223976   2.012   6.473   1.471
 7693SOL     OW23977   5.646   0.772   6.727
 7693SOL    HW123978   5.653   0.761   6.628
 7693SOL    HW223979   5.738   0.783   6.766
 7694SOL     OW23980   6.529   5.072   4.429
 7694SOL    HW123981   6.502   5.043   4.337
 7694SOL    HW223982   6.488   5.011   4.497
 7695SOL     OW23983   4.252   0.269   6.717
 7695SOL    HW123984   4.223   0.361   6.744
 7695SOL    HW223985   4.197   0.202   6.765
 7696SOL     OW23986   0.432   3.194   5.818
 7696SOL    HW123987   0.408   3.283   5.856
 7696SOL    HW223988   0.407   3.190   5.722
 7697SOL     OW23989   4.273   1.833   1.516
 7697SOL    HW123990   4.231   1.766   1.578
 7697SOL    HW223991   4.305   1.912   1.569
 7698SOL     OW23992   0.104   3.693   5.635
 7698SOL    HW123993   0.093   3.660   5.728
 7698SOL    HW223994   0.112   3.793   5.635
 7699SOL     OW23995   2.284   4.686   6.998
 7699SOL    HW123996   2.351   4.618   6.967
 7699SOL    HW223997   2.195   4.643   7.011
 7700SOL     OW23998   5.370   6.800   5.203
 7700SOL    HW123999   5.274   6.816   5.226
 7700SOL    HW224000   5.389   6.702   5.207
 7701SOL     OW24001   6.259   1.703   5.170
 7701SOL    HW124002   6.247   1.754   5.255
 7701SOL    HW224003   6.171   1.667   5.139
 7702SOL     OW24004   2.556   6.093   6.146
 7702SOL    HW124005   2.590   6.182   6.175
 7702SOL    HW224006   2.492   6.058   6.215
 7703SOL     OW24007   0.282   2.200   6.698
 7703SOL    HW124008   0.320   2.147   6.774
 7703SOL    HW224009   0.350   2.207   6.625
 7704SOL     OW24010   4.808   4.798   7.004
 7704SOL    HW124011   4.750   4.825   6.928
 7704SOL    HW224012   4.775   4.712   0.018
 7705SOL     OW24013   3.413   5.309   5.358
 7705SOL    HW124014   3.398   5.352   5.269
 7705SOL    HW224015   3.489   5.244   5.351
 7706SOL     OW24016   6.836   0.746   5.339
 7706SOL    HW124017   6.757   0.756   5.400
 7706SOL    HW224018   6.892   0.829   5.344
 7707SOL     OW24019   0.148   4.834   6.051
 7707SOL    HW124020   0.185   4.800   5.964
 7707SOL    HW224021   0.196   4.790   6.127
 7708SOL     OW24022   4.616   6.707   5.075
 7708SOL    HW124023   4.531   6.668   5.040
 7708SOL    HW224024   4.664   6.753   5.001
 7709SOL     OW24025   3.966   2.255   1.847
 7709SOL    HW124026   3.892   2.270   1.912
 7709SOL    HW224027   3.933   2.198   1.772
 7710SOL     OW24028   2.839   2.138   7.014
 7710SOL    HW124029   2.873   2.128   0.083
 7710SOL    HW224030   2.799   2.052   6.984
 7711SOL     OW24031   5.803   6.234   6.302
 7711SOL    HW124032   5.797   6.311   6.365
 7711SOL    HW224033   5.858   6.161   6.343
 7712SOL     OW24034   5.145   5.462   0.931
 7712SOL    HW124035   5.113   5.556   0.922
 7712SOL    HW224036   5.190   5.434   0.846
 7713SOL     OW24037   1.157   4.833   6.759
 7713SOL    HW124038   1.140   4.798   6.851
 7713SOL    HW224039   1.228   4.778   6.714
 7714SOL     OW24040   5.424   4.369   3.808
 7714SOL    HW124041   5.457   4.451   3.856
 7714SOL    HW224042   5.326   4.376   3.794
 7715SOL     OW24043   4.652   1.935   1.004
 7715SOL    HW124044   4.671   1.970   0.913
 7715SOL    HW224045   4.567   1.882   1.003
 7716SOL     OW24046   4.479   2.367   3.035
 7716SOL    HW124047   4.516   2.456   3.060
 7716SOL    HW224048   4.379   2.370   3.038
 7717SOL     OW24049   3.857   0.826   6.307
 7717SOL    HW124050   3.831   0.774   6.389
 7717SOL    HW224051   3.853   0.923   6.328
 7718SOL     OW24052   2.938   5.691   3.839
 7718SOL    HW124053   3.021   5.745   3.828
 7718SOL    HW224054   2.901   5.706   3.931
 7719SOL     OW24055   6.517   1.739   5.070
 7719SOL    HW124056   6.422   1.743   5.099
 7719SOL    HW224057   6.540   1.645   5.043
 7720SOL     OW24058   5.938   5.701   1.540
 7720SOL    HW124059   5.925   5.713   1.441
 7720SOL    HW224060   5.857   5.732   1.588
 7721SOL     OW24061   1.447   4.659   2.608
 7721SOL    HW124062   1.514   4.708   2.663
 7721SOL    HW224063   1.430   4.709   2.523
 7722SOL     OW24064   0.243   5.214   3.922
 7722SOL    HW124065   0.280   5.239   3.832
 7722SOL    HW224066   0.163   5.272   3.942
 7723SOL     OW24067   6.263   3.121   0.018
 7723SOL    HW124068   6.313   3.202   0.049
 7723SOL    HW224069   6.262   3.053   0.091
 7724SOL     OW24070   1.836   4.752   1.092
 7724SOL    HW124071   1.899   4.747   1.014
 7724SOL    HW224072   1.746   4.720   1.065
 7725SOL     OW24073   5.065   3.381   4.703
 7725SOL    HW124074   5.093   3.466   4.746
 7725SOL    HW224075   5.145   3.326   4.681
 7726SOL     OW24076   6.725   4.143   3.564
 7726SOL    HW124077   6.800   4.083   3.594
 7726SOL    HW224078   6.713   4.216   3.631
 7727SOL     OW24079   6.595   2.852   1.721
 7727SOL    HW124080   6.618   2.898   1.806
 7727SOL    HW224081   6.629   2.758   1.723
 7728SOL     OW24082   2.770   2.361   2.710
 7728SOL    HW124083   2.796   2.313   2.794
 7728SOL    HW224084   2.709   2.437   2.732
 7729SOL     OW24085   5.530   2.165   0.364
 7729SOL    HW124086   5.543   2.093   0.432
 7729SOL    HW224087   5.433   2.192   0.362
 7730SOL     OW24088   4.949   0.756   2.256
 7730SOL    HW124089   4.908   0.736   2.167
 7730SOL    HW224090   5.004   0.839   2.251
 7731SOL     OW24091   6.237   1.038   6.006
 7731SOL    HW124092   6.231   0.942   6.035
 7731SOL    HW224093   6.184   1.051   5.923
 7732SOL     OW24094   4.390   4.919   0.622
 7732SOL    HW124095   4.401   4.828   0.661
 7732SOL    HW224096   4.480   4.954   0.595
 7733SOL     OW24097   3.141   0.009   2.125
 7733SOL    HW124098   3.127   6.936   2.108
 7733SOL    HW224099   3.071   0.042   2.189
 7734SOL     OW24100   1.394   1.710   3.177
 7734SOL    HW124101   1.435   1.669   3.258
 7734SOL    HW224102   1.295   1.717   3.190
 7735SOL     OW24103   5.084   4.120   0.671
 7735SOL    HW124104   5.135   4.057   0.612
 7735SOL    HW224105   5.130   4.209   0.670
 7736SOL     OW24106   6.131   4.566   6.344
 7736SOL    HW124107   6.191   4.522   6.411
 7736SOL    HW224108   6.090   4.648   6.385
 7737SOL     OW24109   5.125   1.137   0.328
 7737SOL    HW124110   5.174   1.168   0.246
 7737SOL    HW224111   5.027   1.134   0.309
 7738SOL     OW24112   2.320   5.111   6.703
 7738SOL    HW124113   2.386   5.088   6.631
 7738SOL    HW224114   2.367   5.157   6.778
 7739SOL     OW24115   6.213   3.488   1.692
 7739SOL    HW124116   6.157   3.420   1.644
 7739SOL    HW224117   6.303   3.448   1.714
 7740SOL     OW24118   0.617   6.715   3.580
 7740SOL    HW124119   0.626   6.787   3.512
 7740SOL    HW224120   0.559   6.747   3.655
 7741SOL     OW24121   3.097   5.221   4.657
 7741SOL    HW124122   3.137   5.137   4.694
 7741SOL    HW224123   3.001   5.204   4.632
 7742SOL     OW24124   6.037   0.970   3.686
 7742SOL    HW124125   6.118   0.911   3.685
 7742SOL    HW224126   5.957   0.915   3.707
 7743SOL     OW24127   4.677   2.656   2.931
 7743SOL    HW124128   4.705   2.746   2.898
 7743SOL    HW224129   4.672   2.656   3.031
 7744SOL     OW24130   0.075   0.097   5.295
 7744SOL    HW124131   0.020   0.097   5.212
 7744SOL    HW224132   0.063   0.184   5.343
 7745SOL     OW24133   5.191   3.216   5.389
 7745SOL    HW124134   5.134   3.251   5.464
 7745SOL    HW224135   5.282   3.255   5.395
 7746SOL     OW24136   1.641   0.726   0.279
 7746SOL    HW124137   1.614   0.804   0.335
 7746SOL    HW224138   1.570   0.708   0.210
 7747SOL     OW24139   5.627   5.405   1.150
 7747SOL    HW124140   5.567   5.380   1.074
 7747SOL    HW224141   5.720   5.419   1.115
 7748SOL     OW24142   3.346   3.400   6.863
 7748SOL    HW124143   3.372   3.496   6.853
 7748SOL    HW224144   3.371   3.368   6.954
 7749SOL     OW24145   5.743   2.942   6.387
 7749SOL    HW124146   5.653   2.903   6.404
 7749SOL    HW224147   5.811   2.898   6.445
 7750SOL     OW24148   5.788   5.185   2.580
 7750SOL    HW124149   5.747   5.179   2.489
 7750SOL    HW224150   5.727   5.141   2.646
 7751SOL     OW24151   0.223   2.640   1.979
 7751SOL    HW124152   0.315   2.612   1.950
 7751SOL    HW224153   0.155   2.577   1.941
 7752SOL     OW24154   4.781   2.064   3.437
 7752SOL    HW124155   4.741   2.128   3.371
 7752SOL    HW224156   4.864   2.024   3.398
 7753SOL     OW24157   3.169   1.944   4.583
 7753SOL    HW124158   3.099   1.959   4.652
 7753SOL    HW224159   3.192   2.031   4.539
 7754SOL     OW24160   5.588   6.218   2.399
 7754SOL    HW124161   5.606   6.226   2.301
 7754SOL    HW224162   5.492   6.192   2.413
 7755SOL     OW24163   0.527   5.086   4.282
 7755SOL    HW124164   0.563   5.037   4.202
 7755SOL    HW224165   0.547   5.034   4.364
 7756SOL     OW24166   2.868   5.022   1.805
 7756SOL    HW124167   2.948   4.985   1.853
 7756SOL    HW224168   2.786   4.973   1.833
 7757SOL     OW24169   0.122   4.898   2.367
 7757SOL    HW124170   0.148   4.864   2.276
 7757SOL    HW224171   0.189   4.965   2.398
 7758SOL     OW24172   1.631   1.502   5.163
 7758SOL    HW124173   1.563   1.573   5.184
 7758SOL    HW224174   1.593   1.440   5.094
 7759SOL     OW24175   3.161   2.276   1.254
 7759SOL    HW124176   3.207   2.242   1.172
 7759SOL    HW224177   3.207   2.358   1.288
 7760SOL     OW24178   4.983   3.262   0.273
 7760SOL    HW124179   5.048   3.228   0.340
 7760SOL    HW224180   5.030   3.320   0.206
 7761SOL     OW24181   4.789   5.484   3.943
 7761SOL    HW124182   4.795   5.538   3.859
 7761SOL    HW224183   4.763   5.390   3.922
 7762SOL     OW24184   5.629   1.623   1.929
 7762SOL    HW124185   5.539   1.635   1.971
 7762SOL    HW224186   5.637   1.684   1.850
 7763SOL     OW24187   2.353   0.233   4.074
 7763SOL    HW124188   2.395   0.258   4.161
 7763SOL    HW224189   2.255   0.219   4.087
 7764SOL     OW24190   2.284   4.094   6.024
 7764SOL    HW124191   2.325   4.139   5.945
 7764SOL    HW224192   2.202   4.044   5.995
 7765SOL     OW24193   5.340   3.335   4.718
 7765SOL    HW124194   5.289   3.320   4.803
 7765SOL    HW224195   5.352   3.434   4.704
 7766SOL     OW24196   6.516   3.602   6.543
 7766SOL    HW124197   6.482   3.644   6.627
 7766SOL    HW224198   6.444   3.605   6.473
 7767SOL     OW24199   3.579   0.622   4.026
 7767SOL    HW124200   3.590   0.542   3.967
 7767SOL    HW224201   3.495   0.614   4.079
 7768SOL     OW24202   3.968   5.498   3.747
 7768SOL    HW124203   3.946   5.438   3.823
 7768SOL    HW224204   4.039   5.456   3.690
 7769SOL     OW24205   3.618   2.798   5.706
 7769SOL    HW124206   3.566   2.716   5.728
 7769SOL    HW224207   3.569   2.851   5.637
 7770SOL     OW24208   1.835   3.184   4.548
 7770SOL    HW124209   1.753   3.161   4.600
 7770SOL    HW224210   1.916   3.156   4.600
 7771SOL     OW24211   2.476   3.585   6.422
 7771SOL    HW124212   2.566   3.580   6.465
 7771SOL    HW224213   2.408   3.608   6.492
 7772SOL     OW24214   5.108   6.715   2.100
 7772SOL    HW124215   5.026   6.714   2.158
 7772SOL    HW224216   5.093   6.656   2.020
 7773SOL     OW24217   2.920   6.528   0.227
 7773SOL    HW124218   2.892   6.605   0.168
 7773SOL    HW224219   2.998   6.556   0.282
 7774SOL     OW24220   5.172   1.257   2.478
 7774SOL    HW124221   5.151   1.322   2.551
 7774SOL    HW224222   5.099   1.257   2.410
 7775SOL     OW24223   2.511   2.158   1.109
 7775SOL    HW124224   2.599   2.187   1.070
 7775SOL    HW224225   2.442   2.156   1.037
 7776SOL     OW24226   2.092   1.507   4.567
 7776SOL    HW124227   2.062   1.602   4.578
 7776SOL    HW224228   2.017   1.452   4.529
 7777SOL     OW24229   5.955   6.091   3.673
 7777SOL    HW124230   5.935   6.069   3.578
 7777SOL    HW224231   5.900   6.032   3.733
 7778SOL     OW24232   6.683   4.818   2.542
 7778SOL    HW124233   6.739   4.876   2.483
 7778SOL    HW224234   6.740   4.746   2.582
 7779SOL     OW24235   4.152   5.975   2.235
 7779SOL    HW124236   4.147   5.979   2.135
 7779SOL    HW224237   4.075   5.922   2.270
 7780SOL     OW24238   6.088   6.480   4.746
 7780SOL    HW124239   6.042   6.564   4.775
 7780SOL    HW224240   6.092   6.477   4.647
 7781SOL     OW24241   1.355   3.019   0.904
 7781SOL    HW124242   1.406   2.982   0.982
 7781SOL    HW224243   1.289   2.951   0.873
 7782SOL     OW24244   5.099   3.003   4.843
 7782SOL    HW124245   5.150   3.067   4.901
 7782SOL    HW224246   5.035   2.951   4.898
 7783SOL     OW24247   1.847   6.197   4.516
 7783SOL    HW124248   1.788   6.129   4.473
 7783SOL    HW224249   1.878   6.164   4.605
 7784SOL     OW24250   1.631   2.060   1.370
 7784SOL    HW124251   1.626   1.961   1.381
 7784SOL    HW224252   1.588   2.104   1.449
 7785SOL     OW24253   6.803   6.582   3.182
 7785SOL    HW124254   6.825   6.606   3.087
 7785SOL    HW224255   6.722   6.632   3.211
 7786SOL     OW24256   4.399   0.907   5.761
 7786SOL    HW124257   4.437   0.996   5.738
 7786SOL    HW224258   4.472   0.846   5.791
 7787SOL     OW24259   2.631   2.327   1.900
 7787SOL    HW124260   2.620   2.388   1.821
 7787SOL    HW224261   2.722   2.337   1.938
 7788SOL     OW24262   0.256   4.441   1.707
 7788SOL    HW124263   0.339   4.460   1.760
 7788SOL    HW224264   0.278   4.440   1.609
 7789SOL     OW24265   3.581   1.284   6.003
 7789SOL    HW124266   3.675   1.304   6.032
 7789SOL    HW224267   3.583   1.227   5.921
 7790SOL     OW24268   4.390   4.996   1.873
 7790SOL    HW124269   4.464   5.007   1.939
 7790SOL    HW224270   4.330   5.076   1.877
 7791SOL     OW24271   2.857   5.828   2.693
 7791SOL    HW124272   2.869   5.884   2.775
 7791SOL    HW224273   2.811   5.881   2.622
 7792SOL     OW24274   1.134   1.523   2.944
 7792SOL    HW124275   1.075   1.469   2.884
 7792SOL    HW224276   1.152   1.612   2.902
 7793SOL     OW24277   5.076   0.796   0.235
 7793SOL    HW124278   5.126   0.713   0.258
 7793SOL    HW224279   5.041   0.839   0.319
 7794SOL     OW24280   0.823   6.768   3.314
 7794SOL    HW124281   0.745   6.807   3.363
 7794SOL    HW224282   0.796   6.746   3.220
 7795SOL     OW24283   3.337   4.631   0.469
 7795SOL    HW124284   3.317   4.719   0.426
 7795SOL    HW224285   3.360   4.564   0.399
 7796SOL     OW24286   3.229   2.544   0.269
 7796SOL    HW124287   3.162   2.479   0.232
 7796SOL    HW224288   3.228   2.628   0.214
 7797SOL     OW24289   0.598   5.702   3.344
 7797SOL    HW124290   0.654   5.731   3.422
 7797SOL    HW224291   0.597   5.774   3.275
 7798SOL     OW24292   1.696   3.132   0.688
 7798SOL    HW124293   1.621   3.188   0.651
 7798SOL    HW224294   1.693   3.041   0.647
 7799SOL     OW24295   3.128   5.874   3.813
 7799SOL    HW124296   3.099   5.961   3.851
 7799SOL    HW224297   3.147   5.885   3.715
 7800SOL     OW24298   0.692   7.001   2.548
 7800SOL    HW124299   0.638   0.053   2.514
 7800SOL    HW224300   0.781   0.010   2.579
 7801SOL     OW24301   0.957   2.171   1.601
 7801SOL    HW124302   0.858   2.160   1.605
 7801SOL    HW224303   0.986   2.186   1.506
 7802SOL     OW24304   0.085   3.416   4.370
 7802SOL    HW124305   0.040   3.414   4.281
 7802SOL    HW224306   0.053   3.495   4.422
 7803SOL     OW24307   2.713   2.355   5.601
 7803SOL    HW124308   2.667   2.268   5.584
 7803SOL    HW224309   2.767   2.349   5.685
 7804SOL     OW24310   3.561   1.667   5.147
 7804SOL    HW124311   3.618   1.585   5.152
 7804SOL    HW224312   3.519   1.672   5.057
 7805SOL     OW24313   5.345   2.893   7.002
 7805SOL    HW124314   5.255   2.885   0.020
 7805SOL    HW224315   5.410   2.933   0.042
 7806SOL     OW24316   6.923   1.502   6.144
 7806SOL    HW124317   7.002   1.503   6.205
 7806SOL    HW224318   6.853   1.565   6.179
 7807SOL     OW24319   2.491   5.437   6.015
 7807SOL    HW124320   2.549   5.362   5.983
 7807SOL    HW224321   2.500   5.445   6.115
 7808SOL     OW24322   6.803   3.722   3.651
 7808SOL    HW124323   6.796   3.676   3.740
 7808SOL    HW224324   6.832   3.657   3.581
 7809SOL     OW24325   5.028   5.687   2.410
 7809SOL    HW124326   4.957   5.728   2.468
 7809SOL    HW224327   5.007   5.590   2.397
 7810SOL     OW24328   2.520   6.617   6.135
 7810SOL    HW124329   2.552   6.679   6.063
 7810SOL    HW224330   2.528   6.663   6.224
 7811SOL     OW24331   1.479   5.724   2.887
 7811SOL    HW124332   1.560   5.666   2.875
 7811SOL    HW224333   1.445   5.752   2.797
 7812SOL     OW24334   3.381   0.532   5.843
 7812SOL    HW124335   3.319   0.495   5.911
 7812SOL    HW224336   3.347   0.621   5.812
 7813SOL     OW24337   5.368   0.268   0.685
 7813SOL    HW124338   5.349   0.208   0.608
 7813SOL    HW224339   5.295   0.336   0.693
 7814SOL     OW24340   6.250   2.865   2.494
 7814SOL    HW124341   6.218   2.803   2.423
 7814SOL    HW224342   6.282   2.950   2.452
 7815SOL     OW24343   5.035   5.401   4.723
 7815SOL    HW124344   5.117   5.346   4.740
 7815SOL    HW224345   4.975   5.353   4.660
 7816SOL     OW24346   0.706   1.095   5.366
 7816SOL    HW124347   0.771   1.083   5.441
 7816SOL    HW224348   0.750   1.069   5.280
 7817SOL     OW24349   4.053   2.798   0.337
 7817SOL    HW124350   4.021   2.796   0.242
 7817SOL    HW224351   4.057   2.705   0.373
 7818SOL     OW24352   5.834   0.759   3.415
 7818SOL    HW124353   5.912   0.697   3.414
 7818SOL    HW224354   5.866   0.853   3.411
 7819SOL     OW24355   1.444   3.194   4.889
 7819SOL    HW124356   1.517   3.222   4.827
 7819SOL    HW224357   1.473   3.115   4.942
 7820SOL     OW24358   1.138   0.965   5.348
 7820SOL    HW124359   1.233   0.935   5.359
 7820SOL    HW224360   1.081   0.885   5.327
 7821SOL     OW24361   3.781   6.089   6.571
 7821SOL    HW124362   3.795   6.168   6.631
 7821SOL    HW224363   3.829   6.010   6.609
 7822SOL     OW24364   0.007   1.072   4.896
 7822SOL    HW124365   0.019   1.005   4.823
 7822SOL    HW224366   0.049   1.159   4.869
 7823SOL     OW24367   2.719   3.532   5.343
 7823SOL    HW124368   2.688   3.439   5.365
 7823SOL    HW224369   2.645   3.582   5.297
 7824SOL     OW24370   5.159   3.828   2.771
 7824SOL    HW124371   5.139   3.911   2.823
 7824SOL    HW224372   5.240   3.783   2.810
 7825SOL     OW24373   3.598   3.191   2.757
 7825SOL    HW124374   3.499   3.186   2.744
 7825SOL    HW224375   3.639   3.101   2.739
 7826SOL     OW24376   0.176   0.647   1.133
 7826SOL    HW124377   0.194   0.700   1.217
 7826SOL    HW224378   0.111   0.574   1.154
 7827SOL     OW24379   4.526   3.424   0.833
 7827SOL    HW124380   4.521   3.391   0.928
 7827SOL    HW224381   4.453   3.381   0.780
 7828SOL     OW24382   0.249   5.987   0.788
 7828SOL    HW124383   0.174   5.961   0.848
 7828SOL    HW224384   0.284   5.907   0.739
 7829SOL     OW24385   4.026   3.387   3.008
 7829SOL    HW124386   4.081   3.304   3.016
 7829SOL    HW224387   4.087   3.467   3.010
 7830SOL     OW24388   5.550   3.693   0.294
 7830SOL    HW124389   5.622   3.657   0.234
 7830SOL    HW224390   5.519   3.782   0.261
 7831SOL     OW24391   1.833   2.773   6.694
 7831SOL    HW124392   1.792   2.686   6.667
 7831SOL    HW224393   1.901   2.757   6.765
 7832SOL     OW24394   2.806   2.459   5.324
 7832SOL    HW124395   2.712   2.458   5.289
 7832SOL    HW224396   2.806   2.429   5.419
 7833SOL     OW24397   0.751   0.241   1.060
 7833SOL    HW124398   0.668   0.268   1.011
 7833SOL    HW224399   0.757   0.292   1.146
 7834SOL     OW24400   6.466   0.527   1.625
 7834SOL    HW124401   6.474   0.560   1.719
 7834SOL    HW224402   6.380   0.560   1.585
 7835SOL     OW24403   2.582   2.197   4.315
 7835SOL    HW124404   2.604   2.147   4.399
 7835SOL    HW224405   2.570   2.132   4.240
 7836SOL     OW24406   2.443   0.655   6.874
 7836SOL    HW124407   2.391   0.623   6.953
 7836SOL    HW224408   2.437   0.586   6.801
 7837SOL     OW24409   4.722   6.167   2.771
 7837SOL    HW124410   4.627   6.146   2.746
 7837SOL    HW224411   4.775   6.083   2.773
 7838SOL     OW24412   3.456   6.469   4.184
 7838SOL    HW124413   3.478   6.549   4.239
 7838SOL    HW224414   3.511   6.470   4.100
 7839SOL     OW24415   0.050   4.669   3.640
 7839SOL    HW124416   0.055   4.606   3.562
 7839SOL    HW224417   0.143   4.687   3.674
 7840SOL     OW24418   4.952   3.237   5.910
 7840SOL    HW124419   5.024   3.305   5.899
 7840SOL    HW224420   4.862   3.281   5.901
 7841SOL     OW24421   1.657   1.843   6.201
 7841SOL    HW124422   1.577   1.832   6.260
 7841SOL    HW224423   1.717   1.913   6.239
 7842SOL     OW24424   2.913   0.710   1.978
 7842SOL    HW124425   2.844   0.758   1.924
 7842SOL    HW224426   2.973   0.777   2.021
 7843SOL     OW24427   6.886   3.268   1.045
 7843SOL    HW124428   6.893   3.291   1.142
 7843SOL    HW224429   6.949   3.193   1.024
 7844SOL     OW24430   3.588   1.360   4.225
 7844SOL    HW124431   3.644   1.433   4.264
 7844SOL    HW224432   3.633   1.323   4.144
 7845SOL     OW24433   1.203   1.364   3.850
 7845SOL    HW124434   1.232   1.457   3.872
 7845SOL    HW224435   1.218   1.346   3.753
 7846SOL     OW24436   3.745   6.499   1.931
 7846SOL    HW124437   3.649   6.489   1.957
 7846SOL    HW224438   3.803   6.451   1.998
 7847SOL     OW24439   0.031   0.510   0.441
 7847SOL    HW124440   0.101   0.574   0.473
 7847SOL    HW224441   0.071   0.419   0.429
 7848SOL     OW24442   4.134   4.100   0.918
 7848SOL    HW124443   4.151   4.105   0.820
 7848SOL    HW224444   4.220   4.106   0.967
 7849SOL     OW24445   5.665   3.960   4.987
 7849SOL    HW124446   5.648   3.903   5.068
 7849SOL    HW224447   5.764   3.963   4.970
 7850SOL     OW24448   0.716   1.655   4.459
 7850SOL    HW124449   0.642   1.591   4.478
 7850SOL    HW224450   0.760   1.682   4.544
 7851SOL     OW24451   4.578   6.643   0.673
 7851SOL    HW124452   4.533   6.572   0.729
 7851SOL    HW224453   4.561   6.733   0.714
 7852SOL     OW24454   1.681   6.847   6.886
 7852SOL    HW124455   1.702   6.910   6.960
 7852SOL    HW224456   1.610   6.783   6.914
 7853SOL     OW24457   1.864   2.877   0.582
 7853SOL    HW124458   1.860   2.779   0.561
 7853SOL    HW224459   1.886   2.889   0.679
 7854SOL     OW24460   3.466   4.093   2.689
 7854SOL    HW124461   3.391   4.152   2.658
 7854SOL    HW224462   3.454   4.001   2.652
 7855SOL     OW24463   3.822   0.073   5.258
 7855SOL    HW124464   3.844   0.169   5.273
 7855SOL    HW224465   3.841   0.021   5.341
 7856SOL     OW24466   4.017   3.671   6.255
 7856SOL    HW124467   4.018   3.579   6.296
 7856SOL    HW224468   3.998   3.739   6.326
 7857SOL     OW24469   0.693   2.186   4.580
 7857SOL    HW124470   0.756   2.242   4.634
 7857SOL    HW224471   0.619   2.154   4.639
 7858SOL     OW24472   5.760   4.202   3.003
 7858SOL    HW124473   5.729   4.128   3.063
 7858SOL    HW224474   5.856   4.188   2.981
 7859SOL     OW24475   0.940   5.411   0.023
 7859SOL    HW124476   0.892   5.335   7.005
 7859SOL    HW224477   1.037   5.386   0.034
 7860SOL     OW24478   3.654   6.981   1.746
 7860SOL    HW124479   3.744   6.964   1.786
 7860SOL    HW224480   3.628   0.052   1.763
 7861SOL     OW24481   5.428   3.996   0.656
 7861SOL    HW124482   5.432   4.085   0.702
 7861SOL    HW224483   5.521   3.965   0.635
 7862SOL     OW24484   3.036   4.278   1.684
 7862SOL    HW124485   2.977   4.343   1.733
 7862SOL    HW224486   2.979   4.220   1.626
 7863SOL     OW24487   5.898   5.665   2.560
 7863SOL    HW124488   5.900   5.708   2.650
 7863SOL    HW224489   5.923   5.732   2.490
 7864SOL     OW24490   0.588   5.767   4.156
 7864SOL    HW124491   0.502   5.737   4.198
 7864SOL    HW224492   0.665   5.738   4.213
 7865SOL     OW24493   3.614   1.025   2.925
 7865SOL    HW124494   3.709   0.998   2.907
 7865SOL    HW224495   3.605   1.054   3.020
 7866SOL     OW24496   2.557   2.064   4.067
 7866SOL    HW124497   2.493   2.137   4.044
 7866SOL    HW224498   2.647   2.087   4.031
 7867SOL     OW24499   5.404   3.847   2.346
 7867SOL    HW124500   5.449   3.915   2.287
 7867SOL    HW224501   5.401   3.759   2.299
 7868SOL     OW24502   5.454   0.181   0.952
 7868SOL    HW124503   5.410   0.206   0.865
 7868SOL    HW224504   5.549   0.155   0.935
 7869SOL     OW24505   6.671   1.950   3.852
 7869SOL    HW124506   6.735   1.909   3.918
 7869SOL    HW224507   6.653   1.885   3.778
 7870SOL     OW24508   0.152   6.873   3.152
 7870SOL    HW124509   0.184   6.813   3.225
 7870SOL    HW224510   0.056   6.897   3.168
 7871SOL     OW24511   5.283   3.245   4.198
 7871SOL    HW124512   5.281   3.327   4.140
 7871SOL    HW224513   5.362   3.249   4.259
 7872SOL     OW24514   6.750   3.269   4.198
 7872SOL    HW124515   6.694   3.188   4.183
 7872SOL    HW224516   6.721   3.343   4.137
 7873SOL     OW24517   6.840   5.444   4.923
 7873SOL    HW124518   6.754   5.460   4.873
 7873SOL    HW224519   6.835   5.355   4.969
 7874SOL     OW24520   6.066   1.448   0.643
 7874SOL    HW124521   6.121   1.419   0.722
 7874SOL    HW224522   6.087   1.543   0.621
 7875SOL     OW24523   4.545   3.181   0.377
 7875SOL    HW124524   4.550   3.184   0.277
 7875SOL    HW224525   4.526   3.087   0.407
 7876SOL     OW24526   6.902   0.785   5.035
 7876SOL    HW124527   6.867   0.869   5.077
 7876SOL    HW224528   6.843   0.709   5.062
 7877SOL     OW24529   6.297   2.613   2.638
 7877SOL    HW124530   6.209   2.575   2.663
 7877SOL    HW224531   6.287   2.670   2.556
 7878SOL     OW24532   4.504   4.277   1.192
 7878SOL    HW124533   4.551   4.361   1.166
 7878SOL    HW224534   4.515   4.261   1.291
 7879SOL     OW24535   5.565   0.619   5.066
 7879SOL    HW124536   5.480   0.575   5.036
 7879SOL    HW224537   5.557   0.718   5.055
 7880SOL     OW24538   1.044   6.619   6.410
 7880SOL    HW124539   1.077   6.550   6.346
 7880SOL    HW224540   1.026   6.576   6.499
 7881SOL     OW24541   0.919   5.168   3.411
 7881SOL    HW124542   0.860   5.092   3.385
 7881SOL    HW224543   0.913   5.182   3.510
 7882SOL     OW24544   0.715   4.252   1.784
 7882SOL    HW124545   0.754   4.264   1.693
 7882SOL    HW224546   0.785   4.218   1.847
 7883SOL     OW24547   3.704   2.115   3.218
 7883SOL    HW124548   3.773   2.053   3.257
 7883SOL    HW224549   3.750   2.189   3.170
 7884SOL     OW24550   0.885   3.716   4.498
 7884SOL    HW124551   0.965   3.773   4.481
 7884SOL    HW224552   0.863   3.665   4.415
 7885SOL     OW24553   5.786   5.074   3.052
 7885SOL    HW124554   5.830   5.142   2.993
 7885SOL    HW224555   5.687   5.082   3.042
 7886SOL     OW24556   4.988   3.335   2.782
 7886SOL    HW124557   4.986   3.412   2.846
 7886SOL    HW224558   5.064   3.274   2.806
 7887SOL     OW24559   2.107   2.460   1.601
 7887SOL    HW124560   2.082   2.543   1.551
 7887SOL    HW224561   2.121   2.483   1.697
 7888SOL     OW24562   6.158   0.911   5.027
 7888SOL    HW124563   6.117   0.851   4.958
 7888SOL    HW224564   6.113   1.000   5.026
 7889SOL     OW24565   5.480   5.048   6.775
 7889SOL    HW124566   5.483   5.085   6.868
 7889SOL    HW224567   5.535   4.965   6.770
 7890SOL     OW24568   2.009   3.068   4.162
 7890SOL    HW124569   1.911   3.081   4.150
 7890SOL    HW224570   2.037   2.982   4.119
 7891SOL     OW24571   6.278   1.747   4.435
 7891SOL    HW124572   6.182   1.745   4.465
 7891SOL    HW224573   6.337   1.768   4.513
 7892SOL     OW24574   0.756   1.602   5.146
 7892SOL    HW124575   0.735   1.683   5.091
 7892SOL    HW224576   0.854   1.581   5.138
 7893SOL     OW24577   5.389   0.398   0.223
 7893SOL    HW124578   5.307   0.391   0.165
 7893SOL    HW224579   5.430   0.488   0.211
 7894SOL     OW24580   3.400   1.478   6.541
 7894SOL    HW124581   3.494   1.445   6.541
 7894SOL    HW224582   3.339   1.408   6.504
 7895SOL     OW24583   6.017   6.887   3.019
 7895SOL    HW124584   6.079   6.810   3.004
 7895SOL    HW224585   6.006   6.902   3.117
 7896SOL     OW24586   2.512   2.467   0.348
 7896SOL    HW124587   2.517   2.554   0.299
 7896SOL    HW224588   2.441   2.410   0.307
 7897SOL     OW24589   3.098   2.622   0.738
 7897SOL    HW124590   3.060   2.657   0.823
 7897SOL    HW224591   3.025   2.617   0.669
 7898SOL     OW24592   5.514   6.406   3.413
 7898SOL    HW124593   5.484   6.324   3.365
 7898SOL    HW224594   5.435   6.452   3.453
 7899SOL     OW24595   6.267   4.451   4.207
 7899SOL    HW124596   6.209   4.373   4.183
 7899SOL    HW224597   6.355   4.442   4.160
 7900SOL     OW24598   0.996   3.751   1.009
 7900SOL    HW124599   1.070   3.715   1.066
 7900SOL    HW224600   1.028   3.832   0.960
 7901SOL     OW24601   0.768   1.836   6.757
 7901SOL    HW124602   0.771   1.737   6.743
 7901SOL    HW224603   0.802   1.882   6.675
 7902SOL     OW24604   1.526   0.107   2.630
 7902SOL    HW124605   1.443   0.159   2.610
 7902SOL    HW224606   1.501   0.023   2.680
 7903SOL     OW24607   2.430   1.746   4.914
 7903SOL    HW124608   2.386   1.718   5.000
 7903SOL    HW224609   2.489   1.824   4.931
 7904SOL     OW24610   4.718   1.575   2.832
 7904SOL    HW124611   4.696   1.545   2.739
 7904SOL    HW224612   4.669   1.517   2.898
 7905SOL     OW24613   5.220   1.218   1.134
 7905SOL    HW124614   5.205   1.280   1.056
 7905SOL    HW224615   5.153   1.144   1.131
 7906SOL     OW24616   1.309   4.883   0.403
 7906SOL    HW124617   1.247   4.915   0.332
 7906SOL    HW224618   1.403   4.905   0.378
 7907SOL     OW24619   5.839   6.482   2.553
 7907SOL    HW124620   5.776   6.459   2.479
 7907SOL    HW224621   5.797   6.551   2.612
 7908SOL     OW24622   1.026   6.876   6.540
 7908SOL    HW124623   1.117   6.863   6.501
 7908SOL    HW224624   0.993   6.790   6.577
 7909SOL     OW24625   5.494   4.048   2.121
 7909SOL    HW124626   5.459   4.044   2.027
 7909SOL    HW224627   5.437   4.110   2.175
 7910SOL     OW24628   0.645   3.816   6.715
 7910SOL    HW124629   0.557   3.818   6.761
 7910SOL    HW224630   0.644   3.881   6.638
 7911SOL     OW24631   6.916   4.566   6.140
 7911SOL    HW124632   6.928   4.565   6.041
 7911SOL    HW224633   6.818   4.560   6.162
 7912SOL     OW24634   6.169   5.312   1.089
 7912SOL    HW124635   6.233   5.245   1.126
 7912SOL    HW224636   6.126   5.362   1.164
 7913SOL     OW24637   1.118   4.990   0.604
 7913SOL    HW124638   1.196   4.962   0.548
 7913SOL    HW224639   1.044   5.021   0.545
 7914SOL     OW24640   0.622   6.765   5.286
 7914SOL    HW124641   0.640   6.830   5.211
 7914SOL    HW224642   0.672   6.680   5.268
 7915SOL     OW24643   3.532   5.264   3.106
 7915SOL    HW124644   3.524   5.266   3.205
 7915SOL    HW224645   3.446   5.234   3.066
 7916SOL     OW24646   1.096   0.342   4.392
 7916SOL    HW124647   1.038   0.424   4.392
 7916SOL    HW224648   1.039   0.261   4.407
 7917SOL     OW24649   4.065   2.343   1.242
 7917SOL    HW124650   4.146   2.313   1.293
 7917SOL    HW224651   4.092   2.368   1.149
 7918SOL     OW24652   2.045   2.335   3.653
 7918SOL    HW124653   1.973   2.385   3.604
 7918SOL    HW224654   2.077   2.259   3.596
 7919SOL     OW24655   1.716   6.227   5.297
 7919SOL    HW124656   1.779   6.153   5.320
 7919SOL    HW224657   1.622   6.195   5.308
 7920SOL     OW24658   4.788   0.398   1.152
 7920SOL    HW124659   4.780   0.370   1.248
 7920SOL    HW224660   4.731   0.339   1.095
 7921SOL     OW24661   5.481   2.367   1.193
 7921SOL    HW124662   5.463   2.279   1.149
 7921SOL    HW224663   5.398   2.398   1.240
 7922SOL     OW24664   2.527   6.732   1.580
 7922SOL    HW124665   2.441   6.783   1.580
 7922SOL    HW224666   2.551   6.706   1.673
 7923SOL     OW24667   5.021   1.539   7.013
 7923SOL    HW124668   5.104   1.515   0.039
 7923SOL    HW224669   5.045   1.593   6.932
 7924SOL     OW24670   6.094   6.253   0.413
 7924SOL    HW124671   6.178   6.200   0.421
 7924SOL    HW224672   6.031   6.228   0.486
 7925SOL     OW24673   1.705   5.202   6.653
 7925SOL    HW124674   1.656   5.160   6.729
 7925SOL    HW224675   1.768   5.135   6.613
 7926SOL     OW24676   4.970   5.822   0.052
 7926SOL    HW124677   5.049   5.771   0.085
 7926SOL    HW224678   4.996   5.878   6.998
 7927SOL     OW24679   4.043   7.016   2.381
 7927SOL    HW124680   4.107   0.064   2.358
 7927SOL    HW224681   4.086   6.953   2.447
 7928SOL     OW24682   5.684   2.027   3.168
 7928SOL    HW124683   5.668   2.082   3.250
 7928SOL    HW224684   5.732   2.081   3.100
 7929SOL     OW24685   4.403   4.611   6.259
 7929SOL    HW124686   4.466   4.687   6.243
 7929SOL    HW224687   4.431   4.560   6.341
 7930SOL     OW24688   4.143   6.379   6.539
 7930SOL    HW124689   4.157   6.426   6.625
 7930SOL    HW224690   4.185   6.431   6.465
 7931SOL     OW24691   3.877   2.138   1.302
 7931SOL    HW124692   3.894   2.112   1.396
 7931SOL    HW224693   3.927   2.222   1.281
 7932SOL     OW24694   1.425   3.769   1.918
 7932SOL    HW124695   1.455   3.734   2.006
 7932SOL    HW224696   1.333   3.806   1.926
 7933SOL     OW24697   0.912   1.631   0.294
 7933SOL    HW124698   0.885   1.628   0.390
 7933SOL    HW224699   1.010   1.651   0.288
 7934SOL     OW24700   0.713   5.727   1.191
 7934SOL    HW124701   0.795   5.700   1.240
 7934SOL    HW224702   0.720   5.823   1.164
 7935SOL     OW24703   5.387   3.101   3.176
 7935SOL    HW124704   5.291   3.120   3.156
 7935SOL    HW224705   5.419   3.027   3.117
 7936SOL     OW24706   3.195   5.778   3.364
 7936SOL    HW124707   3.170   5.683   3.344
 7936SOL    HW224708   3.210   5.828   3.279
 7937SOL     OW24709   3.305   1.008   6.902
 7937SOL    HW124710   3.403   0.987   6.898
 7937SOL    HW224711   3.286   1.090   6.848
 7938SOL     OW24712   2.845   6.506   3.939
 7938SOL    HW124713   2.762   6.555   3.913
 7938SOL    HW224714   2.825   6.408   3.949
 7939SOL     OW24715   0.657   1.073   3.374
 7939SOL    HW124716   0.666   1.148   3.440
 7939SOL    HW224717   0.590   1.098   3.304
 7940SOL     OW24718   5.506   1.512   4.159
 7940SOL    HW124719   5.445   1.540   4.086
 7940SOL    HW224720   5.504   1.580   4.232
 7941SOL     OW24721   3.603   0.218   0.725
 7941SOL    HW124722   3.652   0.167   0.796
 7941SOL    HW224723   3.668   0.266   0.666
 7942SOL     OW24724   0.942   4.746   0.348
 7942SOL    HW124725   0.920   4.800   0.267
 7942SOL    HW224726   1.003   4.671   0.323
 7943SOL     OW24727   1.395   6.026   5.857
 7943SOL    HW124728   1.460   6.101   5.841
 7943SOL    HW224729   1.359   6.034   5.950
 7944SOL     OW24730   1.456   2.831   1.745
 7944SOL    HW124731   1.458   2.800   1.840
 7944SOL    HW224732   1.376   2.792   1.699
 7945SOL     OW24733   6.293   4.177   3.577
 7945SOL    HW124734   6.327   4.188   3.671
 7945SOL    HW224735   6.261   4.083   3.565
 7946SOL     OW24736   4.193   0.925   6.630
 7946SOL    HW124737   4.172   0.855   6.562
 7946SOL    HW224738   4.290   0.919   6.655
 7947SOL     OW24739   0.062   4.018   6.833
 7947SOL    HW124740   7.000   4.035   6.879
 7947SOL    HW224741   0.137   4.046   6.893
 7948SOL     OW24742   1.933   5.530   2.912
 7948SOL    HW124743   1.879   5.458   2.869
 7948SOL    HW224744   1.929   5.613   2.856
 7949SOL     OW24745   3.236   6.105   6.597
 7949SOL    HW124746   3.330   6.075   6.583
 7949SOL    HW224747   3.188   6.108   6.509
 7950SOL     OW24748   5.974   4.309   5.500
 7950SOL    HW124749   5.884   4.352   5.495
 7950SOL    HW224750   5.974   4.239   5.573
 7951SOL     OW24751   4.327   5.944   2.458
 7951SOL    HW124752   4.326   5.968   2.361
 7951SOL    HW224753   4.262   5.870   2.475
 7952SOL     OW24754   6.292   4.304   6.296
 7952SOL    HW124755   6.298   4.364   6.376
 7952SOL    HW224756   6.210   4.248   6.303
 7953SOL     OW24757   1.822   6.824   0.176
 7953SOL    HW124758   1.900   6.796   0.232
 7953SOL    HW224759   1.763   6.745   0.159
 7954SOL     OW24760   4.210   4.272   6.704
 7954SOL    HW124761   4.131   4.333   6.706
 7954SOL    HW224762   4.194   4.194   6.764
 7955SOL     OW24763   1.957   1.635   6.611
 7955SOL    HW124764   1.876   1.661   6.558
 7955SOL    HW224765   1.940   1.550   6.660
 7956SOL     OW24766   6.675   6.028   0.354
 7956SOL    HW124767   6.725   6.072   0.281
 7956SOL    HW224768   6.732   5.958   0.398
 7957SOL     OW24769   4.842   1.108   5.858
 7957SOL    HW124770   4.851   1.159   5.944
 7957SOL    HW224771   4.845   1.010   5.878
 7958SOL     OW24772   5.679   2.723   0.209
 7958SOL    HW124773   5.644   2.629   0.205
 7958SOL    HW224774   5.743   2.739   0.134
 7959SOL     OW24775   6.279   2.072   0.214
 7959SOL    HW124776   6.203   2.031   0.263
 7959SOL    HW224777   6.267   2.059   0.115
 7960SOL     OW24778   0.901   1.402   5.433
 7960SOL    HW124779   0.922   1.305   5.449
 7960SOL    HW224780   0.802   1.415   5.437
 7961SOL     OW24781   6.196   6.572   0.178
 7961SOL    HW124782   6.144   6.490   0.153
 7961SOL    HW224783   6.133   6.641   0.215
 7962SOL     OW24784   5.666   6.655   5.215
 7962SOL    HW124785   5.658   6.752   5.194
 7962SOL    HW224786   5.696   6.643   5.310
 7963SOL     OW24787   6.309   6.901   4.207
 7963SOL    HW124788   6.368   6.942   4.137
 7963SOL    HW224789   6.336   6.805   4.222
 7964SOL     OW24790   6.315   4.121   1.802
 7964SOL    HW124791   6.368   4.086   1.724
 7964SOL    HW224792   6.217   4.114   1.782
 7965SOL     OW24793   4.185   2.736   6.136
 7965SOL    HW124794   4.086   2.721   6.141
 7965SOL    HW224795   4.231   2.649   6.122
 7966SOL     OW24796   4.909   3.705   4.841
 7966SOL    HW124797   4.869   3.656   4.764
 7966SOL    HW224798   4.853   3.691   4.923
 7967SOL     OW24799   1.589   4.604   1.314
 7967SOL    HW124800   1.679   4.562   1.310
 7967SOL    HW224801   1.537   4.565   1.391
 7968SOL     OW24802   7.008   2.663   5.073
 7968SOL    HW124803   6.920   2.698   5.107
 7968SOL    HW224804   0.057   2.699   5.131
 7969SOL     OW24805   3.716   5.612   6.651
 7969SOL    HW124806   3.719   5.646   6.557
 7969SOL    HW224807   3.627   5.569   6.668
 7970SOL     OW24808   6.408   2.702   3.661
 7970SOL    HW124809   6.470   2.744   3.729
 7970SOL    HW224810   6.361   2.624   3.703
 7971SOL     OW24811   2.667   1.326   7.019
 7971SOL    HW124812   2.755   1.280   0.011
 7971SOL    HW224813   2.604   1.262   6.975
 7972SOL     OW24814   3.870   4.009   4.139
 7972SOL    HW124815   3.935   4.079   4.171
 7972SOL    HW224816   3.779   4.050   4.129
 7973SOL     OW24817   5.778   4.200   2.446
 7973SOL    HW124818   5.739   4.201   2.537
 7973SOL    HW224819   5.846   4.127   2.440
 7974SOL     OW24820   0.134   2.958   5.659
 7974SOL    HW124821   0.105   2.974   5.753
 7974SOL    HW224822   0.230   2.928   5.659
 7975SOL     OW24823   5.557   0.283   1.187
 7975SOL    HW124824   5.527   0.250   1.098
 7975SOL    HW224825   5.655   0.266   1.197
 7976SOL     OW24826   0.696   0.696   1.128
 7976SOL    HW124827   0.613   0.644   1.107
 7976SOL    HW224828   0.721   0.752   1.048
 7977SOL     OW24829   5.432   6.031   4.163
 7977SOL    HW124830   5.408   6.030   4.260
 7977SOL    HW224831   5.476   5.945   4.138
 7978SOL     OW24832   0.082   4.645   1.382
 7978SOL    HW124833   0.030   4.560   1.390
 7978SOL    HW224834   0.162   4.630   1.324
 7979SOL     OW24835   1.701   2.440   4.364
 7979SOL    HW124836   1.762   2.418   4.288
 7979SOL    HW224837   1.738   2.519   4.415
 7980SOL     OW24838   3.931   5.895   0.739
 7980SOL    HW124839   3.969   5.880   0.648
 7980SOL    HW224840   3.999   5.873   0.808
 7981SOL     OW24841   1.524   4.476   3.769
 7981SOL    HW124842   1.505   4.469   3.671
 7981SOL    HW224843   1.588   4.404   3.795
 7982SOL     OW24844   6.511   0.905   5.913
 7982SOL    HW124845   6.480   0.813   5.936
 7982SOL    HW224846   6.475   0.931   5.823
 7983SOL     OW24847   4.656   0.848   1.790
 7983SOL    HW124848   4.605   0.930   1.817
 7983SOL    HW224849   4.597   0.789   1.735
 7984SOL     OW24850   0.480   2.335   2.752
 7984SOL    HW124851   0.383   2.312   2.760
 7984SOL    HW224852   0.498   2.378   2.664
 7985SOL     OW24853   2.889   3.207   5.358
 7985SOL    HW124854   2.895   3.206   5.458
 7985SOL    HW224855   2.793   3.217   5.331
 7986SOL     OW24856   3.831   0.886   4.166
 7986SOL    HW124857   3.743   0.934   4.167
 7986SOL    HW224858   3.851   0.854   4.074
 7987SOL     OW24859   0.777   3.545   0.187
 7987SOL    HW124860   0.814   3.488   0.260
 7987SOL    HW224861   0.699   3.499   0.145
 7988SOL     OW24862   6.622   1.134   2.248
 7988SOL    HW124863   6.573   1.221   2.255
 7988SOL    HW224864   6.557   1.062   2.224
 7989SOL     OW24865   0.240   4.362   1.062
 7989SOL    HW124866   0.153   4.313   1.060
 7989SOL    HW224867   0.253   4.411   0.976
 7990SOL     OW24868   4.551   5.892   5.381
 7990SOL    HW124869   4.473   5.861   5.435
 7990SOL    HW224870   4.628   5.912   5.441
 7991SOL     OW24871   5.858   0.877   5.227
 7991SOL    HW124872   5.882   0.969   5.259
 7991SOL    HW224873   5.824   0.823   5.303
 7992SOL     OW24874   2.712   6.913   6.916
 7992SOL    HW124875   2.685   6.930   6.821
 7992SOL    HW224876   2.638   6.867   6.964
 7993SOL     OW24877   6.207   5.629   0.645
 7993SOL    HW124878   6.180   5.721   0.617
 7993SOL    HW224879   6.145   5.562   0.605
 7994SOL     OW24880   6.286   0.220   4.177
 7994SOL    HW124881   6.304   0.232   4.079
 7994SOL    HW224882   6.215   0.152   4.191
 7995SOL     OW24883   0.719   4.871   1.390
 7995SOL    HW124884   0.771   4.790   1.415
 7995SOL    HW224885   0.621   4.852   1.399
 7996SOL     OW24886   3.105   6.718   3.477
 7996SOL    HW124887   3.174   6.670   3.422
 7996SOL    HW224888   3.028   6.743   3.418
 7997SOL     OW24889   1.883   1.666   6.220
 7997SOL    HW124890   1.812   1.736   6.231
 7997SOL    HW224891   1.841   1.576   6.217
 7998SOL     OW24892   2.430   0.903   0.447
 7998SOL    HW124893   2.445   0.811   0.412
 7998SOL    HW224894   2.498   0.965   0.407
 7999SOL     OW24895   1.217   0.398   4.726
 7999SOL    HW124896   1.183   0.482   4.682
 7999SOL    HW224897   1.246   0.334   4.655
 8000SOL     OW24898   4.053   5.285   0.343
 8000SOL    HW124899   4.040   5.271   0.442
 8000SOL    HW224900   3.983   5.233   0.293
 8001SOL     OW24901   4.349   5.273   1.156
 8001SOL    HW124902   4.262   5.228   1.136
 8001SOL    HW224903   4.344   5.316   1.247
 8002SOL     OW24904   1.116   0.230   5.210
 8002SOL    HW124905   1.089   0.213   5.305
 8002SOL    HW224906   1.043   0.281   5.163
 8003SOL     OW24907   2.478   5.700   2.186
 8003SOL    HW124908   2.439   5.616   2.147
 8003SOL    HW224909   2.531   5.676   2.268
 8004SOL     OW24910   1.234   3.112   3.596
 8004SOL    HW124911   1.155   3.054   3.615
 8004SOL    HW224912   1.243   3.125   3.497
 8005SOL     OW24913   2.337   0.574   3.067
 8005SOL    HW124914   2.381   0.492   3.102
 8005SOL    HW224915   2.281   0.551   2.988
 8006SOL     OW24916   3.855   4.457   5.528
 8006SOL    HW124917   3.866   4.411   5.439
 8006SOL    HW224918   3.772   4.512   5.526
 8007SOL     OW24919   6.931   0.502   0.705
 8007SOL    HW124920   6.970   0.500   0.613
 8007SOL    HW224921   7.003   0.524   0.771
 8008SOL     OW24922   4.974   6.437   0.217
 8008SOL    HW124923   4.911   6.508   0.183
 8008SOL    HW224924   4.977   6.362   0.152
 8009SOL     OW24925   5.887   0.821   6.860
 8009SOL    HW124926   5.926   0.732   6.839
 8009SOL    HW224927   5.880   0.832   6.959
 8010SOL     OW24928   3.011   0.123   5.688
 8010SOL    HW124929   3.080   0.113   5.616
 8010SOL    HW224930   3.036   0.199   5.748
 8011SOL     OW24931   3.952   2.201   3.149
 8011SOL    HW124932   4.032   2.185   3.090
 8011SOL    HW224933   3.979   2.261   3.224
 8012SOL     OW24934   5.902   1.664   4.831
 8012SOL    HW124935   5.944   1.578   4.800
 8012SOL    HW224936   5.831   1.691   4.765
 8013SOL     OW24937   3.269   1.631   2.261
 8013SOL    HW124938   3.337   1.642   2.189
 8013SOL    HW224939   3.206   1.557   2.236
 8014SOL     OW24940   2.053   2.534   2.731
 8014SOL    HW124941   2.036   2.437   2.712
 8014SOL    HW224942   2.025   2.589   2.653
 8015SOL     OW24943   3.354   0.125   4.707
 8015SOL    HW124944   3.335   0.033   4.673
 8015SOL    HW224945   3.275   0.184   4.688
 8016SOL     OW24946   3.576   2.093   5.109
 8016SOL    HW124947   3.528   2.147   5.178
 8016SOL    HW224948   3.674   2.107   5.117
 8017SOL     OW24949   6.755   5.681   0.887
 8017SOL    HW124950   6.657   5.675   0.907
 8017SOL    HW224951   6.790   5.770   0.917
 8018SOL     OW24952   4.119   2.332   6.654
 8018SOL    HW124953   4.089   2.236   6.650
 8018SOL    HW224954   4.207   2.337   6.700
 8019SOL     OW24955   2.607   3.606   0.897
 8019SOL    HW124956   2.601   3.529   0.834
 8019SOL    HW224957   2.629   3.572   0.989
 8020SOL     OW24958   0.856   0.730   5.881
 8020SOL    HW124959   0.953   0.735   5.904
 8020SOL    HW224960   0.802   0.714   5.964
 8021SOL     OW24961   1.262   2.630   0.871
 8021SOL    HW124962   1.273   2.665   0.964
 8021SOL    HW224963   1.331   2.559   0.855
 8022SOL     OW24964   4.382   1.132   1.680
 8022SOL    HW124965   4.449   1.109   1.610
 8022SOL    HW224966   4.314   1.059   1.688
 8023SOL     OW24967   4.731   6.120   1.563
 8023SOL    HW124968   4.735   6.028   1.523
 8023SOL    HW224969   4.788   6.182   1.511
 8024SOL     OW24970   2.503   1.298   6.366
 8024SOL    HW124971   2.544   1.212   6.395
 8024SOL    HW224972   2.568   1.373   6.381
 8025SOL     OW24973   1.570   5.918   1.753
 8025SOL    HW124974   1.551   5.999   1.697
 8025SOL    HW224975   1.659   5.927   1.796
 8026SOL     OW24976   0.428   6.020   6.267
 8026SOL    HW124977   0.414   6.054   6.360
 8026SOL    HW224978   0.446   5.922   6.269
 8027SOL     OW24979   3.758   0.702   7.007
 8027SOL    HW124980   3.690   0.631   7.024
 8027SOL    HW224981   3.730   0.757   6.928
 8028SOL     OW24982   3.213   5.653   5.226
 8028SOL    HW124983   3.131   5.629   5.279
 8028SOL    HW224984   3.195   5.736   5.173
 8029SOL     OW24985   0.627   0.121   0.770
 8029SOL    HW124986   0.589   0.169   0.849
 8029SOL    HW224987   0.643   0.186   0.695
 8030SOL     OW24988   0.634   4.363   0.915
 8030SOL    HW124989   0.585   4.313   0.985
 8030SOL    HW224990   0.569   4.401   0.849
 8031SOL     OW24991   0.418   0.476   2.986
 8031SOL    HW124992   0.429   0.573   2.968
 8031SOL    HW224993   0.350   0.463   3.058
 8032SOL     OW24994   0.060   3.056   1.140
 8032SOL    HW124995   0.118   3.070   1.220
 8032SOL    HW224996   0.009   2.970   1.150
 8033SOL     OW24997   4.371   4.076   1.055
 8033SOL    HW124998   4.347   4.015   1.130
 8033SOL    HW224999   4.422   4.154   1.090
 8034SOL     OW25000   6.752   6.959   6.334
 8034SOL    HW125001   6.725   6.874   6.290
 8034SOL    HW225002   6.707   0.012   6.289
 8035SOL     OW25003   6.180   0.933   3.333
 8035SOL    HW125004   6.170   0.841   3.296
 8035SOL    HW225005   6.101   0.954   3.391
 8036SOL     OW25006   5.095   2.725   4.099
 8036SOL    HW125007   5.127   2.817   4.122
 8036SOL    HW225008   5.012   2.705   4.151
 8037SOL     OW25009   2.113   1.517   5.572
 8037SOL    HW125010   2.024   1.491   5.535
 8037SOL    HW225011   2.133   1.460   5.652
 8038SOL     OW25012   6.673   5.213   1.969
 8038SOL    HW125013   6.735   5.257   2.034
 8038SOL    HW225014   6.589   5.188   2.016
 8039SOL     OW25015   1.195   2.393   5.351
 8039SOL    HW125016   1.216   2.361   5.443
 8039SOL    HW225017   1.139   2.324   5.304
 8040SOL     OW25018   1.526   5.418   6.725
 8040SOL    HW125019   1.584   5.342   6.697
 8040SOL    HW225020   1.446   5.424   6.665
 8041SOL     OW25021   3.218   1.295   2.805
 8041SOL    HW125022   3.281   1.231   2.763
 8041SOL    HW225023   3.158   1.334   2.735
 8042SOL     OW25024   4.244   3.814   5.798
 8042SOL    HW125025   4.185   3.829   5.877
 8042SOL    HW225026   4.198   3.756   5.731
 8043SOL     OW25027   5.474   5.608   6.557
 8043SOL    HW125028   5.485   5.508   6.554
 8043SOL    HW225029   5.540   5.646   6.622
 8044SOL     OW25030   2.556   3.635   1.692
 8044SOL    HW125031   2.514   3.581   1.764
 8044SOL    HW225032   2.652   3.608   1.682
 8045SOL     OW25033   6.678   2.569   3.897
 8045SOL    HW125034   6.738   2.496   3.928
 8045SOL    HW225035   6.591   2.564   3.945
 8046SOL     OW25036   6.754   4.560   2.258
 8046SOL    HW125037   6.847   4.574   2.292
 8046SOL    HW225038   6.757   4.539   2.161
 8047SOL     OW25039   3.080   6.017   6.804
 8047SOL    HW125040   3.099   6.086   6.874
 8047SOL    HW225041   3.136   6.036   6.723
 8048SOL     OW25042   3.500   2.435   6.031
 8048SOL    HW125043   3.496   2.367   5.957
 8048SOL    HW225044   3.587   2.425   6.079
 8049SOL     OW25045   1.886   2.056   0.739
 8049SOL    HW125046   1.919   2.006   0.819
 8049SOL    HW225047   1.794   2.091   0.758
 8050SOL     OW25048   0.790   4.844   5.387
 8050SOL    HW125049   0.850   4.858   5.465
 8050SOL    HW225050   0.778   4.931   5.338
 8051SOL     OW25051   4.412   0.247   3.412
 8051SOL    HW125052   4.464   0.183   3.355
 8051SOL    HW225053   4.464   0.331   3.423
 8052SOL     OW25054   2.930   1.708   2.428
 8052SOL    HW125055   3.021   1.709   2.469
 8052SOL    HW225056   2.911   1.796   2.386
 8053SOL     OW25057   2.253   2.493   6.380
 8053SOL    HW125058   2.189   2.498   6.303
 8053SOL    HW225059   2.258   2.399   6.413
 8054SOL     OW25060   4.915   3.170   5.221
 8054SOL    HW125061   4.996   3.167   5.279
 8054SOL    HW225062   4.922   3.248   5.158
 8055SOL     OW25063   5.974   0.520   0.237
 8055SOL    HW125064   5.945   0.497   0.330
 8055SOL    HW225065   5.902   0.495   0.173
 8056SOL     OW25066   2.432   0.661   3.837
 8056SOL    HW125067   2.357   0.643   3.773
 8056SOL    HW225068   2.472   0.574   3.866
 8057SOL     OW25069   2.922   2.228   1.764
 8057SOL    HW125070   2.910   2.288   1.844
 8057SOL    HW225071   2.896   2.278   1.681
 8058SOL     OW25072   3.503   6.399   1.835
 8058SOL    HW125073   3.444   6.412   1.756
 8058SOL    HW225074   3.467   6.325   1.893
 8059SOL     OW25075   2.880   2.438   5.850
 8059SOL    HW125076   2.911   2.511   5.911
 8059SOL    HW225077   2.933   2.441   5.765
 8060SOL     OW25078   6.507   1.010   6.475
 8060SOL    HW125079   6.528   1.104   6.447
 8060SOL    HW225080   6.501   0.952   6.393
 8061SOL     OW25081   0.292   0.310   2.774
 8061SOL    HW125082   0.303   0.216   2.806
 8061SOL    HW225083   0.314   0.373   2.848
 8062SOL     OW25084   4.004   5.568   5.140
 8062SOL    HW125085   3.996   5.628   5.060
 8062SOL    HW225086   3.996   5.622   5.223
 8063SOL     OW25087   2.983   4.891   2.919
 8063SOL    HW125088   3.009   4.986   2.903
 8063SOL    HW225089   3.039   4.853   2.993
 8064SOL     OW25090   6.613   1.989   0.637
 8064SOL    HW125091   6.562   2.049   0.698
 8064SOL    HW225092   6.709   2.017   0.635
 8065SOL     OW25093   4.283   5.917   6.333
 8065SOL    HW125094   4.278   5.877   6.241
 8065SOL    HW225095   4.223   5.998   6.337
 8066SOL     OW25096   0.744   6.826   6.099
 8066SOL    HW125097   0.771   6.749   6.157
 8066SOL    HW225098   0.674   6.881   6.145
 8067SOL     OW25099   5.198   2.057   3.646
 8067SOL    HW125100   5.121   2.004   3.612
 8067SOL    HW225101   5.211   2.039   3.743
 8068SOL     OW25102   5.603   3.831   1.553
 8068SOL    HW125103   5.539   3.871   1.487
 8068SOL    HW225104   5.636   3.743   1.518
 8069SOL     OW25105   1.845   4.419   2.974
 8069SOL    HW125106   1.777   4.390   3.042
 8069SOL    HW225107   1.933   4.429   3.019
 8070SOL     OW25108   4.829   4.715   0.605
 8070SOL    HW125109   4.821   4.624   0.646
 8070SOL    HW225110   4.825   4.707   0.505
 8071SOL     OW25111   2.408   0.114   5.924
 8071SOL    HW125112   2.328   0.125   5.983
 8071SOL    HW225113   2.408   0.187   5.855
 8072SOL     OW25114   2.302   1.303   5.255
 8072SOL    HW125115   2.348   1.384   5.292
 8072SOL    HW225116   2.289   1.236   5.328
 8073SOL     OW25117   4.913   0.470   6.450
 8073SOL    HW125118   4.916   0.401   6.523
 8073SOL    HW225119   4.873   0.554   6.486
 8074SOL     OW25120   1.876   0.908   6.549
 8074SOL    HW125121   1.967   0.910   6.591
 8074SOL    HW225122   1.816   0.973   6.597
 8075SOL     OW25123   7.002   6.803   1.234
 8075SOL    HW125124   6.937   6.862   1.186
 8075SOL    HW225125   7.024   6.843   1.323
 8076SOL     OW25126   0.177   6.446   0.313
 8076SOL    HW125127   0.167   6.495   0.400
 8076SOL    HW225128   0.226   6.360   0.330
 8077SOL     OW25129   4.837   4.417   0.601
 8077SOL    HW125130   4.906   4.374   0.543
 8077SOL    HW225131   4.748   4.410   0.558
 8078SOL     OW25132   0.227   1.698   1.469
 8078SOL    HW125133   0.186   1.769   1.526
 8078SOL    HW225134   0.315   1.730   1.434
 8079SOL     OW25135   2.144   1.125   6.122
 8079SOL    HW125136   2.172   1.186   6.196
 8079SOL    HW225137   2.057   1.156   6.084
 8080SOL     OW25138   0.717   3.246   3.058
 8080SOL    HW125139   0.693   3.231   2.962
 8080SOL    HW225140   0.797   3.306   3.063
 8081SOL     OW25141   5.711   6.791   4.693
 8081SOL    HW125142   5.754   6.866   4.643
 8081SOL    HW225143   5.680   6.721   4.629
 8082SOL     OW25144   4.004   1.378   3.843
 8082SOL    HW125145   4.067   1.385   3.765
 8082SOL    HW225146   4.051   1.408   3.926
 8083SOL     OW25147   6.068   2.011   4.525
 8083SOL    HW125148   6.111   2.081   4.467
 8083SOL    HW225149   6.128   1.989   4.601
 8084SOL     OW25150   3.894   1.290   6.204
 8084SOL    HW125151   3.893   1.384   6.170
 8084SOL    HW225152   3.981   1.247   6.180
 8085SOL     OW25153   1.914   6.087   4.752
 8085SOL    HW125154   1.931   6.000   4.799
 8085SOL    HW225155   1.976   6.156   4.787
 8086SOL     OW25156   6.785   0.539   2.280
 8086SOL    HW125157   6.804   0.609   2.211
 8086SOL    HW225158   6.787   0.449   2.238
 8087SOL     OW25159   0.991   0.764   0.223
 8087SOL    HW125160   0.905   0.813   0.240
 8087SOL    HW225161   0.994   0.736   0.128
 8088SOL     OW25162   6.720   0.236   5.154
 8088SOL    HW125163   6.772   0.252   5.237
 8088SOL    HW225164   6.781   0.203   5.082
 8089SOL     OW25165   6.611   2.187   6.157
 8089SOL    HW125166   6.539   2.146   6.214
 8089SOL    HW225167   6.634   2.277   6.192
 8090SOL     OW25168   4.314   2.124   5.271
 8090SOL    HW125169   4.389   2.088   5.328
 8090SOL    HW225170   4.287   2.055   5.204
 8091SOL     OW25171   1.516   5.014   3.899
 8091SOL    HW125172   1.492   5.045   3.990
 8091SOL    HW225173   1.616   5.008   3.891
 8092SOL     OW25174   4.847   1.523   6.285
 8092SOL    HW125175   4.768   1.510   6.344
 8092SOL    HW225176   4.904   1.597   6.320
 8093SOL     OW25177   3.506   5.885   2.691
 8093SOL    HW125178   3.488   5.908   2.596
 8093SOL    HW225179   3.536   5.790   2.698
 8094SOL     OW25180   2.168   4.130   4.195
 8094SOL    HW125181   2.087   4.173   4.155
 8094SOL    HW225182   2.139   4.057   4.258
 8095SOL     OW25183   1.580   4.799   5.529
 8095SOL    HW125184   1.626   4.842   5.608
 8095SOL    HW225185   1.614   4.706   5.518
 8096SOL     OW25186   1.193   5.893   0.538
 8096SOL    HW125187   1.282   5.937   0.551
 8096SOL    HW225188   1.168   5.844   0.621
 8097SOL     OW25189   4.337   6.162   6.592
 8097SOL    HW125190   4.329   6.117   6.503
 8097SOL    HW225191   4.280   6.245   6.593
 8098SOL     OW25192   1.837   6.059   5.062
 8098SOL    HW125193   1.801   5.968   5.081
 8098SOL    HW225194   1.774   6.106   4.999
 8099SOL     OW25195   2.027   4.314   2.700
 8099SOL    HW125196   1.928   4.304   2.702
 8099SOL    HW225197   2.067   4.242   2.643
 8100SOL     OW25198   0.127   1.056   6.964
 8100SOL    HW125199   0.086   0.988   6.904
 8100SOL    HW225200   0.195   1.109   6.913
 8101SOL     OW25201   3.490   5.369   0.636
 8101SOL    HW125202   3.434   5.292   0.666
 8101SOL    HW225203   3.482   5.379   0.536
 8102SOL     OW25204   1.254   3.924   5.040
 8102SOL    HW125205   1.345   3.882   5.030
 8102SOL    HW225206   1.198   3.901   4.961
 8103SOL     OW25207   3.016   1.046   2.083
 8103SOL    HW125208   2.996   1.058   1.986
 8103SOL    HW225209   3.096   0.986   2.093
 8104SOL     OW25210   1.886   5.854   0.528
 8104SOL    HW125211   1.796   5.878   0.491
 8104SOL    HW225212   1.957   5.887   0.466
 8105SOL     OW25213   6.926   6.901   3.601
 8105SOL    HW125214   6.889   6.865   3.686
 8105SOL    HW225215   7.013   6.856   3.581
 8106SOL     OW25216   2.247   0.201   6.177
 8106SOL    HW125217   2.208   0.112   6.152
 8106SOL    HW225218   2.184   0.273   6.150
 8107SOL     OW25219   1.469   6.395   6.491
 8107SOL    HW125220   1.539   6.348   6.543
 8107SOL    HW225221   1.403   6.329   6.455
 8108SOL     OW25222   1.387   1.481   6.808
 8108SOL    HW125223   1.329   1.562   6.804
 8108SOL    HW225224   1.481   1.506   6.788
 8109SOL     OW25225   6.197   3.202   0.896
 8109SOL    HW125226   6.182   3.106   0.873
 8109SOL    HW225227   6.292   3.214   0.926
 8110SOL     OW25228   3.770   4.951   1.125
 8110SOL    HW125229   3.720   5.015   1.067
 8110SOL    HW225230   3.761   4.980   1.221
 8111SOL     OW25231   6.012   1.315   2.478
 8111SOL    HW125232   6.085   1.305   2.411
 8111SOL    HW225233   6.032   1.259   2.558
 8112SOL     OW25234   1.719   3.917   6.225
 8112SOL    HW125235   1.686   3.822   6.222
 8112SOL    HW225236   1.793   3.929   6.159
 8113SOL     OW25237   5.162   3.413   5.886
 8113SOL    HW125238   5.252   3.369   5.880
 8113SOL    HW225239   5.164   3.482   5.958
 8114SOL     OW25240   1.436   4.072   2.214
 8114SOL    HW125241   1.525   4.030   2.231
 8114SOL    HW225242   1.448   4.152   2.154
 8115SOL     OW25243   2.776   1.875   6.013
 8115SOL    HW125244   2.872   1.879   5.987
 8115SOL    HW225245   2.723   1.938   5.956
 8116SOL     OW25246   3.904   3.186   1.103
 8116SOL    HW125247   3.982   3.248   1.107
 8116SOL    HW225248   3.827   3.232   1.058
 8117SOL     OW25249   2.093   6.695   3.556
 8117SOL    HW125250   2.039   6.686   3.639
 8117SOL    HW225251   2.069   6.622   3.492
 8118SOL     OW25252   6.172   3.256   0.364
 8118SOL    HW125253   6.263   3.214   0.358
 8118SOL    HW225254   6.162   3.300   0.454
 8119SOL     OW25255   5.955   6.169   0.632
 8119SOL    HW125256   6.018   6.156   0.708
 8119SOL    HW225257   5.868   6.204   0.667
 8120SOL     OW25258   2.453   0.254   1.589
 8120SOL    HW125259   2.423   0.339   1.633
 8120SOL    HW225260   2.505   0.199   1.655
 8121SOL     OW25261   0.475   3.402   2.618
 8121SOL    HW125262   0.432   3.391   2.528
 8121SOL    HW225263   0.406   3.424   2.686
 8122SOL     OW25264   0.751   4.769   1.027
 8122SOL    HW125265   0.713   4.691   1.077
 8122SOL    HW225266   0.678   4.831   0.999
 8123SOL     OW25267   0.080   1.552   6.787
 8123SOL    HW125268   0.075   1.645   6.825
 8123SOL    HW225269   0.052   1.486   6.856
 8124SOL     OW25270   5.196   4.800   5.008
 8124SOL    HW125271   5.279   4.798   4.953
 8124SOL    HW225272   5.116   4.806   4.948
 8125SOL     OW25273   1.621   6.192   3.116
 8125SOL    HW125274   1.699   6.190   3.053
 8125SOL    HW225275   1.651   6.166   3.207
 8126SOL     OW25276   3.681   4.913   4.258
 8126SOL    HW125277   3.765   4.862   4.239
 8126SOL    HW225278   3.631   4.928   4.173
 8127SOL     OW25279   3.764   2.801   0.305
 8127SOL    HW125280   3.850   2.775   0.351
 8127SOL    HW225281   3.689   2.798   0.372
 8128SOL     OW25282   3.577   3.236   1.448
 8128SOL    HW125283   3.676   3.225   1.442
 8128SOL    HW225284   3.537   3.236   1.356
 8129SOL     OW25285   1.810   2.796   2.203
 8129SOL    HW125286   1.812   2.704   2.242
 8129SOL    HW225287   1.903   2.828   2.188
 8130SOL     OW25288   0.553   5.651   6.619
 8130SOL    HW125289   0.603   5.716   6.676
 8130SOL    HW225290   0.457   5.648   6.649
 8131SOL     OW25291   1.744   3.815   6.915
 8131SOL    HW125292   1.696   3.747   6.859
 8131SOL    HW225293   1.842   3.795   6.914
 8132SOL     OW25294   0.595   0.429   5.456
 8132SOL    HW125295   0.587   0.361   5.528
 8132SOL    HW225296   0.559   0.517   5.488
 8133SOL     OW25297   3.878   4.995   0.333
 8133SOL    HW125298   3.851   5.066   0.398
 8133SOL    HW225299   3.938   4.929   0.379
 8134SOL     OW25300   5.782   1.425   5.768
 8134SOL    HW125301   5.694   1.435   5.814
 8134SOL    HW225302   5.795   1.329   5.741
 8135SOL     OW25303   2.653   0.111   1.778
 8135SOL    HW125304   2.580   0.047   1.803
 8135SOL    HW225305   2.738   0.083   1.822
 8136SOL     OW25306   4.914   4.443   1.930
 8136SOL    HW125307   5.000   4.460   1.883
 8136SOL    HW225308   4.863   4.372   1.882
 8137SOL     OW25309   4.135   1.296   5.154
 8137SOL    HW125310   4.220   1.245   5.161
 8137SOL    HW225311   4.060   1.234   5.132
 8138SOL     OW25312   5.246   1.143   2.002
 8138SOL    HW125313   5.295   1.196   2.071
 8138SOL    HW225314   5.304   1.133   1.921
 8139SOL     OW25315   0.679   2.185   3.413
 8139SOL    HW125316   0.665   2.271   3.365
 8139SOL    HW225317   0.632   2.111   3.365
 8140SOL     OW25318   4.213   0.834   3.234
 8140SOL    HW125319   4.280   0.800   3.301
 8140SOL    HW225320   4.128   0.783   3.242
 8141SOL     OW25321   4.973   4.800   4.859
 8141SOL    HW125322   4.957   4.888   4.903
 8141SOL    HW225323   4.898   4.737   4.880
 8142SOL     OW25324   6.896   6.256   0.569
 8142SOL    HW125325   6.979   6.199   0.566
 8142SOL    HW225326   6.879   6.287   0.662
 8143SOL     OW25327   6.472   3.464   4.890
 8143SOL    HW125328   6.375   3.491   4.889
 8143SOL    HW225329   6.498   3.439   4.983
 8144SOL     OW25330   5.919   0.066   6.064
 8144SOL    HW125331   5.828   0.056   6.024
 8144SOL    HW225332   5.910   0.087   6.162
 8145SOL     OW25333   5.426   6.162   2.771
 8145SOL    HW125334   5.345   6.192   2.821
 8145SOL    HW225335   5.443   6.226   2.695
 8146SOL     OW25336   3.094   0.978   3.896
 8146SOL    HW125337   3.155   1.032   3.839
 8146SOL    HW225338   3.013   1.032   3.918
 8147SOL     OW25339   4.957   0.879   3.407
 8147SOL    HW125340   4.948   0.973   3.439
 8147SOL    HW225341   5.045   0.842   3.437
 8148SOL     OW25342   5.182   3.892   3.618
 8148SOL    HW125343   5.269   3.883   3.569
 8148SOL    HW225344   5.127   3.964   3.576
 8149SOL     OW25345   4.472   4.453   3.576
 8149SOL    HW125346   4.562   4.474   3.614
 8149SOL    HW225347   4.403   4.510   3.620
 8150SOL     OW25348   0.931   5.629   1.323
 8150SOL    HW125349   0.965   5.587   1.407
 8150SOL    HW225350   0.969   5.721   1.314
 8151SOL     OW25351   1.015   1.815   5.172
 8151SOL    HW125352   1.091   1.817   5.238
 8151SOL    HW225353   0.930   1.794   5.220
 8152SOL     OW25354   1.542   1.327   3.193
 8152SOL    HW125355   1.609   1.397   3.219
 8152SOL    HW225356   1.578   1.237   3.216
 8153SOL     OW25357   1.664   7.024   0.328
 8153SOL    HW125358   1.596   0.052   0.277
 8153SOL    HW225359   1.730   6.985   0.264
 8154SOL     OW25360   1.896   0.251   3.420
 8154SOL    HW125361   1.908   0.208   3.510
 8154SOL    HW225362   1.934   0.191   3.349
 8155SOL     OW25363   2.996   3.395   3.323
 8155SOL    HW125364   3.095   3.389   3.318
 8155SOL    HW225365   2.965   3.375   3.416
 8156SOL     OW25366   6.662   0.056   6.066
 8156SOL    HW125367   6.760   0.075   6.073
 8156SOL    HW225368   6.627   0.095   5.981
 8157SOL     OW25369   5.991   3.137   0.048
 8157SOL    HW125370   5.973   3.079   0.127
 8157SOL    HW225371   6.089   3.139   0.030
 8158SOL     OW25372   1.968   5.656   2.015
 8158SOL    HW125373   1.999   5.608   1.933
 8158SOL    HW225374   1.870   5.674   2.008
 8159SOL     OW25375   1.333   5.900   1.953
 8159SOL    HW125376   1.248   5.932   1.911
 8159SOL    HW225377   1.403   5.887   1.883
 8160SOL     OW25378   4.511   2.442   1.926
 8160SOL    HW125379   4.541   2.399   2.011
 8160SOL    HW225380   4.540   2.537   1.923
 8161SOL     OW25381   4.528   1.812   0.755
 8161SOL    HW125382   4.447   1.753   0.755
 8161SOL    HW225383   4.510   1.893   0.700
 8162SOL     OW25384   5.985   0.658   1.418
 8162SOL    HW125385   5.978   0.663   1.318
 8162SOL    HW225386   5.906   0.704   1.459
 8163SOL     OW25387   2.265   3.947   5.361
 8163SOL    HW125388   2.323   3.939   5.280
 8163SOL    HW225389   2.209   4.030   5.354
 8164SOL     OW25390   4.663   1.845   1.776
 8164SOL    HW125391   4.658   1.819   1.873
 8164SOL    HW225392   4.757   1.832   1.743
 8165SOL     OW25393   2.173   4.619   1.687
 8165SOL    HW125394   2.136   4.537   1.643
 8165SOL    HW225395   2.226   4.671   1.619
 8166SOL     OW25396   2.965   6.974   1.703
 8166SOL    HW125397   2.884   6.988   1.646
 8166SOL    HW225398   2.939   6.981   1.800
 8167SOL     OW25399   5.070   3.210   4.412
 8167SOL    HW125400   5.120   3.130   4.443
 8167SOL    HW225401   5.125   3.260   4.345
 8168SOL     OW25402   3.441   1.477   2.995
 8168SOL    HW125403   3.400   1.560   3.034
 8168SOL    HW225404   3.380   1.438   2.927
 8169SOL     OW25405   4.957   4.252   6.148
 8169SOL    HW125406   4.881   4.186   6.153
 8169SOL    HW225407   4.964   4.287   6.055
 8170SOL     OW25408   0.481   5.011   3.637
 8170SOL    HW125409   0.535   5.035   3.717
 8170SOL    HW225410   0.532   4.947   3.580
 8171SOL     OW25411   1.321   1.251   5.498
 8171SOL    HW125412   1.261   1.205   5.564
 8171SOL    HW225413   1.416   1.235   5.523
 8172SOL     OW25414   0.077   6.260   0.919
 8172SOL    HW125415   7.025   6.298   0.868
 8172SOL    HW225416   0.161   6.273   0.866
 8173SOL     OW25417   4.819   2.773   6.704
 8173SOL    HW125418   4.756   2.697   6.716
 8173SOL    HW225419   4.857   2.772   6.612
 8174SOL     OW25420   5.429   0.332   2.119
 8174SOL    HW125421   5.511   0.353   2.065
 8174SOL    HW225422   5.375   0.415   2.130
 8175SOL     OW25423   1.176   3.712   5.695
 8175SOL    HW125424   1.171   3.746   5.601
 8175SOL    HW225425   1.088   3.673   5.722
 8176SOL     OW25426   3.493   5.718   3.111
 8176SOL    HW125427   3.441   5.645   3.066
 8176SOL    HW225428   3.432   5.771   3.170
 8177SOL     OW25429   1.549   0.040   6.351
 8177SOL    HW125430   1.638   0.078   6.376
 8177SOL    HW225431   1.556   6.966   6.342
 8178SOL     OW25432   1.957   6.358   6.148
 8178SOL    HW125433   2.040   6.346   6.203
 8178SOL    HW225434   1.884   6.300   6.184
 8179SOL     OW25435   3.219   0.515   0.507
 8179SOL    HW125436   3.140   0.568   0.477
 8179SOL    HW225437   3.209   0.494   0.605
 8180SOL     OW25438   4.378   5.596   5.138
 8180SOL    HW125439   4.387   5.603   5.237
 8180SOL    HW225440   4.386   5.500   5.110
 8181SOL     OW25441   2.896   2.279   2.468
 8181SOL    HW125442   2.861   2.299   2.376
 8181SOL    HW225443   2.835   2.320   2.536
 8182SOL     OW25444   3.527   2.271   5.748
 8182SOL    HW125445   3.608   2.329   5.752
 8182SOL    HW225446   3.536   2.206   5.673
 8183SOL     OW25447   1.783   3.206   4.277
 8183SOL    HW125448   1.775   3.200   4.377
 8183SOL    HW225449   1.814   3.298   4.252
 8184SOL     OW25450   6.310   5.790   5.504
 8184SOL    HW125451   6.357   5.703   5.519
 8184SOL    HW225452   6.222   5.774   5.461
 8185SOL     OW25453   1.493   1.839   2.950
 8185SOL    HW125454   1.470   1.794   3.035
 8185SOL    HW225455   1.528   1.772   2.884
 8186SOL     OW25456   3.521   4.639   6.045
 8186SOL    HW125457   3.571   4.571   6.099
 8186SOL    HW225458   3.432   4.655   6.087
 8187SOL     OW25459   1.902   1.277   6.052
 8187SOL    HW125460   1.875   1.292   6.147
 8187SOL    HW225461   1.895   1.363   6.002
 8188SOL     OW25462   6.210   3.171   2.743
 8188SOL    HW125463   6.114   3.188   2.719
 8188SOL    HW225464   6.230   3.212   2.832
 8189SOL     OW25465   6.202   4.758   2.498
 8189SOL    HW125466   6.144   4.683   2.468
 8189SOL    HW225467   6.153   4.845   2.489
 8190SOL     OW25468   5.365   3.298   2.636
 8190SOL    HW125469   5.380   3.299   2.537
 8190SOL    HW225470   5.319   3.382   2.664
 8191SOL     OW25471   0.094   5.184   1.694
 8191SOL    HW125472   0.047   5.096   1.688
 8191SOL    HW225473   0.048   5.242   1.761
 8192SOL     OW25474   1.774   3.668   1.286
 8192SOL    HW125475   1.849   3.680   1.221
 8192SOL    HW225476   1.687   3.675   1.238
 8193SOL     OW25477   3.542   6.998   5.744
 8193SOL    HW125478   3.593   6.965   5.823
 8193SOL    HW225479   3.463   6.938   5.727
 8194SOL     OW25480   1.568   0.436   1.133
 8194SOL    HW125481   1.491   0.371   1.130
 8194SOL    HW225482   1.550   0.511   1.070
 8195SOL     OW25483   6.338   0.562   0.899
 8195SOL    HW125484   6.354   0.479   0.952
 8195SOL    HW225485   6.307   0.635   0.961
 8196SOL     OW25486   2.002   0.498   6.834
 8196SOL    HW125487   2.006   0.505   6.734
 8196SOL    HW225488   2.031   0.584   6.875
 8197SOL     OW25489   0.798   6.922   0.700
 8197SOL    HW125490   0.855   6.926   0.782
 8197SOL    HW225491   0.717   6.980   0.712
 8198SOL     OW25492   3.951   6.558   2.822
 8198SOL    HW125493   4.026   6.604   2.774
 8198SOL    HW225494   3.941   6.597   2.914
 8199SOL     OW25495   6.118   4.274   0.720
 8199SOL    HW125496   6.093   4.246   0.628
 8199SOL    HW225497   6.038   4.313   0.766
 8200SOL     OW25498   4.790   3.292   1.364
 8200SOL    HW125499   4.795   3.390   1.383
 8200SOL    HW225500   4.721   3.250   1.423
 8201SOL     OW25501   6.253   1.194   4.638
 8201SOL    HW125502   6.220   1.287   4.647
 8201SOL    HW225503   6.246   1.164   4.543
 8202SOL     OW25504   1.510   4.021   3.893
 8202SOL    HW125505   1.598   3.982   3.864
 8202SOL    HW225506   1.492   4.105   3.842
 8203SOL     OW25507   6.076   3.958   0.795
 8203SOL    HW125508   6.105   3.944   0.890
 8203SOL    HW225509   6.077   4.056   0.774
 8204SOL     OW25510   3.587   0.672   0.263
 8204SOL    HW125511   3.553   0.758   0.224
 8204SOL    HW225512   3.559   0.666   0.359
 8205SOL     OW25513   5.685   5.582   3.125
 8205SOL    HW125514   5.682   5.578   3.025
 8205SOL    HW225515   5.604   5.538   3.163
 8206SOL     OW25516   3.982   2.139   4.460
 8206SOL    HW125517   4.032   2.155   4.375
 8206SOL    HW225518   3.924   2.058   4.450
 8207SOL     OW25519   2.727   6.056   0.118
 8207SOL    HW125520   2.777   6.130   0.162
 8207SOL    HW225521   2.755   6.048   0.022
 8208SOL     OW25522   1.536   5.281   6.275
 8208SOL    HW125523   1.465   5.240   6.333
 8208SOL    HW225524   1.525   5.248   6.181
 8209SOL     OW25525   1.020   6.361   5.460
 8209SOL    HW125526   0.960   6.291   5.499
 8209SOL    HW225527   0.976   6.451   5.467
 8210SOL     OW25528   3.094   1.496   0.275
 8210SOL    HW125529   3.069   1.402   0.297
 8210SOL    HW225530   3.137   1.538   0.355
 8211SOL     OW25531   3.084   3.894   4.460
 8211SOL    HW125532   3.088   3.853   4.552
 8211SOL    HW225533   3.116   3.988   4.465
 8212SOL     OW25534   3.790   6.306   1.035
 8212SOL    HW125535   3.830   6.227   0.989
 8212SOL    HW225536   3.690   6.294   1.041
 8213SOL     OW25537   4.456   4.566   1.852
 8213SOL    HW125538   4.452   4.478   1.899
 8213SOL    HW225539   4.543   4.611   1.871
 8214SOL     OW25540   4.351   5.238   3.823
 8214SOL    HW125541   4.420   5.289   3.771
 8214SOL    HW225542   4.324   5.291   3.903
 8215SOL     OW25543   2.859   6.309   6.756
 8215SOL    HW125544   2.837   6.359   6.672
 8215SOL    HW225545   2.956   6.320   6.777
 8216SOL     OW25546   5.505   4.889   1.600
 8216SOL    HW125547   5.469   4.912   1.690
 8216SOL    HW225548   5.448   4.818   1.558
 8217SOL     OW25549   2.531   6.640   3.685
 8217SOL    HW125550   2.571   6.708   3.623
 8217SOL    HW225551   2.470   6.580   3.634
 8218SOL     OW25552   1.982   5.827   4.857
 8218SOL    HW125553   2.038   5.803   4.777
 8218SOL    HW225554   2.041   5.839   4.937
 8219SOL     OW25555   4.237   3.271   1.865
 8219SOL    HW125556   4.246   3.209   1.787
 8219SOL    HW225557   4.316   3.260   1.925
 8220SOL     OW25558   3.323   3.806   4.658
 8220SOL    HW125559   3.327   3.829   4.755
 8220SOL    HW225560   3.266   3.725   4.645
 8221SOL     OW25561   6.038   4.117   3.178
 8221SOL    HW125562   6.021   4.073   3.090
 8221SOL    HW225563   6.066   4.049   3.245
 8222SOL     OW25564   6.659   3.030   0.240
 8222SOL    HW125565   6.704   3.112   0.277
 8222SOL    HW225566   6.712   2.994   0.164
 8223SOL     OW25567   2.628   6.353   6.211
 8223SOL    HW125568   2.564   6.421   6.174
 8223SOL    HW225569   2.661   6.383   6.300
 8224SOL     OW25570   5.015   1.210   0.025
 8224SOL    HW125571   4.927   1.222   0.072
 8224SOL    HW225572   5.030   1.112   0.008
 8225SOL     OW25573   6.018   2.055   6.594
 8225SOL    HW125574   5.920   2.060   6.614
 8225SOL    HW225575   6.064   2.136   6.629
 8226SOL     OW25576   3.829   0.971   0.095
 8226SOL    HW125577   3.889   0.946   0.170
 8226SOL    HW225578   3.761   0.898   0.082
 8227SOL     OW25579   4.172   2.233   2.715
 8227SOL    HW125580   4.254   2.177   2.705
 8227SOL    HW225581   4.134   2.255   2.625
 8228SOL     OW25582   2.794   7.003   4.464
 8228SOL    HW125583   2.875   7.004   4.405
 8228SOL    HW225584   2.780   6.910   4.499
 8229SOL     OW25585   4.652   4.308   0.879
 8229SOL    HW125586   4.632   4.378   0.947
 8229SOL    HW225587   4.573   4.296   0.819
 8230SOL     OW25588   6.053   6.988   5.835
 8230SOL    HW125589   6.014   0.015   5.911
 8230SOL    HW225590   6.028   0.007   5.749
 8231SOL     OW25591   2.969   1.138   2.539
 8231SOL    HW125592   2.961   1.054   2.486
 8231SOL    HW225593   2.932   1.214   2.487
 8232SOL     OW25594   3.718   5.534   3.277
 8232SOL    HW125595   3.763   5.607   3.328
 8232SOL    HW225596   3.715   5.558   3.180
 8233SOL     OW25597   2.243   0.667   6.464
 8233SOL    HW125598   2.213   0.717   6.545
 8233SOL    HW225599   2.163   0.643   6.408
 8234SOL     OW25600   1.454   2.257   1.002
 8234SOL    HW125601   1.526   2.286   1.064
 8234SOL    HW225602   1.368   2.246   1.052
 8235SOL     OW25603   0.873   0.749   1.492
 8235SOL    HW125604   0.777   0.760   1.467
 8235SOL    HW225605   0.894   0.651   1.499
 8236SOL     OW25606   1.350   0.326   1.982
 8236SOL    HW125607   1.306   0.383   1.912
 8236SOL    HW225608   1.284   0.259   2.016
 8237SOL     OW25609   3.744   4.722   5.858
 8237SOL    HW125610   3.813   4.766   5.915
 8237SOL    HW225611   3.667   4.693   5.915
 8238SOL     OW25612   0.653   5.340   1.002
 8238SOL    HW125613   0.699   5.359   1.089
 8238SOL    HW225614   0.721   5.327   0.930
 8239SOL     OW25615   2.666   1.374   5.902
 8239SOL    HW125616   2.653   1.398   5.805
 8239SOL    HW225617   2.586   1.322   5.933
 8240SOL     OW25618   3.859   3.002   4.441
 8240SOL    HW125619   3.808   2.945   4.504
 8240SOL    HW225620   3.934   3.048   4.490
 8241SOL     OW25621   1.725   3.396   5.831
 8241SOL    HW125622   1.690   3.484   5.865
 8241SOL    HW225623   1.815   3.410   5.789
 8242SOL     OW25624   0.333   3.310   2.394
 8242SOL    HW125625   0.306   3.217   2.421
 8242SOL    HW225626   0.397   3.305   2.318
 8243SOL     OW25627   0.979   6.190   4.014
 8243SOL    HW125628   1.050   6.253   4.046
 8243SOL    HW225629   1.015   6.097   4.014
 8244SOL     OW25630   6.940   1.348   3.448
 8244SOL    HW125631   6.920   1.331   3.351
 8244SOL    HW225632   6.944   1.261   3.497
 8245SOL     OW25633   5.003   2.645   2.731
 8245SOL    HW125634   4.940   2.577   2.695
 8245SOL    HW225635   5.033   2.618   2.823
 8246SOL     OW25636   1.600   5.078   6.872
 8246SOL    HW125637   1.532   5.098   6.943
 8246SOL    HW225638   1.591   4.983   6.844
 8247SOL     OW25639   2.795   5.406   3.243
 8247SOL    HW125640   2.821   5.502   3.233
 8247SOL    HW225641   2.877   5.350   3.253
 8248SOL     OW25642   6.308   5.862   4.173
 8248SOL    HW125643   6.382   5.817   4.122
 8248SOL    HW225644   6.220   5.841   4.130
 8249SOL     OW25645   3.487   1.205   6.778
 8249SOL    HW125646   3.402   1.256   6.770
 8249SOL    HW225647   3.546   1.225   6.699
 8250SOL     OW25648   1.068   2.103   6.632
 8250SOL    HW125649   0.997   2.174   6.632
 8250SOL    HW225650   1.148   2.137   6.582
 8251SOL     OW25651   0.635   2.372   5.134
 8251SOL    HW125652   0.661   2.417   5.048
 8251SOL    HW225653   0.624   2.440   5.206
 8252SOL     OW25654   0.887   2.035   6.893
 8252SOL    HW125655   0.888   2.084   6.806
 8252SOL    HW225656   0.828   1.955   6.887
 8253SOL     OW25657   4.849   5.192   6.558
 8253SOL    HW125658   4.886   5.284   6.574
 8253SOL    HW225659   4.837   5.145   6.645
 8254SOL     OW25660   6.556   5.555   0.288
 8254SOL    HW125661   6.620   5.554   0.211
 8254SOL    HW225662   6.521   5.648   0.302
 8255SOL     OW25663   2.409   0.445   5.418
 8255SOL    HW125664   2.436   0.390   5.339
 8255SOL    HW225665   2.420   0.542   5.395
 8256SOL     OW25666   0.996   5.850   4.461
 8256SOL    HW125667   1.005   5.783   4.535
 8256SOL    HW225668   0.917   5.909   4.480
 8257SOL     OW25669   5.185   3.698   3.294
 8257SOL    HW125670   5.108   3.677   3.354
 8257SOL    HW225671   5.168   3.784   3.246
 8258SOL     OW25672   0.994   2.813   3.411
 8258SOL    HW125673   0.944   2.864   3.341
 8258SOL    HW225674   0.969   2.717   3.407
 8259SOL     OW25675   5.626   2.262   4.448
 8259SOL    HW125676   5.594   2.248   4.541
 8259SOL    HW225677   5.689   2.189   4.423
 8260SOL     OW25678   5.133   3.209   0.953
 8260SOL    HW125679   5.094   3.217   1.044
 8260SOL    HW225680   5.204   3.278   0.940
 8261SOL     OW25681   5.660   1.310   2.633
 8261SOL    HW125682   5.610   1.253   2.567
 8261SOL    HW225683   5.605   1.320   2.716
 8262SOL     OW25684   4.983   3.860   2.260
 8262SOL    HW125685   4.917   3.928   2.292
 8262SOL    HW225686   5.047   3.839   2.334
 8263SOL     OW25687   6.751   1.781   5.901
 8263SOL    HW125688   6.684   1.829   5.958
 8263SOL    HW225689   6.843   1.797   5.936
 8264SOL     OW25690   3.154   0.450   2.512
 8264SOL    HW125691   3.219   0.390   2.466
 8264SOL    HW225692   3.164   0.543   2.477
 8265SOL     OW25693   4.790   5.578   0.418
 8265SOL    HW125694   4.739   5.632   0.484
 8265SOL    HW225695   4.740   5.494   0.398
 8266SOL     OW25696   3.836   0.696   3.970
 8266SOL    HW125697   3.836   0.727   3.875
 8266SOL    HW225698   3.742   0.682   4.001
 8267SOL     OW25699   2.205   3.065   2.951
 8267SOL    HW125700   2.111   3.043   2.922
 8267SOL    HW225701   2.245   3.131   2.888
 8268SOL     OW25702   3.187   4.625   6.754
 8268SOL    HW125703   3.242   4.583   6.683
 8268SOL    HW225704   3.127   4.557   6.795
 8269SOL     OW25705   6.163   2.585   5.224
 8269SOL    HW125706   6.143   2.638   5.307
 8269SOL    HW225707   6.142   2.489   5.240
 8270SOL     OW25708   4.576   5.756   6.778
 8270SOL    HW125709   4.606   5.670   6.821
 8270SOL    HW225710   4.523   5.736   6.696
 8271SOL     OW25711   3.420   6.711   6.083
 8271SOL    HW125712   3.323   6.706   6.061
 8271SOL    HW225713   3.437   6.668   6.172
 8272SOL     OW25714   0.883   0.866   2.378
 8272SOL    HW125715   0.953   0.853   2.448
 8272SOL    HW225716   0.822   0.787   2.376
 8273SOL     OW25717   4.463   0.505   0.068
 8273SOL    HW125718   4.412   0.580   0.026
 8273SOL    HW225719   4.401   0.430   0.091
 8274SOL     OW25720   5.520   6.025   5.466
 8274SOL    HW125721   5.619   6.029   5.474
 8274SOL    HW225722   5.480   5.990   5.550
 8275SOL     OW25723   5.083   0.972   4.650
 8275SOL    HW125724   5.035   1.059   4.658
 8275SOL    HW225725   5.161   0.971   4.713
 8276SOL     OW25726   6.360   1.948   6.538
 8276SOL    HW125727   6.280   1.890   6.556
 8276SOL    HW225728   6.371   2.014   6.613
 8277SOL     OW25729   1.322   6.651   0.814
 8277SOL    HW125730   1.403   6.656   0.873
 8277SOL    HW225731   1.284   6.743   0.803
 8278SOL     OW25732   2.287   1.309   0.990
 8278SOL    HW125733   2.327   1.297   0.899
 8278SOL    HW225734   2.319   1.235   1.050
 8279SOL     OW25735   4.107   6.003   5.391
 8279SOL    HW125736   4.048   5.999   5.310
 8279SOL    HW225737   4.124   6.099   5.415
 8280SOL     OW25738   5.340   3.862   6.773
 8280SOL    HW125739   5.351   3.898   6.866
 8280SOL    HW225740   5.278   3.784   6.775
 8281SOL     OW25741   2.798   5.988   6.492
 8281SOL    HW125742   2.836   5.924   6.425
 8281SOL    HW225743   2.867   6.055   6.517
 8282SOL     OW25744   2.898   3.262   1.708
 8282SOL    HW125745   2.849   3.227   1.628
 8282SOL    HW225746   2.838   3.323   1.760
 8283SOL     OW25747   0.523   0.200   3.723
 8283SOL    HW125748   0.493   0.286   3.684
 8283SOL    HW225749   0.616   0.180   3.695
 8284SOL     OW25750   4.328   1.567   1.492
 8284SOL    HW125751   4.263   1.493   1.477
 8284SOL    HW225752   4.291   1.653   1.457
 8285SOL     OW25753   1.469   3.984   0.220
 8285SOL    HW125754   1.423   3.981   0.131
 8285SOL    HW225755   1.530   4.062   0.223
 8286SOL     OW25756   6.438   2.547   6.230
 8286SOL    HW125757   6.533   2.514   6.230
 8286SOL    HW225758   6.438   2.646   6.243
 8287SOL     OW25759   2.010   1.098   3.860
 8287SOL    HW125760   1.967   1.184   3.832
 8287SOL    HW225761   2.107   1.113   3.875
 8288SOL     OW25762   1.565   0.215   3.052
 8288SOL    HW125763   1.515   0.151   2.994
 8288SOL    HW225764   1.629   0.164   3.110
 8289SOL     OW25765   5.744   0.507   0.019
 8289SOL    HW125766   5.761   0.505   6.946
 8289SOL    HW225767   5.774   0.420   0.060
 8290SOL     OW25768   4.631   2.703   1.929
 8290SOL    HW125769   4.669   2.707   2.021
 8290SOL    HW225770   4.617   2.796   1.895
 8291SOL     OW25771   5.040   5.980   6.212
 8291SOL    HW125772   5.124   6.014   6.171
 8291SOL    HW225773   5.062   5.913   6.283
 8292SOL     OW25774   0.701   2.861   5.555
 8292SOL    HW125775   0.741   2.874   5.464
 8292SOL    HW225776   0.732   2.774   5.593
 8293SOL     OW25777   2.578   5.531   4.316
 8293SOL    HW125778   2.529   5.598   4.260
 8293SOL    HW225779   2.515   5.457   4.341
 8294SOL     OW25780   5.278   4.109   5.662
 8294SOL    HW125781   5.208   4.090   5.730
 8294SOL    HW225782   5.261   4.054   5.580
 8295SOL     OW25783   4.659   4.818   2.567
 8295SOL    HW125784   4.597   4.887   2.528
 8295SOL    HW225785   4.730   4.864   2.621
 8296SOL     OW25786   3.918   6.630   2.435
 8296SOL    HW125787   3.869   6.551   2.472
 8296SOL    HW225788   3.897   6.641   2.338
 8297SOL     OW25789   5.247   4.555   2.360
 8297SOL    HW125790   5.212   4.520   2.274
 8297SOL    HW225791   5.234   4.487   2.432
 8298SOL     OW25792   6.904   6.946   0.726
 8298SOL    HW125793   6.861   0.007   0.755
 8298SOL    HW225794   6.895   6.936   0.628
 8299SOL     OW25795   1.085   3.138   0.038
 8299SOL    HW125796   1.110   3.080   6.985
 8299SOL    HW225797   1.127   3.228   0.027
 8300SOL     OW25798   6.349   5.196   3.872
 8300SOL    HW125799   6.362   5.097   3.878
 8300SOL    HW225800   6.422   5.242   3.923
 8301SOL     OW25801   5.925   5.963   0.377
 8301SOL    HW125802   5.884   6.036   0.431
 8301SOL    HW225803   5.893   5.969   0.282
 8302SOL     OW25804   3.759   6.871   4.912
 8302SOL    HW125805   3.841   6.821   4.884
 8302SOL    HW225806   3.742   6.947   4.848
 8303SOL     OW25807   0.054   5.507   2.950
 8303SOL    HW125808   7.007   5.486   2.883
 8303SOL    HW225809   0.078   5.604   2.945
 8304SOL     OW25810   6.323   3.532   3.642
 8304SOL    HW125811   6.337   3.631   3.637
 8304SOL    HW225812   6.278   3.509   3.729
 8305SOL     OW25813   5.019   7.008   5.779
 8305SOL    HW125814   5.105   0.035   5.776
 8305SOL    HW225815   5.019   6.948   5.859
 8306SOL     OW25816   6.406   1.110   3.727
 8306SOL    HW125817   6.401   1.010   3.721
 8306SOL    HW225818   6.361   1.140   3.811
 8307SOL     OW25819   1.379   3.617   3.460
 8307SOL    HW125820   1.457   3.575   3.413
 8307SOL    HW225821   1.363   3.570   3.547
 8308SOL     OW25822   1.569   5.601   0.948
 8308SOL    HW125823   1.554   5.527   1.014
 8308SOL    HW225824   1.536   5.687   0.985
 8309SOL     OW25825   6.177   5.309   4.503
 8309SOL    HW125826   6.242   5.236   4.527
 8309SOL    HW225827   6.148   5.355   4.587
 8310SOL     OW25828   2.330   0.354   2.561
 8310SOL    HW125829   2.271   0.285   2.519
 8310SOL    HW225830   2.421   0.350   2.519
 8311SOL     OW25831   4.190   5.681   3.335
 8311SOL    HW125832   4.231   5.599   3.296
 8311SOL    HW225833   4.245   5.761   3.311
 8312SOL     OW25834   5.814   1.821   0.487
 8312SOL    HW125835   5.788   1.743   0.430
 8312SOL    HW225836   5.732   1.864   0.524
 8313SOL     OW25837   5.815   2.184   5.874
 8313SOL    HW125838   5.779   2.163   5.783
 8313SOL    HW225839   5.765   2.130   5.942
 8314SOL     OW25840   4.528   6.160   4.342
 8314SOL    HW125841   4.581   6.187   4.261
 8314SOL    HW225842   4.564   6.074   4.377
 8315SOL     OW25843   3.470   3.195   5.066
 8315SOL    HW125844   3.507   3.260   5.000
 8315SOL    HW225845   3.391   3.148   5.027
 8316SOL     OW25846   2.679   1.316   5.337
 8316SOL    HW125847   2.622   1.360   5.267
 8316SOL    HW225848   2.769   1.358   5.338
 8317SOL     OW25849   1.152   2.124   3.780
 8317SOL    HW125850   1.122   2.062   3.852
 8317SOL    HW225851   1.217   2.077   3.720
 8318SOL     OW25852   4.151   6.511   5.884
 8318SOL    HW125853   4.213   6.468   5.818
 8318SOL    HW225854   4.056   6.494   5.856
 8319SOL     OW25855   1.549   5.550   5.898
 8319SOL    HW125856   1.462   5.527   5.854
 8319SOL    HW225857   1.534   5.622   5.966
 8320SOL     OW25858   3.842   3.951   5.501
 8320SOL    HW125859   3.901   4.012   5.555
 8320SOL    HW225860   3.890   3.924   5.418
 8321SOL     OW25861   0.927   0.513   1.071
 8321SOL    HW125862   0.855   0.580   1.090
 8321SOL    HW225863   0.903   0.459   0.990
 8322SOL     OW25864   1.108   0.145   1.228
 8322SOL    HW125865   1.109   0.238   1.264
 8322SOL    HW225866   1.198   0.120   1.194
 8323SOL     OW25867   5.838   4.157   6.990
 8323SOL    HW125868   5.932   4.121   6.989
 8323SOL    HW225869   5.778   4.091   0.010
 8324SOL     OW25870   5.480   6.566   0.164
 8324SOL    HW125871   5.433   6.653   0.149
 8324SOL    HW225872   5.490   6.550   0.262
 8325SOL     OW25873   1.648   6.470   4.810
 8325SOL    HW125874   1.598   6.401   4.863
 8325SOL    HW225875   1.742   6.439   4.795
 8326SOL     OW25876   2.380   2.901   6.681
 8326SOL    HW125877   2.424   2.980   6.638
 8326SOL    HW225878   2.435   2.819   6.665
 8327SOL     OW25879   0.659   6.202   4.813
 8327SOL    HW125880   0.667   6.184   4.715
 8327SOL    HW225881   0.743   6.247   4.845
 8328SOL     OW25882   1.210   6.496   0.493
 8328SOL    HW125883   1.270   6.481   0.571
 8328SOL    HW225884   1.115   6.485   0.522
 8329SOL     OW25885   1.617   2.778   5.119
 8329SOL    HW125886   1.592   2.693   5.166
 8329SOL    HW225887   1.575   2.855   5.167
 8330SOL     OW25888   3.203   6.643   6.689
 8330SOL    HW125889   3.196   6.593   6.775
 8330SOL    HW225890   3.186   6.740   6.706
 8331SOL     OW25891   2.417   2.099   6.860
 8331SOL    HW125892   2.496   2.077   6.804
 8331SOL    HW225893   2.356   2.160   6.809
 8332SOL     OW25894   6.319   4.197   1.398
 8332SOL    HW125895   6.310   4.297   1.392
 8332SOL    HW225896   6.389   4.175   1.466
 8333SOL     OW25897   2.061   4.283   0.082
 8333SOL    HW125898   2.135   4.250   0.024
 8333SOL    HW225899   2.097   4.342   0.154
 8334SOL     OW25900   3.171   2.125   5.323
 8334SOL    HW125901   3.128   2.200   5.272
 8334SOL    HW225902   3.269   2.122   5.303
 8335SOL     OW25903   5.344   4.826   5.733
 8335SOL    HW125904   5.319   4.816   5.637
 8335SOL    HW225905   5.437   4.792   5.748
 8336SOL     OW25906   1.365   3.516   3.715
 8336SOL    HW125907   1.418   3.540   3.796
 8336SOL    HW225908   1.301   3.443   3.738
 8337SOL     OW25909   6.569   0.563   4.302
 8337SOL    HW125910   6.658   0.537   4.265
 8337SOL    HW225911   6.582   0.622   4.382
 8338SOL     OW25912   2.673   5.147   0.988
 8338SOL    HW125913   2.713   5.148   1.079
 8338SOL    HW225914   2.698   5.062   0.941
 8339SOL     OW25915   6.027   0.208   1.619
 8339SOL    HW125916   6.124   0.187   1.624
 8339SOL    HW225917   5.996   0.248   1.705
 8340SOL     OW25918   6.308   2.333   6.300
 8340SOL    HW125919   6.224   2.336   6.245
 8340SOL    HW225920   6.354   2.422   6.296
 8341SOL     OW25921   3.779   1.508   0.689
 8341SOL    HW125922   3.859   1.549   0.732
 8341SOL    HW225923   3.720   1.580   0.654
 8342SOL     OW25924   4.050   0.308   0.469
 8342SOL    HW125925   4.104   0.385   0.435
 8342SOL    HW225926   4.111   0.231   0.491
 8343SOL     OW25927   5.604   4.806   3.216
 8343SOL    HW125928   5.557   4.748   3.150
 8343SOL    HW225929   5.547   4.885   3.238
 8344SOL     OW25930   1.061   4.965   5.934
 8344SOL    HW125931   1.025   4.872   5.930
 8344SOL    HW225932   1.115   4.984   5.852
 8345SOL     OW25933   6.007   0.308   3.841
 8345SOL    HW125934   5.981   0.344   3.930
 8345SOL    HW225935   6.074   0.234   3.852
 8346SOL     OW25936   5.707   3.062   4.222
 8346SOL    HW125937   5.622   3.111   4.239
 8346SOL    HW225938   5.767   3.117   4.164
 8347SOL     OW25939   2.561   1.850   6.227
 8347SOL    HW125940   2.626   1.843   6.303
 8347SOL    HW225941   2.608   1.886   6.146
 8348SOL     OW25942   2.974   6.025   2.049
 8348SOL    HW125943   2.977   6.083   2.131
 8348SOL    HW225944   2.965   6.083   1.968
 8349SOL     OW25945   5.297   6.380   2.157
 8349SOL    HW125946   5.227   6.393   2.227
 8349SOL    HW225947   5.348   6.466   2.145
 8350SOL     OW25948   1.710   1.032   0.115
 8350SOL    HW125949   1.688   0.944   0.072
 8350SOL    HW225950   1.763   1.015   0.198
 8351SOL     OW25951   0.100   2.283   3.087
 8351SOL    HW125952   0.029   2.212   3.088
 8351SOL    HW225953   0.105   2.326   3.176
 8352SOL     OW25954   2.834   5.992   0.564
 8352SOL    HW125955   2.883   6.067   0.520
 8352SOL    HW225956   2.764   5.957   0.502
 8353SOL     OW25957   0.795   5.614   1.646
 8353SOL    HW125958   0.885   5.587   1.613
 8353SOL    HW225959   0.736   5.534   1.654
 8354SOL     OW25960   3.753   1.039   3.194
 8354SOL    HW125961   3.851   1.061   3.192
 8354SOL    HW225962   3.710   1.088   3.269
 8355SOL     OW25963   3.313   5.659   6.457
 8355SOL    HW125964   3.213   5.667   6.463
 8355SOL    HW225965   3.336   5.568   6.421
 8356SOL     OW25966   2.723   4.403   0.973
 8356SOL    HW125967   2.769   4.370   1.055
 8356SOL    HW225968   2.760   4.355   0.893
 8357SOL     OW25969   4.844   6.602   5.517
 8357SOL    HW125970   4.902   6.682   5.532
 8357SOL    HW225971   4.901   6.525   5.487
 8358SOL     OW25972   1.410   0.956   5.749
 8358SOL    HW125973   1.471   0.975   5.672
 8358SOL    HW225974   1.430   0.865   5.785
 8359SOL     OW25975   4.082   1.968   5.860
 8359SOL    HW125976   4.019   2.042   5.836
 8359SOL    HW225977   4.163   1.973   5.802
 8360SOL     OW25978   4.395   0.254   1.043
 8360SOL    HW125979   4.406   0.201   0.959
 8360SOL    HW225980   4.410   0.351   1.024
 8361SOL     OW25981   4.641   1.640   0.007
 8361SOL    HW125982   4.544   1.665   0.007
 8361SOL    HW225983   4.676   1.646   6.939
 8362SOL     OW25984   6.899   4.123   1.415
 8362SOL    HW125985   6.949   4.039   1.395
 8362SOL    HW225986   6.836   4.106   1.491
 8363SOL     OW25987   1.815   2.384   1.376
 8363SOL    HW125988   1.818   2.484   1.386
 8363SOL    HW225989   1.801   2.342   1.466
 8364SOL     OW25990   0.081   2.048   4.356
 8364SOL    HW125991   0.150   2.119   4.366
 8364SOL    HW225992   7.021   2.077   4.401
 8365SOL     OW25993   1.524   2.450   2.044
 8365SOL    HW125994   1.469   2.405   2.114
 8365SOL    HW225995   1.478   2.441   1.955
 8366SOL     OW25996   5.454   4.601   2.064
 8366SOL    HW125997   5.494   4.625   2.152
 8366SOL    HW225998   5.521   4.615   1.991
 8367SOL     OW25999   2.087   4.396   3.890
 8367SOL    HW126000   2.153   4.329   3.922
 8367SOL    HW226001   2.058   4.453   3.967
 8368SOL     OW26002   5.904   5.898   5.654
 8368SOL    HW126003   5.994   5.936   5.630
 8368SOL    HW226004   5.881   5.924   5.747
 8369SOL     OW26005   2.072   6.722   0.222
 8369SOL    HW126006   2.074   6.622   0.226
 8369SOL    HW226007   2.115   6.753   0.137
 8370SOL     OW26008   2.979   3.568   0.670
 8370SOL    HW126009   3.050   3.582   0.738
 8370SOL    HW226010   2.909   3.639   0.679
 8371SOL     OW26011   2.397   3.813   6.027
 8371SOL    HW126012   2.437   3.722   6.023
 8371SOL    HW226013   2.460   3.875   6.074
 8372SOL     OW26014   1.860   6.437   0.796
 8372SOL    HW126015   1.805   6.358   0.767
 8372SOL    HW226016   1.855   6.446   0.896
 8373SOL     OW26017   6.565   1.744   4.247
 8373SOL    HW126018   6.468   1.719   4.251
 8373SOL    HW226019   6.610   1.694   4.173
 8374SOL     OW26020   6.804   0.997   3.949
 8374SOL    HW126021   6.874   0.929   3.925
 8374SOL    HW226022   6.811   1.075   3.887
 8375SOL     OW26023   2.397   1.308   4.993
 8375SOL    HW126024   2.367   1.313   5.088
 8375SOL    HW226025   2.383   1.216   4.958
 8376SOL     OW26026   0.636   2.003   4.062
 8376SOL    HW126027   0.548   2.036   4.096
 8376SOL    HW226028   0.675   1.937   4.126
 8377SOL     OW26029   4.219   5.572   6.768
 8377SOL    HW126030   4.130   5.544   6.804
 8377SOL    HW226031   4.210   5.593   6.670
 8378SOL     OW26032   4.935   6.038   4.869
 8378SOL    HW126033   4.888   5.986   4.797
 8378SOL    HW226034   4.979   5.975   4.932
 8379SOL     OW26035   5.872   1.600   2.038
 8379SOL    HW126036   5.783   1.592   1.993
 8379SOL    HW226037   5.902   1.695   2.036
 8380SOL     OW26038   0.450   6.253   1.146
 8380SOL    HW126039   0.364   6.304   1.148
 8380SOL    HW226040   0.431   6.157   1.123
 8381SOL     OW26041   0.429   1.503   2.765
 8381SOL    HW126042   0.365   1.557   2.819
 8381SOL    HW226043   0.418   1.525   2.668
 8382SOL     OW26044   1.146   0.318   1.490
 8382SOL    HW126045   1.246   0.320   1.494
 8382SOL    HW226046   1.113   0.227   1.513
 8383SOL     OW26047   2.955   6.980   5.937
 8383SOL    HW126048   2.864   7.019   5.931
 8383SOL    HW226049   2.979   6.937   5.850
 8384SOL     OW26050   0.579   3.619   3.020
 8384SOL    HW126051   0.635   3.612   2.937
 8384SOL    HW226052   0.484   3.642   2.994
 8385SOL     OW26053   4.254   2.287   1.426
 8385SOL    HW126054   4.326   2.222   1.400
 8385SOL    HW226055   4.276   2.327   1.514
 8386SOL     OW26056   2.750   5.868   1.739
 8386SOL    HW126057   2.808   5.828   1.667
 8386SOL    HW226058   2.679   5.803   1.764
 8387SOL     OW26059   0.810   1.642   3.618
 8387SOL    HW126060   0.798   1.662   3.715
 8387SOL    HW226061   0.816   1.543   3.605
 8388SOL     OW26062   4.228   5.627   0.842
 8388SOL    HW126063   4.255   5.604   0.748
 8388SOL    HW226064   4.258   5.554   0.904
 8389SOL     OW26065   0.708   2.933   4.253
 8389SOL    HW126066   0.752   3.005   4.307
 8389SOL    HW226067   0.609   2.943   4.259
 8390SOL     OW26068   2.782   0.066   5.546
 8390SOL    HW126069   2.814   7.024   5.479
 8390SOL    HW226070   2.860   0.113   5.587
 8391SOL     OW26071   5.728   5.943   0.936
 8391SOL    HW126072   5.712   5.864   0.876
 8391SOL    HW226073   5.825   5.966   0.935
 8392SOL     OW26074   5.160   6.488   6.431
 8392SOL    HW126075   5.084   6.550   6.414
 8392SOL    HW226076   5.164   6.419   6.359
 8393SOL     OW26077   6.987   5.141   2.696
 8393SOL    HW126078   6.985   5.072   2.768
 8393SOL    HW226079   0.055   5.179   2.690
 8394SOL     OW26080   0.708   1.879   2.835
 8394SOL    HW126081   0.664   1.819   2.768
 8394SOL    HW226082   0.689   1.975   2.812
 8395SOL     OW26083   0.700   6.198   5.414
 8395SOL    HW126084   0.739   6.189   5.322
 8395SOL    HW226085   0.772   6.186   5.482
 8396SOL     OW26086   4.337   2.499   1.091
 8396SOL    HW126087   4.421   2.445   1.105
 8396SOL    HW226088   4.350   2.591   1.128
 8397SOL     OW26089   2.143   5.120   3.828
 8397SOL    HW126090   2.192   5.178   3.893
 8397SOL    HW226091   2.097   5.047   3.878
 8398SOL     OW26092   5.642   1.012   0.065
 8398SOL    HW126093   5.548   1.002   0.032
 8398SOL    HW226094   5.650   1.096   0.118
 8399SOL     OW26095   5.769   6.070   0.164
 8399SOL    HW126096   5.817   6.058   0.078
 8399SOL    HW226097   5.672   6.051   0.151
 8400SOL     OW26098   6.307   0.126   4.746
 8400SOL    HW126099   6.365   0.112   4.826
 8400SOL    HW226100   6.345   0.199   4.689
 8401SOL     OW26101   2.597   4.234   5.884
 8401SOL    HW126102   2.659   4.250   5.808
 8401SOL    HW226103   2.505   4.214   5.848
 8402SOL     OW26104   4.657   1.314   6.201
 8402SOL    HW126105   4.755   1.328   6.186
 8402SOL    HW226106   4.605   1.366   6.133
 8403SOL     OW26107   1.027   2.135   4.514
 8403SOL    HW126108   1.112   2.088   4.490
 8403SOL    HW226109   1.048   2.227   4.547
 8404SOL     OW26110   4.786   5.010   5.311
 8404SOL    HW126111   4.748   5.077   5.375
 8404SOL    HW226112   4.816   5.057   5.228
 8405SOL     OW26113   1.137   2.582   4.875
 8405SOL    HW126114   1.146   2.609   4.779
 8405SOL    HW226115   1.221   2.604   4.923
 8406SOL     OW26116   5.043   3.942   1.343
 8406SOL    HW126117   4.954   3.970   1.307
 8406SOL    HW226118   5.041   3.944   1.443
 8407SOL     OW26119   5.056   3.099   2.500
 8407SOL    HW126120   5.019   3.007   2.486
 8407SOL    HW226121   5.119   3.099   2.578
 8408SOL     OW26122   4.925   3.454   4.113
 8408SOL    HW126123   4.913   3.547   4.078
 8408SOL    HW226124   4.942   3.458   4.212
 8409SOL     OW26125   0.406   1.714   4.087
 8409SOL    HW126126   0.354   1.717   4.001
 8409SOL    HW226127   0.397   1.801   4.135
 8410SOL     OW26128   2.152   6.509   2.518
 8410SOL    HW126129   2.243   6.468   2.518
 8410SOL    HW226130   2.098   6.472   2.442
 8411SOL     OW26131   1.780   2.777   3.270
 8411SOL    HW126132   1.829   2.864   3.272
 8411SOL    HW226133   1.707   2.779   3.338
 8412SOL     OW26134   5.797   3.257   2.221
 8412SOL    HW126135   5.830   3.203   2.144
 8412SOL    HW226136   5.814   3.207   2.306
 8413SOL     OW26137   2.528   4.595   1.449
 8413SOL    HW126138   2.578   4.592   1.535
 8413SOL    HW226139   2.440   4.548   1.461
 8414SOL     OW26140   5.528   6.800   2.536
 8414SOL    HW126141   5.504   6.872   2.601
 8414SOL    HW226142   5.627   6.787   2.536
 8415SOL     OW26143   6.467   3.855   1.661
 8415SOL    HW126144   6.540   3.811   1.713
 8415SOL    HW226145   6.378   3.829   1.699
 8416SOL     OW26146   4.860   4.468   2.479
 8416SOL    HW126147   4.784   4.405   2.484
 8416SOL    HW226148   4.897   4.469   2.386
 8417SOL     OW26149   2.396   5.590   6.350
 8417SOL    HW126150   2.452   5.510   6.328
 8417SOL    HW226151   2.416   5.664   6.285
 8418SOL     OW26152   6.191   5.888   2.511
 8418SOL    HW126153   6.208   5.792   2.491
 8418SOL    HW226154   6.117   5.922   2.454
 8419SOL     OW26155   4.494   0.185   3.822
 8419SOL    HW126156   4.502   0.144   3.913
 8419SOL    HW226157   4.421   0.254   3.824
 8420SOL     OW26158   3.397   2.025   5.534
 8420SOL    HW126159   3.300   2.009   5.553
 8420SOL    HW226160   3.416   2.001   5.439
 8421SOL     OW26161   1.425   6.444   1.420
 8421SOL    HW126162   1.394   6.515   1.357
 8421SOL    HW226163   1.475   6.374   1.369
 8422SOL     OW26164   4.005   6.593   1.495
 8422SOL    HW126165   3.983   6.685   1.460
 8422SOL    HW226166   4.103   6.579   1.490
 8423SOL     OW26167   1.918   3.891   1.466
 8423SOL    HW126168   1.949   3.933   1.381
 8423SOL    HW226169   1.865   3.809   1.446
 8424SOL     OW26170   3.123   2.151   2.347
 8424SOL    HW126171   3.070   2.204   2.413
 8424SOL    HW226172   3.075   2.149   2.259
 8425SOL     OW26173   6.147   4.895   6.993
 8425SOL    HW126174   6.235   4.935   7.018
 8425SOL    HW226175   6.148   4.869   6.897
 8426SOL     OW26176   4.140   3.644   2.191
 8426SOL    HW126177   4.105   3.566   2.244
 8426SOL    HW226178   4.185   3.708   2.253
 8427SOL     OW26179   2.391   2.812   6.325
 8427SOL    HW126180   2.398   2.732   6.265
 8427SOL    HW226181   2.299   2.817   6.363
 8428SOL     OW26182   5.941   4.661   1.687
 8428SOL    HW126183   5.865   4.687   1.628
 8428SOL    HW226184   5.914   4.586   1.747
 8429SOL     OW26185   2.348   0.201   2.873
 8429SOL    HW126186   2.367   0.119   2.821
 8429SOL    HW226187   2.432   0.236   2.913
 8430SOL     OW26188   5.455   4.089   3.077
 8430SOL    HW126189   5.524   4.085   3.150
 8430SOL    HW226190   5.446   3.999   3.034
 8431SOL     OW26191   2.787   3.698   1.472
 8431SOL    HW126192   2.807   3.646   1.555
 8431SOL    HW226193   2.691   3.723   1.471
 8432SOL     OW26194   4.507   6.735   0.398
 8432SOL    HW126195   4.424   6.697   0.356
 8432SOL    HW226196   4.509   6.710   0.494
 8433SOL     OW26197   1.479   1.717   4.425
 8433SOL    HW126198   1.388   1.754   4.404
 8433SOL    HW226199   1.474   1.618   4.434
 8434SOL     OW26200   5.525   6.067   6.591
 8434SOL    HW126201   5.571   6.069   6.502
 8434SOL    HW226202   5.586   6.026   6.659
 8435SOL     OW26203   5.196   2.885   1.324
 8435SOL    HW126204   5.138   2.954   1.367
 8435SOL    HW226205   5.180   2.796   1.366
 8436SOL     OW26206   3.302   4.232   1.668
 8436SOL    HW126207   3.352   4.202   1.749
 8436SOL    HW226208   3.205   4.245   1.690
 8437SOL     OW26209   7.019   1.952   1.231
 8437SOL    HW126210   0.006   2.051   1.222
 8437SOL    HW226211   6.923   1.931   1.251
 8438SOL     OW26212   2.161   6.708   0.931
 8438SOL    HW126213   2.149   6.664   0.842
 8438SOL    HW226214   2.187   6.804   0.918
 8439SOL     OW26215   6.190   6.917   2.097
 8439SOL    HW126216   6.255   6.908   2.021
 8439SOL    HW226217   6.183   6.831   2.146
 8440SOL     OW26218   7.015   2.287   3.690
 8440SOL    HW126219   0.048   2.250   3.616
 8440SOL    HW226220   6.923   2.302   3.656
 8441SOL     OW26221   4.345   5.150   1.454
 8441SOL    HW126222   4.304   5.084   1.390
 8441SOL    HW226223   4.397   5.101   1.523
 8442SOL     OW26224   1.905   3.808   0.187
 8442SOL    HW126225   1.905   3.843   0.280
 8442SOL    HW226226   1.819   3.762   0.168
 8443SOL     OW26227   0.804   1.904   2.256
 8443SOL    HW126228   0.766   1.860   2.337
 8443SOL    HW226229   0.840   1.835   2.194
 8444SOL     OW26230   4.297   0.957   2.452
 8444SOL    HW126231   4.294   0.944   2.551
 8444SOL    HW226232   4.282   0.870   2.406
 8445SOL     OW26233   4.038   5.423   1.903
 8445SOL    HW126234   4.103   5.377   1.963
 8445SOL    HW226235   4.084   5.449   1.818
 8446SOL     OW26236   6.623   4.658   3.813
 8446SOL    HW126237   6.627   4.755   3.786
 8446SOL    HW226238   6.571   4.607   3.744
 8447SOL     OW26239   4.748   3.025   1.294
 8447SOL    HW126240   4.739   2.993   1.200
 8447SOL    HW226241   4.767   3.123   1.294
 8448SOL     OW26242   1.290   2.361   5.860
 8448SOL    HW126243   1.384   2.388   5.837
 8448SOL    HW226244   1.226   2.411   5.802
 8449SOL     OW26245   1.357   1.705   4.931
 8449SOL    HW126246   1.447   1.743   4.913
 8449SOL    HW226247   1.296   1.726   4.854
 8450SOL     OW26248   2.348   5.612   1.905
 8450SOL    HW126249   2.431   5.630   1.852
 8450SOL    HW226250   2.367   5.543   1.974
 8451SOL     OW26251   4.302   3.293   0.743
 8451SOL    HW126252   4.277   3.202   0.778
 8451SOL    HW226253   4.221   3.351   0.742
 8452SOL     OW26254   6.918   5.497   1.090
 8452SOL    HW126255   6.898   5.556   1.012
 8452SOL    HW226256   6.932   5.404   1.059
 8453SOL     OW26257   0.154   4.907   5.297
 8453SOL    HW126258   0.235   4.902   5.356
 8453SOL    HW226259   0.184   4.914   5.201
 8454SOL     OW26260   1.814   6.367   5.052
 8454SOL    HW126261   1.829   6.304   5.129
 8454SOL    HW226262   1.809   6.461   5.086
 8455SOL     OW26263   6.218   2.727   0.665
 8455SOL    HW126264   6.119   2.725   0.679
 8455SOL    HW226265   6.238   2.730   0.567
 8456SOL     OW26266   5.652   5.840   3.279
 8456SOL    HW126267   5.656   5.758   3.222
 8456SOL    HW226268   5.646   5.921   3.220
 8457SOL     OW26269   6.196   6.233   6.625
 8457SOL    HW126270   6.263   6.256   6.555
 8457SOL    HW226271   6.119   6.297   6.621
 8458SOL     OW26272   1.280   1.786   1.300
 8458SOL    HW126273   1.335   1.704   1.292
 8458SOL    HW226274   1.260   1.804   1.396
 8459SOL     OW26275   2.811   5.483   2.405
 8459SOL    HW126276   2.808   5.391   2.366
 8459SOL    HW226277   2.868   5.542   2.347
 8460SOL     OW26278   3.885   1.002   0.561
 8460SOL    HW126279   3.941   1.052   0.627
 8460SOL    HW226280   3.811   0.955   0.609
 8461SOL     OW26281   4.908   4.247   2.796
 8461SOL    HW126282   4.940   4.339   2.818
 8461SOL    HW226283   4.823   4.228   2.845
 8462SOL     OW26284   2.520   4.235   0.623
 8462SOL    HW126285   2.576   4.317   0.615
 8462SOL    HW226286   2.511   4.192   0.533
 8463SOL     OW26287   6.282   0.846   0.186
 8463SOL    HW126288   6.237   0.879   0.103
 8463SOL    HW226289   6.358   0.907   0.210
 8464SOL     OW26290   6.908   4.005   6.065
 8464SOL    HW126291   6.823   4.057   6.071
 8464SOL    HW226292   6.934   3.973   6.156
 8465SOL     OW26293   4.713   3.124   0.920
 8465SOL    HW126294   4.668   3.105   0.832
 8465SOL    HW226295   4.783   3.194   0.907
 8466SOL     OW26296   6.910   1.203   5.825
 8466SOL    HW126297   6.885   1.224   5.919
 8466SOL    HW226298   6.828   1.197   5.769
 8467SOL     OW26299   3.742   1.146   0.358
 8467SOL    HW126300   3.786   1.221   0.309
 8467SOL    HW226301   3.808   1.102   0.419
 8468SOL     OW26302   5.595   3.246   6.870
 8468SOL    HW126303   5.606   3.334   6.916
 8468SOL    HW226304   5.684   3.201   6.861
 8469SOL     OW26305   4.221   3.379   5.499
 8469SOL    HW126306   4.234   3.319   5.420
 8469SOL    HW226307   4.305   3.380   5.554
 8470SOL     OW26308   1.238   5.292   1.547
 8470SOL    HW126309   1.215   5.197   1.569
 8470SOL    HW226310   1.305   5.326   1.613
 8471SOL     OW26311   3.609   1.859   4.284
 8471SOL    HW126312   3.702   1.838   4.312
 8471SOL    HW226313   3.552   1.874   4.365
 8472SOL     OW26314   6.460   1.593   6.305
 8472SOL    HW126315   6.443   1.690   6.323
 8472SOL    HW226316   6.548   1.584   6.257
 8473SOL     OW26317   5.205   4.379   0.261
 8473SOL    HW126318   5.213   4.395   0.163
 8473SOL    HW226319   5.114   4.406   0.292
 8474SOL     OW26320   3.941   3.871   3.915
 8474SOL    HW126321   3.859   3.885   3.859
 8474SOL    HW226322   3.926   3.912   4.005
 8475SOL     OW26323   6.509   2.792   3.055
 8475SOL    HW126324   6.556   2.849   3.123
 8475SOL    HW226325   6.576   2.759   2.988
 8476SOL     OW26326   6.106   1.231   1.444
 8476SOL    HW126327   6.169   1.215   1.521
 8476SOL    HW226328   6.080   1.143   1.404
 8477SOL     OW26329   5.728   6.886   1.691
 8477SOL    HW126330   5.777   6.958   1.641
 8477SOL    HW226331   5.683   6.927   1.770
 8478SOL     OW26332   0.104   0.203   5.579
 8478SOL    HW126333   0.070   0.114   5.608
 8478SOL    HW226334   0.029   0.269   5.578
 8479SOL     OW26335   1.024   2.846   0.519
 8479SOL    HW126336   1.077   2.921   0.481
 8479SOL    HW226337   0.981   2.794   0.445
 8480SOL     OW26338   4.409   3.575   0.332
 8480SOL    HW126339   4.354   3.552   0.412
 8480SOL    HW226340   4.385   3.514   0.257
 8481SOL     OW26341   4.677   2.203   3.220
 8481SOL    HW126342   4.724   2.152   3.148
 8481SOL    HW226343   4.617   2.272   3.180
 8482SOL     OW26344   4.952   0.878   0.656
 8482SOL    HW126345   4.865   0.850   0.696
 8482SOL    HW226346   5.025   0.817   0.688
 8483SOL     OW26347   3.501   4.980   2.893
 8483SOL    HW126348   3.460   4.969   2.802
 8483SOL    HW226349   3.461   5.059   2.938
 8484SOL     OW26350   5.057   5.851   5.026
 8484SOL    HW126351   5.039   5.782   4.957
 8484SOL    HW226352   5.133   5.909   4.996
 8485SOL     OW26353   3.698   2.018   0.168
 8485SOL    HW126354   3.658   1.935   0.130
 8485SOL    HW226355   3.692   2.091   0.100
 8486SOL     OW26356   6.230   2.372   3.598
 8486SOL    HW126357   6.260   2.408   3.687
 8486SOL    HW226358   6.310   2.361   3.539
 8487SOL     OW26359   6.745   1.613   6.614
 8487SOL    HW126360   6.776   1.666   6.692
 8487SOL    HW226361   6.646   1.600   6.619
 8488SOL     OW26362   4.742   5.635   2.053
 8488SOL    HW126363   4.769   5.632   1.957
 8488SOL    HW226364   4.748   5.729   2.087
 8489SOL     OW26365   6.102   1.972   1.714
 8489SOL    HW126366   6.004   1.952   1.709
 8489SOL    HW226367   6.122   2.018   1.800
 8490SOL     OW26368   3.188   0.331   6.501
 8490SOL    HW126369   3.229   0.311   6.412
 8490SOL    HW226370   3.134   0.415   6.494
 8491SOL     OW26371   3.052   5.822   1.854
 8491SOL    HW126372   3.081   5.897   1.794
 8491SOL    HW226373   2.992   5.859   1.925
 8492SOL     OW26374   6.418   6.489   4.738
 8492SOL    HW126375   6.456   6.580   4.725
 8492SOL    HW226376   6.328   6.496   4.780
 8493SOL     OW26377   5.118   1.510   6.653
 8493SOL    HW126378   5.033   1.541   6.611
 8493SOL    HW226379   5.148   1.425   6.610
 8494SOL     OW26380   6.372   4.160   2.430
 8494SOL    HW126381   6.441   4.116   2.487
 8494SOL    HW226382   6.418   4.211   2.357
 8495SOL     OW26383   6.218   5.239   5.981
 8495SOL    HW126384   6.245   5.143   5.973
 8495SOL    HW226385   6.278   5.296   5.925
 8496SOL     OW26386   5.128   2.778   2.240
 8496SOL    HW126387   5.104   2.796   2.336
 8496SOL    HW226388   5.169   2.860   2.201
 8497SOL     OW26389   6.377   0.583   3.310
 8497SOL    HW126390   6.404   0.574   3.214
 8497SOL    HW226391   6.412   0.670   3.346
 8498SOL     OW26392   4.903   0.314   4.058
 8498SOL    HW126393   4.885   0.401   4.013
 8498SOL    HW226394   4.817   0.273   4.088
 8499SOL     OW26395   5.729   6.657   4.930
 8499SOL    HW126396   5.657   6.688   4.991
 8499SOL    HW226397   5.713   6.694   4.838
 8500SOL     OW26398   1.347   0.960   6.199
 8500SOL    HW126399   1.341   1.049   6.245
 8500SOL    HW226400   1.256   0.929   6.173
 8501SOL     OW26401   2.201   1.107   6.698
 8501SOL    HW126402   2.191   1.170   6.775
 8501SOL    HW226403   2.262   1.147   6.630
 8502SOL     OW26404   0.359   4.026   6.545
 8502SOL    HW126405   0.316   4.112   6.518
 8502SOL    HW226406   0.291   3.954   6.548
 8503SOL     OW26407   4.799   1.396   5.083
 8503SOL    HW126408   4.759   1.422   5.171
 8503SOL    HW226409   4.737   1.334   5.035
 8504SOL     OW26410   1.375   0.350   2.364
 8504SOL    HW126411   1.419   0.260   2.363
 8504SOL    HW226412   1.445   0.421   2.372
 8505SOL     OW26413   5.597   3.281   2.438
 8505SOL    HW126414   5.556   3.369   2.412
 8505SOL    HW226415   5.622   3.230   2.356
 8506SOL     OW26416   1.821   0.641   6.094
 8506SOL    HW126417   1.778   0.708   6.154
 8506SOL    HW226418   1.911   0.674   6.066
 8507SOL     OW26419   3.021   6.027   5.313
 8507SOL    HW126420   2.946   6.092   5.304
 8507SOL    HW226421   3.090   6.064   5.375
 8508SOL     OW26422   3.054   1.365   7.009
 8508SOL    HW126423   3.141   1.414   7.019
 8508SOL    HW226424   2.979   1.431   6.999
 8509SOL     OW26425   5.759   2.337   3.085
 8509SOL    HW126426   5.764   2.436   3.068
 8509SOL    HW226427   5.778   2.288   3.001
 8510SOL     OW26428   0.179   2.206   4.707
 8510SOL    HW126429   0.205   2.215   4.611
 8510SOL    HW226430   0.153   2.111   4.725
 8511SOL     OW26431   5.581   1.947   2.780
 8511SOL    HW126432   5.627   1.969   2.694
 8511SOL    HW226433   5.498   1.894   2.760
 8512SOL     OW26434   2.144   6.553   5.823
 8512SOL    HW126435   2.074   6.617   5.790
 8512SOL    HW226436   2.100   6.471   5.859
 8513SOL     OW26437   5.042   6.184   7.015
 8513SOL    HW126438   5.108   6.140   0.051
 8513SOL    HW226439   4.949   6.165   0.022
 8514SOL     OW26440   3.182   6.457   3.824
 8514SOL    HW126441   3.135   6.401   3.756
 8514SOL    HW226442   3.203   6.546   3.785
 8515SOL     OW26443   5.640   2.086   0.912
 8515SOL    HW126444   5.579   2.141   0.856
 8515SOL    HW226445   5.647   2.126   1.004
 8516SOL     OW26446   6.871   1.923   2.178
 8516SOL    HW126447   6.872   1.857   2.103
 8516SOL    HW226448   6.844   2.013   2.144
 8517SOL     OW26449   1.380   3.804   0.413
 8517SOL    HW126450   1.377   3.711   0.375
 8517SOL    HW226451   1.415   3.867   0.344
 8518SOL     OW26452   3.017   6.123   0.421
 8518SOL    HW126453   3.090   6.056   0.431
 8518SOL    HW226454   3.047   6.211   0.459
 8519SOL     OW26455   2.452   5.897   3.266
 8519SOL    HW126456   2.419   5.970   3.326
 8519SOL    HW226457   2.429   5.808   3.307
 8520SOL     OW26458   3.403   0.337   6.669
 8520SOL    HW126459   3.480   0.387   6.629
 8520SOL    HW226460   3.323   0.345   6.609
 8521SOL     OW26461   1.307   0.370   1.121
 8521SOL    HW126462   1.251   0.450   1.142
 8521SOL    HW226463   1.287   0.338   1.029
 8522SOL     OW26464   2.213   6.092   4.696
 8522SOL    HW126465   2.247   6.105   4.789
 8522SOL    HW226466   2.272   6.142   4.632
 8523SOL     OW26467   1.257   6.716   0.050
 8523SOL    HW126468   1.266   6.635   0.109
 8523SOL    HW226469   1.267   6.799   0.106
 8524SOL     OW26470   1.719   1.766   6.531
 8524SOL    HW126471   1.671   1.827   6.594
 8524SOL    HW226472   1.669   1.761   6.444
 8525SOL     OW26473   5.268   3.255   3.374
 8525SOL    HW126474   5.328   3.311   3.317
 8525SOL    HW226475   5.322   3.209   3.444
 8526SOL     OW26476   1.571   3.282   2.868
 8526SOL    HW126477   1.637   3.260   2.940
 8526SOL    HW226478   1.597   3.368   2.824
 8527SOL     OW26479   4.112   0.591   3.929
 8527SOL    HW126480   4.014   0.601   3.942
 8527SOL    HW226481   4.161   0.650   3.993
 8528SOL     OW26482   5.061   2.340   0.156
 8528SOL    HW126483   4.980   2.289   0.184
 8528SOL    HW226484   5.043   2.438   0.160
 8529SOL     OW26485   6.870   5.303   6.623
 8529SOL    HW126486   6.882   5.213   6.664
 8529SOL    HW226487   6.956   5.333   6.581
 8530SOL     OW26488   1.603   4.152   5.929
 8530SOL    HW126489   1.692   4.181   5.965
 8530SOL    HW226490   1.615   4.075   5.867
 8531SOL     OW26491   3.963   5.007   2.180
 8531SOL    HW126492   3.865   5.012   2.163
 8531SOL    HW226493   3.982   5.028   2.276
 8532SOL     OW26494   1.339   4.129   6.791
 8532SOL    HW126495   1.377   4.152   6.702
 8532SOL    HW226496   1.334   4.212   6.847
 8533SOL     OW26497   3.851   6.949   6.098
 8533SOL    HW126498   3.854   6.963   6.197
 8533SOL    HW226499   3.930   6.993   6.055
 8534SOL     OW26500   1.424   2.640   2.508
 8534SOL    HW126501   1.486   2.573   2.547
 8534SOL    HW226502   1.446   2.654   2.411
 8535SOL     OW26503   6.597   3.150   5.200
 8535SOL    HW126504   6.682   3.140   5.148
 8535SOL    HW226505   6.586   3.072   5.261
 8536SOL     OW26506   6.973   1.340   4.684
 8536SOL    HW126507   0.005   1.258   4.671
 8536SOL    HW226508   6.883   1.313   4.719
 8537SOL     OW26509   5.358   6.709   2.824
 8537SOL    HW126510   5.281   6.676   2.768
 8537SOL    HW226511   5.444   6.679   2.782
 8538SOL     OW26512   5.719   0.757   5.542
 8538SOL    HW126513   5.657   0.752   5.464
 8538SOL    HW226514   5.811   0.729   5.514
 8539SOL     OW26515   0.049   2.989   3.292
 8539SOL    HW126516   0.047   2.949   3.384
 8539SOL    HW226517   0.057   3.089   3.300
 8540SOL     OW26518   3.990   6.937   6.554
 8540SOL    HW126519   3.899   6.899   6.564
 8540SOL    HW226520   3.993   0.004   6.594
 8541SOL     OW26521   3.310   6.177   4.988
 8541SOL    HW126522   3.239   6.217   4.931
 8541SOL    HW226523   3.279   6.090   5.025
 8542SOL     OW26524   0.888   5.277   5.768
 8542SOL    HW126525   0.856   5.353   5.710
 8542SOL    HW226526   0.862   5.190   5.726
 8543SOL     OW26527   2.532   2.625   5.598
 8543SOL    HW126528   2.594   2.547   5.609
 8543SOL    HW226529   2.569   2.686   5.528
 8544SOL     OW26530   5.048   5.156   5.160
 8544SOL    HW126531   5.134   5.129   5.205
 8544SOL    HW226532   4.979   5.175   5.229
 8545SOL     OW26533   2.175   6.743   6.587
 8545SOL    HW126534   2.077   6.735   6.606
 8545SOL    HW226535   2.188   6.789   6.499
 8546SOL     OW26536   4.595   0.987   2.967
 8546SOL    HW126537   4.543   1.064   2.929
 8546SOL    HW226538   4.653   1.020   3.042
 8547SOL     OW26539   5.616   6.385   5.948
 8547SOL    HW126540   5.633   6.475   5.909
 8547SOL    HW226541   5.700   6.351   5.991
 8548SOL     OW26542   0.982   3.619   4.766
 8548SOL    HW126543   0.962   3.641   4.671
 8548SOL    HW226544   1.029   3.696   4.809
 8549SOL     OW26545   1.134   0.194   4.045
 8549SOL    HW126546   1.090   0.155   3.963
 8549SOL    HW226547   1.078   0.270   4.079
 8550SOL     OW26548   6.970   5.179   5.930
 8550SOL    HW126549   6.876   5.147   5.937
 8550SOL    HW226550   7.022   5.147   6.009
 8551SOL     OW26551   2.926   0.185   5.120
 8551SOL    HW126552   2.944   0.126   5.042
 8551SOL    HW226553   2.862   0.140   5.182
 8552SOL     OW26554   2.893   1.438   1.820
 8552SOL    HW126555   2.925   1.475   1.732
 8552SOL    HW226556   2.967   1.445   1.887
 8553SOL     OW26557   4.956   3.946   0.390
 8553SOL    HW126558   5.053   3.937   0.410
 8553SOL    HW226559   4.903   3.890   0.453
 8554SOL     OW26560   1.921   0.695   0.260
 8554SOL    HW126561   1.830   0.736   0.267
 8554SOL    HW226562   1.912   0.598   0.235
 8555SOL     OW26563   4.220   1.853   4.098
 8555SOL    HW126564   4.166   1.888   4.021
 8555SOL    HW226565   4.161   1.843   4.178
 8556SOL     OW26566   0.606   5.491   5.974
 8556SOL    HW126567   0.624   5.393   5.964
 8556SOL    HW226568   0.677   5.542   5.926
 8557SOL     OW26569   6.982   0.646   6.661
 8557SOL    HW126570   0.003   0.561   6.636
 8557SOL    HW226571   6.884   0.630   6.668
 8558SOL     OW26572   2.988   5.817   4.329
 8558SOL    HW126573   3.003   5.730   4.377
 8558SOL    HW226574   2.890   5.838   4.330
 8559SOL     OW26575   1.723   4.278   2.775
 8559SOL    HW126576   1.637   4.327   2.760
 8559SOL    HW226577   1.776   4.326   2.845
 8560SOL     OW26578   2.968   4.026   0.686
 8560SOL    HW126579   3.035   3.966   0.642
 8560SOL    HW226580   2.933   3.983   0.768
 8561SOL     OW26581   3.622   0.693   2.699
 8561SOL    HW126582   3.587   0.613   2.651
 8561SOL    HW226583   3.607   0.683   2.797
 8562SOL     OW26584   5.272   2.556   6.929
 8562SOL    HW126585   5.310   2.593   7.013
 8562SOL    HW226586   5.189   2.606   6.905
 8563SOL     OW26587   3.103   5.136   2.437
 8563SOL    HW126588   3.154   5.059   2.399
 8563SOL    HW226589   3.155   5.220   2.424
 8564SOL     OW26590   4.218   6.778   0.290
 8564SOL    HW126591   4.181   6.869   0.307
 8564SOL    HW226592   4.205   6.721   0.372
 8565SOL     OW26593   1.270   4.568   1.656
 8565SOL    HW126594   1.207   4.492   1.670
 8565SOL    HW226595   1.268   4.628   1.737
 8566SOL     OW26596   3.332   0.983   2.461
 8566SOL    HW126597   3.380   0.966   2.375
 8566SOL    HW226598   3.275   1.064   2.452
 8567SOL     OW26599   1.445   2.409   2.303
 8567SOL    HW126600   1.536   2.371   2.322
 8567SOL    HW226601   1.455   2.500   2.264
 8568SOL     OW26602   6.336   0.690   6.373
 8568SOL    HW126603   6.410   0.730   6.319
 8568SOL    HW226604   6.255   0.748   6.367
 8569SOL     OW26605   4.811   2.162   0.274
 8569SOL    HW126606   4.859   2.218   0.342
 8569SOL    HW226607   4.835   2.066   0.287
 8570SOL     OW26608   2.405   2.131   1.828
 8570SOL    HW126609   2.395   2.107   1.731
 8570SOL    HW226610   2.485   2.189   1.840
 8571SOL     OW26611   1.820   0.823   3.002
 8571SOL    HW126612   1.725   0.808   2.977
 8571SOL    HW226613   1.861   0.736   3.032
 8572SOL     OW26614   2.603   3.783   5.657
 8572SOL    HW126615   2.673   3.813   5.591
 8572SOL    HW226616   2.636   3.799   5.750
 8573SOL     OW26617   2.795   5.971   6.870
 8573SOL    HW126618   2.883   6.002   6.834
 8573SOL    HW226619   2.724   5.988   6.802
 8574SOL     OW26620   5.026   0.870   5.476
 8574SOL    HW126621   5.018   0.962   5.437
 8574SOL    HW226622   4.956   0.811   5.437
 8575SOL     OW26623   3.530   6.161   3.821
 8575SOL    HW126624   3.619   6.206   3.831
 8575SOL    HW226625   3.457   6.224   3.847
 8576SOL     OW26626   1.634   4.636   4.119
 8576SOL    HW126627   1.679   4.559   4.074
 8576SOL    HW226628   1.667   4.643   4.213
 8577SOL     OW26629   1.867   1.232   0.656
 8577SOL    HW126630   1.967   1.223   0.649
 8577SOL    HW226631   1.843   1.328   0.664
 8578SOL     OW26632   1.066   0.240   6.798
 8578SOL    HW126633   1.141   0.265   6.736
 8578SOL    HW226634   1.011   0.321   6.818
 8579SOL     OW26635   2.485   7.004   2.758
 8579SOL    HW126636   2.511   6.971   2.667
 8579SOL    HW226637   2.563   0.026   2.800
 8580SOL     OW26638   1.815   0.095   1.973
 8580SOL    HW126639   1.829   0.076   1.876
 8580SOL    HW226640   1.858   0.182   1.997
 8581SOL     OW26641   3.400   4.531   1.087
 8581SOL    HW126642   3.444   4.595   1.151
 8581SOL    HW226643   3.306   4.515   1.116
 8582SOL     OW26644   3.649   5.523   5.532
 8582SOL    HW126645   3.638   5.488   5.439
 8582SOL    HW226646   3.731   5.580   5.536
 8583SOL     OW26647   3.612   6.816   2.913
 8583SOL    HW126648   3.527   6.791   2.867
 8583SOL    HW226649   3.650   6.898   2.871
 8584SOL     OW26650   6.252   1.474   4.551
 8584SOL    HW126651   6.348   1.456   4.574
 8584SOL    HW226652   6.248   1.534   4.471
 8585SOL     OW26653   5.710   2.811   2.657
 8585SOL    HW126654   5.798   2.811   2.610
 8585SOL    HW226655   5.670   2.903   2.654
 8586SOL     OW26656   6.904   6.088   6.598
 8586SOL    HW126657   6.852   6.022   6.544
 8586SOL    HW226658   6.868   6.090   6.691
 8587SOL     OW26659   0.252   2.420   0.294
 8587SOL    HW126660   0.222   2.423   0.199
 8587SOL    HW226661   0.331   2.360   0.302
 8588SOL     OW26662   2.710   0.439   5.550
 8588SOL    HW126663   2.806   0.453   5.574
 8588SOL    HW226664   2.696   0.462   5.453
 8589SOL     OW26665   5.932   2.917   0.209
 8589SOL    HW126666   5.907   2.883   0.118
 8589SOL    HW226667   5.914   2.847   0.277
 8590SOL     OW26668   0.379   1.003   4.261
 8590SOL    HW126669   0.457   1.050   4.218
 8590SOL    HW226670   0.344   0.934   4.199
 8591SOL     OW26671   6.658   4.541   6.261
 8591SOL    HW126672   6.644   4.619   6.322
 8591SOL    HW226673   6.569   4.510   6.226
 8592SOL     OW26674   0.323   1.917   4.277
 8592SOL    HW126675   0.230   1.953   4.287
 8592SOL    HW226676   0.385   1.992   4.251
 8593SOL     OW26677   5.630   1.448   6.971
 8593SOL    HW126678   5.645   1.393   0.028
 8593SOL    HW226679   5.563   1.403   6.912
 8594SOL     OW26680   6.049   3.605   6.639
 8594SOL    HW126681   6.015   3.535   6.701
 8594SOL    HW226682   6.119   3.660   6.685
 8595SOL     OW26683   5.712   6.650   3.036
 8595SOL    HW126684   5.707   6.747   3.014
 8595SOL    HW226685   5.653   6.630   3.114
 8596SOL     OW26686   0.511   1.449   4.093
 8596SOL    HW126687   0.570   1.432   4.171
 8596SOL    HW226688   0.469   1.540   4.103
 8597SOL     OW26689   6.121   2.938   5.909
 8597SOL    HW126690   6.131   2.852   5.959
 8597SOL    HW226691   6.201   2.953   5.852
 8598SOL     OW26692   6.196   0.399   5.286
 8598SOL    HW126693   6.202   0.418   5.188
 8598SOL    HW226694   6.101   0.405   5.315
 8599SOL     OW26695   6.923   3.676   4.335
 8599SOL    HW126696   6.966   3.765   4.344
 8599SOL    HW226697   6.958   3.630   4.253
 8600SOL     OW26698   4.751   2.493   0.633
 8600SOL    HW126699   4.822   2.530   0.693
 8600SOL    HW226700   4.665   2.487   0.683
 8601SOL     OW26701   6.298   6.078   3.366
 8601SOL    HW126702   6.317   6.027   3.282
 8601SOL    HW226703   6.295   6.175   3.345
 8602SOL     OW26704   1.982   6.634   6.128
 8602SOL    HW126705   2.075   6.644   6.094
 8602SOL    HW226706   1.953   6.539   6.121
 8603SOL     OW26707   0.943   0.684   6.992
 8603SOL    HW126708   0.876   0.746   6.952
 8603SOL    HW226709   0.928   0.592   6.956
 8604SOL     OW26710   1.371   4.791   5.846
 8604SOL    HW126711   1.364   4.865   5.779
 8604SOL    HW226712   1.350   4.703   5.801
 8605SOL     OW26713   0.430   4.711   4.402
 8605SOL    HW126714   0.411   4.720   4.305
 8605SOL    HW226715   0.355   4.661   4.446
 8606SOL     OW26716   1.561   2.296   0.578
 8606SOL    HW126717   1.611   2.354   0.514
 8606SOL    HW226718   1.548   2.205   0.537
 8607SOL     OW26719   1.660   3.783   1.538
 8607SOL    HW126720   1.668   3.731   1.623
 8607SOL    HW226721   1.660   3.719   1.460
 8608SOL     OW26722   1.579   6.221   2.792
 8608SOL    HW126723   1.496   6.166   2.789
 8608SOL    HW226724   1.561   6.308   2.839
 8609SOL     OW26725   3.813   1.780   4.644
 8609SOL    HW126726   3.774   1.858   4.693
 8609SOL    HW226727   3.906   1.765   4.675
 8610SOL     OW26728   0.100   5.759   2.980
 8610SOL    HW126729   0.178   5.801   3.027
 8610SOL    HW226730   0.052   5.830   2.927
 8611SOL     OW26731   2.649   1.273   4.791
 8611SOL    HW126732   2.655   1.358   4.737
 8611SOL    HW226733   2.553   1.255   4.812
 8612SOL     OW26734   3.234   2.955   4.054
 8612SOL    HW126735   3.239   2.885   3.983
 8612SOL    HW226736   3.326   2.976   4.087
 8613SOL     OW26737   3.946   2.992   2.759
 8613SOL    HW126738   3.957   3.090   2.774
 8613SOL    HW226739   4.014   2.960   2.693
 8614SOL     OW26740   1.164   2.418   3.295
 8614SOL    HW126741   1.110   2.357   3.353
 8614SOL    HW226742   1.241   2.454   3.348
 8615SOL     OW26743   3.410   1.720   4.929
 8615SOL    HW126744   3.398   1.680   4.838
 8615SOL    HW226745   3.433   1.817   4.920
 8616SOL     OW26746   5.629   4.553   3.617
 8616SOL    HW126747   5.605   4.457   3.599
 8616SOL    HW226748   5.716   4.556   3.665
 8617SOL     OW26749   2.278   0.422   3.530
 8617SOL    HW126750   2.245   0.494   3.590
 8617SOL    HW226751   2.225   0.423   3.444
 8618SOL     OW26752   5.502   4.047   1.354
 8618SOL    HW126753   5.594   4.073   1.324
 8618SOL    HW226754   5.468   4.114   1.420
 8619SOL     OW26755   5.231   5.429   0.393
 8619SOL    HW126756   5.278   5.442   0.306
 8619SOL    HW226757   5.163   5.357   0.384
 8620SOL     OW26758   2.055   0.120   4.092
 8620SOL    HW126759   1.983   0.151   4.154
 8620SOL    HW226760   2.116   0.058   4.141
 8621SOL     OW26761   5.212   3.705   1.500
 8621SOL    HW126762   5.230   3.778   1.434
 8621SOL    HW226763   5.188   3.746   1.588
 8622SOL     OW26764   0.207   5.200   2.397
 8622SOL    HW126765   0.207   5.213   2.496
 8622SOL    HW226766   0.130   5.250   2.357
 8623SOL     OW26767   1.500   3.078   3.591
 8623SOL    HW126768   1.531   3.173   3.592
 8623SOL    HW226769   1.402   3.075   3.574
 8624SOL     OW26770   3.636   3.873   4.816
 8624SOL    HW126771   3.584   3.958   4.812
 8624SOL    HW226772   3.635   3.836   4.909
 8625SOL     OW26773   3.450   2.820   5.111
 8625SOL    HW126774   3.526   2.801   5.049
 8625SOL    HW226775   3.422   2.736   5.157
 8626SOL     OW26776   3.846   2.495   1.212
 8626SOL    HW126777   3.933   2.449   1.223
 8626SOL    HW226778   3.793   2.488   1.296
 8627SOL     OW26779   2.002   1.418   2.452
 8627SOL    HW126780   1.929   1.394   2.387
 8627SOL    HW226781   2.082   1.450   2.401
 8628SOL     OW26782   0.909   6.445   0.515
 8628SOL    HW126783   0.906   6.351   0.479
 8628SOL    HW226784   0.844   6.502   0.465
 8629SOL     OW26785   0.339   6.529   4.881
 8629SOL    HW126786   0.339   6.571   4.972
 8629SOL    HW226787   0.308   6.434   4.888
 8630SOL     OW26788   4.723   2.737   2.190
 8630SOL    HW126789   4.709   2.764   2.285
 8630SOL    HW226790   4.699   2.813   2.130
 8631SOL     OW26791   2.585   6.194   6.483
 8631SOL    HW126792   2.658   6.126   6.482
 8631SOL    HW226793   2.567   6.222   6.577
 8632SOL     OW26794   5.415   5.551   4.496
 8632SOL    HW126795   5.473   5.501   4.432
 8632SOL    HW226796   5.467   5.627   4.535
 8633SOL     OW26797   6.057   3.863   5.299
 8633SOL    HW126798   6.027   3.823   5.213
 8633SOL    HW226799   5.978   3.894   5.351
 8634SOL     OW26800   5.065   3.967   0.020
 8634SOL    HW126801   5.032   3.884   0.064
 8634SOL    HW226802   5.039   4.046   0.076
 8635SOL     OW26803   5.983   2.633   6.804
 8635SOL    HW126804   6.046   2.658   6.730
 8635SOL    HW226805   5.944   2.543   6.785
 8636SOL     OW26806   4.701   6.543   1.659
 8636SOL    HW126807   4.601   6.537   1.659
 8636SOL    HW226808   4.729   6.638   1.648
 8637SOL     OW26809   2.107   1.788   5.947
 8637SOL    HW126810   2.115   1.712   6.011
 8637SOL    HW226811   2.011   1.807   5.928
 8638SOL     OW26812   4.677   2.799   3.412
 8638SOL    HW126813   4.679   2.722   3.350
 8638SOL    HW226814   4.730   2.875   3.374
 8639SOL     OW26815   3.913   3.839   6.911
 8639SOL    HW126816   3.968   3.826   6.993
 8639SOL    HW226817   3.970   3.830   6.829
 8640SOL     OW26818   3.247   3.280   0.784
 8640SOL    HW126819   3.200   3.333   0.855
 8640SOL    HW226820   3.329   3.237   0.823
 8641SOL     OW26821   4.085   4.957   2.467
 8641SOL    HW126822   4.022   5.017   2.516
 8641SOL    HW226823   4.104   4.876   2.523
 8642SOL     OW26824   1.138   5.823   2.900
 8642SOL    HW126825   1.052   5.861   2.867
 8642SOL    HW226826   1.209   5.893   2.894
 8643SOL     OW26827   3.954   6.956   1.058
 8643SOL    HW126828   4.019   7.023   1.092
 8643SOL    HW226829   3.953   6.959   0.958
 8644SOL     OW26830   6.007   2.412   6.190
 8644SOL    HW126831   5.953   2.432   6.109
 8644SOL    HW226832   5.958   2.347   6.248
 8645SOL     OW26833   5.601   5.379   2.879
 8645SOL    HW126834   5.592   5.455   2.815
 8645SOL    HW226835   5.696   5.350   2.884
 8646SOL     OW26836   6.444   2.346   4.953
 8646SOL    HW126837   6.540   2.374   4.952
 8646SOL    HW226838   6.386   2.424   4.931
 8647SOL     OW26839   2.144   6.085   1.622
 8647SOL    HW126840   2.073   6.059   1.556
 8647SOL    HW226841   2.226   6.029   1.606
 8648SOL     OW26842   5.012   4.908   0.523
 8648SOL    HW126843   5.000   4.933   0.427
 8648SOL    HW226844   4.991   4.810   0.534
 8649SOL     OW26845   5.672   0.986   1.670
 8649SOL    HW126846   5.722   0.934   1.601
 8649SOL    HW226847   5.712   0.968   1.760
 8650SOL     OW26848   2.236   6.601   5.443
 8650SOL    HW126849   2.190   6.580   5.530
 8650SOL    HW226850   2.332   6.622   5.461
 8651SOL     OW26851   4.134   2.643   1.428
 8651SOL    HW126852   4.055   2.639   1.489
 8651SOL    HW226853   4.160   2.550   1.401
 8652SOL     OW26854   1.065   3.014   3.213
 8652SOL    HW126855   1.112   3.099   3.236
 8652SOL    HW226856   1.132   2.945   3.185
 8653SOL     OW26857   6.463   1.615   6.620
 8653SOL    HW126858   6.418   1.575   6.539
 8653SOL    HW226859   6.393   1.646   6.684
 8654SOL     OW26860   0.232   4.494   2.523
 8654SOL    HW126861   0.264   4.573   2.576
 8654SOL    HW226862   0.249   4.509   2.426
 8655SOL     OW26863   0.594   0.296   4.822
 8655SOL    HW126864   0.604   0.329   4.916
 8655SOL    HW226865   0.520   0.346   4.777
 8656SOL     OW26866   4.869   6.689   1.307
 8656SOL    HW126867   4.779   6.691   1.262
 8656SOL    HW226868   4.884   6.599   1.349
 8657SOL     OW26869   3.771   1.793   3.570
 8657SOL    HW126870   3.839   1.816   3.500
 8657SOL    HW226871   3.807   1.722   3.629
 8658SOL     OW26872   5.579   4.526   1.380
 8658SOL    HW126873   5.518   4.459   1.337
 8658SOL    HW226874   5.598   4.600   1.315
 8659SOL     OW26875   2.985   0.753   2.300
 8659SOL    HW126876   2.964   0.848   2.322
 8659SOL    HW226877   2.901   0.706   2.271
 8660SOL     OW26878   0.404   4.755   2.018
 8660SOL    HW126879   0.389   4.761   1.919
 8660SOL    HW226880   0.476   4.819   2.044
 8661SOL     OW26881   6.964   3.482   2.459
 8661SOL    HW126882   0.012   3.508   2.522
 8661SOL    HW226883   6.980   3.525   2.371
 8662SOL     OW26884   2.138   3.297   3.363
 8662SOL    HW126885   2.187   3.220   3.321
 8662SOL    HW226886   2.072   3.334   3.297
 8663SOL     OW26887   3.893   5.534   2.906
 8663SOL    HW126888   3.969   5.587   2.868
 8663SOL    HW226889   3.831   5.596   2.955
 8664SOL     OW26890   4.271   5.925   3.233
 8664SOL    HW126891   4.201   5.937   3.163
 8664SOL    HW226892   4.282   6.010   3.284
 8665SOL     OW26893   5.419   3.578   6.441
 8665SOL    HW126894   5.463   3.597   6.354
 8665SOL    HW226895   5.461   3.634   6.513
 8666SOL     OW26896   4.487   6.738   2.851
 8666SOL    HW126897   4.483   6.812   2.918
 8666SOL    HW226898   4.580   6.700   2.849
 8667SOL     OW26899   4.794   2.018   3.023
 8667SOL    HW126900   4.839   1.932   2.997
 8667SOL    HW226901   4.859   2.093   3.012
 8668SOL     OW26902   4.871   2.330   5.299
 8668SOL    HW126903   4.922   2.351   5.382
 8668SOL    HW226904   4.934   2.329   5.221
 8669SOL     OW26905   6.446   6.390   6.140
 8669SOL    HW126906   6.363   6.343   6.172
 8669SOL    HW226907   6.421   6.479   6.102
 8670SOL     OW26908   6.639   4.649   5.663
 8670SOL    HW126909   6.666   4.579   5.729
 8670SOL    HW226910   6.636   4.608   5.571
 8671SOL     OW26911   0.460   3.336   3.027
 8671SOL    HW126912   0.529   3.269   3.056
 8671SOL    HW226913   0.475   3.422   3.076
 8672SOL     OW26914   0.081   1.030   2.334
 8672SOL    HW126915   0.116   1.095   2.266
 8672SOL    HW226916   7.012   1.004   2.309
 8673SOL     OW26917   1.263   2.219   1.208
 8673SOL    HW126918   1.302   2.128   1.192
 8673SOL    HW226919   1.316   2.266   1.278
 8674SOL     OW26920   6.891   3.798   3.131
 8674SOL    HW126921   6.957   3.826   3.061
 8674SOL    HW226922   6.894   3.863   3.207
 8675SOL     OW26923   4.091   2.180   4.934
 8675SOL    HW126924   4.085   2.105   4.999
 8675SOL    HW226925   4.102   2.267   4.983
 8676SOL     OW26926   4.963   1.673   0.592
 8676SOL    HW126927   5.032   1.602   0.604
 8676SOL    HW226928   4.897   1.668   0.667
 8677SOL     OW26929   2.228   6.843   5.858
 8677SOL    HW126930   2.322   6.819   5.883
 8677SOL    HW226931   2.229   6.921   5.795
 8678SOL     OW26932   1.995   2.482   0.302
 8678SOL    HW126933   2.042   2.525   0.225
 8678SOL    HW226934   1.988   2.383   0.286
 8679SOL     OW26935   1.237   1.935   6.134
 8679SOL    HW126936   1.275   2.018   6.092
 8679SOL    HW226937   1.263   1.856   6.079
 8680SOL     OW26938   6.942   0.468   0.212
 8680SOL    HW126939   6.987   0.495   0.297
 8680SOL    HW226940   6.850   0.506   0.210
 8681SOL     OW26941   5.226   5.925   1.045
 8681SOL    HW126942   5.293   5.854   1.066
 8681SOL    HW226943   5.252   5.972   0.961
 8682SOL     OW26944   2.244   0.655   2.401
 8682SOL    HW126945   2.327   0.657   2.345
 8682SOL    HW226946   2.203   0.564   2.397
 8683SOL     OW26947   2.411   4.572   4.832
 8683SOL    HW126948   2.440   4.481   4.860
 8683SOL    HW226949   2.312   4.581   4.845
 8684SOL     OW26950   2.367   4.485   4.136
 8684SOL    HW126951   2.414   4.442   4.059
 8684SOL    HW226952   2.367   4.423   4.214
 8685SOL     OW26953   4.828   2.468   4.864
 8685SOL    HW126954   4.802   2.560   4.835
 8685SOL    HW226955   4.763   2.402   4.828
 8686SOL     OW26956   1.093   5.320   3.273
 8686SOL    HW126957   1.140   5.246   3.225
 8686SOL    HW226958   1.033   5.281   3.343
 8687SOL     OW26959   5.900   4.372   5.147
 8687SOL    HW126960   5.830   4.301   5.141
 8687SOL    HW226961   5.985   4.332   5.182
 8688SOL     OW26962   1.491   3.784   5.261
 8688SOL    HW126963   1.441   3.722   5.320
 8688SOL    HW226964   1.542   3.732   5.192
 8689SOL     OW26965   4.244   3.070   0.188
 8689SOL    HW126966   4.173   3.045   0.122
 8689SOL    HW226967   4.216   3.152   0.237
 8690SOL     OW26968   1.366   1.966   2.653
 8690SOL    HW126969   1.268   1.979   2.644
 8690SOL    HW226970   1.385   1.916   2.738
 8691SOL     OW26971   3.588   2.428   5.391
 8691SOL    HW126972   3.510   2.485   5.364
 8691SOL    HW226973   3.672   2.480   5.379
 8692SOL     OW26974   4.685   2.153   5.016
 8692SOL    HW126975   4.680   2.189   5.109
 8692SOL    HW226976   4.599   2.172   4.968
 8693SOL     OW26977   6.995   6.855   6.071
 8693SOL    HW126978   6.961   6.829   5.980
 8693SOL    HW226979   0.068   6.835   6.077
 8694SOL     OW26980   5.292   2.853   5.562
 8694SOL    HW126981   5.283   2.757   5.588
 8694SOL    HW226982   5.268   2.864   5.466
 8695SOL     OW26983   3.555   4.720   0.618
 8695SOL    HW126984   3.471   4.718   0.564
 8695SOL    HW226985   3.634   4.721   0.557
 8696SOL     OW26986   2.899   5.445   5.874
 8696SOL    HW126987   2.887   5.356   5.829
 8696SOL    HW226988   2.996   5.466   5.882
 8697SOL     OW26989   1.740   4.093   5.465
 8697SOL    HW126990   1.741   4.041   5.380
 8697SOL    HW226991   1.801   4.050   5.532
 8698SOL     OW26992   4.558   5.127   6.099
 8698SOL    HW126993   4.576   5.030   6.082
 8698SOL    HW226994   4.582   5.150   6.193
 8699SOL     OW26995   1.749   2.529   6.939
 8699SOL    HW126996   1.653   2.509   6.957
 8699SOL    HW226997   1.772   2.617   6.981
 8700SOL     OW26998   1.290   1.222   4.103
 8700SOL    HW126999   1.250   1.249   4.016
 8700SOL    HW227000   1.248   1.137   4.135
 8701SOL     OW27001   1.546   2.816   6.848
 8701SOL    HW127002   1.585   2.725   6.862
 8701SOL    HW227003   1.615   2.885   6.871
 8702SOL     OW27004   5.371   4.775   0.799
 8702SOL    HW127005   5.462   4.767   0.757
 8702SOL    HW227006   5.380   4.804   0.894
 8703SOL     OW27007   3.038   5.755   0.952
 8703SOL    HW127008   3.031   5.847   0.989
 8703SOL    HW227009   2.982   5.748   0.869
 8704SOL     OW27010   0.113   0.870   4.738
 8704SOL    HW127011   0.164   0.899   4.656
 8704SOL    HW227012   0.055   0.791   4.714
 8705SOL     OW27013   4.071   2.392   6.956
 8705SOL    HW127014   4.042   2.302   6.924
 8705SOL    HW227015   4.160   2.415   6.916
 8706SOL     OW27016   4.988   2.750   6.477
 8706SOL    HW127017   5.056   2.776   6.546
 8706SOL    HW227018   4.973   2.827   6.415
 8707SOL     OW27019   2.469   1.240   4.263
 8707SOL    HW127020   2.457   1.147   4.297
 8707SOL    HW227021   2.391   1.296   4.290
 8708SOL     OW27022   5.971   2.482   0.811
 8708SOL    HW127023   5.976   2.383   0.792
 8708SOL    HW227024   6.062   2.518   0.828
 8709SOL     OW27025   5.972   6.845   4.890
 8709SOL    HW127026   6.021   6.821   4.973
 8709SOL    HW227027   5.885   6.796   4.886
 8710SOL     OW27028   2.279   1.808   3.578
 8710SOL    HW127029   2.347   1.880   3.584
 8710SOL    HW227030   2.206   1.825   3.645
 8711SOL     OW27031   1.146   1.535   1.950
 8711SOL    HW127032   1.172   1.586   1.869
 8711SOL    HW227033   1.063   1.482   1.931
 8712SOL     OW27034   1.377   4.432   5.024
 8712SOL    HW127035   1.381   4.339   5.059
 8712SOL    HW227036   1.283   4.454   4.997
 8713SOL     OW27037   0.104   3.531   1.049
 8713SOL    HW127038   0.067   3.439   1.064
 8713SOL    HW227039   0.196   3.523   1.011
 8714SOL     OW27040   6.791   4.690   6.660
 8714SOL    HW127041   6.800   4.604   6.712
 8714SOL    HW227042   6.843   4.762   6.706
 8715SOL     OW27043   1.831   3.543   1.948
 8715SOL    HW127044   1.854   3.465   1.891
 8715SOL    HW227045   1.911   3.602   1.959
 8716SOL     OW27046   6.758   0.218   2.575
 8716SOL    HW127047   6.693   0.255   2.509
 8716SOL    HW227048   6.762   0.277   2.655
 8717SOL     OW27049   3.050   2.900   6.786
 8717SOL    HW127050   2.968   2.851   6.758
 8717SOL    HW227051   3.101   2.929   6.705
 8718SOL     OW27052   3.175   5.025   6.322
 8718SOL    HW127053   3.198   5.082   6.402
 8718SOL    HW227054   3.162   5.084   6.242
 8719SOL     OW27055   3.399   0.918   4.337
 8719SOL    HW127056   3.337   0.839   4.332
 8719SOL    HW227057   3.452   0.924   4.252
 8720SOL     OW27058   6.991   5.258   4.694
 8720SOL    HW127059   7.016   5.354   4.692
 8720SOL    HW227060   6.892   5.249   4.683
 8721SOL     OW27061   0.508   0.003   0.301
 8721SOL    HW127062   0.525   6.948   0.243
 8721SOL    HW227063   0.577   0.007   0.374
 8722SOL     OW27064   3.031   1.028   0.989
 8722SOL    HW127065   3.051   0.945   1.041
 8722SOL    HW227066   3.020   1.105   1.052
 8723SOL     OW27067   3.343   6.762   2.263
 8723SOL    HW127068   3.351   6.692   2.192
 8723SOL    HW227069   3.347   6.853   2.221
 8724SOL     OW27070   3.692   1.526   4.631
 8724SOL    HW127071   3.732   1.616   4.647
 8724SOL    HW227072   3.764   1.457   4.628
 8725SOL     OW27073   6.803   0.196   3.695
 8725SOL    HW127074   6.879   0.195   3.760
 8725SOL    HW227075   6.813   0.119   3.631
 8726SOL     OW27076   6.549   1.410   1.066
 8726SOL    HW127077   6.649   1.419   1.074
 8726SOL    HW227078   6.505   1.478   1.124
 8727SOL     OW27079   5.122   6.291   6.614
 8727SOL    HW127080   5.036   6.250   6.583
 8727SOL    HW227081   5.141   6.373   6.559
 8728SOL     OW27082   6.480   0.259   5.020
 8728SOL    HW127083   6.557   0.296   5.071
 8728SOL    HW227084   6.497   0.162   5.000
 8729SOL     OW27085   5.731   5.807   6.437
 8729SOL    HW127086   5.710   5.712   6.416
 8729SOL    HW227087   5.724   5.863   6.355
 8730SOL     OW27088   4.784   5.324   1.140
 8730SOL    HW127089   4.843   5.316   1.060
 8730SOL    HW227090   4.840   5.338   1.222
 8731SOL     OW27091   6.782   1.487   3.626
 8731SOL    HW127092   6.799   1.457   3.532
 8731SOL    HW227093   6.685   1.509   3.637
 8732SOL     OW27094   5.806   6.714   6.619
 8732SOL    HW127095   5.755   6.760   6.692
 8732SOL    HW227096   5.901   6.702   6.648
 8733SOL     OW27097   6.481   4.361   2.255
 8733SOL    HW127098   6.440   4.321   2.173
 8733SOL    HW227099   6.575   4.389   2.235
 8734SOL     OW27100   0.752   4.158   0.800
 8734SOL    HW127101   0.709   4.231   0.854
 8734SOL    HW227102   0.741   4.071   0.848
 8735SOL     OW27103   0.524   2.827   4.780
 8735SOL    HW127104   0.447   2.890   4.775
 8735SOL    HW227105   0.610   2.879   4.786
 8736SOL     OW27106   1.387   5.884   3.104
 8736SOL    HW127107   1.373   5.830   3.187
 8736SOL    HW227108   1.441   5.831   3.038
 8737SOL     OW27109   1.266   5.721   0.281
 8737SOL    HW127110   1.179   5.674   0.270
 8737SOL    HW227111   1.257   5.791   0.352
 8738SOL     OW27112   1.104   2.902   2.701
 8738SOL    HW127113   1.013   2.943   2.701
 8738SOL    HW227114   1.121   2.857   2.789
 8739SOL     OW27115   5.685   5.142   4.844
 8739SOL    HW127116   5.615   5.083   4.886
 8739SOL    HW227117   5.775   5.103   4.862
 8740SOL     OW27118   3.117   1.243   4.102
 8740SOL    HW127119   3.204   1.194   4.093
 8740SOL    HW227120   3.131   1.340   4.083
 8741SOL     OW27121   0.795   1.659   2.969
 8741SOL    HW127122   0.746   1.746   2.962
 8741SOL    HW227123   0.820   1.627   2.878
 8742SOL     OW27124   2.772   1.988   1.793
 8742SOL    HW127125   2.840   2.061   1.793
 8742SOL    HW227126   2.729   1.983   1.702
 8743SOL     OW27127   0.946   2.996   1.175
 8743SOL    HW127128   0.971   2.955   1.263
 8743SOL    HW227129   0.941   2.924   1.105
 8744SOL     OW27130   3.358   4.010   5.788
 8744SOL    HW127131   3.350   4.018   5.887
 8744SOL    HW227132   3.454   3.997   5.763
 8745SOL     OW27133   5.847   1.797   5.921
 8745SOL    HW127134   5.879   1.702   5.923
 8745SOL    HW227135   5.908   1.854   5.976
 8746SOL     OW27136   4.061   4.609   5.337
 8746SOL    HW127137   4.038   4.635   5.431
 8746SOL    HW227138   4.041   4.512   5.323
 8747SOL     OW27139   1.110   0.636   3.125
 8747SOL    HW127140   1.088   0.716   3.069
 8747SOL    HW227141   1.042   0.627   3.198
 8748SOL     OW27142   5.410   1.910   4.741
 8748SOL    HW127143   5.456   1.844   4.800
 8748SOL    HW227144   5.318   1.929   4.778
 8749SOL     OW27145   2.907   1.170   3.953
 8749SOL    HW127146   2.972   1.195   4.026
 8749SOL    HW227147   2.815   1.165   3.992
 8750SOL     OW27148   3.700   4.079   0.851
 8750SOL    HW127149   3.609   4.058   0.816
 8750SOL    HW227150   3.693   4.103   0.948
 8751SOL     OW27151   3.161   6.615   0.358
 8751SOL    HW127152   3.208   6.658   0.281
 8751SOL    HW227153   3.175   6.670   0.441
 8752SOL     OW27154   6.877   2.518   5.720
 8752SOL    HW127155   6.921   2.501   5.808
 8752SOL    HW227156   6.941   2.498   5.646
 8753SOL     OW27157   2.540   2.560   0.633
 8753SOL    HW127158   2.544   2.539   0.536
 8753SOL    HW227159   2.511   2.478   0.684
 8754SOL     OW27160   1.219   5.387   0.034
 8754SOL    HW127161   1.229   5.395   0.134
 8754SOL    HW227162   1.310   5.385   7.017
 8755SOL     OW27163   0.381   2.665   2.269
 8755SOL    HW127164   0.315   2.613   2.322
 8755SOL    HW227165   0.333   2.723   2.202
 8756SOL     OW27166   1.634   1.711   2.040
 8756SOL    HW127167   1.560   1.739   2.102
 8756SOL    HW227168   1.610   1.735   1.946
 8757SOL     OW27169   5.362   5.948   5.681
 8757SOL    HW127170   5.360   5.849   5.697
 8757SOL    HW227171   5.268   5.984   5.687
 8758SOL     OW27172   3.384   5.951   5.305
 8758SOL    HW127173   3.300   5.952   5.250
 8758SOL    HW227174   3.367   5.903   5.391
 8759SOL     OW27175   5.887   1.389   1.148
 8759SOL    HW127176   5.888   1.297   1.108
 8759SOL    HW227177   5.981   1.422   1.157
 8760SOL     OW27178   2.668   2.449   4.382
 8760SOL    HW127179   2.629   2.509   4.451
 8760SOL    HW227180   2.616   2.364   4.379
 8761SOL     OW27181   4.970   1.858   2.613
 8761SOL    HW127182   5.026   1.902   2.543
 8761SOL    HW227183   4.874   1.863   2.587
 8762SOL     OW27184   3.075   5.400   3.197
 8762SOL    HW127185   3.099   5.473   3.261
 8762SOL    HW227186   3.141   5.326   3.204
 8763SOL     OW27187   0.278   0.951   6.625
 8763SOL    HW127188   0.313   1.041   6.652
 8763SOL    HW227189   0.347   0.881   6.643
 8764SOL     OW27190   3.132   4.780   5.774
 8764SOL    HW127191   3.205   4.814   5.833
 8764SOL    HW227192   3.043   4.802   5.815
 8765SOL     OW27193   4.138   0.156   3.697
 8765SOL    HW127194   4.209   0.220   3.727
 8765SOL    HW227195   4.164   0.063   3.723
 8766SOL     OW27196   5.252   6.527   5.872
 8766SOL    HW127197   5.276   6.431   5.862
 8766SOL    HW227198   5.257   6.554   5.968
 8767SOL     OW27199   1.890   1.386   3.488
 8767SOL    HW127200   1.966   1.433   3.443
 8767SOL    HW227201   1.904   1.386   3.587
 8768SOL     OW27202   0.062   1.841   6.816
 8768SOL    HW127203   0.080   1.869   6.722
 8768SOL    HW227204   0.126   1.887   6.877
 8769SOL     OW27205   5.994   0.267   7.010
 8769SOL    HW127206   5.959   0.288   0.076
 8769SOL    HW227207   6.085   0.308   6.998
 8770SOL     OW27208   5.237   2.224   0.368
 8770SOL    HW127209   5.171   2.254   0.299
 8770SOL    HW227210   5.195   2.231   0.459
 8771SOL     OW27211   0.488   2.602   6.741
 8771SOL    HW127212   0.430   2.530   6.778
 8771SOL    HW227213   0.502   2.586   6.643
 8772SOL     OW27214   0.247   0.326   4.755
 8772SOL    HW127215   0.193   0.406   4.782
 8772SOL    HW227216   0.294   0.288   4.835
 8773SOL     OW27217   6.950   0.585   4.364
 8773SOL    HW127218   6.905   0.649   4.427
 8773SOL    HW227219   6.972   0.501   4.413
 8774SOL     OW27220   1.199   1.711   0.253
 8774SOL    HW127221   1.254   1.647   0.199
 8774SOL    HW227222   1.168   1.786   0.194
 8775SOL     OW27223   5.529   2.550   3.769
 8775SOL    HW127224   5.541   2.589   3.678
 8775SOL    HW227225   5.616   2.513   3.802
 8776SOL     OW27226   4.364   2.546   0.332
 8776SOL    HW127227   4.421   2.586   0.403
 8776SOL    HW227228   4.313   2.618   0.285
 8777SOL     OW27229   6.784   1.835   3.222
 8777SOL    HW127230   6.759   1.928   3.196
 8777SOL    HW227231   6.879   1.818   3.198
 8778SOL     OW27232   3.314   4.104   0.022
 8778SOL    HW127233   3.398   4.159   0.023
 8778SOL    HW227234   3.235   4.163   0.009
 8779SOL     OW27235   4.243   5.020   2.930
 8779SOL    HW127236   4.296   4.972   2.860
 8779SOL    HW227237   4.188   5.091   2.886
 8780SOL     OW27238   0.283   4.704   3.773
 8780SOL    HW127239   0.326   4.645   3.842
 8780SOL    HW227240   0.277   4.798   3.809
 8781SOL     OW27241   2.322   1.097   1.126
 8781SOL    HW127242   2.397   1.036   1.100
 8781SOL    HW227243   2.339   1.133   1.218
 8782SOL     OW27244   5.768   2.263   0.569
 8782SOL    HW127245   5.749   2.238   0.474
 8782SOL    HW227246   5.691   2.236   0.627
 8783SOL     OW27247   5.027   4.196   4.719
 8783SOL    HW127248   5.054   4.290   4.698
 8783SOL    HW227249   4.945   4.172   4.667
 8784SOL     OW27250   4.948   0.408   0.914
 8784SOL    HW127251   4.941   0.349   0.833
 8784SOL    HW227252   4.862   0.406   0.964
 8785SOL     OW27253   0.030   5.566   4.816
 8785SOL    HW127254   7.001   5.515   4.883
 8785SOL    HW227255   0.026   5.664   4.837
 8786SOL     OW27256   5.262   1.474   2.219
 8786SOL    HW127257   5.204   1.535   2.274
 8786SOL    HW227258   5.345   1.452   2.270
 8787SOL     OW27259   3.406   5.596   1.108
 8787SOL    HW127260   3.479   5.551   1.159
 8787SOL    HW227261   3.426   5.590   1.010
 8788SOL     OW27262   0.156   6.561   4.160
 8788SOL    HW127263   0.222   6.508   4.213
 8788SOL    HW227264   0.067   6.560   4.206
 8789SOL     OW27265   0.865   1.857   5.766
 8789SOL    HW127266   0.781   1.911   5.766
 8789SOL    HW227267   0.942   1.916   5.742
 8790SOL     OW27268   3.991   2.896   5.372
 8790SOL    HW127269   3.944   2.916   5.457
 8790SOL    HW227270   3.931   2.915   5.295
 8791SOL     OW27271   3.662   6.253   4.494
 8791SOL    HW127272   3.616   6.183   4.439
 8791SOL    HW227273   3.616   6.341   4.481
 8792SOL     OW27274   5.301   4.852   2.085
 8792SOL    HW127275   5.357   4.769   2.082
 8792SOL    HW227276   5.296   4.893   1.994
 8793SOL     OW27277   7.022   6.554   5.222
 8793SOL    HW127278   6.937   6.595   5.188
 8793SOL    HW227279   0.011   6.465   5.178
 8794SOL     OW27280   6.641   1.220   2.751
 8794SOL    HW127281   6.722   1.198   2.698
 8794SOL    HW227282   6.664   1.287   2.822
 8795SOL     OW27283   1.161   6.505   6.867
 8795SOL    HW127284   1.172   6.590   6.919
 8795SOL    HW227285   1.104   6.523   6.786
 8796SOL     OW27286   5.883   3.874   4.788
 8796SOL    HW127287   5.961   3.929   4.760
 8796SOL    HW227288   5.877   3.793   4.730
 8797SOL     OW27289   4.518   6.503   4.175
 8797SOL    HW127290   4.583   6.451   4.120
 8797SOL    HW227291   4.425   6.483   4.143
 8798SOL     OW27292   2.872   6.453   5.705
 8798SOL    HW127293   2.861   6.443   5.804
 8798SOL    HW227294   2.817   6.383   5.659
 8799SOL     OW27295   1.612   5.651   1.721
 8799SOL    HW127296   1.611   5.750   1.732
 8799SOL    HW227297   1.630   5.628   1.625
 8800SOL     OW27298   6.150   6.251   4.876
 8800SOL    HW127299   6.133   6.340   4.835
 8800SOL    HW227300   6.063   6.208   4.901
 8801SOL     OW27301   5.614   3.627   5.400
 8801SOL    HW127302   5.523   3.654   5.432
 8801SOL    HW227303   5.677   3.621   5.477
 8802SOL     OW27304   1.263   5.638   6.397
 8802SOL    HW127305   1.203   5.625   6.318
 8802SOL    HW227306   1.344   5.689   6.368
 8803SOL     OW27307   6.176   6.310   6.221
 8803SOL    HW127308   6.111   6.376   6.257
 8803SOL    HW227309   6.158   6.219   6.260
 8804SOL     OW27310   1.962   6.446   1.980
 8804SOL    HW127311   1.940   6.359   2.025
 8804SOL    HW227312   2.008   6.428   1.894
 8805SOL     OW27313   5.210   4.912   3.263
 8805SOL    HW127314   5.203   4.875   3.355
 8805SOL    HW227315   5.292   4.970   3.256
 8806SOL     OW27316   1.485   6.857   1.660
 8806SOL    HW127317   1.541   6.785   1.701
 8806SOL    HW227318   1.421   6.817   1.595
 8807SOL     OW27319   5.618   2.931   0.840
 8807SOL    HW127320   5.623   2.974   0.750
 8807SOL    HW227321   5.600   3.001   0.909
 8808SOL     OW27322   1.607   2.169   6.139
 8808SOL    HW127323   1.672   2.120   6.196
 8808SOL    HW227324   1.589   2.259   6.179
 8809SOL     OW27325   0.026   3.365   3.195
 8809SOL    HW127326   6.983   3.315   3.142
 8809SOL    HW227327   0.011   3.349   3.292
 8810SOL     OW27328   1.037   1.169   4.848
 8810SOL    HW127329   1.048   1.114   4.931
 8810SOL    HW227330   1.010   1.109   4.772
 8811SOL     OW27331   4.282   4.697   2.378
 8811SOL    HW127332   4.283   4.659   2.471
 8811SOL    HW227333   4.343   4.642   2.320
 8812SOL     OW27334   5.190   1.265   6.578
 8812SOL    HW127335   5.162   1.238   6.486
 8812SOL    HW227336   5.288   1.245   6.590
 8813SOL     OW27337   2.180   3.628   3.264
 8813SOL    HW127338   2.088   3.592   3.249
 8813SOL    HW227339   2.246   3.553   3.261
 8814SOL     OW27340   5.032   6.973   5.347
 8814SOL    HW127341   4.971   6.953   5.271
 8814SOL    HW227342   5.007   0.037   5.387
 8815SOL     OW27343   5.474   1.096   1.489
 8815SOL    HW127344   5.378   1.081   1.508
 8815SOL    HW227345   5.530   1.049   1.558
 8816SOL     OW27346   0.891   6.104   4.528
 8816SOL    HW127347   0.925   6.198   4.525
 8816SOL    HW227348   0.799   6.101   4.490
 8817SOL     OW27349   1.490   3.093   3.260
 8817SOL    HW127350   1.525   3.055   3.346
 8817SOL    HW227351   1.567   3.115   3.199
 8818SOL     OW27352   0.928   7.023   5.967
 8818SOL    HW127353   0.984   0.058   6.023
 8818SOL    HW227354   0.886   6.952   6.024
 8819SOL     OW27355   4.618   4.789   6.319
 8819SOL    HW127356   4.717   4.772   6.323
 8819SOL    HW227357   4.583   4.807   6.411
 8820SOL     OW27358   3.991   6.648   5.592
 8820SOL    HW127359   4.037   6.567   5.627
 8820SOL    HW227360   3.921   6.620   5.525
 8821SOL     OW27361   0.143   4.571   6.201
 8821SOL    HW127362   0.180   4.525   6.120
 8821SOL    HW227363   0.043   4.569   6.199
 8822SOL     OW27364   6.493   0.439   4.807
 8822SOL    HW127365   6.460   0.533   4.796
 8822SOL    HW227366   6.462   0.403   4.896
 8823SOL     OW27367   3.534   1.695   3.271
 8823SOL    HW127368   3.504   1.743   3.353
 8823SOL    HW227369   3.457   1.689   3.207
 8824SOL     OW27370   1.250   0.204   2.662
 8824SOL    HW127371   1.175   0.147   2.696
 8824SOL    HW227372   1.286   0.259   2.737
 8825SOL     OW27373   0.121   0.228   0.402
 8825SOL    HW127374   0.040   0.194   0.355
 8825SOL    HW227375   0.200   0.220   0.342
 8826SOL     OW27376   0.916   4.420   1.033
 8826SOL    HW127377   0.994   4.437   0.973
 8826SOL    HW227378   0.831   4.427   0.980
 8827SOL     OW27379   4.485   6.966   3.011
 8827SOL    HW127380   4.449   0.034   3.008
 8827SOL    HW227381   4.585   6.968   3.007
 8828SOL     OW27382   5.278   2.567   6.508
 8828SOL    HW127383   5.241   2.602   6.422
 8828SOL    HW227384   5.255   2.630   6.582
 8829SOL     OW27385   6.735   0.790   2.659
 8829SOL    HW127386   6.799   0.741   2.599
 8829SOL    HW227387   6.672   0.845   2.603
 8830SOL     OW27388   3.497   0.249   3.303
 8830SOL    HW127389   3.433   0.282   3.234
 8830SOL    HW227390   3.584   0.296   3.293
 8831SOL     OW27391   0.196   2.897   2.224
 8831SOL    HW127392   0.100   2.901   2.199
 8831SOL    HW227393   0.252   2.921   2.145
 8832SOL     OW27394   5.544   6.863   5.583
 8832SOL    HW127395   5.454   6.907   5.591
 8832SOL    HW227396   5.535   6.765   5.600
 8833SOL     OW27397   5.099   2.153   1.442
 8833SOL    HW127398   5.120   2.233   1.385
 8833SOL    HW227399   5.079   2.183   1.535
 8834SOL     OW27400   5.961   3.742   6.010
 8834SOL    HW127401   5.984   3.653   6.048
 8834SOL    HW227402   5.916   3.797   6.081
 8835SOL     OW27403   6.957   0.766   5.676
 8835SOL    HW127404   6.914   0.715   5.602
 8835SOL    HW227405   6.913   0.742   5.763
 8836SOL     OW27406   4.563   1.119   1.456
 8836SOL    HW127407   4.572   1.177   1.375
 8836SOL    HW227408   4.635   1.141   1.521
 8837SOL     OW27409   4.014   6.709   0.715
 8837SOL    HW127410   3.928   6.747   0.678
 8837SOL    HW227411   3.992   6.638   0.782
 8838SOL     OW27412   1.813   3.651   3.772
 8838SOL    HW127413   1.764   3.593   3.707
 8838SOL    HW227414   1.772   3.641   3.862
 8839SOL     OW27415   4.748   6.179   2.001
 8839SOL    HW127416   4.843   6.210   1.989
 8839SOL    HW227417   4.687   6.234   1.945
 8840SOL     OW27418   6.528   0.992   0.896
 8840SOL    HW127419   6.506   0.896   0.877
 8840SOL    HW227420   6.627   1.003   0.901
 8841SOL     OW27421   3.737   1.230   0.746
 8841SOL    HW127422   3.818   1.214   0.801
 8841SOL    HW227423   3.745   1.318   0.699
 8842SOL     OW27424   3.414   3.773   4.352
 8842SOL    HW127425   3.379   3.679   4.349
 8842SOL    HW227426   3.390   3.814   4.440
 8843SOL     OW27427   2.785   5.947   6.072
 8843SOL    HW127428   2.788   5.897   5.985
 8843SOL    HW227429   2.709   6.013   6.070
 8844SOL     OW27430   3.524   2.736   6.332
 8844SOL    HW127431   3.582   2.729   6.251
 8844SOL    HW227432   3.580   2.747   6.413
 8845SOL     OW27433   0.132   3.576   2.122
 8845SOL    HW127434   0.185   3.497   2.155
 8845SOL    HW227435   0.035   3.552   2.122
 8846SOL     OW27436   5.602   4.664   4.344
 8846SOL    HW127437   5.533   4.727   4.379
 8846SOL    HW227438   5.592   4.655   4.245
 8847SOL     OW27439   1.367   2.271   3.633
 8847SOL    HW127440   1.312   2.235   3.708
 8847SOL    HW227441   1.440   2.207   3.610
 8848SOL     OW27442   5.887   1.032   0.516
 8848SOL    HW127443   5.943   0.976   0.455
 8848SOL    HW227444   5.850   0.975   0.589
 8849SOL     OW27445   3.222   5.029   4.185
 8849SOL    HW127446   3.191   5.116   4.225
 8849SOL    HW227447   3.316   5.039   4.152
 8850SOL     OW27448   3.307   1.187   1.567
 8850SOL    HW127449   3.399   1.190   1.527
 8850SOL    HW227450   3.312   1.218   1.662
 8851SOL     OW27451   6.446   4.958   2.331
 8851SOL    HW127452   6.498   4.895   2.273
 8851SOL    HW227453   6.362   4.984   2.285
 8852SOL     OW27454   4.498   2.596   4.671
 8852SOL    HW127455   4.497   2.625   4.767
 8852SOL    HW227456   4.421   2.534   4.654
 8853SOL     OW27457   4.429   1.668   5.559
 8853SOL    HW127458   4.496   1.693   5.629
 8853SOL    HW227459   4.461   1.697   5.469
 8854SOL     OW27460   1.645   1.584   6.752
 8854SOL    HW127461   1.674   1.653   6.685
 8854SOL    HW227462   1.704   1.588   6.832
 8855SOL     OW27463   6.193   5.045   0.334
 8855SOL    HW127464   6.104   5.092   0.337
 8855SOL    HW227465   6.264   5.111   0.311
 8856SOL     OW27466   5.351   1.132   5.105
 8856SOL    HW127467   5.373   1.082   5.190
 8856SOL    HW227468   5.381   1.227   5.113
 8857SOL     OW27469   6.873   2.506   4.571
 8857SOL    HW127470   6.836   2.513   4.478
 8857SOL    HW227471   6.824   2.435   4.621
 8858SOL     OW27472   6.608   4.105   5.779
 8858SOL    HW127473   6.666   4.123   5.699
 8858SOL    HW227474   6.623   4.011   5.810
 8859SOL     OW27475   3.041   5.577   5.411
 8859SOL    HW127476   3.023   5.634   5.491
 8859SOL    HW227477   2.956   5.533   5.381
 8860SOL     OW27478   1.353   2.460   1.804
 8860SOL    HW127479   1.281   2.396   1.833
 8860SOL    HW227480   1.434   2.408   1.776
 8861SOL     OW27481   2.512   2.914   0.883
 8861SOL    HW127482   2.531   2.886   0.977
 8861SOL    HW227483   2.547   3.007   0.868
 8862SOL     OW27484   6.209   2.101   4.745
 8862SOL    HW127485   6.300   2.081   4.709
 8862SOL    HW227486   6.179   2.190   4.710
 8863SOL     OW27487   0.907   5.652   5.040
 8863SOL    HW127488   0.989   5.645   4.983
 8863SOL    HW227489   0.842   5.714   4.997
 8864SOL     OW27490   1.514   3.353   5.679
 8864SOL    HW127491   1.588   3.354   5.746
 8864SOL    HW227492   1.552   3.335   5.588
 8865SOL     OW27493   2.182   2.073   5.654
 8865SOL    HW127494   2.219   2.104   5.567
 8865SOL    HW227495   2.153   1.977   5.646
 8866SOL     OW27496   4.217   6.785   5.535
 8866SOL    HW127497   4.229   6.870   5.587
 8866SOL    HW227498   4.138   6.736   5.569
 8867SOL     OW27499   6.530   2.121   3.495
 8867SOL    HW127500   6.573   2.043   3.541
 8867SOL    HW227501   6.434   2.128   3.524
 8868SOL     OW27502   4.961   3.698   1.247
 8868SOL    HW127503   4.999   3.789   1.265
 8868SOL    HW227504   5.026   3.645   1.192
 8869SOL     OW27505   4.934   3.265   3.539
 8869SOL    HW127506   4.868   3.295   3.608
 8869SOL    HW227507   4.965   3.172   3.561
 8870SOL     OW27508   4.198   1.171   1.299
 8870SOL    HW127509   4.136   1.095   1.320
 8870SOL    HW227510   4.246   1.153   1.213
 8871SOL     OW27511   1.098   2.633   4.599
 8871SOL    HW127512   1.004   2.657   4.574
 8871SOL    HW227513   1.162   2.674   4.534
 8872SOL     OW27514   2.304   2.778   3.174
 8872SOL    HW127515   2.269   2.786   3.267
 8872SOL    HW227516   2.236   2.731   3.116
 8873SOL     OW27517   6.860   5.991   4.824
 8873SOL    HW127518   6.794   5.985   4.899
 8873SOL    HW227519   6.835   6.068   4.764
 8874SOL     OW27520   1.502   1.731   0.321
 8874SOL    HW127521   1.405   1.712   0.310
 8874SOL    HW227522   1.554   1.645   0.321
 8875SOL     OW27523   1.643   1.452   3.976
 8875SOL    HW127524   1.681   1.367   4.013
 8875SOL    HW227525   1.658   1.527   4.041
 8876SOL     OW27526   2.521   0.602   4.849
 8876SOL    HW127527   2.591   0.585   4.919
 8876SOL    HW227528   2.471   0.517   4.831
 8877SOL     OW27529   2.866   6.215   4.356
 8877SOL    HW127530   2.935   6.187   4.423
 8877SOL    HW227531   2.903   6.206   4.264
 8878SOL     OW27532   5.864   4.588   5.641
 8878SOL    HW127533   5.879   4.575   5.739
 8878SOL    HW227534   5.810   4.511   5.606
 8879SOL     OW27535   4.034   5.731   4.913
 8879SOL    HW127536   3.977   5.797   4.863
 8879SOL    HW227537   4.099   5.780   4.971
 8880SOL     OW27538   0.053   5.934   5.998
 8880SOL    HW127539   0.081   5.957   5.905
 8880SOL    HW227540   0.080   6.008   6.060
 8881SOL     OW27541   6.832   0.759   2.090
 8881SOL    HW127542   6.875   0.814   2.017
 8881SOL    HW227543   6.813   0.818   2.168
 8882SOL     OW27544   6.046   1.745   6.295
 8882SOL    HW127545   6.042   1.648   6.274
 8882SOL    HW227546   5.954   1.779   6.317
 8883SOL     OW27547   0.060   1.035   5.710
 8883SOL    HW127548   0.009   1.103   5.762
 8883SOL    HW227549   0.004   0.954   5.695
 8884SOL     OW27550   6.624   0.498   5.746
 8884SOL    HW127551   6.701   0.481   5.807
 8884SOL    HW227552   6.610   0.418   5.687
 8885SOL     OW27553   5.263   3.398   1.767
 8885SOL    HW127554   5.240   3.395   1.864
 8885SOL    HW227555   5.179   3.395   1.713
 8886SOL     OW27556   2.989   6.452   6.547
 8886SOL    HW127557   3.051   6.451   6.469
 8886SOL    HW227558   3.039   6.479   6.629
 8887SOL     OW27559   1.812   0.347   1.264
 8887SOL    HW127560   1.735   0.366   1.203
 8887SOL    HW227561   1.795   0.262   1.314
 8888SOL     OW27562   3.696   1.201   3.425
 8888SOL    HW127563   3.738   1.286   3.396
 8888SOL    HW227564   3.602   1.219   3.455
 8889SOL     OW27565   3.188   6.564   4.793
 8889SOL    HW127566   3.167   6.475   4.753
 8889SOL    HW227567   3.105   6.621   4.794
 8890SOL     OW27568   1.332   4.527   3.976
 8890SOL    HW127569   1.342   4.625   3.994
 8890SOL    HW227570   1.407   4.496   3.918
 8891SOL     OW27571   2.738   1.887   6.972
 8891SOL    HW127572   2.657   1.908   0.002
 8891SOL    HW227573   2.711   1.827   6.896
 8892SOL     OW27574   1.346   6.846   2.581
 8892SOL    HW127575   1.370   6.840   2.484
 8892SOL    HW227576   1.430   6.852   2.636
 8893SOL     OW27577   0.792   1.183   1.419
 8893SOL    HW127578   0.835   1.153   1.504
 8893SOL    HW227579   0.702   1.140   1.410
 8894SOL     OW27580   4.063   3.366   6.439
 8894SOL    HW127581   4.098   3.399   6.527
 8894SOL    HW227582   3.968   3.337   6.450
 8895SOL     OW27583   0.726   0.650   2.381
 8895SOL    HW127584   0.781   0.569   2.403
 8895SOL    HW227585   0.662   0.627   2.308
 8896SOL     OW27586   1.929   4.387   4.867
 8896SOL    HW127587   1.854   4.321   4.872
 8896SOL    HW227588   1.920   4.440   4.783
 8897SOL     OW27589   1.142   1.920   1.576
 8897SOL    HW127590   1.046   1.916   1.602
 8897SOL    HW227591   1.173   2.015   1.580
 8898SOL     OW27592   6.675   2.733   4.560
 8898SOL    HW127593   6.607   2.663   4.582
 8898SOL    HW227594   6.765   2.702   4.590
 8899SOL     OW27595   2.709   4.206   0.205
 8899SOL    HW127596   2.799   4.175   0.237
 8899SOL    HW227597   2.719   4.252   0.117
 8900SOL     OW27598   6.067   1.606   3.320
 8900SOL    HW127599   6.055   1.513   3.356
 8900SOL    HW227600   6.164   1.630   3.321
 8901SOL     OW27601   2.118   0.019   2.001
 8901SOL    HW127602   2.051   0.078   2.045
 8901SOL    HW227603   2.075   6.957   1.977
 8902SOL     OW27604   2.633   5.241   5.600
 8902SOL    HW127605   2.572   5.165   5.578
 8902SOL    HW227606   2.582   5.312   5.649
 8903SOL     OW27607   0.705   1.708   4.006
 8903SOL    HW127608   0.732   1.749   4.093
 8903SOL    HW227609   0.607   1.688   4.007
 8904SOL     OW27610   1.132   5.107   3.680
 8904SOL    HW127611   1.050   5.111   3.736
 8904SOL    HW227612   1.169   5.200   3.667
 8905SOL     OW27613   2.534   4.164   5.306
 8905SOL    HW127614   2.610   4.111   5.267
 8905SOL    HW227615   2.457   4.104   5.325
 8906SOL     OW27616   1.095   4.853   4.635
 8906SOL    HW127617   0.996   4.857   4.618
 8906SOL    HW227618   1.142   4.823   4.552
 8907SOL     OW27619   3.882   2.895   5.910
 8907SOL    HW127620   3.949   2.960   5.945
 8907SOL    HW227621   3.789   2.928   5.927
 8908SOL     OW27622   0.096   3.379   1.471
 8908SOL    HW127623   0.133   3.455   1.418
 8908SOL    HW227624   0.087   3.405   1.567
 8909SOL     OW27625   2.720   6.235   5.890
 8909SOL    HW127626   2.751   6.323   5.925
 8909SOL    HW227627   2.622   6.224   5.907
 8910SOL     OW27628   3.657   3.531   6.593
 8910SOL    HW127629   3.679   3.625   6.622
 8910SOL    HW227630   3.729   3.469   6.623
 8911SOL     OW27631   4.131   2.292   3.991
 8911SOL    HW127632   4.097   2.355   4.062
 8911SOL    HW227633   4.222   2.321   3.962
 8912SOL     OW27634   5.236   2.292   6.593
 8912SOL    HW127635   5.169   2.233   6.639
 8912SOL    HW227636   5.188   2.366   6.546
 8913SOL     OW27637   4.776   3.851   0.834
 8913SOL    HW127638   4.694   3.907   0.846
 8913SOL    HW227639   4.769   3.770   0.893
 8914SOL     OW27640   4.949   2.209   3.786
 8914SOL    HW127641   5.036   2.179   3.746
 8914SOL    HW227642   4.876   2.200   3.718
 8915SOL     OW27643   1.173   4.964   1.819
 8915SOL    HW127644   1.199   4.957   1.723
 8915SOL    HW227645   1.235   5.027   1.866
 8916SOL     OW27646   6.882   4.002   1.714
 8916SOL    HW127647   6.965   3.947   1.703
 8916SOL    HW227648   6.810   3.948   1.757
 8917SOL     OW27649   6.006   5.925   6.097
 8917SOL    HW127650   5.916   5.947   6.059
 8917SOL    HW227651   6.010   5.828   6.120
 8918SOL     OW27652   4.766   4.506   6.317
 8918SOL    HW127653   4.794   4.592   6.361
 8918SOL    HW227654   4.785   4.510   6.219
 8919SOL     OW27655   2.259   3.706   1.300
 8919SOL    HW127656   2.239   3.788   1.246
 8919SOL    HW227657   2.337   3.724   1.360
 8920SOL     OW27658   6.394   5.339   5.789
 8920SOL    HW127659   6.423   5.246   5.765
 8920SOL    HW227660   6.399   5.398   5.708
 8921SOL     OW27661   1.425   5.895   3.718
 8921SOL    HW127662   1.415   5.795   3.714
 8921SOL    HW227663   1.371   5.936   3.644
 8922SOL     OW27664   6.542   4.288   0.453
 8922SOL    HW127665   6.599   4.335   0.385
 8922SOL    HW227666   6.451   4.274   0.415
 8923SOL     OW27667   1.807   4.559   5.083
 8923SOL    HW127668   1.873   4.528   5.014
 8923SOL    HW227669   1.738   4.488   5.097
 8924SOL     OW27670   2.787   5.949   5.071
 8924SOL    HW127671   2.884   5.956   5.046
 8924SOL    HW227672   2.736   6.022   5.026
 8925SOL     OW27673   5.663   6.422   1.602
 8925SOL    HW127674   5.645   6.521   1.603
 8925SOL    HW227675   5.710   6.397   1.687
 8926SOL     OW27676   5.756   1.599   0.336
 8926SOL    HW127677   5.795   1.599   0.244
 8926SOL    HW227678   5.661   1.567   0.332
 8927SOL     OW27679   2.664   1.998   4.491
 8927SOL    HW127680   2.749   1.965   4.452
 8927SOL    HW227681   2.603   1.920   4.509
 8928SOL     OW27682   1.061   6.620   5.035
 8928SOL    HW127683   1.061   6.619   5.135
 8928SOL    HW227684   1.130   6.686   5.003
 8929SOL     OW27685   5.297   4.151   4.519
 8929SOL    HW127686   5.341   4.231   4.478
 8929SOL    HW227687   5.213   4.179   4.565
 8930SOL     OW27688   1.212   4.687   4.847
 8930SOL    HW127689   1.166   4.762   4.798
 8930SOL    HW227690   1.220   4.608   4.787
 8931SOL     OW27691   5.591   0.954   2.119
 8931SOL    HW127692   5.678   0.947   2.168
 8931SOL    HW227693   5.565   1.050   2.111
 8932SOL     OW27694   6.760   1.067   6.949
 8932SOL    HW127695   6.766   1.164   6.929
 8932SOL    HW227696   6.779   1.051   0.021
 8933SOL     OW27697   1.888   0.424   5.429
 8933SOL    HW127698   1.792   0.432   5.402
 8933SOL    HW227699   1.907   0.332   5.461
 8934SOL     OW27700   5.040   6.685   3.284
 8934SOL    HW127701   5.128   6.718   3.251
 8934SOL    HW227702   5.053   6.597   3.331
 8935SOL     OW27703   5.791   2.868   3.236
 8935SOL    HW127704   5.881   2.877   3.193
 8935SOL    HW227705   5.782   2.936   3.309
 8936SOL     OW27706   1.838   4.044   2.908
 8936SOL    HW127707   1.773   4.016   2.979
 8936SOL    HW227708   1.800   4.120   2.856
 8937SOL     OW27709   4.096   0.135   5.501
 8937SOL    HW127710   4.155   0.128   5.421
 8937SOL    HW227711   4.018   0.073   5.491
 8938SOL     OW27712   5.785   0.130   1.938
 8938SOL    HW127713   5.720   0.121   1.862
 8938SOL    HW227714   5.781   0.048   1.995
 8939SOL     OW27715   0.586   2.742   3.937
 8939SOL    HW127716   0.526   2.691   3.875
 8939SOL    HW227717   0.653   2.679   3.978
 8940SOL     OW27718   6.727   2.974   1.040
 8940SOL    HW127719   6.741   2.896   0.979
 8940SOL    HW227720   6.780   2.960   1.124
 8941SOL     OW27721   4.803   2.479   2.230
 8941SOL    HW127722   4.780   2.576   2.225
 8941SOL    HW227723   4.850   2.460   2.317
 8942SOL     OW27724   5.091   4.441   4.640
 8942SOL    HW127725   5.115   4.471   4.732
 8942SOL    HW227726   5.118   4.511   4.574
 8943SOL     OW27727   4.359   2.870   0.987
 8943SOL    HW127728   4.341   2.827   0.899
 8943SOL    HW227729   4.296   2.947   0.999
 8944SOL     OW27730   4.657   5.732   5.168
 8944SOL    HW127731   4.650   5.687   5.079
 8944SOL    HW227732   4.565   5.749   5.205
 8945SOL     OW27733   5.779   4.414   2.833
 8945SOL    HW127734   5.770   4.332   2.890
 8945SOL    HW227735   5.807   4.491   2.889
 8946SOL     OW27736   4.829   1.495   5.461
 8946SOL    HW127737   4.856   1.486   5.557
 8946SOL    HW227738   4.823   1.592   5.437
 8947SOL     OW27739   1.844   5.024   6.516
 8947SOL    HW127740   1.769   4.959   6.528
 8947SOL    HW227741   1.845   5.056   6.421
 8948SOL     OW27742   5.353   1.056   2.433
 8948SOL    HW127743   5.284   1.127   2.423
 8948SOL    HW227744   5.346   1.015   2.524
 8949SOL     OW27745   3.833   6.057   0.945
 8949SOL    HW127746   3.871   6.019   1.029
 8949SOL    HW227747   3.861   6.002   0.867
 8950SOL     OW27748   3.511   3.653   1.706
 8950SOL    HW127749   3.558   3.679   1.622
 8950SOL    HW227750   3.515   3.554   1.718
 8951SOL     OW27751   1.529   7.017   4.730
 8951SOL    HW127752   1.515   6.929   4.777
 8951SOL    HW227753   1.448   0.049   4.742
 8952SOL     OW27754   0.951   4.627   4.080
 8952SOL    HW127755   1.016   4.685   4.129
 8952SOL    HW227756   0.985   4.533   4.076
 8953SOL     OW27757   1.523   5.072   1.377
 8953SOL    HW127758   1.527   5.172   1.380
 8953SOL    HW227759   1.430   5.042   1.360
 8954SOL     OW27760   2.352   4.454   5.623
 8954SOL    HW127761   2.370   4.527   5.689
 8954SOL    HW227762   2.352   4.492   5.530
 8955SOL     OW27763   5.175   2.624   5.244
 8955SOL    HW127764   5.137   2.628   5.151
 8955SOL    HW227765   5.270   2.594   5.240
 8956SOL     OW27766   0.492   6.583   0.234
 8956SOL    HW127767   0.542   6.664   0.203
 8956SOL    HW227768   0.529   6.553   0.322
 8957SOL     OW27769   0.821   6.427   2.709
 8957SOL    HW127770   0.818   6.527   2.708
 8957SOL    HW227771   0.750   6.393   2.771
 8958SOL     OW27772   1.312   3.582   5.351
 8958SOL    HW127773   1.223   3.574   5.307
 8958SOL    HW227774   1.312   3.532   5.438
 8959SOL     OW27775   5.776   2.425   3.855
 8959SOL    HW127776   5.813   2.495   3.915
 8959SOL    HW227777   5.847   2.396   3.790
 8960SOL     OW27778   4.562   4.783   2.996
 8960SOL    HW127779   4.485   4.811   3.053
 8960SOL    HW227780   4.538   4.701   2.944
 8961SOL     OW27781   2.712   1.901   4.963
 8961SOL    HW127782   2.742   1.883   5.056
 8961SOL    HW227783   2.672   1.993   4.957
 8962SOL     OW27784   6.857   5.734   2.239
 8962SOL    HW127785   6.807   5.663   2.287
 8962SOL    HW227786   6.823   5.741   2.145
 8963SOL     OW27787   3.839   6.402   6.120
 8963SOL    HW127788   3.882   6.314   6.142
 8963SOL    HW227789   3.754   6.411   6.172
 8964SOL     OW27790   2.161   3.125   4.382
 8964SOL    HW127791   2.188   3.045   4.434
 8964SOL    HW227792   2.091   3.100   4.315
 8965SOL     OW27793   3.799   5.736   0.041
 8965SOL    HW127794   3.756   5.773   6.983
 8965SOL    HW227795   3.898   5.742   0.031
 8966SOL     OW27796   5.341   6.341   4.779
 8966SOL    HW127797   5.293   6.349   4.866
 8966SOL    HW227798   5.376   6.430   4.751
 8967SOL     OW27799   3.303   6.979   3.371
 8967SOL    HW127800   3.369   7.024   3.311
 8967SOL    HW227801   3.277   6.891   3.330
 8968SOL     OW27802   3.470   4.936   2.392
 8968SOL    HW127803   3.380   4.893   2.379
 8968SOL    HW227804   3.512   4.951   2.303
 8969SOL     OW27805   0.441   0.456   2.593
 8969SOL    HW127806   0.394   0.413   2.670
 8969SOL    HW227807   0.478   0.544   2.621
 8970SOL     OW27808   1.720   0.755   3.886
 8970SOL    HW127809   1.704   0.796   3.796
 8970SOL    HW227810   1.818   0.737   3.897
 8971SOL     OW27811   2.830   4.296   0.747
 8971SOL    HW127812   2.841   4.196   0.745
 8971SOL    HW227813   2.902   4.339   0.692
 8972SOL     OW27814   5.532   3.819   6.563
 8972SOL    HW127815   5.626   3.812   6.597
 8972SOL    HW227816   5.469   3.828   6.640
 8973SOL     OW27817   2.202   2.440   3.157
 8973SOL    HW127818   2.128   2.505   3.176
 8973SOL    HW227819   2.168   2.347   3.169
 8974SOL     OW27820   2.204   4.552   4.396
 8974SOL    HW127821   2.265   4.603   4.457
 8974SOL    HW227822   2.245   4.462   4.377
 8975SOL     OW27823   7.017   4.781   5.695
 8975SOL    HW127824   0.015   4.878   5.680
 8975SOL    HW227825   6.976   4.743   5.612
 8976SOL     OW27826   5.790   0.542   2.239
 8976SOL    HW127827   5.705   0.581   2.275
 8976SOL    HW227828   5.848   0.513   2.315
 8977SOL     OW27829   6.058   4.065   6.666
 8977SOL    HW127830   6.033   4.146   6.720
 8977SOL    HW227831   5.975   4.022   6.631
 8978SOL     OW27832   6.187   5.788   6.855
 8978SOL    HW127833   6.145   5.802   6.945
 8978SOL    HW227834   6.177   5.871   6.800
 8979SOL     OW27835   1.473   4.902   4.337
 8979SOL    HW127836   1.476   4.827   4.403
 8979SOL    HW227837   1.432   4.870   4.252
 8980SOL     OW27838   3.195   0.581   0.188
 8980SOL    HW127839   3.221   0.673   0.217
 8980SOL    HW227840   3.240   0.514   0.247
 8981SOL     OW27841   4.332   3.370   6.324
 8981SOL    HW127842   4.329   3.407   6.232
 8981SOL    HW227843   4.240   3.373   6.364
 8982SOL     OW27844   0.540   2.161   1.870
 8982SOL    HW127845   0.552   2.067   1.836
 8982SOL    HW227846   0.628   2.208   1.868
 8983SOL     OW27847   1.569   6.565   1.937
 8983SOL    HW127848   1.484   6.515   1.925
 8983SOL    HW227849   1.627   6.553   1.856
 8984SOL     OW27850   6.946   1.083   4.532
 8984SOL    HW127851   0.020   1.072   4.545
 8984SOL    HW227852   6.920   1.050   4.441
 8985SOL     OW27853   4.946   1.561   2.572
 8985SOL    HW127854   4.877   1.626   2.603
 8985SOL    HW227855   4.902   1.475   2.547
 8986SOL     OW27856   6.515   4.762   0.366
 8986SOL    HW127857   6.460   4.740   0.285
 8986SOL    HW227858   6.454   4.792   0.439
 8987SOL     OW27859   2.105   6.356   1.349
 8987SOL    HW127860   2.144   6.275   1.304
 8987SOL    HW227861   2.107   6.433   1.286
 8988SOL     OW27862   3.027   0.356   1.355
 8988SOL    HW127863   2.977   0.281   1.397
 8988SOL    HW227864   3.023   0.436   1.414
 8989SOL     OW27865   5.508   1.474   2.342
 8989SOL    HW127866   5.528   1.497   2.437
 8989SOL    HW227867   5.571   1.524   2.282
 8990SOL     OW27868   2.965   0.666   2.731
 8990SOL    HW127869   2.969   0.711   2.821
 8990SOL    HW227870   2.922   0.728   2.665
 8991SOL     OW27871   1.295   2.037   0.851
 8991SOL    HW127872   1.271   1.985   0.933
 8991SOL    HW227873   1.215   2.087   0.819
 8992SOL     OW27874   6.538   4.527   6.625
 8992SOL    HW127875   6.572   4.578   6.546
 8992SOL    HW227876   6.602   4.453   6.648
 8993SOL     OW27877   5.107   3.856   5.086
 8993SOL    HW127878   5.124   3.872   4.989
 8993SOL    HW227879   5.078   3.941   5.130
 8994SOL     OW27880   1.422   5.824   2.643
 8994SOL    HW127881   1.454   5.897   2.583
 8994SOL    HW227882   1.377   5.753   2.589
 8995SOL     OW27883   1.888   3.803   5.101
 8995SOL    HW127884   1.982   3.805   5.067
 8995SOL    HW227885   1.852   3.710   5.094
 8996SOL     OW27886   1.457   3.966   1.622
 8996SOL    HW127887   1.455   3.990   1.719
 8996SOL    HW227888   1.465   3.867   1.612
 8997SOL     OW27889   4.528   1.383   5.619
 8997SOL    HW127890   4.453   1.400   5.555
 8997SOL    HW227891   4.613   1.423   5.582
 8998SOL     OW27892   1.429   1.374   6.430
 8998SOL    HW127893   1.351   1.437   6.433
 8998SOL    HW227894   1.508   1.418   6.473
 8999SOL     OW27895   5.337   1.864   5.063
 8999SOL    HW127896   5.390   1.926   5.121
 8999SOL    HW227897   5.399   1.810   5.007
 9000SOL     OW27898   2.794   4.565   0.382
 9000SOL    HW127899   2.883   4.541   0.343
 9000SOL    HW227900   2.779   4.663   0.373
 9001SOL     OW27901   2.019   4.732   3.617
 9001SOL    HW127902   2.079   4.652   3.625
 9001SOL    HW227903   2.042   4.797   3.689
 9002SOL     OW27904   5.375   3.930   5.152
 9002SOL    HW127905   5.286   3.883   5.155
 9002SOL    HW227906   5.447   3.862   5.138
 9003SOL     OW27907   6.616   2.914   6.754
 9003SOL    HW127908   6.537   2.960   6.795
 9003SOL    HW227909   6.620   2.820   6.787
 9004SOL     OW27910   4.466   5.401   0.920
 9004SOL    HW127911   4.549   5.456   0.922
 9004SOL    HW227912   4.439   5.378   1.014
 9005SOL     OW27913   4.772   2.396   2.918
 9005SOL    HW127914   4.747   2.486   2.954
 9005SOL    HW227915   4.705   2.368   2.849
 9006SOL     OW27916   2.649   6.756   0.646
 9006SOL    HW127917   2.739   6.713   0.633
 9006SOL    HW227918   2.594   6.700   0.708
 9007SOL     OW27919   2.484   6.545   4.457
 9007SOL    HW127920   2.407   6.561   4.396
 9007SOL    HW227921   2.474   6.600   4.540
 9008SOL     OW27922   6.942   4.384   2.699
 9008SOL    HW127923   6.904   4.364   2.609
 9008SOL    HW227924   7.016   4.321   2.720
 9009SOL     OW27925   3.945   6.482   0.868
 9009SOL    HW127926   3.850   6.453   0.882
 9009SOL    HW227927   4.004   6.433   0.932
 9010SOL     OW27928   0.412   5.689   5.013
 9010SOL    HW127929   0.503   5.684   5.056
 9010SOL    HW227930   0.402   5.615   4.947
 9011SOL     OW27931   4.425   2.067   2.036
 9011SOL    HW127932   4.448   2.143   2.096
 9011SOL    HW227933   4.363   2.100   1.964
 9012SOL     OW27934   5.570   5.384   1.996
 9012SOL    HW127935   5.554   5.478   1.965
 9012SOL    HW227936   5.532   5.373   2.088
 9013SOL     OW27937   4.184   6.251   2.169
 9013SOL    HW127938   4.145   6.310   2.239
 9013SOL    HW227939   4.162   6.156   2.189
 9014SOL     OW27940   2.177   1.029   0.867
 9014SOL    HW127941   2.163   0.930   0.873
 9014SOL    HW227942   2.230   1.060   0.947
 9015SOL     OW27943   6.300   1.268   4.984
 9015SOL    HW127944   6.325   1.313   5.070
 9015SOL    HW227945   6.367   1.198   4.961
 9016SOL     OW27946   6.919   5.684   6.774
 9016SOL    HW127947   6.849   5.615   6.759
 9016SOL    HW227948   6.984   5.682   6.699
 9017SOL     OW27949   6.934   3.980   3.337
 9017SOL    HW127950   7.024   4.021   3.345
 9017SOL    HW227951   6.873   4.041   3.287
 9018SOL     OW27952   3.790   1.570   6.175
 9018SOL    HW127953   3.813   1.643   6.111
 9018SOL    HW227954   3.741   1.608   6.253
 9019SOL     OW27955   1.606   5.317   0.184
 9019SOL    HW127956   1.704   5.336   0.196
 9019SOL    HW227957   1.553   5.378   0.242
 9020SOL     OW27958   0.870   4.904   3.091
 9020SOL    HW127959   0.923   4.820   3.083
 9020SOL    HW227960   0.917   4.968   3.152
 9021SOL     OW27961   6.307   6.061   5.492
 9021SOL    HW127962   6.323   5.964   5.475
 9021SOL    HW227963   6.362   6.090   5.570
 9022SOL     OW27964   3.713   0.718   6.509
 9022SOL    HW127965   3.635   0.715   6.447
 9022SOL    HW227966   3.688   0.769   6.592
 9023SOL     OW27967   2.922   3.271   3.093
 9023SOL    HW127968   2.846   3.207   3.103
 9023SOL    HW227969   2.940   3.316   3.181
 9024SOL     OW27970   1.307   7.006   6.918
 9024SOL    HW127971   1.215   7.013   6.957
 9024SOL    HW227972   1.303   6.952   6.834
 9025SOL     OW27973   0.422   3.804   0.411
 9025SOL    HW127974   0.484   3.732   0.444
 9025SOL    HW227975   0.349   3.818   0.478
 9026SOL     OW27976   3.209   3.034   5.689
 9026SOL    HW127977   3.187   3.131   5.675
 9026SOL    HW227978   3.133   2.978   5.657
 9027SOL     OW27979   2.467   2.596   3.034
 9027SOL    HW127980   2.467   2.535   3.114
 9027SOL    HW227981   2.431   2.685   3.061
 9028SOL     OW27982   2.855   5.090   4.968
 9028SOL    HW127983   2.824   5.061   5.059
 9028SOL    HW227984   2.921   5.024   4.933
 9029SOL     OW27985   5.371   5.455   2.758
 9029SOL    HW127986   5.444   5.388   2.750
 9029SOL    HW227987   5.342   5.483   2.666
 9030SOL     OW27988   3.370   2.048   1.938
 9030SOL    HW127989   3.281   2.036   1.895
 9030SOL    HW227990   3.434   2.086   1.872
 9031SOL     OW27991   1.690   1.588   1.114
 9031SOL    HW127992   1.622   1.615   1.046
 9031SOL    HW227993   1.782   1.610   1.080
 9032SOL     OW27994   0.991   2.447   2.849
 9032SOL    HW127995   1.084   2.447   2.811
 9032SOL    HW227996   0.925   2.438   2.775
 9033SOL     OW27997   1.210   3.938   2.156
 9033SOL    HW127998   1.130   3.987   2.193
 9033SOL    HW227999   1.292   3.993   2.169
 9034SOL     OW28000   1.184   0.222   6.003
 9034SOL    HW128001   1.155   0.276   6.082
 9034SOL    HW228002   1.220   0.283   5.932
 9035SOL     OW28003   0.125   0.403   4.513
 9035SOL    HW128004   0.027   0.382   4.516
 9035SOL    HW228005   0.172   0.350   4.583
 9036SOL     OW28006   1.570   1.499   4.760
 9036SOL    HW128007   1.504   1.494   4.685
 9036SOL    HW228008   1.550   1.579   4.817
 9037SOL     OW28009   2.965   3.964   5.842
 9037SOL    HW128010   2.975   3.983   5.745
 9037SOL    HW228011   2.982   4.048   5.894
 9038SOL     OW28012   4.977   6.368   5.310
 9038SOL    HW128013   4.965   6.271   5.328
 9038SOL    HW228014   4.893   6.404   5.267
 9039SOL     OW28015   2.144   4.817   6.596
 9039SOL    HW128016   2.048   4.804   6.572
 9039SOL    HW228017   2.150   4.858   6.688
 9040SOL     OW28018   2.451   1.852   2.078
 9040SOL    HW128019   2.426   1.756   2.065
 9040SOL    HW228020   2.438   1.876   2.175
 9041SOL     OW28021   1.996   2.819   6.932
 9041SOL    HW128022   2.090   2.819   6.898
 9041SOL    HW228023   1.954   2.908   6.913
 9042SOL     OW28024   2.398   5.755   3.021
 9042SOL    HW128025   2.422   5.660   3.044
 9042SOL    HW228026   2.427   5.816   3.095
 9043SOL     OW28027   6.427   2.595   0.796
 9043SOL    HW128028   6.335   2.611   0.762
 9043SOL    HW228029   6.430   2.615   0.894
 9044SOL     OW28030   6.712   4.673   0.904
 9044SOL    HW128031   6.734   4.722   0.988
 9044SOL    HW228032   6.716   4.574   0.920
 9045SOL     OW28033   2.817   5.419   4.361
 9045SOL    HW128034   2.891   5.480   4.389
 9045SOL    HW228035   2.729   5.462   4.379
 9046SOL     OW28036   3.829   4.312   5.748
 9046SOL    HW128037   3.854   4.364   5.666
 9046SOL    HW228038   3.738   4.273   5.736
 9047SOL     OW28039   1.435   4.681   5.147
 9047SOL    HW128040   1.338   4.697   5.130
 9047SOL    HW228041   1.460   4.590   5.114
 9048SOL     OW28042   1.708   1.910   5.077
 9048SOL    HW128043   1.785   1.879   5.022
 9048SOL    HW228044   1.707   2.009   5.080
 9049SOL     OW28045   5.086   5.817   6.566
 9049SOL    HW128046   5.162   5.793   6.507
 9049SOL    HW228047   5.000   5.808   6.516
 9050SOL     OW28048   0.090   5.874   5.186
 9050SOL    HW128049   0.177   5.848   5.228
 9050SOL    HW228050   0.016   5.819   5.225
 9051SOL     OW28051   5.564   6.585   6.255
 9051SOL    HW128052   5.493   6.583   6.186
 9051SOL    HW228053   5.638   6.645   6.226
 9052SOL     OW28054   2.052   5.233   4.947
 9052SOL    HW128055   2.000   5.222   5.032
 9052SOL    HW228056   2.122   5.304   4.960
 9053SOL     OW28057   3.099   1.679   3.791
 9053SOL    HW128058   3.060   1.730   3.867
 9053SOL    HW228059   3.026   1.635   3.738
 9054SOL     OW28060   3.307   0.190   1.130
 9054SOL    HW128061   3.353   0.186   1.042
 9054SOL    HW228062   3.272   0.282   1.146
 9055SOL     OW28063   0.780   1.638   4.793
 9055SOL    HW128064   0.689   1.649   4.751
 9055SOL    HW228065   0.805   1.542   4.793
 9056SOL     OW28066   5.089   2.270   2.544
 9056SOL    HW128067   5.167   2.277   2.482
 9056SOL    HW228068   5.027   2.199   2.511
 9057SOL     OW28069   4.806   6.185   0.112
 9057SOL    HW128070   4.746   6.116   0.072
 9057SOL    HW228071   4.752   6.264   0.140
 9058SOL     OW28072   2.240   2.478   4.124
 9058SOL    HW128073   2.286   2.563   4.098
 9058SOL    HW228074   2.160   2.464   4.065
 9059SOL     OW28075   6.447   0.732   2.542
 9059SOL    HW128076   6.455   0.829   2.519
 9059SOL    HW228077   6.397   0.685   2.469
 9060SOL     OW28078   0.998   5.471   1.524
 9060SOL    HW128079   1.093   5.451   1.549
 9060SOL    HW228080   0.942   5.391   1.541
 9061SOL     OW28081   5.159   4.392   2.544
 9061SOL    HW128082   5.173   4.296   2.570
 9061SOL    HW228083   5.061   4.412   2.542
 9062SOL     OW28084   0.649   6.009   2.774
 9062SOL    HW128085   0.601   6.007   2.686
 9062SOL    HW228086   0.584   5.992   2.848
 9063SOL     OW28087   4.480   1.994   1.644
 9063SOL    HW128088   4.518   2.043   1.565
 9063SOL    HW228089   4.546   1.925   1.674
 9064SOL     OW28090   0.437   5.492   3.261
 9064SOL    HW128091   0.474   5.399   3.253
 9064SOL    HW228092   0.512   5.557   3.274
 9065SOL     OW28093   3.002   4.215   5.971
 9065SOL    HW128094   3.052   4.299   5.955
 9065SOL    HW228095   2.955   4.220   6.059
 9066SOL     OW28096   4.566   5.139   4.683
 9066SOL    HW128097   4.665   5.123   4.683
 9066SOL    HW228098   4.523   5.084   4.612
 9067SOL     OW28099   1.253   6.018   4.659
 9067SOL    HW128100   1.248   5.996   4.562
 9067SOL    HW228101   1.272   6.115   4.671
 9068SOL     OW28102   4.237   6.987   5.705
 9068SOL    HW128103   4.179   0.037   5.738
 9068SOL    HW228104   4.245   6.917   5.776
 9069SOL     OW28105   4.985   2.755   1.158
 9069SOL    HW128106   5.021   2.811   1.083
 9069SOL    HW228107   5.032   2.780   1.243
 9070SOL     OW28108   2.564   1.345   5.623
 9070SOL    HW128109   2.618   1.311   5.546
 9070SOL    HW228110   2.535   1.268   5.679
 9071SOL     OW28111   5.989   2.118   6.289
 9071SOL    HW128112   5.916   2.145   6.351
 9071SOL    HW228113   6.042   2.043   6.330
 9072SOL     OW28114   5.270   0.252   2.806
 9072SOL    HW128115   5.302   0.172   2.857
 9072SOL    HW228116   5.197   0.297   2.858
 9073SOL     OW28117   4.812   2.587   5.118
 9073SOL    HW128118   4.810   2.534   5.033
 9073SOL    HW228119   4.817   2.524   5.196
 9074SOL     OW28120   1.794   1.088   2.621
 9074SOL    HW128121   1.769   0.993   2.637
 9074SOL    HW228122   1.876   1.092   2.564
 9075SOL     OW28123   6.084   5.860   0.577
 9075SOL    HW128124   6.132   5.927   0.633
 9075SOL    HW228125   6.026   5.907   0.510
 9076SOL     OW28126   6.711   6.668   1.870
 9076SOL    HW128127   6.614   6.688   1.882
 9076SOL    HW228128   6.764   6.718   1.938
 9077SOL     OW28129   6.644   1.793   0.057
 9077SOL    HW128130   6.580   1.799   7.004
 9077SOL    HW228131   6.626   1.868   0.120
 9078SOL     OW28132   4.986   6.698   0.063
 9078SOL    HW128133   4.987   6.603   0.031
 9078SOL    HW228134   5.057   6.711   0.132
 9079SOL     OW28135   1.685   1.382   6.548
 9079SOL    HW128136   1.692   1.439   6.629
 9079SOL    HW228137   1.655   1.290   6.573
 9080SOL     OW28138   6.194   3.809   2.174
 9080SOL    HW128139   6.233   3.888   2.126
 9080SOL    HW228140   6.099   3.796   2.146
 9081SOL     OW28141   5.288   1.004   0.499
 9081SOL    HW128142   5.385   1.011   0.474
 9081SOL    HW228143   5.234   1.062   0.439
 9082SOL     OW28144   3.394   5.900   6.335
 9082SOL    HW128145   3.360   5.819   6.382
 9082SOL    HW228146   3.349   5.908   6.246
 9083SOL     OW28147   3.984   6.065   0.260
 9083SOL    HW128148   4.050   6.081   0.186
 9083SOL    HW228149   4.005   6.124   0.338
 9084SOL     OW28150   0.136   3.178   5.477
 9084SOL    HW128151   0.061   3.244   5.472
 9084SOL    HW228152   0.115   3.109   5.546
 9085SOL     OW28153   2.709   4.827   0.275
 9085SOL    HW128154   2.635   4.783   0.224
 9085SOL    HW228155   2.700   4.926   0.268
 9086SOL     OW28156   7.021   4.243   1.115
 9086SOL    HW128157   6.922   4.256   1.108
 9086SOL    HW228158   0.017   4.145   1.115
 9087SOL     OW28159   5.622   0.704   1.263
 9087SOL    HW128160   5.523   0.718   1.255
 9087SOL    HW228161   5.658   0.674   1.174
 9088SOL     OW28162   6.312   6.111   0.718
 9088SOL    HW128163   6.335   6.208   0.710
 9088SOL    HW228164   6.394   6.056   0.701
 9089SOL     OW28165   5.756   5.308   3.311
 9089SOL    HW128166   5.682   5.251   3.345
 9089SOL    HW228167   5.817   5.254   3.253
 9090SOL     OW28168   5.050   5.987   5.687
 9090SOL    HW128169   5.008   6.020   5.772
 9090SOL    HW228170   5.023   6.047   5.612
 9091SOL     OW28171   2.046   1.818   1.844
 9091SOL    HW128172   2.022   1.861   1.931
 9091SOL    HW228173   2.143   1.794   1.844
 9092SOL     OW28174   2.491   1.040   5.481
 9092SOL    HW128175   2.517   1.077   5.392
 9092SOL    HW228176   2.553   0.966   5.506
 9093SOL     OW28177   1.952   3.864   0.632
 9093SOL    HW128178   1.865   3.876   0.584
 9093SOL    HW228179   2.027   3.873   0.567
 9094SOL     OW28180   6.533   4.322   1.618
 9094SOL    HW128181   6.627   4.294   1.634
 9094SOL    HW228182   6.516   4.409   1.665
 9095SOL     OW28183   3.405   2.757   6.925
 9095SOL    HW128184   3.339   2.785   6.994
 9095SOL    HW228185   3.450   2.838   6.887
 9096SOL     OW28186   5.972   3.252   3.372
 9096SOL    HW128187   6.065   3.270   3.402
 9096SOL    HW228188   5.923   3.202   3.444
 9097SOL     OW28189   0.787   4.948   6.009
 9097SOL    HW128190   0.736   4.861   6.006
 9097SOL    HW228191   0.836   4.955   6.095
 9098SOL     OW28192   3.808   3.534   3.204
 9098SOL    HW128193   3.895   3.488   3.189
 9098SOL    HW228194   3.809   3.580   3.293
 9099SOL     OW28195   1.640   2.783   0.814
 9099SOL    HW128196   1.717   2.723   0.837
 9099SOL    HW228197   1.583   2.797   0.895
 9100SOL     OW28198   0.762   3.307   0.976
 9100SOL    HW128199   0.854   3.306   1.014
 9100SOL    HW228200   0.716   3.220   0.997
 9101SOL     OW28201   2.099   2.136   0.298
 9101SOL    HW128202   2.056   2.087   0.221
 9101SOL    HW228203   2.088   2.083   0.382
 9102SOL     OW28204   4.128   5.676   2.870
 9102SOL    HW128205   4.106   5.753   2.810
 9102SOL    HW228206   4.091   5.693   2.961
 9103SOL     OW28207   0.210   3.821   6.230
 9103SOL    HW128208   0.123   3.828   6.280
 9103SOL    HW228209   0.282   3.792   6.294
 9104SOL     OW28210   4.032   6.505   1.770
 9104SOL    HW128211   4.001   6.562   1.694
 9104SOL    HW228212   3.973   6.521   1.849
 9105SOL     OW28213   2.642   1.607   5.646
 9105SOL    HW128214   2.588   1.527   5.620
 9105SOL    HW228215   2.581   1.684   5.664
 9106SOL     OW28216   6.759   5.123   1.231
 9106SOL    HW128217   6.824   5.095   1.160
 9106SOL    HW228218   6.808   5.170   1.304
 9107SOL     OW28219   4.558   0.850   1.418
 9107SOL    HW128220   4.548   0.799   1.503
 9107SOL    HW228221   4.560   0.948   1.438
 9108SOL     OW28222   4.568   5.560   6.324
 9108SOL    HW128223   4.532   5.575   6.232
 9108SOL    HW228224   4.663   5.528   6.318
 9109SOL     OW28225   2.801   2.296   3.948
 9109SOL    HW128226   2.845   2.208   3.969
 9109SOL    HW228227   2.812   2.315   3.850
 9110SOL     OW28228   1.865   3.751   3.241
 9110SOL    HW128229   1.814   3.703   3.169
 9110SOL    HW228230   1.899   3.838   3.206
 9111SOL     OW28231   4.058   4.458   1.649
 9111SOL    HW128232   4.143   4.501   1.618
 9111SOL    HW228233   4.078   4.365   1.679
 9112SOL     OW28234   6.913   5.030   2.455
 9112SOL    HW128235   6.910   5.055   2.552
 9112SOL    HW228236   6.995   5.070   2.414
 9113SOL     OW28237   3.802   6.647   0.203
 9113SOL    HW128238   3.892   6.656   0.160
 9113SOL    HW228239   3.732   6.689   0.146
 9114SOL     OW28240   2.669   4.543   1.682
 9114SOL    HW128241   2.744   4.527   1.747
 9114SOL    HW228242   2.586   4.566   1.732
 9115SOL     OW28243   1.554   4.625   4.490
 9115SOL    HW128244   1.550   4.701   4.554
 9115SOL    HW228245   1.645   4.621   4.449
 9116SOL     OW28246   1.516   1.287   5.849
 9116SOL    HW128247   1.416   1.294   5.855
 9116SOL    HW228248   1.547   1.210   5.906
 9117SOL     OW28249   6.666   2.809   0.000
 9117SOL    HW128250   6.585   2.809   6.966
 9117SOL    HW228251   6.691   2.715   0.022
 9118SOL     OW28252   6.350   6.019   1.816
 9118SOL    HW128253   6.391   5.949   1.758
 9118SOL    HW228254   6.311   6.092   1.759
 9119SOL     OW28255   6.716   0.492   1.525
 9119SOL    HW128256   6.726   0.393   1.534
 9119SOL    HW228257   6.629   0.520   1.566
 9120SOL     OW28258   5.535   1.232   6.084
 9120SOL    HW128259   5.559   1.303   6.018
 9120SOL    HW228260   5.531   1.272   6.176
 9121SOL     OW28261   1.076   1.300   6.233
 9121SOL    HW128262   1.043   1.227   6.174
 9121SOL    HW228263   1.015   1.379   6.226
 9122SOL     OW28264   0.998   2.797   2.007
 9122SOL    HW128265   1.081   2.759   1.967
 9122SOL    HW228266   1.021   2.878   2.061
 9123SOL     OW28267   2.472   5.189   6.902
 9123SOL    HW128268   2.445   5.135   6.982
 9123SOL    HW228269   2.560   5.155   6.867
 9124SOL     OW28270   6.564   5.488   5.270
 9124SOL    HW128271   6.503   5.443   5.205
 9124SOL    HW228272   6.648   5.514   5.223
 9125SOL     OW28273   4.901   4.860   3.527
 9125SOL    HW128274   4.859   4.911   3.452
 9125SOL    HW228275   4.943   4.777   3.491
 9126SOL     OW28276   5.815   0.895   1.450
 9126SOL    HW128277   5.770   0.922   1.364
 9126SOL    HW228278   5.908   0.932   1.451
 9127SOL     OW28279   5.051   0.937   7.000
 9127SOL    HW128280   4.985   0.884   6.947
 9127SOL    HW228281   5.070   0.890   0.062
 9128SOL     OW28282   4.429   2.327   5.043
 9128SOL    HW128283   4.334   2.356   5.051
 9128SOL    HW228284   4.478   2.348   5.128
 9129SOL     OW28285   2.103   1.991   6.297
 9129SOL    HW128286   2.145   2.015   6.210
 9129SOL    HW228287   2.134   1.900   6.326
 9130SOL     OW28288   5.976   4.938   0.978
 9130SOL    HW128289   5.993   4.893   1.065
 9130SOL    HW228290   6.050   4.918   0.914
 9131SOL     OW28291   0.967   4.219   4.393
 9131SOL    HW128292   1.067   4.227   4.400
 9131SOL    HW228293   0.943   4.166   4.312
 9132SOL     OW28294   0.129   2.853   4.631
 9132SOL    HW128295   0.087   2.777   4.681
 9132SOL    HW228296   0.063   2.926   4.620
 9133SOL     OW28297   2.106   3.918   1.163
 9133SOL    HW128298   2.064   4.002   1.197
 9133SOL    HW228299   2.036   3.859   1.124
 9134SOL     OW28300   2.967   5.863   6.266
 9134SOL    HW128301   2.904   5.900   6.197
 9134SOL    HW228302   3.035   5.805   6.221
 9135SOL     OW28303   6.754   6.175   4.609
 9135SOL    HW128304   6.693   6.247   4.575
 9135SOL    HW228305   6.845   6.188   4.571
 9136SOL     OW28306   4.329   4.811   5.624
 9136SOL    HW128307   4.368   4.865   5.549
 9136SOL    HW228308   4.233   4.792   5.605
 9137SOL     OW28309   3.955   1.290   1.765
 9137SOL    HW128310   3.931   1.347   1.843
 9137SOL    HW228311   3.877   1.284   1.703
 9138SOL     OW28312   4.198   5.129   6.727
 9138SOL    HW128313   4.129   5.178   6.674
 9138SOL    HW228314   4.156   5.092   6.810
 9139SOL     OW28315   3.153   1.459   5.235
 9139SOL    HW128316   3.208   1.420   5.162
 9139SOL    HW228317   3.197   1.543   5.269
 9140SOL     OW28318   6.981   2.455   2.863
 9140SOL    HW128319   6.926   2.495   2.936
 9140SOL    HW228320   0.053   2.462   2.887
 9141SOL     OW28321   5.725   0.150   5.777
 9141SOL    HW128322   5.729   0.202   5.692
 9141SOL    HW228323   5.731   0.052   5.756
 9142SOL     OW28324   0.078   2.960   5.905
 9142SOL    HW128325   0.045   3.040   5.956
 9142SOL    HW228326   0.137   2.905   5.964
 9143SOL     OW28327   4.684   4.077   0.614
 9143SOL    HW128328   4.663   4.058   0.710
 9143SOL    HW228329   4.770   4.127   0.609
 9144SOL     OW28330   1.906   5.473   5.457
 9144SOL    HW128331   1.948   5.563   5.467
 9144SOL    HW228332   1.972   5.409   5.417
 9145SOL     OW28333   0.088   4.792   6.376
 9145SOL    HW128334   0.038   4.730   6.317
 9145SOL    HW228335   0.178   4.811   6.337
 9146SOL     OW28336   6.104   2.075   1.993
 9146SOL    HW128337   6.028   2.019   2.024
 9146SOL    HW228338   6.118   2.151   2.057
 9147SOL     OW28339   4.055   5.699   5.373
 9147SOL    HW128340   4.148   5.734   5.361
 9147SOL    HW228341   4.052   5.641   5.454
 9148SOL     OW28342   4.587   5.348   3.671
 9148SOL    HW128343   4.556   5.327   3.578
 9148SOL    HW228344   4.623   5.441   3.674
 9149SOL     OW28345   5.531   3.285   4.325
 9149SOL    HW128346   5.537   3.377   4.288
 9149SOL    HW228347   5.521   3.288   4.424
 9150SOL     OW28348   4.899   0.239   3.020
 9150SOL    HW128349   4.882   0.163   2.957
 9150SOL    HW228350   4.829   0.239   3.092
 9151SOL     OW28351   1.473   4.254   1.998
 9151SOL    HW128352   1.379   4.272   1.967
 9151SOL    HW228353   1.531   4.238   1.918
 9152SOL     OW28354   2.022   5.891   3.454
 9152SOL    HW128355   1.938   5.842   3.432
 9152SOL    HW228356   2.101   5.840   3.420
 9153SOL     OW28357   2.070   3.100   6.478
 9153SOL    HW128358   2.136   3.099   6.553
 9153SOL    HW228359   1.978   3.083   6.514
 9154SOL     OW28360   2.457   5.703   0.293
 9154SOL    HW128361   2.393   5.725   0.220
 9154SOL    HW228362   2.464   5.604   0.304
 9155SOL     OW28363   1.325   3.971   7.012
 9155SOL    HW128364   1.305   4.026   6.931
 9155SOL    HW228365   1.292   3.878   6.998
 9156SOL     OW28366   4.804   2.225   1.157
 9156SOL    HW128367   4.880   2.225   1.093
 9156SOL    HW228368   4.790   2.133   1.194
 9157SOL     OW28369   5.075   4.098   5.877
 9157SOL    HW128370   5.022   4.037   5.819
 9157SOL    HW228371   5.035   4.101   5.969
 9158SOL     OW28372   0.863   3.550   4.234
 9158SOL    HW128373   0.835   3.640   4.201
 9158SOL    HW228374   0.942   3.518   4.181
 9159SOL     OW28375   6.548   5.366   2.608
 9159SOL    HW128376   6.526   5.369   2.706
 9159SOL    HW228377   6.468   5.336   2.557
 9160SOL     OW28378   0.577   0.408   0.128
 9160SOL    HW128379   0.493   0.441   0.171
 9160SOL    HW228380   0.653   0.420   0.192
 9161SOL     OW28381   4.798   3.996   4.771
 9161SOL    HW128382   4.887   3.981   4.815
 9161SOL    HW228383   4.745   3.911   4.773
 9162SOL     OW28384   4.704   2.768   2.460
 9162SOL    HW128385   4.673   2.703   2.530
 9162SOL    HW228386   4.647   2.850   2.464
 9163SOL     OW28387   3.006   2.088   3.720
 9163SOL    HW128388   2.969   2.004   3.678
 9163SOL    HW228389   2.937   2.160   3.716
 9164SOL     OW28390   3.402   0.410   6.931
 9164SOL    HW128391   3.406   0.382   6.835
 9164SOL    HW228392   3.314   0.454   6.949
 9165SOL     OW28393   5.843   0.412   6.802
 9165SOL    HW128394   5.886   0.326   6.831
 9165SOL    HW228395   5.913   0.471   6.762
 9166SOL     OW28396   3.061   5.073   0.897
 9166SOL    HW128397   3.072   5.142   0.825
 9166SOL    HW228398   3.091   5.112   0.984
 9167SOL     OW28399   1.973   4.336   5.652
 9167SOL    HW128400   1.992   4.271   5.578
 9167SOL    HW228401   1.998   4.428   5.623
 9168SOL     OW28402   2.467   0.755   6.022
 9168SOL    HW128403   2.411   0.829   5.985
 9168SOL    HW228404   2.408   0.678   6.048
 9169SOL     OW28405   0.477   1.062   3.896
 9169SOL    HW128406   0.505   1.090   3.804
 9169SOL    HW228407   0.380   1.082   3.909
 9170SOL     OW28408   6.971   5.364   0.035
 9170SOL    HW128409   6.909   5.420   0.091
 9170SOL    HW228410   0.003   5.423   7.003
 9171SOL     OW28411   2.804   5.435   0.176
 9171SOL    HW128412   2.740   5.430   0.099
 9171SOL    HW228413   2.766   5.494   0.247
 9172SOL     OW28414   3.230   1.372   3.722
 9172SOL    HW128415   3.322   1.396   3.692
 9172SOL    HW228416   3.231   1.354   3.821
 9173SOL     OW28417   6.947   5.091   4.150
 9173SOL    HW128418   6.955   5.185   4.116
 9173SOL    HW228419   0.003   5.068   4.204
 9174SOL     OW28420   0.018   4.740   0.297
 9174SOL    HW128421   0.038   4.655   0.250
 9174SOL    HW228422   0.103   4.781   0.329
 9175SOL     OW28423   1.900   5.748   6.056
 9175SOL    HW128424   1.944   5.702   5.979
 9175SOL    HW228425   1.918   5.846   6.052
 9176SOL     OW28426   2.082   0.449   5.821
 9176SOL    HW128427   2.159   0.399   5.783
 9176SOL    HW228428   2.057   0.524   5.759
 9177SOL     OW28429   1.237   4.320   3.493
 9177SOL    HW128430   1.281   4.410   3.485
 9177SOL    HW228431   1.200   4.292   3.405
 9178SOL     OW28432   1.978   4.983   0.782
 9178SOL    HW128433   1.897   5.026   0.742
 9178SOL    HW228434   2.049   4.975   0.712
 9179SOL     OW28435   3.004   4.871   4.197
 9179SOL    HW128436   3.096   4.910   4.205
 9179SOL    HW228437   2.958   4.876   4.286
 9180SOL     OW28438   5.462   2.145   3.812
 9180SOL    HW128439   5.427   2.219   3.755
 9180SOL    HW228440   5.544   2.106   3.770
 9181SOL     OW28441   4.510   2.016   2.360
 9181SOL    HW128442   4.437   2.054   2.304
 9181SOL    HW228443   4.473   1.944   2.419
 9182SOL     OW28444   1.048   6.295   1.653
 9182SOL    HW128445   1.137   6.333   1.629
 9182SOL    HW228446   0.977   6.365   1.643
 9183SOL     OW28447   4.855   6.312   1.234
 9183SOL    HW128448   4.925   6.268   1.290
 9183SOL    HW228449   4.899   6.360   1.157
 9184SOL     OW28450   4.914   0.235   0.697
 9184SOL    HW128451   4.933   0.137   0.704
 9184SOL    HW228452   4.819   0.248   0.669
 9185SOL     OW28453   3.772   0.824   4.971
 9185SOL    HW128454   3.800   0.780   4.886
 9185SOL    HW228455   3.676   0.851   4.964
 9186SOL     OW28456   6.116   1.279   5.709
 9186SOL    HW128457   6.200   1.234   5.739
 9186SOL    HW228458   6.140   1.362   5.657
 9187SOL     OW28459   2.549   6.652   1.835
 9187SOL    HW128460   2.457   6.643   1.874
 9187SOL    HW228461   2.602   6.570   1.856
 9188SOL     OW28462   2.672   6.514   1.084
 9188SOL    HW128463   2.682   6.421   1.050
 9188SOL    HW228464   2.576   6.535   1.100
 9189SOL     OW28465   5.110   5.581   3.085
 9189SOL    HW128466   5.024   5.533   3.067
 9189SOL    HW228467   5.102   5.632   3.171
 9190SOL     OW28468   1.550   5.184   0.683
 9190SOL    HW128469   1.572   5.278   0.708
 9190SOL    HW228470   1.481   5.148   0.746
 9191SOL     OW28471   6.881   0.506   5.893
 9191SOL    HW128472   6.978   0.501   5.870
 9191SOL    HW228473   6.859   0.598   5.926
 9192SOL     OW28474   6.875   4.180   4.461
 9192SOL    HW128475   6.939   4.209   4.391
 9192SOL    HW228476   6.782   4.209   4.436
 9193SOL     OW28477   3.009   3.512   0.021
 9193SOL    HW128478   3.033   3.526   0.117
 9193SOL    HW228479   3.055   3.431   7.011
 9194SOL     OW28480   3.336   0.581   3.721
 9194SOL    HW128481   3.256   0.523   3.703
 9194SOL    HW228482   3.313   0.648   3.792
 9195SOL     OW28483   1.807   2.148   4.040
 9195SOL    HW128484   1.869   2.153   4.119
 9195SOL    HW228485   1.731   2.086   4.061
 9196SOL     OW28486   4.841   1.749   5.293
 9196SOL    HW128487   4.908   1.780   5.361
 9196SOL    HW228488   4.885   1.739   5.204
 9197SOL     OW28489   2.228   3.597   1.677
 9197SOL    HW128490   2.259   3.543   1.755
 9197SOL    HW228491   2.221   3.693   1.703
 9198SOL     OW28492   6.540   4.965   5.212
 9198SOL    HW128493   6.482   4.919   5.145
 9198SOL    HW228494   6.486   4.989   5.292
 9199SOL     OW28495   0.233   4.158   5.042
 9199SOL    HW128496   0.303   4.153   4.970
 9199SOL    HW228497   0.147   4.122   5.007
 9200SOL     OW28498   3.207   0.305   0.300
 9200SOL    HW128499   3.285   0.246   0.277
 9200SOL    HW228500   3.210   0.327   0.397
 9201SOL     OW28501   1.475   4.254   0.368
 9201SOL    HW128502   1.547   4.324   0.374
 9201SOL    HW228503   1.489   4.185   0.439
 9202SOL     OW28504   1.561   0.703   2.938
 9202SOL    HW128505   1.613   0.674   2.858
 9202SOL    HW228506   1.499   0.630   2.966
 9203SOL     OW28507   6.654   5.469   0.739
 9203SOL    HW128508   6.573   5.434   0.786
 9203SOL    HW228509   6.705   5.528   0.801
 9204SOL     OW28510   5.244   1.193   6.299
 9204SOL    HW128511   5.217   1.127   6.229
 9204SOL    HW228512   5.339   1.221   6.284
 9205SOL     OW28513   6.640   3.769   3.085
 9205SOL    HW128514   6.735   3.799   3.095
 9205SOL    HW228515   6.605   3.740   3.174
 9206SOL     OW28516   3.665   6.204   0.784
 9206SOL    HW128517   3.730   6.177   0.855
 9206SOL    HW228518   3.611   6.282   0.817
 9207SOL     OW28519   4.921   5.455   0.656
 9207SOL    HW128520   4.894   5.494   0.568
 9207SOL    HW228521   4.934   5.356   0.645
 9208SOL     OW28522   0.705   3.884   3.497
 9208SOL    HW128523   0.691   3.785   3.494
 9208SOL    HW228524   0.799   3.903   3.527
 9209SOL     OW28525   2.862   1.420   6.343
 9209SOL    HW128526   2.784   1.481   6.333
 9209SOL    HW228527   2.893   1.391   6.252
 9210SOL     OW28528   6.746   1.033   3.371
 9210SOL    HW128529   6.704   1.085   3.445
 9210SOL    HW228530   6.709   1.063   3.284
 9211SOL     OW28531   0.297   1.558   3.468
 9211SOL    HW128532   0.338   1.510   3.390
 9211SOL    HW228533   0.369   1.583   3.533
 9212SOL     OW28534   3.730   4.962   4.971
 9212SOL    HW128535   3.640   5.005   4.964
 9212SOL    HW228536   3.773   4.960   4.881
 9213SOL     OW28537   5.860   3.892   6.209
 9213SOL    HW128538   5.841   3.959   6.137
 9213SOL    HW228539   5.875   3.941   6.295
 9214SOL     OW28540   0.846   5.757   0.657
 9214SOL    HW128541   0.884   5.668   0.630
 9214SOL    HW228542   0.808   5.750   0.750
 9215SOL     OW28543   1.221   0.930   0.239
 9215SOL    HW128544   1.126   0.899   0.244
 9215SOL    HW228545   1.248   0.970   0.326
 9216SOL     OW28546   2.237   6.902   2.782
 9216SOL    HW128547   2.330   6.939   2.784
 9216SOL    HW228548   2.187   6.940   2.705
 9217SOL     OW28549   1.247   2.196   6.428
 9217SOL    HW128550   1.330   2.185   6.483
 9217SOL    HW228551   1.266   2.260   6.353
 9218SOL     OW28552   3.044   0.068   0.534
 9218SOL    HW128553   2.957   0.093   0.578
 9218SOL    HW228554   3.025   0.021   0.448
 9219SOL     OW28555   0.449   2.271   0.660
 9219SOL    HW128556   0.488   2.358   0.631
 9219SOL    HW228557   0.349   2.277   0.661
 9220SOL     OW28558   3.398   6.439   1.579
 9220SOL    HW128559   3.450   6.369   1.529
 9220SOL    HW228560   3.413   6.528   1.536
 9221SOL     OW28561   2.832   5.645   4.090
 9221SOL    HW128562   2.795   5.716   4.150
 9221SOL    HW228563   2.759   5.579   4.068
 9222SOL     OW28564   2.984   1.626   6.178
 9222SOL    HW128565   2.976   1.701   6.244
 9222SOL    HW228566   2.894   1.607   6.139
 9223SOL     OW28567   2.558   2.851   5.412
 9223SOL    HW128568   2.514   2.889   5.493
 9223SOL    HW228569   2.563   2.920   5.340
 9224SOL     OW28570   1.943   5.238   4.462
 9224SOL    HW128571   1.964   5.143   4.483
 9224SOL    HW228572   1.866   5.268   4.518
 9225SOL     OW28573   2.515   5.858   6.964
 9225SOL    HW128574   2.595   5.905   7.001
 9225SOL    HW228575   2.438   5.922   6.958
 9226SOL     OW28576   5.036   6.931   1.229
 9226SOL    HW128577   4.965   6.999   1.210
 9226SOL    HW228578   4.994   6.851   1.273
 9227SOL     OW28579   1.931   5.847   2.797
 9227SOL    HW128580   1.893   5.939   2.807
 9227SOL    HW228581   1.994   5.845   2.719
 9228SOL     OW28582   1.394   0.807   6.670
 9228SOL    HW128583   1.407   0.906   6.681
 9228SOL    HW228584   1.477   0.759   6.696
 9229SOL     OW28585   0.679   5.440   4.547
 9229SOL    HW128586   0.740   5.402   4.617
 9229SOL    HW228587   0.689   5.388   4.463
 9230SOL     OW28588   5.622   0.760   3.906
 9230SOL    HW128589   5.599   0.667   3.933
 9230SOL    HW228590   5.589   0.824   3.975
 9231SOL     OW28591   1.228   2.759   4.335
 9231SOL    HW128592   1.188   2.845   4.364
 9231SOL    HW228593   1.328   2.768   4.331
 9232SOL     OW28594   3.306   4.712   0.858
 9232SOL    HW128595   3.385   4.739   0.913
 9232SOL    HW228596   3.227   4.699   0.919
 9233SOL     OW28597   5.727   4.930   0.849
 9233SOL    HW128598   5.640   4.943   0.897
 9233SOL    HW228599   5.801   4.922   0.915
 9234SOL     OW28600   2.428   5.649   3.365
 9234SOL    HW128601   2.367   5.669   3.441
 9234SOL    HW228602   2.509   5.600   3.398
 9235SOL     OW28603   0.432   2.303   3.062
 9235SOL    HW128604   0.419   2.313   2.963
 9235SOL    HW228605   0.459   2.391   3.102
 9236SOL     OW28606   2.945   3.604   4.998
 9236SOL    HW128607   2.908   3.532   5.057
 9236SOL    HW228608   2.957   3.568   4.905
 9237SOL     OW28609   1.902   4.107   3.778
 9237SOL    HW128610   1.992   4.069   3.796
 9237SOL    HW228611   1.843   4.037   3.738
 9238SOL     OW28612   4.468   2.833   6.384
 9238SOL    HW128613   4.565   2.851   6.396
 9238SOL    HW228614   4.421   2.917   6.355
 9239SOL     OW28615   1.040   3.972   0.859
 9239SOL    HW128616   1.046   3.979   0.759
 9239SOL    HW228617   0.948   3.995   0.888
 9240SOL     OW28618   4.305   1.444   2.076
 9240SOL    HW128619   4.275   1.440   1.981
 9240SOL    HW228620   4.402   1.421   2.082
 9241SOL     OW28621   0.642   5.800   6.836
 9241SOL    HW128622   0.563   5.782   6.895
 9241SOL    HW228623   0.715   5.735   6.857
 9242SOL     OW28624   5.895   6.095   1.992
 9242SOL    HW128625   5.925   6.034   1.918
 9242SOL    HW228626   5.975   6.125   2.044
 9243SOL     OW28627   6.652   5.827   5.324
 9243SOL    HW128628   6.693   5.756   5.267
 9243SOL    HW228629   6.563   5.853   5.287
 9244SOL     OW28630   3.756   5.311   6.365
 9244SOL    HW128631   3.730   5.298   6.461
 9244SOL    HW228632   3.753   5.224   6.317
 9245SOL     OW28633   0.765   5.807   1.862
 9245SOL    HW128634   0.735   5.749   1.938
 9245SOL    HW228635   0.800   5.749   1.788
 9246SOL     OW28636   6.520   5.348   3.521
 9246SOL    HW128637   6.432   5.358   3.568
 9246SOL    HW228638   6.555   5.439   3.498
 9247SOL     OW28639   0.901   6.700   2.731
 9247SOL    HW128640   0.942   6.675   2.818
 9247SOL    HW228641   0.973   6.724   2.666
 9248SOL     OW28642   2.708   2.316   6.272
 9248SOL    HW128643   2.648   2.369   6.332
 9248SOL    HW228644   2.798   2.359   6.270
 9249SOL     OW28645   5.188   0.298   3.971
 9249SOL    HW128646   5.092   0.324   3.984
 9249SOL    HW228647   5.232   0.285   4.060
 9250SOL     OW28648   5.378   3.412   3.836
 9250SOL    HW128649   5.312   3.401   3.762
 9250SOL    HW228650   5.331   3.447   3.917
 9251SOL     OW28651   3.575   2.003   2.499
 9251SOL    HW128652   3.628   1.920   2.479
 9251SOL    HW228653   3.504   2.014   2.430
 9252SOL     OW28654   0.416   0.181   5.201
 9252SOL    HW128655   0.429   0.096   5.251
 9252SOL    HW228656   0.457   0.173   5.110
 9253SOL     OW28657   1.550   0.046   5.793
 9253SOL    HW128658   1.588   0.134   5.821
 9253SOL    HW228659   1.575   7.001   5.860
 9254SOL     OW28660   6.023   3.930   1.499
 9254SOL    HW128661   6.097   3.947   1.434
 9254SOL    HW228662   6.008   3.832   1.509
 9255SOL     OW28663   5.576   4.289   0.867
 9255SOL    HW128664   5.553   4.363   0.930
 9255SOL    HW228665   5.658   4.242   0.900
 9256SOL     OW28666   4.269   4.766   1.905
 9256SOL    HW128667   4.339   4.695   1.903
 9256SOL    HW228668   4.308   4.852   1.871
 9257SOL     OW28669   0.991   4.024   1.177
 9257SOL    HW128670   1.071   3.967   1.158
 9257SOL    HW228671   0.936   4.033   1.094
 9258SOL     OW28672   3.907   3.232   3.362
 9258SOL    HW128673   3.914   3.164   3.289
 9258SOL    HW228674   3.826   3.288   3.348
 9259SOL     OW28675   1.238   2.705   1.182
 9259SOL    HW128676   1.161   2.641   1.181
 9259SOL    HW228677   1.249   2.741   1.275
 9260SOL     OW28678   4.715   3.577   6.124
 9260SOL    HW128679   4.754   3.642   6.190
 9260SOL    HW228680   4.728   3.484   6.158
 9261SOL     OW28681   4.699   0.100   6.319
 9261SOL    HW128682   4.644   0.132   6.396
 9261SOL    HW228683   4.767   0.169   6.295
 9262SOL     OW28684   4.990   1.238   5.682
 9262SOL    HW128685   4.949   1.188   5.758
 9262SOL    HW228686   5.010   1.174   5.607
 9263SOL     OW28687   4.839   3.751   1.654
 9263SOL    HW128688   4.930   3.720   1.682
 9263SOL    HW228689   4.784   3.772   1.735
 9264SOL     OW28690   6.405   3.638   0.180
 9264SOL    HW128691   6.421   3.736   0.169
 9264SOL    HW228692   6.318   3.623   0.227
 9265SOL     OW28693   2.736   1.200   0.403
 9265SOL    HW128694   2.662   1.141   0.370
 9265SOL    HW228695   2.699   1.291   0.425
 9266SOL     OW28696   2.103   6.687   2.901
 9266SOL    HW128697   2.165   6.758   2.867
 9266SOL    HW228698   2.154   6.619   2.954
 9267SOL     OW28699   0.842   4.790   4.525
 9267SOL    HW128700   0.845   4.734   4.442
 9267SOL    HW228701   0.750   4.828   4.536
 9268SOL     OW28702   0.325   6.718   2.776
 9268SOL    HW128703   0.362   6.756   2.691
 9268SOL    HW228704   0.381   6.641   2.805
 9269SOL     OW28705   3.186   1.688   6.572
 9269SOL    HW128706   3.203   1.589   6.566
 9269SOL    HW228707   3.183   1.715   6.668
 9270SOL     OW28708   6.805   6.635   6.517
 9270SOL    HW128709   6.874   6.664   6.584
 9270SOL    HW228710   6.846   6.569   6.454
 9271SOL     OW28711   1.909   5.399   0.622
 9271SOL    HW128712   1.887   5.433   0.531
 9271SOL    HW228713   1.963   5.467   0.671
 9272SOL     OW28714   2.520   4.739   6.100
 9272SOL    HW128715   2.423   4.730   6.123
 9272SOL    HW228716   2.567   4.791   6.171
 9273SOL     OW28717   4.164   5.393   4.274
 9273SOL    HW128718   4.214   5.421   4.192
 9273SOL    HW228719   4.136   5.298   4.265
 9274SOL     OW28720   6.145   2.276   6.719
 9274SOL    HW128721   6.109   2.277   6.813
 9274SOL    HW228722   6.244   2.263   6.722
 9275SOL     OW28723   1.700   0.392   6.170
 9275SOL    HW128724   1.607   0.387   6.134
 9275SOL    HW228725   1.753   0.459   6.118
 9276SOL     OW28726   3.655   5.815   4.449
 9276SOL    HW128727   3.573   5.816   4.508
 9276SOL    HW228728   3.659   5.900   4.397
 9277SOL     OW28729   4.045   3.031   6.963
 9277SOL    HW128730   4.063   3.094   6.887
 9277SOL    HW228731   3.960   2.981   6.945
 9278SOL     OW28732   1.075   2.021   2.860
 9278SOL    HW128733   1.128   2.106   2.859
 9278SOL    HW228734   0.985   2.038   2.899
 9279SOL     OW28735   2.755   0.260   2.078
 9279SOL    HW128736   2.776   0.166   2.054
 9279SOL    HW228737   2.806   0.322   2.019
 9280SOL     OW28738   2.040   6.816   3.912
 9280SOL    HW128739   2.040   6.792   4.009
 9280SOL    HW228740   2.117   6.878   3.893
 9281SOL     OW28741   1.948   2.337   0.043
 9281SOL    HW128742   1.880   2.389   7.017
 9281SOL    HW228743   2.002   2.281   7.004
 9282SOL     OW28744   4.567   1.783   5.340
 9282SOL    HW128745   4.666   1.786   5.350
 9282SOL    HW228746   4.543   1.730   5.258
 9283SOL     OW28747   5.915   2.830   2.061
 9283SOL    HW128748   5.887   2.735   2.076
 9283SOL    HW228749   5.859   2.871   1.989
 9284SOL     OW28750   3.130   3.396   1.298
 9284SOL    HW128751   3.043   3.443   1.282
 9284SOL    HW228752   3.201   3.436   1.241
 9285SOL     OW28753   6.925   2.459   6.882
 9285SOL    HW128754   6.953   2.500   6.795
 9285SOL    HW228755   6.866   2.380   6.864
 9286SOL     OW28756   5.225   0.148   5.261
 9286SOL    HW128757   5.216   0.088   5.340
 9286SOL    HW228758   5.239   0.242   5.293
 9287SOL     OW28759   2.913   6.519   0.894
 9287SOL    HW128760   2.839   6.523   0.961
 9287SOL    HW228761   2.912   6.431   0.848
 9288SOL     OW28762   5.052   2.454   5.872
 9288SOL    HW128763   5.122   2.481   5.937
 9288SOL    HW228764   4.978   2.523   5.872
 9289SOL     OW28765   5.182   2.484   2.216
 9289SOL    HW128766   5.094   2.451   2.181
 9289SOL    HW228767   5.174   2.580   2.241
 9290SOL     OW28768   4.951   1.954   4.245
 9290SOL    HW128769   4.945   1.865   4.199
 9290SOL    HW228770   4.947   2.027   4.176
 9291SOL     OW28771   1.062   1.154   4.411
 9291SOL    HW128772   1.016   1.217   4.474
 9291SOL    HW228773   1.153   1.133   4.445
 9292SOL     OW28774   0.414   3.449   6.194
 9292SOL    HW128775   0.350   3.475   6.266
 9292SOL    HW228776   0.477   3.379   6.228
 9293SOL     OW28777   5.557   4.607   0.315
 9293SOL    HW128778   5.468   4.637   0.348
 9293SOL    HW228779   5.602   4.551   0.385
 9294SOL     OW28780   5.543   6.573   6.916
 9294SOL    HW128781   5.509   6.538   7.003
 9294SOL    HW228782   5.502   6.522   6.840
 9295SOL     OW28783   4.749   1.570   3.122
 9295SOL    HW128784   4.790   1.602   3.208
 9295SOL    HW228785   4.730   1.648   3.063
 9296SOL     OW28786   5.850   6.598   5.859
 9296SOL    HW128787   5.850   6.516   5.917
 9296SOL    HW228788   5.756   6.625   5.839
 9297SOL     OW28789   0.451   0.574   1.113
 9297SOL    HW128790   0.365   0.614   1.145
 9297SOL    HW228791   0.436   0.530   1.025
 9298SOL     OW28792   1.568   5.920   5.114
 9298SOL    HW128793   1.526   5.848   5.059
 9298SOL    HW228794   1.500   5.990   5.136
 9299SOL     OW28795   1.858   3.775   4.441
 9299SOL    HW128796   1.861   3.785   4.540
 9299SOL    HW228797   1.903   3.853   4.398
 9300SOL     OW28798   5.509   4.533   4.584
 9300SOL    HW128799   5.445   4.467   4.544
 9300SOL    HW228800   5.531   4.603   4.516
 9301SOL     OW28801   5.239   4.824   2.373
 9301SOL    HW128802   5.263   4.727   2.377
 9301SOL    HW228803   5.269   4.862   2.285
 9302SOL     OW28804   2.349   2.160   2.645
 9302SOL    HW128805   2.394   2.186   2.730
 9302SOL    HW228806   2.278   2.092   2.664
 9303SOL     OW28807   3.730   5.839   6.829
 9303SOL    HW128808   3.694   5.753   6.793
 9303SOL    HW228809   3.770   5.892   6.754
 9304SOL     OW28810   3.571   3.635   0.969
 9304SOL    HW128811   3.600   3.568   0.902
 9304SOL    HW228812   3.650   3.685   1.004
 9305SOL     OW28813   5.819   2.945   1.759
 9305SOL    HW128814   5.898   2.966   1.702
 9305SOL    HW228815   5.738   2.991   1.722
 9306SOL     OW28816   0.066   4.227   4.221
 9306SOL    HW128817   0.001   4.209   4.147
 9306SOL    HW228818   0.129   4.151   4.230
 9307SOL     OW28819   1.598   2.117   0.334
 9307SOL    HW128820   1.633   2.030   0.299
 9307SOL    HW228821   1.660   2.191   0.306
 9308SOL     OW28822   0.366   3.485   0.944
 9308SOL    HW128823   0.382   3.575   0.903
 9308SOL    HW228824   0.448   3.456   0.994
 9309SOL     OW28825   4.494   3.675   6.220
 9309SOL    HW128826   4.407   3.635   6.191
 9309SOL    HW228827   4.569   3.629   6.173
 9310SOL     OW28828   4.178   5.958   6.711
 9310SOL    HW128829   4.238   5.907   6.773
 9310SOL    HW228830   4.232   6.023   6.657
 9311SOL     OW28831   5.538   3.559   0.912
 9311SOL    HW128832   5.634   3.564   0.885
 9311SOL    HW228833   5.522   3.617   0.991
 9312SOL     OW28834   0.780   4.216   6.194
 9312SOL    HW128835   0.766   4.227   6.293
 9312SOL    HW228836   0.722   4.142   6.161
 9313SOL     OW28837   6.904   6.957   3.122
 9313SOL    HW128838   6.845   6.920   3.050
 9313SOL    HW228839   6.849   6.980   3.202
 9314SOL     OW28840   4.880   5.022   6.789
 9314SOL    HW128841   4.932   5.031   6.874
 9314SOL    HW228842   4.783   5.006   6.810
 9315SOL     OW28843   0.168   6.875   5.821
 9315SOL    HW128844   0.150   6.780   5.846
 9315SOL    HW228845   0.086   6.915   5.781
 9316SOL     OW28846   4.055   5.902   3.613
 9316SOL    HW128847   4.037   5.906   3.711
 9316SOL    HW228848   4.151   5.877   3.598
 9317SOL     OW28849   6.562   5.061   3.533
 9317SOL    HW128850   6.571   5.147   3.583
 9317SOL    HW228851   6.601   4.986   3.587
 9318SOL     OW28852   0.498   0.792   6.686
 9318SOL    HW128853   0.559   0.782   6.607
 9318SOL    HW228854   0.552   0.817   6.767
 9319SOL     OW28855   0.592   3.280   6.267
 9319SOL    HW128856   0.654   3.301   6.342
 9319SOL    HW228857   0.643   3.241   6.190
 9320SOL     OW28858   4.122   2.504   5.884
 9320SOL    HW128859   4.135   2.528   5.788
 9320SOL    HW228860   4.210   2.475   5.923
 9321SOL     OW28861   6.303   6.316   2.976
 9321SOL    HW128862   6.255   6.373   2.909
 9321SOL    HW228863   6.237   6.276   3.039
 9322SOL     OW28864   1.054   6.585   5.760
 9322SOL    HW128865   1.049   6.644   5.840
 9322SOL    HW228866   1.068   6.490   5.789
 9323SOL     OW28867   1.035   1.198   6.654
 9323SOL    HW128868   0.975   1.174   6.731
 9323SOL    HW228869   1.097   1.271   6.681
 9324SOL     OW28870   1.417   5.492   0.263
 9324SOL    HW128871   1.376   5.403   0.283
 9324SOL    HW228872   1.347   5.563   0.271
 9325SOL     OW28873   5.920   2.184   1.100
 9325SOL    HW128874   5.872   2.247   1.161
 9325SOL    HW228875   5.904   2.211   1.005
 9326SOL     OW28876   1.960   0.079   1.101
 9326SOL    HW128877   1.956   0.168   1.146
 9326SOL    HW228878   2.016   0.016   1.156
 9327SOL     OW28879   4.274   0.940   2.737
 9327SOL    HW128880   4.305   0.918   2.829
 9327SOL    HW228881   4.197   1.003   2.741
 9328SOL     OW28882   3.491   1.145   1.049
 9328SOL    HW128883   3.484   1.245   1.040
 9328SOL    HW228884   3.583   1.121   1.078
 9329SOL     OW28885   0.848   3.342   2.214
 9329SOL    HW128886   0.909   3.263   2.218
 9329SOL    HW228887   0.806   3.355   2.304
 9330SOL     OW28888   5.999   0.806   0.377
 9330SOL    HW128889   6.009   0.743   0.300
 9330SOL    HW228890   6.056   0.775   0.453
 9331SOL     OW28891   0.533   0.963   6.987
 9331SOL    HW128892   0.470   0.972   0.040
 9331SOL    HW228893   0.524   1.043   6.927
 9332SOL     OW28894   3.086   3.111   4.224
 9332SOL    HW128895   3.031   3.172   4.167
 9332SOL    HW228896   3.133   3.045   4.166
 9333SOL     OW28897   6.292   4.657   0.911
 9333SOL    HW128898   6.359   4.684   0.981
 9333SOL    HW228899   6.247   4.739   0.875
 9334SOL     OW28900   2.868   0.227   4.659
 9334SOL    HW128901   2.826   0.161   4.597
 9334SOL    HW228902   2.797   0.271   4.713
 9335SOL     OW28903   1.301   0.631   6.947
 9335SOL    HW128904   1.229   0.677   6.896
 9335SOL    HW228905   1.296   0.659   0.018
 9336SOL     OW28906   2.785   6.480   5.985
 9336SOL    HW128907   2.805   6.571   6.023
 9336SOL    HW228908   2.698   6.448   6.022
 9337SOL     OW28909   5.301   0.117   1.990
 9337SOL    HW128910   5.251   0.170   1.921
 9337SOL    HW228911   5.353   0.180   2.048
 9338SOL     OW28912   3.477   6.921   2.469
 9338SOL    HW128913   3.498   6.872   2.384
 9338SOL    HW228914   3.433   7.008   2.447
 9339SOL     OW28915   4.157   6.115   1.402
 9339SOL    HW128916   4.235   6.161   1.445
 9339SOL    HW228917   4.075   6.128   1.459
 9340SOL     OW28918   6.139   3.693   7.025
 9340SOL    HW128919   6.177   3.625   0.063
 9340SOL    HW228920   6.063   3.652   6.975
 9341SOL     OW28921   0.276   5.572   6.639
 9341SOL    HW128922   0.200   5.602   6.582
 9341SOL    HW228923   0.264   5.475   6.664
 9342SOL     OW28924   1.640   6.457   6.285
 9342SOL    HW128925   1.719   6.474   6.345
 9342SOL    HW228926   1.556   6.457   6.339
 9343SOL     OW28927   5.852   4.864   4.941
 9343SOL    HW128928   5.947   4.853   4.913
 9343SOL    HW228929   5.804   4.776   4.933
 9344SOL     OW28930   5.059   6.517   1.454
 9344SOL    HW128931   4.994   6.457   1.502
 9344SOL    HW228932   5.075   6.599   1.510
 9345SOL     OW28933   6.972   3.290   0.674
 9345SOL    HW128934   0.010   3.231   0.724
 9345SOL    HW228935   6.951   3.371   0.729
 9346SOL     OW28936   5.459   6.864   0.601
 9346SOL    HW128937   5.524   6.792   0.577
 9346SOL    HW228938   5.507   6.950   0.613
 9347SOL     OW28939   2.038   6.790   1.469
 9347SOL    HW128940   2.064   6.761   1.377
 9347SOL    HW228941   2.015   6.887   1.468
 9348SOL     OW28942   3.091   4.879   6.715
 9348SOL    HW128943   2.996   4.883   6.747
 9348SOL    HW228944   3.124   4.785   6.722
 9349SOL     OW28945   1.556   6.878   2.774
 9349SOL    HW128946   1.618   6.907   2.846
 9349SOL    HW228947   1.553   6.778   2.771
 9350SOL     OW28948   0.900   2.179   6.242
 9350SOL    HW128949   0.952   2.108   6.288
 9350SOL    HW228950   0.921   2.177   6.144
 9351SOL     OW28951   3.717   2.140   6.614
 9351SOL    HW128952   3.670   2.133   6.702
 9351SOL    HW228953   3.734   2.236   6.592
 9352SOL     OW28954   2.436   5.027   6.222
 9352SOL    HW128955   2.477   4.997   6.136
 9352SOL    HW228956   2.350   4.980   6.237
 9353SOL     OW28957   6.262   0.168   0.887
 9353SOL    HW128958   6.361   0.176   0.884
 9353SOL    HW228959   6.226   0.228   0.959
 9354SOL     OW28960   6.757   2.272   6.792
 9354SOL    HW128961   6.738   2.175   6.809
 9354SOL    HW228962   6.677   2.327   6.818
 9355SOL     OW28963   0.269   1.330   4.861
 9355SOL    HW128964   0.350   1.377   4.896
 9355SOL    HW228965   0.215   1.394   4.806
 9356SOL     OW28966   4.531   6.786   2.144
 9356SOL    HW128967   4.471   6.718   2.101
 9356SOL    HW228968   4.622   6.780   2.103
 9357SOL     OW28969   1.048   1.785   6.935
 9357SOL    HW128970   1.092   1.834   7.011
 9357SOL    HW228971   0.954   1.761   6.960
 9358SOL     OW28972   1.024   3.554   1.932
 9358SOL    HW128973   1.086   3.476   1.941
 9358SOL    HW228974   1.078   3.639   1.927
 9359SOL     OW28975   1.373   0.207   5.609
 9359SOL    HW128976   1.401   0.203   5.513
 9359SOL    HW228977   1.442   0.162   5.666
 9360SOL     OW28978   0.936   0.393   6.593
 9360SOL    HW128979   0.906   0.392   6.497
 9360SOL    HW228980   1.035   0.383   6.597
 9361SOL     OW28981   1.958   6.018   4.245
 9361SOL    HW128982   2.021   6.045   4.318
 9361SOL    HW228983   1.864   6.033   4.275
 9362SOL     OW28984   1.749   0.021   2.237
 9362SOL    HW128985   1.764   6.947   2.242
 9362SOL    HW228986   1.773   0.053   2.145
 9363SOL     OW28987   2.739   4.926   2.164
 9363SOL    HW128988   2.719   4.924   2.066
 9363SOL    HW228989   2.687   5.000   2.207
 9364SOL     OW28990   1.393   1.997   1.161
 9364SOL    HW128991   1.371   1.910   1.205
 9364SOL    HW228992   1.492   2.010   1.161
 9365SOL     OW28993   3.086   2.179   4.198
 9365SOL    HW128994   3.132   2.172   4.286
 9365SOL    HW228995   3.003   2.235   4.209
 9366SOL     OW28996   4.014   5.220   0.649
 9366SOL    HW128997   4.009   5.319   0.655
 9366SOL    HW228998   3.922   5.182   0.640
 9367SOL     OW28999   6.765   0.786   1.572
 9367SOL    HW129000   6.796   0.693   1.589
 9367SOL    HW229001   6.684   0.785   1.514
 9368SOL     OW29002   3.528   0.411   2.682
 9368SOL    HW129003   3.430   0.399   2.698
 9368SOL    HW229004   3.579   0.346   2.739
 9369SOL     OW29005   2.507   5.387   0.042
 9369SOL    HW129006   2.509   5.296   7.025
 9369SOL    HW229007   2.482   5.455   6.998
 9370SOL     OW29008   4.532   1.474   4.347
 9370SOL    HW129009   4.461   1.515   4.290
 9370SOL    HW229010   4.494   1.453   4.437
 9371SOL     OW29011   4.713   5.565   1.249
 9371SOL    HW129012   4.772   5.617   1.188
 9371SOL    HW229013   4.707   5.470   1.217
 9372SOL     OW29014   4.446   6.195   1.503
 9372SOL    HW129015   4.544   6.174   1.502
 9372SOL    HW229016   4.433   6.292   1.523
 9373SOL     OW29017   6.915   1.931   0.909
 9373SOL    HW129018   6.942   1.859   0.973
 9373SOL    HW229019   6.900   2.016   0.958
 9374SOL     OW29020   0.244   5.264   6.193
 9374SOL    HW129021   0.285   5.276   6.284
 9374SOL    HW229022   0.198   5.175   6.189
 9375SOL     OW29023   0.226   0.763   0.221
 9375SOL    HW129024   0.155   0.833   0.231
 9375SOL    HW229025   0.209   0.709   0.138
 9376SOL     OW29026   2.050   3.822   1.743
 9376SOL    HW129027   1.997   3.792   1.823
 9376SOL    HW229028   1.992   3.819   1.662
 9377SOL     OW29029   1.960   0.646   3.914
 9377SOL    HW129030   1.939   0.555   3.876
 9377SOL    HW229031   2.011   0.635   3.999
 9378SOL     OW29032   3.187   0.721   4.311
 9378SOL    HW129033   3.104   0.762   4.274
 9378SOL    HW229034   3.165   0.673   4.396
 9379SOL     OW29035   4.017   6.028   4.375
 9379SOL    HW129036   4.104   6.078   4.376
 9379SOL    HW229037   4.002   5.985   4.465
 9380SOL     OW29038   5.165   5.694   0.154
 9380SOL    HW129039   5.259   5.665   0.174
 9380SOL    HW229040   5.118   5.717   0.239
 9381SOL     OW29041   5.801   1.330   5.121
 9381SOL    HW129042   5.867   1.320   5.046
 9381SOL    HW229043   5.849   1.361   5.203
 9382SOL     OW29044   3.009   5.925   4.882
 9382SOL    HW129045   2.949   5.978   4.823
 9382SOL    HW229046   3.082   5.885   4.827
 9383SOL     OW29047   5.643   4.506   2.625
 9383SOL    HW129048   5.706   4.471   2.694
 9383SOL    HW229049   5.591   4.583   2.663
 9384SOL     OW29050   2.618   1.009   2.197
 9384SOL    HW129051   2.619   0.912   2.170
 9384SOL    HW229052   2.546   1.056   2.146
 9385SOL     OW29053   4.691   1.819   3.542
 9385SOL    HW129054   4.625   1.804   3.615
 9385SOL    HW229055   4.680   1.911   3.504
 9386SOL     OW29056   4.907   6.429   6.933
 9386SOL    HW129057   4.955   6.344   6.956
 9386SOL    HW229058   4.826   6.407   6.879
 9387SOL     OW29059   2.875   2.206   0.522
 9387SOL    HW129060   2.838   2.293   0.489
 9387SOL    HW229061   2.831   2.181   0.608
 9388SOL     OW29062   2.244   5.896   5.072
 9388SOL    HW129063   2.294   5.811   5.055
 9388SOL    HW229064   2.293   5.973   5.033
 9389SOL     OW29065   2.766   4.859   1.574
 9389SOL    HW129066   2.782   4.761   1.582
 9389SOL    HW229067   2.820   4.907   1.643
 9390SOL     OW29068   4.989   5.112   4.674
 9390SOL    HW129069   5.086   5.108   4.698
 9390SOL    HW229070   4.974   5.067   4.585
 9391SOL     OW29071   1.178   5.072   4.459
 9391SOL    HW129072   1.195   5.168   4.482
 9391SOL    HW229073   1.155   5.021   4.543
 9392SOL     OW29074   5.376   4.190   2.823
 9392SOL    HW129075   5.412   4.167   2.913
 9392SOL    HW229076   5.452   4.200   2.758
 9393SOL     OW29077   2.730   6.471   6.459
 9393SOL    HW129078   2.678   6.436   6.538
 9393SOL    HW229079   2.826   6.447   6.470
 9394SOL     OW29080   3.419   0.886   0.160
 9394SOL    HW129081   3.330   0.887   0.205
 9394SOL    HW229082   3.466   0.973   0.176
 9395SOL     OW29083   2.183   1.538   0.548
 9395SOL    HW129084   2.132   1.567   0.467
 9395SOL    HW229085   2.203   1.618   0.605
 9396SOL     OW29086   0.476   6.495   6.842
 9396SOL    HW129087   0.447   6.469   6.935
 9396SOL    HW229088   0.396   6.526   6.791
 9397SOL     OW29089   3.284   0.909   5.196
 9397SOL    HW129090   3.356   0.967   5.157
 9397SOL    HW229091   3.217   0.887   5.125
 9398SOL     OW29092   0.643   1.984   0.305
 9398SOL    HW129093   0.647   1.924   0.225
 9398SOL    HW229094   0.715   1.958   0.370
 9399SOL     OW29095   1.183   3.010   4.420
 9399SOL    HW129096   1.175   3.032   4.323
 9399SOL    HW229097   1.092   3.005   4.461
 9400SOL     OW29098   5.667   1.230   0.510
 9400SOL    HW129099   5.616   1.156   0.467
 9400SOL    HW229100   5.764   1.205   0.518
 9401SOL     OW29101   0.561   2.427   3.822
 9401SOL    HW129102   0.652   2.464   3.802
 9401SOL    HW229103   0.563   2.328   3.818
 9402SOL     OW29104   2.177   6.506   3.906
 9402SOL    HW129105   2.268   6.531   3.938
 9402SOL    HW229106   2.121   6.588   3.895
 9403SOL     OW29107   6.201   2.671   2.316
 9403SOL    HW129108   6.143   2.591   2.333
 9403SOL    HW229109   6.218   2.681   2.218
 9404SOL     OW29110   2.031   2.967   0.862
 9404SOL    HW129111   1.957   3.031   0.885
 9404SOL    HW229112   1.992   2.876   0.846
 9405SOL     OW29113   7.013   5.676   5.341
 9405SOL    HW129114   0.070   5.664   5.397
 9405SOL    HW229115   6.955   5.595   5.348
 9406SOL     OW29116   0.880   2.780   6.871
 9406SOL    HW129117   0.790   2.792   6.913
 9406SOL    HW229118   0.897   2.682   6.858
 9407SOL     OW29119   1.225   5.393   5.332
 9407SOL    HW129120   1.130   5.364   5.334
 9407SOL    HW229121   1.251   5.431   5.421
 9408SOL     OW29122   0.635   3.873   4.614
 9408SOL    HW129123   0.728   3.836   4.616
 9408SOL    HW229124   0.591   3.848   4.528
 9409SOL     OW29125   6.400   4.366   2.839
 9409SOL    HW129126   6.489   4.410   2.826
 9409SOL    HW229127   6.364   4.388   2.930
 9410SOL     OW29128   3.630   0.960   0.709
 9410SOL    HW129129   3.658   1.055   0.724
 9410SOL    HW229130   3.547   0.958   0.653
 9411SOL     OW29131   3.023   3.858   3.255
 9411SOL    HW129132   3.032   3.901   3.165
 9411SOL    HW229133   2.965   3.915   3.313
 9412SOL     OW29134   5.932   6.049   1.250
 9412SOL    HW129135   5.844   6.086   1.220
 9412SOL    HW229136   6.000   6.062   1.178
 9413SOL     OW29137   4.697   4.201   2.929
 9413SOL    HW129138   4.632   4.125   2.936
 9413SOL    HW229139   4.658   4.281   2.974
 9414SOL     OW29140   1.849   1.907   3.224
 9414SOL    HW129141   1.931   1.884   3.276
 9414SOL    HW229142   1.873   1.916   3.127
 9415SOL     OW29143   4.717   1.394   1.901
 9415SOL    HW129144   4.648   1.366   1.968
 9415SOL    HW229145   4.777   1.463   1.941
 9416SOL     OW29146   5.745   4.950   5.375
 9416SOL    HW129147   5.795   5.021   5.425
 9416SOL    HW229148   5.799   4.865   5.376
 9417SOL     OW29149   3.251   5.353   2.447
 9417SOL    HW129150   3.331   5.320   2.497
 9417SOL    HW229151   3.273   5.441   2.405
 9418SOL     OW29152   3.710   1.421   5.181
 9418SOL    HW129153   3.755   1.416   5.270
 9418SOL    HW229154   3.764   1.370   5.113
 9419SOL     OW29155   1.696   2.990   6.257
 9419SOL    HW129156   1.719   2.912   6.199
 9419SOL    HW229157   1.600   2.984   6.284
 9420SOL     OW29158   6.077   4.101   6.258
 9420SOL    HW129159   6.022   4.175   6.298
 9420SOL    HW229160   6.091   4.029   6.325
 9421SOL     OW29161   4.143   6.158   6.338
 9421SOL    HW129162   4.185   6.216   6.268
 9421SOL    HW229163   4.079   6.212   6.392
 9422SOL     OW29164   2.035   6.001   5.812
 9422SOL    HW129165   2.055   6.097   5.791
 9422SOL    HW229166   2.008   5.992   5.907
 9423SOL     OW29167   4.346   4.613   2.627
 9423SOL    HW129168   4.339   4.594   2.725
 9423SOL    HW229169   4.437   4.587   2.594
 9424SOL     OW29170   5.936   0.014   3.914
 9424SOL    HW129171   5.891   6.951   3.928
 9424SOL    HW229172   6.012   0.002   3.849
 9425SOL     OW29173   6.792   4.558   1.225
 9425SOL    HW129174   6.737   4.596   1.299
 9425SOL    HW229175   6.745   4.480   1.184
 9426SOL     OW29176   0.235   2.181   6.377
 9426SOL    HW129177   0.254   2.230   6.291
 9426SOL    HW229178   0.280   2.229   6.453
 9427SOL     OW29179   4.561   4.588   2.472
 9427SOL    HW129180   4.621   4.667   2.486
 9427SOL    HW229181   4.531   4.587   2.376
 9428SOL     OW29182   0.740   5.822   5.748
 9428SOL    HW129183   0.682   5.857   5.674
 9428SOL    HW229184   0.802   5.894   5.779
 9429SOL     OW29185   2.534   2.473   4.794
 9429SOL    HW129186   2.518   2.563   4.835
 9429SOL    HW229187   2.630   2.448   4.806
 9430SOL     OW29188   1.621   1.913   4.565
 9430SOL    HW129189   1.548   1.857   4.526
 9430SOL    HW229190   1.645   1.986   4.500
 9431SOL     OW29191   0.818   4.618   5.207
 9431SOL    HW129192   0.726   4.635   5.173
 9431SOL    HW229193   0.844   4.691   5.270
 9432SOL     OW29194   6.965   1.090   3.569
 9432SOL    HW129195   6.904   1.075   3.491
 9432SOL    HW229196   6.912   1.127   3.646
 9433SOL     OW29197   4.140   5.802   1.619
 9433SOL    HW129198   4.207   5.810   1.545
 9433SOL    HW229199   4.187   5.809   1.707
 9434SOL     OW29200   4.799   5.152   4.180
 9434SOL    HW129201   4.792   5.054   4.163
 9434SOL    HW229202   4.708   5.192   4.187
 9435SOL     OW29203   6.990   3.862   1.409
 9435SOL    HW129204   7.021   3.815   1.491
 9435SOL    HW229205   6.932   3.800   1.356
 9436SOL     OW29206   2.324   0.896   2.996
 9436SOL    HW129207   2.282   0.909   2.906
 9436SOL    HW229208   2.379   0.976   3.019
 9437SOL     OW29209   5.357   0.329   5.035
 9437SOL    HW129210   5.434   0.281   5.077
 9437SOL    HW229211   5.272   0.305   5.083
 9438SOL     OW29212   4.147   6.368   2.569
 9438SOL    HW129213   4.167   6.414   2.482
 9438SOL    HW229214   4.070   6.305   2.555
 9439SOL     OW29215   1.640   3.569   0.902
 9439SOL    HW129216   1.735   3.569   0.872
 9439SOL    HW229217   1.583   3.617   0.835
 9440SOL     OW29218   2.140   5.212   3.229
 9440SOL    HW129219   2.237   5.210   3.255
 9440SOL    HW229220   2.131   5.179   3.134
 9441SOL     OW29221   0.201   6.943   4.460
 9441SOL    HW129222   0.271   6.873   4.448
 9441SOL    HW229223   0.231   7.008   4.530
 9442SOL     OW29224   5.921   3.071   0.830
 9442SOL    HW129225   5.841   3.027   0.789
 9442SOL    HW229226   5.946   3.152   0.777
 9443SOL     OW29227   2.251   4.507   2.298
 9443SOL    HW129228   2.177   4.572   2.314
 9443SOL    HW229229   2.219   4.415   2.319
 9444SOL     OW29230   1.178   4.546   6.141
 9444SOL    HW129231   1.235   4.489   6.082
 9444SOL    HW229232   1.235   4.586   6.213
 9445SOL     OW29233   0.216   1.643   4.506
 9445SOL    HW129234   0.206   1.594   4.593
 9445SOL    HW229235   0.252   1.734   4.523
 9446SOL     OW29236   6.465   3.759   4.182
 9446SOL    HW129237   6.517   3.703   4.247
 9446SOL    HW229238   6.370   3.727   4.181
 9447SOL     OW29239   4.896   4.124   2.045
 9447SOL    HW129240   4.814   4.180   2.054
 9447SOL    HW229241   4.917   4.079   2.132
 9448SOL     OW29242   5.969   1.145   5.908
 9448SOL    HW129243   6.036   1.189   5.847
 9448SOL    HW229244   5.879   1.147   5.866
 9449SOL     OW29245   5.277   6.913   2.169
 9449SOL    HW129246   5.287   6.979   2.095
 9449SOL    HW229247   5.208   6.844   2.144
 9450SOL     OW29248   0.981   6.211   2.614
 9450SOL    HW129249   0.966   6.129   2.670
 9450SOL    HW229250   0.956   6.292   2.666
 9451SOL     OW29251   3.938   4.730   6.635
 9451SOL    HW129252   3.891   4.732   6.723
 9451SOL    HW229253   3.893   4.664   6.575
 9452SOL     OW29254   6.117   4.328   6.737
 9452SOL    HW129255   6.139   4.368   6.826
 9452SOL    HW229256   6.038   4.374   6.698
 9453SOL     OW29257   5.117   5.210   1.487
 9453SOL    HW129258   5.158   5.219   1.396
 9453SOL    HW229259   5.175   5.256   1.554
 9454SOL     OW29260   5.899   4.632   0.628
 9454SOL    HW129261   5.897   4.730   0.645
 9454SOL    HW229262   5.903   4.616   0.529
 9455SOL     OW29263   3.491   1.401   1.893
 9455SOL    HW129264   3.443   1.408   1.805
 9455SOL    HW229265   3.511   1.305   1.913
 9456SOL     OW29266   6.974   2.655   3.121
 9456SOL    HW129267   6.905   2.584   3.136
 9456SOL    HW229268   6.953   2.704   3.036
 9457SOL     OW29269   6.276   6.537   5.146
 9457SOL    HW129270   6.254   6.531   5.244
 9457SOL    HW229271   6.242   6.455   5.099
 9458SOL     OW29272   6.520   3.552   6.835
 9458SOL    HW129273   6.597   3.600   6.876
 9458SOL    HW229274   6.436   3.603   6.854
 9459SOL     OW29275   4.850   4.530   5.603
 9459SOL    HW129276   4.883   4.607   5.658
 9459SOL    HW229277   4.751   4.524   5.611
 9460SOL     OW29278   0.838   3.006   2.715
 9460SOL    HW129279   0.826   2.933   2.783
 9460SOL    HW229280   0.772   3.079   2.732
 9461SOL     OW29281   1.416   1.852   1.657
 9461SOL    HW129282   1.431   1.875   1.753
 9461SOL    HW229283   1.329   1.890   1.627
 9462SOL     OW29284   0.287   1.314   4.390
 9462SOL    HW129285   0.251   1.401   4.357
 9462SOL    HW229286   0.358   1.281   4.328
 9463SOL     OW29287   5.812   4.287   1.593
 9463SOL    HW129288   5.886   4.324   1.648
 9463SOL    HW229289   5.809   4.187   1.604
 9464SOL     OW29290   1.509   0.924   1.893
 9464SOL    HW129291   1.567   0.989   1.943
 9464SOL    HW229292   1.547   0.909   1.802
 9465SOL     OW29293   6.715   4.865   1.154
 9465SOL    HW129294   6.708   4.960   1.186
 9465SOL    HW229295   6.798   4.824   1.189
 9466SOL     OW29296   4.034   4.155   5.562
 9466SOL    HW129297   4.124   4.128   5.595
 9466SOL    HW229298   4.015   4.249   5.591
 9467SOL     OW29299   1.729   3.246   0.352
 9467SOL    HW129300   1.648   3.188   0.355
 9467SOL    HW229301   1.712   3.326   0.295
 9468SOL     OW29302   6.137   1.712   0.830
 9468SOL    HW129303   6.180   1.802   0.839
 9468SOL    HW229304   6.145   1.663   0.916
 9469SOL     OW29305   0.208   6.358   1.148
 9469SOL    HW129306   0.173   6.447   1.119
 9469SOL    HW229307   0.153   6.286   1.105
 9470SOL     OW29308   3.475   3.624   6.939
 9470SOL    HW129309   3.550   3.630   7.005
 9470SOL    HW229310   3.414   3.703   6.950
 9471SOL     OW29311   6.163   2.650   4.939
 9471SOL    HW129312   6.157   2.748   4.956
 9471SOL    HW229313   6.130   2.600   5.019
 9472SOL     OW29314   1.657   3.178   6.012
 9472SOL    HW129315   1.707   3.262   5.989
 9472SOL    HW229316   1.698   3.136   6.092
 9473SOL     OW29317   2.359   3.999   1.169
 9473SOL    HW129318   2.262   3.978   1.177
 9473SOL    HW229319   2.384   4.068   1.238
 9474SOL     OW29320   5.745   4.136   1.232
 9474SOL    HW129321   5.745   4.158   1.135
 9474SOL    HW229322   5.809   4.196   1.280
 9475SOL     OW29323   5.408   4.223   6.175
 9475SOL    HW129324   5.352   4.235   6.257
 9475SOL    HW229325   5.356   4.249   6.094
 9476SOL     OW29326   4.338   3.963   0.479
 9476SOL    HW129327   4.322   3.895   0.551
 9476SOL    HW229328   4.412   3.931   0.419
 9477SOL     OW29329   2.106   4.381   0.336
 9477SOL    HW129330   2.082   4.309   0.402
 9477SOL    HW229331   2.204   4.400   0.342
 9478SOL     OW29332   5.618   3.585   5.843
 9478SOL    HW129333   5.669   3.610   5.761
 9478SOL    HW229334   5.570   3.665   5.878
 9479SOL     OW29335   4.054   0.383   2.212
 9479SOL    HW129336   4.101   0.432   2.286
 9479SOL    HW229337   4.092   0.291   2.203
 9480SOL     OW29338   6.138   1.026   0.928
 9480SOL    HW129339   6.211   1.076   0.880
 9480SOL    HW229340   6.073   1.092   0.967
 9481SOL     OW29341   4.255   0.108   3.104
 9481SOL    HW129342   4.282   0.158   3.021
 9481SOL    HW229343   4.225   0.173   3.174
 9482SOL     OW29344   6.488   6.208   6.767
 9482SOL    HW129345   6.483   6.234   6.671
 9482SOL    HW229346   6.406   6.241   6.815
 9483SOL     OW29347   6.726   6.804   0.288
 9483SOL    HW129348   6.748   6.732   0.354
 9483SOL    HW229349   6.730   6.766   0.195
 9484SOL     OW29350   3.722   5.898   3.866
 9484SOL    HW129351   3.720   5.803   3.835
 9484SOL    HW229352   3.633   5.941   3.846
 9485SOL     OW29353   0.518   1.465   6.517
 9485SOL    HW129354   0.551   1.424   6.431
 9485SOL    HW229355   0.493   1.560   6.501
 9486SOL     OW29356   5.494   6.040   0.157
 9486SOL    HW129357   5.456   6.052   0.248
 9486SOL    HW229358   5.441   5.970   0.108
 9487SOL     OW29359   3.425   3.723   3.063
 9487SOL    HW129360   3.391   3.776   3.140
 9487SOL    HW229361   3.398   3.627   3.074
 9488SOL     OW29362   1.619   0.952   1.404
 9488SOL    HW129363   1.566   1.036   1.420
 9488SOL    HW229364   1.608   0.923   1.309
 9489SOL     OW29365   5.551   3.006   0.091
 9489SOL    HW129366   5.603   3.016   0.005
 9489SOL    HW229367   5.585   2.926   0.141
 9490SOL     OW29368   5.161   3.608   4.841
 9490SOL    HW129369   5.184   3.586   4.936
 9490SOL    HW229370   5.078   3.663   4.839
 9491SOL     OW29371   5.337   6.628   2.409
 9491SOL    HW129372   5.389   6.589   2.333
 9491SOL    HW229373   5.398   6.686   2.463
 9492SOL     OW29374   5.115   2.812   3.569
 9492SOL    HW129375   5.069   2.727   3.543
 9492SOL    HW229376   5.199   2.822   3.516
 9493SOL     OW29377   4.002   5.743   1.307
 9493SOL    HW129378   3.935   5.692   1.252
 9493SOL    HW229379   3.969   5.749   1.401
 9494SOL     OW29380   5.931   1.857   2.202
 9494SOL    HW129381   5.871   1.934   2.224
 9494SOL    HW229382   5.973   1.824   2.286
 9495SOL     OW29383   0.047   2.326   1.429
 9495SOL    HW129384   0.042   2.415   1.475
 9495SOL    HW229385   0.124   2.274   1.467
 9496SOL     OW29386   6.042   2.002   1.287
 9496SOL    HW129387   6.007   2.057   1.363
 9496SOL    HW229388   6.025   2.049   1.201
 9497SOL     OW29389   4.595   4.484   4.573
 9497SOL    HW129390   4.623   4.389   4.586
 9497SOL    HW229391   4.532   4.510   4.646
 9498SOL     OW29392   0.304   5.539   4.014
 9498SOL    HW129393   0.239   5.505   4.082
 9498SOL    HW229394   0.254   5.594   3.946
 9499SOL     OW29395   6.043   5.817   5.187
 9499SOL    HW129396   6.113   5.792   5.120
 9499SOL    HW229397   5.968   5.865   5.141
 9500SOL     OW29398   3.277   1.977   0.985
 9500SOL    HW129399   3.267   1.957   0.887
 9500SOL    HW229400   3.341   1.912   1.026
 9501SOL     OW29401   1.596   3.572   5.090
 9501SOL    HW129402   1.689   3.553   5.060
 9501SOL    HW229403   1.534   3.565   5.012
 9502SOL     OW29404   5.278   5.033   4.475
 9502SOL    HW129405   5.279   5.035   4.575
 9502SOL    HW229406   5.187   5.010   4.443
 9503SOL     OW29407   6.347   1.287   0.393
 9503SOL    HW129408   6.248   1.272   0.387
 9503SOL    HW229409   6.368   1.380   0.364
 9504SOL     OW29410   6.114   5.608   2.103
 9504SOL    HW129411   6.072   5.699   2.104
 9504SOL    HW229412   6.071   5.552   2.032
 9505SOL     OW29413   4.312   4.508   5.742
 9505SOL    HW129414   4.224   4.535   5.781
 9505SOL    HW229415   4.361   4.589   5.711
 9506SOL     OW29416   2.898   0.716   1.495
 9506SOL    HW129417   2.858   0.737   1.406
 9506SOL    HW229418   2.973   0.652   1.483
 9507SOL     OW29419   4.972   7.009   2.192
 9507SOL    HW129420   5.043   0.039   2.148
 9507SOL    HW229421   4.994   6.998   2.289
 9508SOL     OW29422   4.371   2.050   2.748
 9508SOL    HW129423   4.415   1.969   2.709
 9508SOL    HW229424   4.386   2.052   2.847
 9509SOL     OW29425   5.376   0.521   3.003
 9509SOL    HW129426   5.414   0.538   3.094
 9509SOL    HW229427   5.293   0.466   3.011
 9510SOL     OW29428   1.282   2.839   3.459
 9510SOL    HW129429   1.295   2.756   3.513
 9510SOL    HW229430   1.188   2.840   3.423
 9511SOL     OW29431   0.724   1.606   1.128
 9511SOL    HW129432   0.637   1.580   1.086
 9511SOL    HW229433   0.717   1.700   1.161
 9512SOL     OW29434   6.432   2.127   1.218
 9512SOL    HW129435   6.430   2.034   1.255
 9512SOL    HW229436   6.501   2.133   1.146
 9513SOL     OW29437   4.515   4.284   5.751
 9513SOL    HW129438   4.516   4.260   5.848
 9513SOL    HW229439   4.434   4.339   5.731
 9514SOL     OW29440   3.810   2.919   6.853
 9514SOL    HW129441   3.756   2.907   6.936
 9514SOL    HW229442   3.818   2.831   6.806
 9515SOL     OW29443   0.864   5.898   3.209
 9515SOL    HW129444   0.845   5.800   3.198
 9515SOL    HW229445   0.779   5.950   3.198
 9516SOL     OW29446   0.020   4.742   6.946
 9516SOL    HW129447   7.006   4.652   6.924
 9516SOL    HW229448   0.034   4.793   6.861
 9517SOL     OW29449   0.659   6.079   1.402
 9517SOL    HW129450   0.578   6.022   1.387
 9517SOL    HW229451   0.637   6.152   1.468
 9518SOL     OW29452   1.368   0.717   1.080
 9518SOL    HW129453   1.340   0.711   0.984
 9518SOL    HW229454   1.302   0.670   1.138
 9519SOL     OW29455   1.262   3.448   5.627
 9519SOL    HW129456   1.358   3.430   5.646
 9519SOL    HW229457   1.234   3.532   5.674
 9520SOL     OW29458   4.409   0.293   1.798
 9520SOL    HW129459   4.390   0.343   1.883
 9520SOL    HW229460   4.497   0.246   1.807
 9521SOL     OW29461   5.040   5.401   3.732
 9521SOL    HW129462   5.130   5.386   3.773
 9521SOL    HW229463   4.972   5.345   3.779
 9522SOL     OW29464   3.776   6.429   0.608
 9522SOL    HW129465   3.809   6.444   0.701
 9522SOL    HW229466   3.676   6.430   0.608
 9523SOL     OW29467   2.434   5.818   5.580
 9523SOL    HW129468   2.525   5.846   5.613
 9523SOL    HW229469   2.433   5.719   5.566
 9524SOL     OW29470   4.317   2.304   0.727
 9524SOL    HW129471   4.252   2.244   0.772
 9524SOL    HW229472   4.320   2.283   0.629
 9525SOL     OW29473   3.681   0.195   5.696
 9525SOL    HW129474   3.677   0.095   5.703
 9525SOL    HW229475   3.604   0.228   5.641
 9526SOL     OW29476   4.769   5.956   2.163
 9526SOL    HW129477   4.851   5.904   2.141
 9526SOL    HW229478   4.769   6.042   2.111
 9527SOL     OW29479   6.218   2.247   1.340
 9527SOL    HW129480   6.285   2.198   1.286
 9527SOL    HW229481   6.151   2.181   1.377
 9528SOL     OW29482   6.457   0.624   1.899
 9528SOL    HW129483   6.425   0.555   1.964
 9528SOL    HW229484   6.379   0.678   1.867
 9529SOL     OW29485   1.341   3.706   4.547
 9529SOL    HW129486   1.372   3.628   4.492
 9529SOL    HW229487   1.264   3.751   4.501
 9530SOL     OW29488   1.626   2.765   4.048
 9530SOL    HW129489   1.651   2.825   4.124
 9530SOL    HW229490   1.578   2.817   3.978
 9531SOL     OW29491   2.581   6.141   3.379
 9531SOL    HW129492   2.602   6.125   3.475
 9531SOL    HW229493   2.547   6.234   3.367
 9532SOL     OW29494   2.518   0.908   1.090
 9532SOL    HW129495   2.608   0.901   1.132
 9532SOL    HW229496   2.524   0.880   0.994
 9533SOL     OW29497   1.300   0.159   4.842
 9533SOL    HW129498   1.337   0.248   4.815
 9533SOL    HW229499   1.201   0.167   4.854
 9534SOL     OW29500   4.511   1.991   4.435
 9534SOL    HW129501   4.542   2.057   4.367
 9534SOL    HW229502   4.524   1.898   4.399
 9535SOL     OW29503   2.223   2.171   4.785
 9535SOL    HW129504   2.250   2.159   4.880
 9535SOL    HW229505   2.244   2.088   4.734
 9536SOL     OW29506   3.396   6.924   6.536
 9536SOL    HW129507   3.388   6.983   6.456
 9536SOL    HW229508   3.476   6.864   6.526
 9537SOL     OW29509   2.635   6.806   0.266
 9537SOL    HW129510   2.720   6.793   0.215
 9537SOL    HW229511   2.646   6.883   0.330
 9538SOL     OW29512   5.493   3.564   4.288
 9538SOL    HW129513   5.466   3.641   4.231
 9538SOL    HW229514   5.578   3.585   4.335
 9539SOL     OW29515   0.347   4.406   0.817
 9539SOL    HW129516   0.307   4.495   0.794
 9539SOL    HW229517   0.402   4.373   0.740
 9540SOL     OW29518   5.387   3.406   5.441
 9540SOL    HW129519   5.417   3.407   5.536
 9540SOL    HW229520   5.378   3.500   5.408
 9541SOL     OW29521   0.225   1.304   3.335
 9541SOL    HW129522   0.245   1.218   3.289
 9541SOL    HW229523   0.210   1.287   3.432
 9542SOL     OW29524   4.938   3.988   4.418
 9542SOL    HW129525   4.935   4.088   4.425
 9542SOL    HW229526   5.027   3.956   4.451
 9543SOL     OW29527   5.751   2.063   1.664
 9543SOL    HW129528   5.679   2.105   1.609
 9543SOL    HW229529   5.721   1.973   1.695
 9544SOL     OW29530   3.636   1.790   2.018
 9544SOL    HW129531   3.586   1.877   2.027
 9544SOL    HW229532   3.733   1.806   2.033
 9545SOL     OW29533   0.829   0.328   4.671
 9545SOL    HW129534   0.751   0.308   4.731
 9545SOL    HW229535   0.800   0.324   4.576
 9546SOL     OW29536   2.137   4.214   1.477
 9546SOL    HW129537   2.108   4.256   1.563
 9546SOL    HW229538   2.057   4.193   1.422
 9547SOL     OW29539   6.389   5.644   3.442
 9547SOL    HW129540   6.308   5.595   3.475
 9547SOL    HW229541   6.373   5.676   3.349
 9548SOL     OW29542   4.763   6.666   2.785
 9548SOL    HW129543   4.799   6.746   2.737
 9548SOL    HW229544   4.812   6.654   2.871
 9549SOL     OW29545   2.637   5.554   0.649
 9549SOL    HW129546   2.683   5.487   0.708
 9549SOL    HW229547   2.575   5.507   0.587
 9550SOL     OW29548   1.778   1.151   6.702
 9550SOL    HW129549   1.690   1.176   6.744
 9550SOL    HW229550   1.842   1.226   6.712
 9551SOL     OW29551   1.572   6.249   5.871
 9551SOL    HW129552   1.590   6.307   5.951
 9551SOL    HW229553   1.657   6.233   5.822
 9552SOL     OW29554   0.228   5.634   3.316
 9552SOL    HW129555   0.314   5.583   3.316
 9552SOL    HW229556   0.224   5.692   3.234
 9553SOL     OW29557   5.235   4.544   5.623
 9553SOL    HW129558   5.165   4.536   5.694
 9553SOL    HW229559   5.324   4.519   5.662
 9554SOL     OW29560   2.013   1.612   1.396
 9554SOL    HW129561   2.008   1.601   1.496
 9554SOL    HW229562   2.045   1.526   1.355
 9555SOL     OW29563   6.775   2.409   6.546
 9555SOL    HW129564   6.803   2.350   6.621
 9555SOL    HW229565   6.855   2.456   6.508
 9556SOL     OW29566   6.965   1.663   1.087
 9556SOL    HW129567   6.926   1.590   1.031
 9556SOL    HW229568   6.927   1.658   1.179
 9557SOL     OW29569   5.476   2.452   1.539
 9557SOL    HW129570   5.556   2.511   1.533
 9557SOL    HW229571   5.406   2.497   1.594
 9558SOL     OW29572   5.649   4.627   1.867
 9558SOL    HW129573   5.745   4.602   1.869
 9558SOL    HW229574   5.599   4.561   1.811
 9559SOL     OW29575   6.391   2.979   2.693
 9559SOL    HW129576   6.328   3.054   2.712
 9559SOL    HW229577   6.348   2.914   2.631
 9560SOL     OW29578   3.802   1.833   5.101
 9560SOL    HW129579   3.722   1.774   5.115
 9560SOL    HW229580   3.873   1.809   5.166
 9561SOL     OW29581   3.480   6.256   6.724
 9561SOL    HW129582   3.445   6.247   6.817
 9561SOL    HW229583   3.509   6.166   6.691
 9562SOL     OW29584   5.820   4.632   3.765
 9562SOL    HW129585   5.869   4.617   3.851
 9562SOL    HW229586   5.872   4.695   3.707
 9563SOL     OW29587   0.190   6.243   6.827
 9563SOL    HW129588   0.150   6.271   6.914
 9563SOL    HW229589   0.121   6.250   6.755
 9564SOL     OW29590   2.218   0.182   6.466
 9564SOL    HW129591   2.147   0.249   6.486
 9564SOL    HW229592   2.247   0.191   6.371
 9565SOL     OW29593   4.004   5.744   4.088
 9565SOL    HW129594   4.091   5.750   4.137
 9565SOL    HW229595   3.931   5.718   4.151
 9566SOL     OW29596   3.302   4.833   5.993
 9566SOL    HW129597   3.401   4.847   5.994
 9566SOL    HW229598   3.277   4.762   6.059
 9567SOL     OW29599   6.346   5.376   5.125
 9567SOL    HW129600   6.308   5.466   5.105
 9567SOL    HW229601   6.275   5.306   5.112
 9568SOL     OW29602   5.372   3.952   6.370
 9568SOL    HW129603   5.358   4.047   6.398
 9568SOL    HW229604   5.435   3.907   6.432
 9569SOL     OW29605   5.407   6.630   2.092
 9569SOL    HW129606   5.388   6.723   2.125
 9569SOL    HW229607   5.380   6.624   1.996
 9570SOL     OW29608   0.987   0.821   6.634
 9570SOL    HW129609   0.963   0.864   6.547
 9570SOL    HW229610   0.906   0.820   6.693
 9571SOL     OW29611   2.580   3.039   0.076
 9571SOL    HW129612   2.664   2.998   0.111
 9571SOL    HW229613   2.548   3.110   0.140
 9572SOL     OW29614   0.253   3.893   0.661
 9572SOL    HW129615   0.168   3.920   0.706
 9572SOL    HW229616   0.321   3.966   0.674
 9573SOL     OW29617   5.875   1.323   2.002
 9573SOL    HW129618   5.869   1.422   2.017
 9573SOL    HW229619   5.833   1.300   1.915
 9574SOL     OW29620   2.600   1.866   3.776
 9574SOL    HW129621   2.536   1.833   3.846
 9574SOL    HW229622   2.550   1.916   3.706
 9575SOL     OW29623   4.720   1.018   2.557
 9575SOL    HW129624   4.719   0.983   2.463
 9575SOL    HW229625   4.740   0.943   2.620
 9576SOL     OW29626   4.112   2.592   5.614
 9576SOL    HW129627   4.169   2.646   5.552
 9576SOL    HW229628   4.023   2.638   5.625
 9577SOL     OW29629   0.531   6.195   3.508
 9577SOL    HW129630   0.573   6.143   3.583
 9577SOL    HW229631   0.573   6.285   3.502
 9578SOL     OW29632   6.142   4.225   2.151
 9578SOL    HW129633   6.195   4.157   2.101
 9578SOL    HW229634   6.168   4.223   2.248
 9579SOL     OW29635   1.843   6.467   2.968
 9579SOL    HW129636   1.876   6.480   2.874
 9579SOL    HW229637   1.895   6.393   3.011
 9580SOL     OW29638   4.463   3.361   5.612
 9580SOL    HW129639   4.481   3.263   5.616
 9580SOL    HW229640   4.502   3.400   5.529
 9581SOL     OW29641   1.274   5.479   5.586
 9581SOL    HW129642   1.205   5.532   5.634
 9581SOL    HW229643   1.319   5.417   5.651
 9582SOL     OW29644   4.325   4.627   3.995
 9582SOL    HW129645   4.382   4.544   3.994
 9582SOL    HW229646   4.310   4.656   4.090
 9583SOL     OW29647   2.008   4.845   1.815
 9583SOL    HW129648   1.971   4.789   1.888
 9583SOL    HW229649   2.080   4.795   1.768
 9584SOL     OW29650   5.829   5.064   6.788
 9584SOL    HW129651   5.848   5.162   6.782
 9584SOL    HW229652   5.852   5.030   6.879
 9585SOL     OW29653   0.974   0.280   3.291
 9585SOL    HW129654   0.995   0.346   3.363
 9585SOL    HW229655   0.900   0.220   3.322
 9586SOL     OW29656   5.390   3.003   2.470
 9586SOL    HW129657   5.341   2.940   2.410
 9586SOL    HW229658   5.489   2.994   2.454
 9587SOL     OW29659   5.014   6.333   2.331
 9587SOL    HW129660   4.935   6.281   2.362
 9587SOL    HW229661   4.993   6.431   2.334
 9588SOL     OW29662   0.030   0.566   3.609
 9588SOL    HW129663   0.020   0.512   3.525
 9588SOL    HW229664   0.128   0.578   3.628
 9589SOL     OW29665   2.970   1.916   4.839
 9589SOL    HW129666   2.882   1.922   4.793
 9589SOL    HW229667   2.981   1.824   4.877
 9590SOL     OW29668   0.568   4.912   4.505
 9590SOL    HW129669   0.496   4.845   4.487
 9590SOL    HW229670   0.556   4.948   4.598
 9591SOL     OW29671   1.234   4.520   2.729
 9591SOL    HW129672   1.167   4.517   2.655
 9591SOL    HW229673   1.318   4.564   2.697
 9592SOL     OW29674   4.711   6.006   1.800
 9592SOL    HW129675   4.727   6.071   1.725
 9592SOL    HW229676   4.719   6.054   1.887
 9593SOL     OW29677   2.156   2.798   3.423
 9593SOL    HW129678   2.082   2.752   3.474
 9593SOL    HW229679   2.244   2.769   3.460
 9594SOL     OW29680   5.892   6.978   1.172
 9594SOL    HW129681   5.898   6.921   1.254
 9594SOL    HW229682   5.873   0.048   1.199
 9595SOL     OW29683   1.180   4.754   4.191
 9595SOL    HW129684   1.207   4.709   4.276
 9595SOL    HW229685   1.262   4.776   4.137
 9596SOL     OW29686   5.295   5.560   2.509
 9596SOL    HW129687   5.216   5.516   2.468
 9596SOL    HW229688   5.351   5.602   2.438
 9597SOL     OW29689   1.708   4.500   0.686
 9597SOL    HW129690   1.808   4.506   0.687
 9597SOL    HW229691   1.675   4.473   0.777
 9598SOL     OW29692   1.035   5.632   5.702
 9598SOL    HW129693   1.016   5.716   5.651
 9598SOL    HW229694   1.080   5.655   5.788
 9599SOL     OW29695   4.187   1.515   4.433
 9599SOL    HW129696   4.174   1.497   4.530
 9599SOL    HW229697   4.158   1.435   4.380
 9600SOL     OW29698   1.982   6.049   0.010
 9600SOL    HW129699   1.946   6.058   6.942
 9600SOL    HW229700   1.998   5.952   0.030
 9601SOL     OW29701   0.673   0.093   6.501
 9601SOL    HW129702   0.585   0.047   6.515
 9601SOL    HW229703   0.706   0.128   6.588
 9602SOL     OW29704   0.170   5.214   6.890
 9602SOL    HW129705   0.156   5.313   6.880
 9602SOL    HW229706   0.083   5.171   6.914
 9603SOL     OW29707   1.147   4.859   3.306
 9603SOL    HW129708   1.096   4.795   3.249
 9603SOL    HW229709   1.145   4.828   3.401
 9604SOL     OW29710   6.706   0.039   0.192
 9604SOL    HW129711   6.724   6.971   0.225
 9604SOL    HW229712   6.791   0.092   0.194
 9605SOL     OW29713   2.520   5.575   6.858
 9605SOL    HW129714   2.601   5.574   6.799
 9605SOL    HW229715   2.522   5.656   6.916
 9606SOL     OW29716   6.539   0.289   5.565
 9606SOL    HW129717   6.568   0.317   5.473
 9606SOL    HW229718   6.440   0.282   5.568
 9607SOL     OW29719   6.886   1.721   2.368
 9607SOL    HW129720   6.883   1.787   2.294
 9607SOL    HW229721   6.826   1.752   2.442
 9608SOL     OW29722   6.582   6.856   2.436
 9608SOL    HW129723   6.507   6.792   2.453
 9608SOL    HW229724   6.610   6.850   2.340
 9609SOL     OW29725   1.606   2.120   3.681
 9609SOL    HW129726   1.615   2.061   3.761
 9609SOL    HW229727   1.678   2.097   3.615
 9610SOL     OW29728   3.707   0.789   6.063
 9610SOL    HW129729   3.759   0.819   6.143
 9610SOL    HW229730   3.717   0.690   6.052
 9611SOL     OW29731   5.881   5.758   1.275
 9611SOL    HW129732   5.856   5.710   1.191
 9611SOL    HW229733   5.894   5.855   1.255
 9612SOL     OW29734   5.256   3.614   2.966
 9612SOL    HW129735   5.175   3.620   3.024
 9612SOL    HW229736   5.229   3.585   2.874
 9613SOL     OW29737   6.167   6.804   5.133
 9613SOL    HW129738   6.250   6.750   5.122
 9613SOL    HW229739   6.108   6.761   5.202
 9614SOL     OW29740   3.045   2.846   1.640
 9614SOL    HW129741   3.137   2.825   1.608
 9614SOL    HW229742   3.009   2.768   1.691
 9615SOL     OW29743   0.323   5.789   3.829
 9615SOL    HW129744   0.420   5.778   3.851
 9615SOL    HW229745   0.310   5.779   3.730
 9616SOL     OW29746   1.803   2.621   1.536
 9616SOL    HW129747   1.872   2.684   1.500
 9616SOL    HW229748   1.778   2.648   1.629
 9617SOL     OW29749   7.023   3.014   2.441
 9617SOL    HW129750   6.984   3.079   2.376
 9617SOL    HW229751   0.097   3.024   2.445
 9618SOL     OW29752   4.419   4.237   0.688
 9618SOL    HW129753   4.320   4.242   0.704
 9618SOL    HW229754   4.452   4.147   0.716
 9619SOL     OW29755   1.157   6.722   1.647
 9619SOL    HW129756   1.069   6.699   1.688
 9619SOL    HW229757   1.143   6.754   1.554
 9620SOL     OW29758   3.669   2.228   7.005
 9620SOL    HW129759   3.596   2.189   6.948
 9620SOL    HW229760   3.647   2.323   0.003
 9621SOL     OW29761   0.297   0.959   1.886
 9621SOL    HW129762   0.241   0.931   1.964
 9621SOL    HW229763   0.393   0.938   1.905
 9622SOL     OW29764   0.133   5.534   6.188
 9622SOL    HW129765   0.204   5.467   6.165
 9622SOL    HW229766   0.171   5.626   6.179
 9623SOL     OW29767   3.671   6.274   5.602
 9623SOL    HW129768   3.664   6.370   5.626
 9623SOL    HW229769   3.582   6.240   5.572
 9624SOL     OW29770   4.263   5.477   4.900
 9624SOL    HW129771   4.284   5.543   4.972
 9624SOL    HW229772   4.236   5.390   4.941
 9625SOL     OW29773   5.119   3.835   6.438
 9625SOL    HW129774   5.075   3.889   6.510
 9625SOL    HW229775   5.211   3.870   6.421
 9626SOL     OW29776   2.437   2.378   6.692
 9626SOL    HW129777   2.458   2.453   6.629
 9626SOL    HW229778   2.432   2.413   6.785
 9627SOL     OW29779   0.415   5.136   0.369
 9627SOL    HW129780   0.467   5.099   0.446
 9627SOL    HW229781   0.354   5.066   0.333
 9628SOL     OW29782   6.818   1.697   6.374
 9628SOL    HW129783   6.814   1.680   6.472
 9628SOL    HW229784   6.725   1.700   6.336
 9629SOL     OW29785   0.081   6.265   4.004
 9629SOL    HW129786   0.050   6.252   3.910
 9629SOL    HW229787   0.017   6.219   4.066
 9630SOL     OW29788   6.016   1.532   5.914
 9630SOL    HW129789   6.116   1.523   5.908
 9630SOL    HW229790   5.973   1.474   5.845
 9631SOL     OW29791   4.421   6.486   0.846
 9631SOL    HW129792   4.397   6.432   0.766
 9631SOL    HW229793   4.418   6.428   0.928
 9632SOL     OW29794   2.619   4.898   2.447
 9632SOL    HW129795   2.587   4.926   2.537
 9632SOL    HW229796   2.718   4.910   2.441
 9633SOL     OW29797   3.255   3.127   3.523
 9633SOL    HW129798   3.248   3.070   3.441
 9633SOL    HW229799   3.223   3.219   3.503
 9634SOL     OW29800   4.873   4.635   3.304
 9634SOL    HW129801   4.925   4.673   3.227
 9634SOL    HW229802   4.779   4.669   3.300
 9635SOL     OW29803   0.860   5.160   3.683
 9635SOL    HW129804   0.785   5.226   3.675
 9635SOL    HW229805   0.827   5.078   3.731
 9636SOL     OW29806   5.526   4.082   4.193
 9636SOL    HW129807   5.597   4.150   4.174
 9636SOL    HW229808   5.517   4.070   4.292
 9637SOL     OW29809   1.334   3.574   0.261
 9637SOL    HW129810   1.386   3.488   0.260
 9637SOL    HW229811   1.337   3.615   0.170
 9638SOL     OW29812   5.964   5.557   6.205
 9638SOL    HW129813   6.019   5.585   6.283
 9638SOL    HW229814   5.995   5.467   6.174
 9639SOL     OW29815   4.340   1.894   0.962
 9639SOL    HW129816   4.285   1.968   0.925
 9639SOL    HW229817   4.328   1.889   1.061
 9640SOL     OW29818   4.302   0.584   3.702
 9640SOL    HW129819   4.256   0.571   3.790
 9640SOL    HW229820   4.242   0.554   3.628
 9641SOL     OW29821   6.589   2.816   3.844
 9641SOL    HW129822   6.554   2.870   3.920
 9641SOL    HW229823   6.630   2.731   3.879
 9642SOL     OW29824   0.910   1.410   4.800
 9642SOL    HW129825   0.900   1.323   4.848
 9642SOL    HW229826   1.003   1.418   4.765
 9643SOL     OW29827   5.299   5.085   3.869
 9643SOL    HW129828   5.261   5.170   3.906
 9643SOL    HW229829   5.391   5.102   3.833
 9644SOL     OW29830   0.650   5.363   3.739
 9644SOL    HW129831   0.613   5.385   3.649
 9644SOL    HW229832   0.719   5.431   3.765
 9645SOL     OW29833   0.858   5.245   6.226
 9645SOL    HW129834   0.867   5.322   6.290
 9645SOL    HW229835   0.861   5.159   6.276
 9646SOL     OW29836   4.033   5.824   0.503
 9646SOL    HW129837   3.947   5.834   0.453
 9646SOL    HW229838   4.080   5.742   0.471
 9647SOL     OW29839   5.970   6.578   3.160
 9647SOL    HW129840   5.883   6.613   3.126
 9647SOL    HW229841   6.044   6.607   3.099
 9648SOL     OW29842   3.520   1.625   0.950
 9648SOL    HW129843   3.552   1.659   0.861
 9648SOL    HW229844   3.510   1.702   1.013
 9649SOL     OW29845   0.277   5.395   0.738
 9649SOL    HW129846   0.305   5.319   0.796
 9649SOL    HW229847   0.334   5.475   0.758
 9650SOL     OW29848   0.734   4.942   3.791
 9650SOL    HW129849   0.732   4.842   3.780
 9650SOL    HW229850   0.775   4.965   3.879
 9651SOL     OW29851   3.950   2.150   6.881
 9651SOL    HW129852   3.857   2.183   6.901
 9651SOL    HW229853   3.954   2.116   6.787
 9652SOL     OW29854   0.487   4.331   0.411
 9652SOL    HW129855   0.550   4.253   0.414
 9652SOL    HW229856   0.530   4.407   0.362
 9653SOL     OW29857   4.895   4.330   5.893
 9653SOL    HW129858   4.887   4.243   5.844
 9653SOL    HW229859   4.823   4.392   5.862
 9654SOL     OW29860   3.547   3.508   3.250
 9654SOL    HW129861   3.639   3.493   3.214
 9654SOL    HW229862   3.543   3.597   3.296
 9655SOL     OW29863   4.379   1.627   0.918
 9655SOL    HW129864   4.328   1.712   0.913
 9655SOL    HW229865   4.382   1.596   1.013
 9656SOL     OW29866   5.622   4.176   6.507
 9656SOL    HW129867   5.579   4.184   6.417
 9656SOL    HW229868   5.553   4.148   6.574
 9657SOL     OW29869   5.591   4.603   4.072
 9657SOL    HW129870   5.508   4.553   4.098
 9657SOL    HW229871   5.582   4.638   3.979
 9658SOL     OW29872   4.848   1.607   1.987
 9658SOL    HW129873   4.944   1.636   1.987
 9658SOL    HW229874   4.790   1.683   2.017
 9659SOL     OW29875   2.789   2.912   6.453
 9659SOL    HW129876   2.887   2.924   6.435
 9659SOL    HW229877   2.738   2.937   6.371
 9660SOL     OW29878   1.780   6.499   1.735
 9660SOL    HW129879   1.777   6.401   1.757
 9660SOL    HW229880   1.851   6.515   1.666
 9661SOL     OW29881   3.964   3.927   1.210
 9661SOL    HW129882   3.974   4.008   1.152
 9661SOL    HW229883   4.052   3.903   1.250
 9662SOL     OW29884   5.744   6.512   6.456
 9662SOL    HW129885   5.666   6.532   6.397
 9662SOL    HW229886   5.762   6.590   6.516
 9663SOL     OW29887   1.053   5.083   2.579
 9663SOL    HW129888   0.987   5.138   2.528
 9663SOL    HW229889   1.127   5.054   2.518
 9664SOL     OW29890   3.698   4.982   2.186
 9664SOL    HW129891   3.651   4.914   2.130
 9664SOL    HW229892   3.677   5.074   2.153
 9665SOL     OW29893   6.728   5.091   6.023
 9665SOL    HW129894   6.739   5.039   6.108
 9665SOL    HW229895   6.684   5.035   5.954
 9666SOL     OW29896   5.494   4.179   0.244
 9666SOL    HW129897   5.444   4.173   0.331
 9666SOL    HW229898   5.447   4.242   0.182
 9667SOL     OW29899   5.789   6.287   0.322
 9667SOL    HW129900   5.760   6.197   0.290
 9667SOL    HW229901   5.790   6.351   0.245
 9668SOL     OW29902   1.521   1.035   5.991
 9668SOL    HW129903   1.478   1.020   6.080
 9668SOL    HW229904   1.487   0.966   5.926
 9669SOL     OW29905   2.966   0.257   0.196
 9669SOL    HW129906   2.938   0.308   0.114
 9669SOL    HW229907   3.053   0.293   0.229
 9670SOL     OW29908   0.452   0.418   0.518
 9670SOL    HW129909   0.510   0.491   0.555
 9670SOL    HW229910   0.507   0.338   0.496
 9671SOL     OW29911   0.638   5.239   6.727
 9671SOL    HW129912   0.560   5.180   6.706
 9671SOL    HW229913   0.625   5.327   6.683
 9672SOL     OW29914   1.074   3.888   4.433
 9672SOL    HW129915   1.113   3.891   4.341
 9672SOL    HW229916   1.065   3.981   4.467
 9673SOL     OW29917   2.053   3.817   6.960
 9673SOL    HW129918   2.005   3.831   0.022
 9673SOL    HW229919   2.149   3.796   6.979
 9674SOL     OW29920   1.967   6.381   4.175
 9674SOL    HW129921   1.871   6.376   4.150
 9674SOL    HW229922   2.022   6.331   4.108
 9675SOL     OW29923   6.037   3.601   5.740
 9675SOL    HW129924   6.135   3.588   5.752
 9675SOL    HW229925   5.995   3.620   5.829
 9676SOL     OW29926   0.706   2.849   6.503
 9676SOL    HW129927   0.618   2.861   6.549
 9676SOL    HW229928   0.757   2.935   6.506
 9677SOL     OW29929   6.310   5.261   2.440
 9677SOL    HW129930   6.332   5.165   2.454
 9677SOL    HW229931   6.219   5.268   2.398
 9678SOL     OW29932   3.331   3.793   4.957
 9678SOL    HW129933   3.265   3.745   5.014
 9678SOL    HW229934   3.362   3.876   5.004
 9679SOL     OW29935   1.852   1.114   4.372
 9679SOL    HW129936   1.763   1.072   4.351
 9679SOL    HW229937   1.916   1.042   4.399
 9680SOL     OW29938   4.561   0.102   1.946
 9680SOL    HW129939   4.627   0.091   2.021
 9680SOL    HW229940   4.470   0.078   1.979
 9681SOL     OW29941   1.217   2.430   2.108
 9681SOL    HW129942   1.234   2.528   2.095
 9681SOL    HW229943   1.144   2.418   2.176
 9682SOL     OW29944   5.147   6.326   6.191
 9682SOL    HW129945   5.145   6.423   6.164
 9682SOL    HW229946   5.216   6.279   6.136
 9683SOL     OW29947   2.971   5.983   3.353
 9683SOL    HW129948   3.012   6.069   3.322
 9683SOL    HW229949   3.042   5.913   3.356
 9684SOL     OW29950   6.913   3.505   5.215
 9684SOL    HW129951   6.909   3.445   5.135
 9684SOL    HW229952   6.972   3.583   5.196
 9685SOL     OW29953   3.349   4.409   1.455
 9685SOL    HW129954   3.321   4.340   1.521
 9685SOL    HW229955   3.395   4.484   1.503
 9686SOL     OW29956   6.512   0.983   5.627
 9686SOL    HW129957   6.610   0.999   5.615
 9686SOL    HW229958   6.480   0.920   5.556
 9687SOL     OW29959   4.785   1.049   3.151
 9687SOL    HW129960   4.869   1.099   3.131
 9687SOL    HW229961   4.741   1.088   3.231
 9688SOL     OW29962   0.871   5.248   1.622
 9688SOL    HW129963   0.934   5.257   1.699
 9688SOL    HW229964   0.795   5.311   1.635
 9689SOL     OW29965   2.131   5.967   1.014
 9689SOL    HW129966   2.109   5.946   0.918
 9689SOL    HW229967   2.200   5.903   1.048
 9690SOL     OW29968   6.854   4.660   4.558
 9690SOL    HW129969   6.925   4.601   4.597
 9690SOL    HW229970   6.881   4.688   4.466
 9691SOL     OW29971   2.838   3.578   1.706
 9691SOL    HW129972   2.815   3.520   1.785
 9691SOL    HW229973   2.924   3.626   1.724
 9692SOL     OW29974   5.200   4.633   0.607
 9692SOL    HW129975   5.260   4.671   0.677
 9692SOL    HW229976   5.184   4.536   0.626
 9693SOL     OW29977   4.287   3.031   5.381
 9693SOL    HW129978   4.355   2.964   5.351
 9693SOL    HW229979   4.195   2.995   5.367
 9694SOL     OW29980   3.248   0.210   1.984
 9694SOL    HW129981   3.198   0.235   1.901
 9694SOL    HW229982   3.210   0.126   2.022
 9695SOL     OW29983   1.046   2.763   3.884
 9695SOL    HW129984   0.958   2.776   3.929
 9695SOL    HW229985   1.111   2.724   3.949
 9696SOL     OW29986   5.431   2.403   3.965
 9696SOL    HW129987   5.457   2.465   3.891
 9696SOL    HW229988   5.444   2.308   3.936
 9697SOL     OW29989   0.123   6.605   1.123
 9697SOL    HW129990   0.061   6.665   1.174
 9697SOL    HW229991   0.110   6.620   1.025
 9698SOL     OW29992   0.087   3.073   1.954
 9698SOL    HW129993   0.169   3.093   1.901
 9698SOL    HW229994   0.082   3.135   2.033
 9699SOL     OW29995   2.328   5.784   1.032
 9699SOL    HW129996   2.378   5.746   0.954
 9699SOL    HW229997   2.313   5.711   1.100
 9700SOL     OW29998   5.268   0.144   5.866
 9700SOL    HW129999   5.213   0.194   5.934
 9700SOL    HW230000   5.362   0.175   5.870
 9701SOL     OW30001   4.860   4.036   6.851
 9701SOL    HW130002   4.922   4.012   6.926
 9701SOL    HW230003   4.862   4.135   6.838
 9702SOL     OW30004   3.945   3.992   2.084
 9702SOL    HW130005   4.011   4.041   2.140
 9702SOL    HW230006   3.881   3.942   2.143
 9703SOL     OW30007   6.219   4.681   4.044
 9703SOL    HW130008   6.288   4.731   3.992
 9703SOL    HW230009   6.264   4.609   4.097
 9704SOL     OW30010   1.310   4.451   2.986
 9704SOL    HW130011   1.265   4.473   2.899
 9704SOL    HW230012   1.396   4.501   2.992
 9705SOL     OW30013   0.588   2.750   5.847
 9705SOL    HW130014   0.546   2.661   5.860
 9705SOL    HW230015   0.661   2.743   5.780
 9706SOL     OW30016   0.640   1.348   2.708
 9706SOL    HW130017   0.605   1.434   2.745
 9706SOL    HW230018   0.585   1.321   2.629
 9707SOL     OW30019   0.596   4.744   2.781
 9707SOL    HW130020   0.605   4.829   2.833
 9707SOL    HW230021   0.585   4.667   2.844
 9708SOL     OW30022   2.463   0.585   2.263
 9708SOL    HW130023   2.454   0.498   2.214
 9708SOL    HW230024   2.560   0.608   2.272
 9709SOL     OW30025   5.541   2.181   1.546
 9709SOL    HW130026   5.470   2.147   1.608
 9709SOL    HW230027   5.530   2.280   1.534
 9710SOL     OW30028   5.751   5.495   4.489
 9710SOL    HW130029   5.743   5.414   4.546
 9710SOL    HW230030   5.771   5.468   4.395
 9711SOL     OW30031   3.507   1.324   7.024
 9711SOL    HW130032   3.509   1.284   0.091
 9711SOL    HW230033   3.521   1.251   6.956
 9712SOL     OW30034   5.831   1.064   6.744
 9712SOL    HW130035   5.826   0.989   6.809
 9712SOL    HW230036   5.784   1.038   6.659
 9713SOL     OW30037   2.471   6.888   2.478
 9713SOL    HW130038   2.527   6.847   2.406
 9713SOL    HW230039   2.383   6.841   2.484
 9714SOL     OW30040   2.328   4.313   4.331
 9714SOL    HW130041   2.295   4.228   4.292
 9714SOL    HW230042   2.345   4.301   4.429
 9715SOL     OW30043   6.451   3.308   6.160
 9715SOL    HW130044   6.382   3.263   6.103
 9715SOL    HW230045   6.428   3.405   6.169
 9716SOL     OW30046   2.619   5.211   0.350
 9716SOL    HW130047   2.594   5.299   0.308
 9716SOL    HW230048   2.536   5.159   0.369
 9717SOL     OW30049   3.412   1.936   5.252
 9717SOL    HW130050   3.419   1.839   5.228
 9717SOL    HW230051   3.480   1.988   5.201
 9718SOL     OW30052   4.483   2.383   5.755
 9718SOL    HW130053   4.490   2.358   5.851
 9718SOL    HW230054   4.455   2.304   5.701
 9719SOL     OW30055   5.269   6.674   6.104
 9719SOL    HW130056   5.289   6.761   6.059
 9719SOL    HW230057   5.170   6.664   6.117
 9720SOL     OW30058   2.184   3.258   2.715
 9720SOL    HW130059   2.089   3.228   2.722
 9720SOL    HW230060   2.208   3.265   2.618
 9721SOL     OW30061   1.246   1.045   1.126
 9721SOL    HW130062   1.195   1.130   1.138
 9721SOL    HW230063   1.211   0.977   1.191
 9722SOL     OW30064   4.005   2.193   5.331
 9722SOL    HW130065   3.987   2.113   5.273
 9722SOL    HW230066   3.926   2.211   5.389
 9723SOL     OW30067   6.851   0.278   5.413
 9723SOL    HW130068   6.893   0.367   5.400
 9723SOL    HW230069   6.825   0.266   5.509
 9724SOL     OW30070   1.484   4.670   0.336
 9724SOL    HW130071   1.452   4.708   0.423
 9724SOL    HW230072   1.521   4.579   0.351
 9725SOL     OW30073   4.310   4.844   4.639
 9725SOL    HW130074   4.284   4.836   4.736
 9725SOL    HW230075   4.228   4.864   4.585
 9726SOL     OW30076   0.299   0.563   3.704
 9726SOL    HW130077   0.359   0.504   3.649
 9726SOL    HW230078   0.348   0.596   3.784
 9727SOL     OW30079   6.504   2.130   1.998
 9727SOL    HW130080   6.461   2.214   1.966
 9727SOL    HW230081   6.437   2.076   2.049
 9728SOL     OW30082   5.167   2.219   4.101
 9728SOL    HW130083   5.073   2.201   4.130
 9728SOL    HW230084   5.192   2.312   4.128
 9729SOL     OW30085   6.975   4.758   3.162
 9729SOL    HW130086   6.902   4.814   3.201
 9729SOL    HW230087   0.038   4.785   3.200
 9730SOL     OW30088   0.980   4.563   3.026
 9730SOL    HW130089   1.063   4.613   3.001
 9730SOL    HW230090   0.917   4.562   2.949
 9731SOL     OW30091   5.445   2.839   1.863
 9731SOL    HW130092   5.493   2.910   1.811
 9731SOL    HW230093   5.357   2.820   1.819
 9732SOL     OW30094   1.156   3.722   2.805
 9732SOL    HW130095   1.234   3.770   2.764
 9732SOL    HW230096   1.132   3.643   2.749
 9733SOL     OW30097   6.010   4.974   1.953
 9733SOL    HW130098   5.928   4.975   2.009
 9733SOL    HW230099   6.064   5.056   1.969
 9734SOL     OW30100   5.635   5.093   6.176
 9734SOL    HW130101   5.644   5.131   6.084
 9734SOL    HW230102   5.566   5.021   6.175
 9735SOL     OW30103   0.259   2.618   0.879
 9735SOL    HW130104   0.286   2.696   0.935
 9735SOL    HW230105   0.263   2.534   0.933
 9736SOL     OW30106   4.917   2.043   4.997
 9736SOL    HW130107   4.825   2.079   5.014
 9736SOL    HW230108   4.982   2.119   4.995
 9737SOL     OW30109   6.007   2.994   4.017
 9737SOL    HW130110   5.940   3.067   4.031
 9737SOL    HW230111   5.998   2.958   3.924
 9738SOL     OW30112   2.199   6.583   1.914
 9738SOL    HW130113   2.129   6.562   1.982
 9738SOL    HW230114   2.179   6.533   1.829
 9739SOL     OW30115   5.614   6.663   0.512
 9739SOL    HW130116   5.536   6.606   0.485
 9739SOL    HW230117   5.699   6.612   0.498
 9740SOL     OW30118   6.132   1.169   2.735
 9740SOL    HW130119   6.112   1.082   2.689
 9740SOL    HW230120   6.222   1.164   2.778
 9741SOL     OW30121   2.178   2.119   4.446
 9741SOL    HW130122   2.228   2.054   4.504
 9741SOL    HW230123   2.242   2.185   4.408
 9742SOL     OW30124   3.486   1.979   6.201
 9742SOL    HW130125   3.413   1.972   6.269
 9742SOL    HW230126   3.496   1.891   6.153
 9743SOL     OW30127   5.729   3.944   4.066
 9743SOL    HW130128   5.783   3.937   4.150
 9743SOL    HW230129   5.648   4.000   4.083
 9744SOL     OW30130   1.936   1.728   2.539
 9744SOL    HW130131   1.923   1.630   2.525
 9744SOL    HW230132   1.999   1.763   2.470
 9745SOL     OW30133   0.412   0.725   6.221
 9745SOL    HW130134   0.455   0.679   6.143
 9745SOL    HW230135   0.316   0.742   6.201
 9746SOL     OW30136   3.654   5.908   5.992
 9746SOL    HW130137   3.694   5.817   5.983
 9746SOL    HW230138   3.701   5.971   5.930
 9747SOL     OW30139   2.888   1.434   3.057
 9747SOL    HW130140   2.829   1.456   2.980
 9747SOL    HW230141   2.982   1.426   3.026
 9748SOL     OW30142   1.324   1.290   3.045
 9748SOL    HW130143   1.288   1.382   3.029
 9748SOL    HW230144   1.412   1.296   3.091
 9749SOL     OW30145   6.873   0.199   1.676
 9749SOL    HW130146   6.822   0.197   1.590
 9749SOL    HW230147   6.971   0.190   1.658
 9750SOL     OW30148   5.871   2.963   4.887
 9750SOL    HW130149   5.819   2.929   4.809
 9750SOL    HW230150   5.834   2.924   4.971
 9751SOL     OW30151   3.610   6.804   1.486
 9751SOL    HW130152   3.670   6.772   1.560
 9751SOL    HW230153   3.665   6.845   1.414
 9752SOL     OW30154   2.862   2.690   0.304
 9752SOL    HW130155   2.898   2.778   0.334
 9752SOL    HW230156   2.892   2.672   0.211
 9753SOL     OW30157   6.368   6.211   5.049
 9753SOL    HW130158   6.438   6.164   4.995
 9753SOL    HW230159   6.300   6.251   4.988
 9754SOL     OW30160   2.961   1.325   2.148
 9754SOL    HW130161   2.986   1.250   2.087
 9754SOL    HW230162   2.866   1.353   2.130
 9755SOL     OW30163   3.208   4.035   0.383
 9755SOL    HW130164   3.180   3.974   0.309
 9755SOL    HW230165   3.291   4.085   0.355
 9756SOL     OW30166   5.925   0.058   5.585
 9756SOL    HW130167   5.970   0.014   5.507
 9756SOL    HW230168   5.910   0.155   5.566
 9757SOL     OW30169   5.170   3.862   4.509
 9757SOL    HW130170   5.170   3.771   4.468
 9757SOL    HW230171   5.256   3.909   4.486
 9758SOL     OW30172   2.345   1.277   2.470
 9758SOL    HW130173   2.362   1.179   2.462
 9758SOL    HW230174   2.344   1.303   2.567
 9759SOL     OW30175   6.903   1.744   1.647
 9759SOL    HW130176   6.860   1.826   1.610
 9759SOL    HW230177   6.950   1.767   1.732
 9760SOL     OW30178   4.653   0.145   0.214
 9760SOL    HW130179   4.633   0.090   0.133
 9760SOL    HW230180   4.673   0.239   0.186
 9761SOL     OW30181   1.044   2.882   1.413
 9761SOL    HW130182   1.143   2.881   1.408
 9761SOL    HW230183   1.015   2.862   1.506
 9762SOL     OW30184   2.744   1.645   5.412
 9762SOL    HW130185   2.707   1.614   5.499
 9762SOL    HW230186   2.796   1.571   5.369
 9763SOL     OW30187   6.459   2.152   1.651
 9763SOL    HW130188   6.401   2.082   1.609
 9763SOL    HW230189   6.538   2.109   1.694
 9764SOL     OW30190   0.138   2.030   2.733
 9764SOL    HW130191   0.046   2.025   2.772
 9764SOL    HW230192   0.131   2.050   2.635
 9765SOL     OW30193   6.778   0.310   1.890
 9765SOL    HW130194   6.793   0.258   1.807
 9765SOL    HW230195   6.771   0.408   1.868
 9766SOL     OW30196   1.548   2.198   3.175
 9766SOL    HW130197   1.537   2.106   3.213
 9766SOL    HW230198   1.641   2.208   3.140
 9767SOL     OW30199   2.605   1.448   5.089
 9767SOL    HW130200   2.639   1.531   5.045
 9767SOL    HW230201   2.540   1.403   5.029
 9768SOL     OW30202   5.963   2.787   0.710
 9768SOL    HW130203   5.908   2.714   0.750
 9768SOL    HW230204   5.929   2.808   0.618
 9769SOL     OW30205   3.332   1.607   5.378
 9769SOL    HW130206   3.341   1.682   5.443
 9769SOL    HW230207   3.423   1.581   5.345
 9770SOL     OW30208   2.050   2.817   5.621
 9770SOL    HW130209   1.970   2.830   5.562
 9770SOL    HW230210   2.133   2.823   5.565
 9771SOL     OW30211   3.591   0.242   1.790
 9771SOL    HW130212   3.604   0.275   1.884
 9771SOL    HW230213   3.500   0.268   1.758
 9772SOL     OW30214   0.812   0.497   1.587
 9772SOL    HW130215   0.760   0.473   1.670
 9772SOL    HW230216   0.909   0.506   1.610
 9773SOL     OW30217   5.430   5.389   2.234
 9773SOL    HW130218   5.442   5.478   2.278
 9773SOL    HW230219   5.434   5.316   2.303
 9774SOL     OW30220   1.505   4.547   4.826
 9774SOL    HW130221   1.461   4.519   4.911
 9774SOL    HW230222   1.491   4.645   4.812
 9775SOL     OW30223   2.386   1.242   3.252
 9775SOL    HW130224   2.412   1.337   3.235
 9775SOL    HW230225   2.388   1.224   3.350
 9776SOL     OW30226   2.734   4.936   0.826
 9776SOL    HW130227   2.707   4.985   0.743
 9776SOL    HW230228   2.724   4.837   0.811
 9777SOL     OW30229   4.278   0.901   5.411
 9777SOL    HW130230   4.243   0.852   5.491
 9777SOL    HW230231   4.206   0.960   5.374
 9778SOL     OW30232   1.157   4.323   3.758
 9778SOL    HW130233   1.148   4.422   3.771
 9778SOL    HW230234   1.193   4.304   3.667
 9779SOL     OW30235   2.657   1.131   3.465
 9779SOL    HW130236   2.710   1.166   3.388
 9779SOL    HW230237   2.714   1.069   3.518
 9780SOL     OW30238   0.771   2.748   2.169
 9780SOL    HW130239   0.792   2.717   2.261
 9780SOL    HW230240   0.853   2.740   2.112
 9781SOL     OW30241   1.573   1.953   2.492
 9781SOL    HW130242   1.560   1.857   2.469
 9781SOL    HW230243   1.496   1.986   2.546
 9782SOL     OW30244   0.186   2.018   0.686
 9782SOL    HW130245   0.186   2.070   0.601
 9782SOL    HW230246   0.167   2.079   0.763
 9783SOL     OW30247   4.210   1.280   2.808
 9783SOL    HW130248   4.157   1.218   2.750
 9783SOL    HW230249   4.304   1.249   2.812
 9784SOL     OW30250   2.269   1.345   6.212
 9784SOL    HW130251   2.288   1.308   6.120
 9784SOL    HW230252   2.356   1.363   6.258
 9785SOL     OW30253   0.455   3.807   4.411
 9785SOL    HW130254   0.455   3.716   4.369
 9785SOL    HW230255   0.361   3.839   4.423
 9786SOL     OW30256   2.128   4.403   6.628
 9786SOL    HW130257   2.044   4.430   6.674
 9786SOL    HW230258   2.162   4.318   6.667
 9787SOL     OW30259   2.973   3.830   2.720
 9787SOL    HW130260   2.955   3.747   2.772
 9787SOL    HW230261   2.948   3.816   2.624
 9788SOL     OW30262   3.970   6.763   1.946
 9788SOL    HW130263   3.918   6.848   1.948
 9788SOL    HW230264   4.060   6.780   1.906
 9789SOL     OW30265   3.790   1.750   6.869
 9789SOL    HW130266   3.718   1.796   6.818
 9789SOL    HW230267   3.769   1.653   6.878
 9790SOL     OW30268   5.727   5.720   4.283
 9790SOL    HW130269   5.807   5.778   4.293
 9790SOL    HW230270   5.740   5.635   4.334
 9791SOL     OW30271   0.678   0.408   1.827
 9791SOL    HW130272   0.599   0.368   1.874
 9791SOL    HW230273   0.747   0.337   1.811
 9792SOL     OW30274   3.951   4.892   0.641
 9792SOL    HW130275   4.022   4.913   0.709
 9792SOL    HW230276   3.964   4.799   0.607
 9793SOL     OW30277   5.969   1.033   3.440
 9793SOL    HW130278   5.972   1.025   3.540
 9793SOL    HW230279   5.919   1.116   3.415
 9794SOL     OW30280   4.477   4.943   4.400
 9794SOL    HW130281   4.411   4.942   4.475
 9794SOL    HW230282   4.443   5.000   4.326
 9795SOL     OW30283   1.546   3.487   3.112
 9795SOL    HW130284   1.569   3.580   3.083
 9795SOL    HW230285   1.480   3.448   3.048
 9796SOL     OW30286   3.262   4.064   4.059
 9796SOL    HW130287   3.279   4.117   4.142
 9796SOL    HW230288   3.324   3.985   4.057
 9797SOL     OW30289   2.869   5.107   0.241
 9797SOL    HW130290   2.945   5.129   0.302
 9797SOL    HW230291   2.788   5.160   0.269
 9798SOL     OW30292   6.871   4.149   6.569
 9798SOL    HW130293   6.933   4.096   6.627
 9798SOL    HW230294   6.922   4.188   6.493
 9799SOL     OW30295   3.069   0.122   6.566
 9799SOL    HW130296   3.117   0.082   6.643
 9799SOL    HW230297   3.116   0.206   6.537
 9800SOL     OW30298   0.025   3.031   4.177
 9800SOL    HW130299   6.987   3.058   4.249
 9800SOL    HW230300   0.119   3.042   4.209
 9801SOL     OW30301   5.845   6.517   0.456
 9801SOL    HW130302   5.836   6.435   0.399
 9801SOL    HW230303   5.930   6.564   0.433
 9802SOL     OW30304   4.216   4.151   0.279
 9802SOL    HW130305   4.232   4.102   0.365
 9802SOL    HW230306   4.170   4.091   0.214
 9803SOL     OW30307   0.906   3.087   6.411
 9803SOL    HW130308   0.965   3.010   6.434
 9803SOL    HW230309   0.939   3.169   6.458
 9804SOL     OW30310   0.869   5.248   2.445
 9804SOL    HW130311   0.856   5.166   2.389
 9804SOL    HW230312   0.808   5.244   2.524
 9805SOL     OW30313   0.614   5.692   3.828
 9805SOL    HW130314   0.637   5.784   3.861
 9805SOL    HW230315   0.697   5.639   3.815
 9806SOL     OW30316   3.973   1.962   0.209
 9806SOL    HW130317   3.877   1.981   0.229
 9806SOL    HW230318   3.984   1.951   0.110
 9807SOL     OW30319   3.593   3.058   3.053
 9807SOL    HW130320   3.532   3.005   2.994
 9807SOL    HW230321   3.629   3.135   3.002
 9808SOL     OW30322   4.143   5.740   2.505
 9808SOL    HW130323   4.071   5.768   2.567
 9808SOL    HW230324   4.109   5.669   2.444
 9809SOL     OW30325   6.478   3.448   0.515
 9809SOL    HW130326   6.534   3.482   0.440
 9809SOL    HW230327   6.505   3.354   0.537
 9810SOL     OW30328   3.039   1.910   0.125
 9810SOL    HW130329   3.118   1.851   0.110
 9810SOL    HW230330   3.070   1.999   0.159
 9811SOL     OW30331   5.758   3.645   4.369
 9811SOL    HW130332   5.806   3.571   4.415
 9811SOL    HW230333   5.817   3.726   4.364
 9812SOL     OW30334   3.320   6.201   5.815
 9812SOL    HW130335   3.368   6.241   5.893
 9812SOL    HW230336   3.374   6.125   5.778
 9813SOL     OW30337   5.161   0.649   2.010
 9813SOL    HW130338   5.236   0.630   2.073
 9813SOL    HW230339   5.192   0.640   1.916
 9814SOL     OW30340   5.634   1.303   0.167
 9814SOL    HW130341   5.732   1.302   0.183
 9814SOL    HW230342   5.588   1.349   0.243
 9815SOL     OW30343   4.665   2.617   4.443
 9815SOL    HW130344   4.733   2.546   4.455
 9815SOL    HW230345   4.596   2.611   4.515
 9816SOL     OW30346   2.145   0.628   1.281
 9816SOL    HW130347   2.075   0.619   1.352
 9816SOL    HW230348   2.203   0.707   1.302
 9817SOL     OW30349   6.497   6.608   2.807
 9817SOL    HW130350   6.472   6.659   2.889
 9817SOL    HW230351   6.549   6.527   2.832
 9818SOL     OW30352   5.748   2.905   5.130
 9818SOL    HW130353   5.808   2.903   5.210
 9818SOL    HW230354   5.676   2.974   5.144
 9819SOL     OW30355   4.162   0.703   2.658
 9819SOL    HW130356   4.069   0.693   2.694
 9819SOL    HW230357   4.201   0.790   2.690
 9820SOL     OW30358   4.479   3.091   5.581
 9820SOL    HW130359   4.403   3.068   5.519
 9820SOL    HW230360   4.566   3.077   5.533
 9821SOL     OW30361   6.434   5.240   0.113
 9821SOL    HW130362   6.398   5.332   0.096
 9821SOL    HW230363   6.520   5.247   0.163
 9822SOL     OW30364   0.715   0.001   2.252
 9822SOL    HW130365   0.809   6.997   2.234
 9822SOL    HW230366   0.675   6.968   2.324
 9823SOL     OW30367   3.732   0.664   1.713
 9823SOL    HW130368   3.650   0.640   1.766
 9823SOL    HW230369   3.713   0.652   1.616
 9824SOL     OW30370   1.329   3.726   5.912
 9824SOL    HW130371   1.339   3.826   5.916
 9824SOL    HW230372   1.280   3.701   5.828
 9825SOL     OW30373   4.025   5.202   4.774
 9825SOL    HW130374   4.123   5.181   4.779
 9825SOL    HW230375   4.011   5.299   4.791
 9826SOL     OW30376   5.024   0.383   5.935
 9826SOL    HW130377   4.971   0.455   5.980
 9826SOL    HW230378   5.082   0.424   5.864
 9827SOL     OW30379   1.660   4.016   4.250
 9827SOL    HW130380   1.636   3.933   4.301
 9827SOL    HW230381   1.733   4.065   4.298
 9828SOL     OW30382   3.479   3.165   6.868
 9828SOL    HW130383   3.435   3.248   6.834
 9828SOL    HW230384   3.485   3.169   6.968
 9829SOL     OW30385   3.018   4.580   0.239
 9829SOL    HW130386   3.037   4.659   0.297
 9829SOL    HW230387   2.973   4.610   0.155
 9830SOL     OW30388   5.821   0.480   0.823
 9830SOL    HW130389   5.761   0.418   0.772
 9830SOL    HW230390   5.910   0.484   0.779
 9831SOL     OW30391   6.044   6.804   0.786
 9831SOL    HW130392   5.986   6.795   0.867
 9831SOL    HW230393   6.139   6.783   0.811
 9832SOL     OW30394   4.325   4.410   0.993
 9832SOL    HW130395   4.312   4.454   1.082
 9832SOL    HW230396   4.343   4.480   0.924
 9833SOL     OW30397   3.396   3.551   5.133
 9833SOL    HW130398   3.305   3.585   5.156
 9833SOL    HW230399   3.398   3.523   5.037
 9834SOL     OW30400   0.740   3.311   4.225
 9834SOL    HW130401   0.775   3.404   4.212
 9834SOL    HW230402   0.817   3.247   4.229
 9835SOL     OW30403   5.429   1.981   4.233
 9835SOL    HW130404   5.331   1.998   4.228
 9835SOL    HW230405   5.479   2.061   4.201
 9836SOL     OW30406   4.966   5.285   3.261
 9836SOL    HW130407   5.008   5.341   3.332
 9836SOL    HW230408   4.920   5.343   3.195
 9837SOL     OW30409   2.226   6.224   4.266
 9837SOL    HW130410   2.229   6.228   4.166
 9837SOL    HW230411   2.140   6.265   4.298
 9838SOL     OW30412   0.666   5.553   6.262
 9838SOL    HW130413   0.741   5.618   6.247
 9838SOL    HW230414   0.635   5.518   6.174
 9839SOL     OW30415   6.899   1.696   2.037
 9839SOL    HW130416   6.867   1.607   2.067
 9839SOL    HW230417   6.969   1.685   1.967
 9840SOL     OW30418   6.846   0.630   1.304
 9840SOL    HW130419   6.906   0.551   1.298
 9840SOL    HW230420   6.776   0.613   1.374
 9841SOL     OW30421   1.699   3.611   4.015
 9841SOL    HW130422   1.695   3.629   4.113
 9841SOL    HW230423   1.708   3.513   3.999
 9842SOL     OW30424   3.345   2.992   2.259
 9842SOL    HW130425   3.276   3.008   2.188
 9842SOL    HW230426   3.410   2.923   2.227
 9843SOL     OW30427   6.199   2.788   2.012
 9843SOL    HW130428   6.178   2.734   1.931
 9843SOL    HW230429   6.115   2.830   2.048
 9844SOL     OW30430   4.980   6.814   2.603
 9844SOL    HW130431   5.026   6.882   2.661
 9844SOL    HW230432   4.912   6.860   2.546
 9845SOL     OW30433   0.964   2.251   3.438
 9845SOL    HW130434   0.988   2.246   3.535
 9845SOL    HW230435   0.916   2.168   3.411
 9846SOL     OW30436   2.916   3.595   2.853
 9846SOL    HW130437   2.908   3.609   2.951
 9846SOL    HW230438   2.894   3.499   2.831
 9847SOL     OW30439   1.881   4.064   5.994
 9847SOL    HW130440   1.861   4.138   6.058
 9847SOL    HW230441   1.954   4.093   5.931
 9848SOL     OW30442   4.777   3.325   0.079
 9848SOL    HW130443   4.762   3.419   0.050
 9848SOL    HW230444   4.849   3.322   0.148
 9849SOL     OW30445   0.346   0.029   6.356
 9849SOL    HW130446   0.282   0.102   6.331
 9849SOL    HW230447   0.363   0.031   6.455
 9850SOL     OW30448   3.770   6.135   2.380
 9850SOL    HW130449   3.857   6.093   2.403
 9850SOL    HW230450   3.699   6.104   2.444
 9851SOL     OW30451   5.898   1.821   5.431
 9851SOL    HW130452   5.854   1.846   5.518
 9851SOL    HW230453   5.859   1.876   5.357
 9852SOL     OW30454   5.212   1.692   3.787
 9852SOL    HW130455   5.274   1.763   3.821
 9852SOL    HW230456   5.208   1.696   3.688
 9853SOL     OW30457   6.327   4.024   2.087
 9853SOL    HW130458   6.418   4.011   2.126
 9853SOL    HW230459   6.335   4.044   1.990
 9854SOL     OW30460   5.042   5.523   4.039
 9854SOL    HW130461   4.948   5.510   4.006
 9854SOL    HW230462   5.042   5.532   4.138
 9855SOL     OW30463   1.366   3.661   1.671
 9855SOL    HW130464   1.344   3.564   1.663
 9855SOL    HW230465   1.416   3.677   1.757
 9856SOL     OW30466   3.965   2.713   1.004
 9856SOL    HW130467   4.041   2.719   1.069
 9856SOL    HW230468   3.894   2.652   1.040
 9857SOL     OW30469   5.497   4.038   3.519
 9857SOL    HW130470   5.586   4.047   3.473
 9857SOL    HW230471   5.471   3.942   3.524
 9858SOL     OW30472   5.027   0.905   1.936
 9858SOL    HW130473   5.080   0.846   1.996
 9858SOL    HW230474   5.089   0.961   1.881
 9859SOL     OW30475   6.554   0.360   2.448
 9859SOL    HW130476   6.476   0.356   2.511
 9859SOL    HW230477   6.532   0.311   2.364
 9860SOL     OW30478   0.483   1.248   2.186
 9860SOL    HW130479   0.485   1.346   2.168
 9860SOL    HW230480   0.571   1.208   2.162
 9861SOL     OW30481   3.915   6.576   4.222
 9861SOL    HW130482   3.953   6.593   4.131
 9861SOL    HW230483   3.980   6.524   4.276
 9862SOL     OW30484   1.014   2.510   0.815
 9862SOL    HW130485   1.089   2.576   0.811
 9862SOL    HW230486   1.030   2.446   0.890
 9863SOL     OW30487   3.490   6.820   1.860
 9863SOL    HW130488   3.547   6.888   1.815
 9863SOL    HW230489   3.394   6.843   1.848
 9864SOL     OW30490   5.002   5.842   2.171
 9864SOL    HW130491   5.044   5.857   2.081
 9864SOL    HW230492   5.064   5.789   2.228
 9865SOL     OW30493   0.706   1.274   4.568
 9865SOL    HW130494   0.770   1.322   4.627
 9865SOL    HW230495   0.659   1.203   4.620
 9866SOL     OW30496   4.696   4.133   3.972
 9866SOL    HW130497   4.599   4.157   3.968
 9866SOL    HW230498   4.751   4.213   3.947
 9867SOL     OW30499   4.568   1.124   6.862
 9867SOL    HW130500   4.469   1.115   6.857
 9867SOL    HW230501   4.592   1.202   6.918
 9868SOL     OW30502   0.314   4.947   0.155
 9868SOL    HW130503   0.292   4.871   0.093
 9868SOL    HW230504   0.229   4.987   0.190
 9869SOL     OW30505   1.754   4.338   3.251
 9869SOL    HW130506   1.672   4.283   3.264
 9869SOL    HW230507   1.739   4.430   3.288
 9870SOL     OW30508   4.878   4.862   2.717
 9870SOL    HW130509   4.868   4.928   2.792
 9870SOL    HW230510   4.960   4.884   2.664
 9871SOL     OW30511   2.301   0.899   5.170
 9871SOL    HW130512   2.259   0.890   5.080
 9871SOL    HW230513   2.399   0.913   5.161
 9872SOL     OW30514   2.147   4.887   3.381
 9872SOL    HW130515   2.230   4.832   3.365
 9872SOL    HW230516   2.083   4.834   3.437
 9873SOL     OW30517   1.260   2.790   0.220
 9873SOL    HW130518   1.284   2.796   0.124
 9873SOL    HW230519   1.236   2.695   0.243
 9874SOL     OW30520   1.035   2.959   3.663
 9874SOL    HW130521   1.008   2.905   3.583
 9874SOL    HW230522   1.065   2.898   3.736
 9875SOL     OW30523   1.190   0.377   3.486
 9875SOL    HW130524   1.238   0.448   3.435
 9875SOL    HW230525   1.222   0.287   3.456
 9876SOL     OW30526   6.733   6.391   2.280
 9876SOL    HW130527   6.787   6.432   2.354
 9876SOL    HW230528   6.649   6.443   2.267
 9877SOL     OW30529   3.019   6.836   2.632
 9877SOL    HW130530   3.042   6.928   2.661
 9877SOL    HW230531   2.924   6.835   2.598
 9878SOL     OW30532   0.377   6.403   5.334
 9878SOL    HW130533   0.450   6.396   5.266
 9878SOL    HW230534   0.369   6.497   5.365
 9879SOL     OW30535   4.492   5.668   5.715
 9879SOL    HW130536   4.559   5.673   5.789
 9879SOL    HW230537   4.525   5.605   5.644
 9880SOL     OW30538   1.599   1.456   5.434
 9880SOL    HW130539   1.619   1.408   5.349
 9880SOL    HW230540   1.660   1.535   5.444
 9881SOL     OW30541   0.625   2.222   6.032
 9881SOL    HW130542   0.674   2.176   5.958
 9881SOL    HW230543   0.575   2.155   6.086
 9882SOL     OW30544   1.310   1.878   3.760
 9882SOL    HW130545   1.288   1.888   3.663
 9882SOL    HW230546   1.405   1.847   3.769
 9883SOL     OW30547   1.737   0.801   2.287
 9883SOL    HW130548   1.649   0.838   2.316
 9883SOL    HW230549   1.798   0.793   2.366
 9884SOL     OW30550   4.104   0.264   4.273
 9884SOL    HW130551   4.035   0.297   4.209
 9884SOL    HW230552   4.060   0.220   4.351
 9885SOL     OW30553   6.483   4.719   4.048
 9885SOL    HW130554   6.534   4.688   3.968
 9885SOL    HW230555   6.535   4.698   4.131
 9886SOL     OW30556   0.982   4.070   2.255
 9886SOL    HW130557   0.942   4.147   2.303
 9886SOL    HW230558   0.917   3.995   2.250
 9887SOL     OW30559   3.831   1.258   6.780
 9887SOL    HW130560   3.870   1.250   6.872
 9887SOL    HW230561   3.888   1.208   6.715
 9888SOL     OW30562   0.226   4.221   0.468
 9888SOL    HW130563   0.305   4.282   0.466
 9888SOL    HW230564   0.218   4.174   0.380
 9889SOL     OW30565   6.303   4.919   0.550
 9889SOL    HW130566   6.262   4.935   0.460
 9889SOL    HW230567   6.325   5.007   0.592
 9890SOL     OW30568   1.319   2.782   1.416
 9890SOL    HW130569   1.325   2.729   1.501
 9890SOL    HW230570   1.411   2.796   1.379
 9891SOL     OW30571   5.444   2.500   0.659
 9891SOL    HW130572   5.391   2.552   0.726
 9891SOL    HW230573   5.451   2.552   0.574
 9892SOL     OW30574   6.686   5.268   6.940
 9892SOL    HW130575   6.696   5.274   0.014
 9892SOL    HW230576   6.645   5.353   6.906
 9893SOL     OW30577   2.782   1.561   0.585
 9893SOL    HW130578   2.709   1.598   0.527
 9893SOL    HW230579   2.824   1.636   0.637
 9894SOL     OW30580   1.204   1.943   0.484
 9894SOL    HW130581   1.164   1.884   0.554
 9894SOL    HW230582   1.216   1.891   0.399
 9895SOL     OW30583   5.480   3.398   5.704
 9895SOL    HW130584   5.458   3.330   5.774
 9895SOL    HW230585   5.522   3.478   5.748
 9896SOL     OW30586   6.517   0.334   0.242
 9896SOL    HW130587   6.488   0.243   0.213
 9896SOL    HW230588   6.591   0.326   0.309
 9897SOL     OW30589   5.418   5.440   3.145
 9897SOL    HW130590   5.386   5.517   3.089
 9897SOL    HW230591   5.475   5.380   3.089
 9898SOL     OW30592   3.180   6.161   5.484
 9898SOL    HW130593   3.155   6.257   5.494
 9898SOL    HW230594   3.279   6.150   5.495
 9899SOL     OW30595   0.118   5.391   0.292
 9899SOL    HW130596   0.048   5.444   0.243
 9899SOL    HW230597   0.100   5.293   0.281
 9900SOL     OW30598   2.112   4.082   3.548
 9900SOL    HW130599   2.162   4.039   3.473
 9900SOL    HW230600   2.083   4.174   3.521
 9901SOL     OW30601   2.379   1.984   5.193
 9901SOL    HW130602   2.436   1.914   5.236
 9901SOL    HW230603   2.292   1.943   5.165
 9902SOL     OW30604   2.196   4.905   6.850
 9902SOL    HW130605   2.268   4.965   6.816
 9902SOL    HW230606   2.237   4.829   6.900
 9903SOL     OW30607   4.985   0.983   2.896
 9903SOL    HW130608   5.028   0.957   2.983
 9903SOL    HW230609   5.051   1.032   2.839
 9904SOL     OW30610   6.897   3.177   6.581
 9904SOL    HW130611   6.938   3.226   6.658
 9904SOL    HW230612   6.814   3.223   6.552
 9905SOL     OW30613   4.024   1.577   0.521
 9905SOL    HW130614   4.098   1.610   0.463
 9905SOL    HW230615   4.022   1.477   0.518
 9906SOL     OW30616   3.748   3.039   3.259
 9906SOL    HW130617   3.724   3.023   3.354
 9906SOL    HW230618   3.669   3.020   3.200
 9907SOL     OW30619   0.133   0.123   1.946
 9907SOL    HW130620   0.151   0.138   2.043
 9907SOL    HW230621   0.177   0.038   1.917
 9908SOL     OW30622   5.133   3.057   3.007
 9908SOL    HW130623   5.188   3.053   2.923
 9908SOL    HW230624   5.054   3.117   2.992
 9909SOL     OW30625   2.017   6.373   4.851
 9909SOL    HW130626   2.086   6.443   4.867
 9909SOL    HW230627   1.955   6.367   4.929
 9910SOL     OW30628   0.775   4.458   2.788
 9910SOL    HW130629   0.714   4.492   2.859
 9910SOL    HW230630   0.732   4.469   2.699
 9911SOL     OW30631   3.682   6.624   1.708
 9911SOL    HW130632   3.601   6.683   1.713
 9911SOL    HW230633   3.693   6.575   1.794
 9912SOL     OW30634   4.809   1.675   0.796
 9912SOL    HW130635   4.863   1.719   0.867
 9912SOL    HW230636   4.713   1.704   0.805
 9913SOL     OW30637   5.897   3.135   0.386
 9913SOL    HW130638   5.978   3.192   0.399
 9913SOL    HW230639   5.923   3.048   0.345
 9914SOL     OW30640   0.454   2.525   4.826
 9914SOL    HW130641   0.361   2.514   4.862
 9914SOL    HW230642   0.468   2.621   4.803
 9915SOL     OW30643   5.222   1.354   3.062
 9915SOL    HW130644   5.166   1.302   3.126
 9915SOL    HW230645   5.183   1.445   3.049
 9916SOL     OW30646   2.352   2.690   2.323
 9916SOL    HW130647   2.310   2.599   2.324
 9916SOL    HW230648   2.374   2.715   2.229
 9917SOL     OW30649   6.667   4.430   5.453
 9917SOL    HW130650   6.591   4.366   5.441
 9917SOL    HW230651   6.713   4.443   5.365
 9918SOL     OW30652   3.845   2.016   2.976
 9918SOL    HW130653   3.884   2.079   3.043
 9918SOL    HW230654   3.761   1.976   3.012
 9919SOL     OW30655   6.363   6.124   1.199
 9919SOL    HW130656   6.289   6.154   1.259
 9919SOL    HW230657   6.425   6.201   1.181
 9920SOL     OW30658   4.314   1.643   2.782
 9920SOL    HW130659   4.297   1.585   2.703
 9920SOL    HW230660   4.368   1.593   2.850
 9921SOL     OW30661   3.784   5.700   5.915
 9921SOL    HW130662   3.747   5.608   5.906
 9921SOL    HW230663   3.813   5.734   5.825
 9922SOL     OW30664   0.367   5.787   0.640
 9922SOL    HW130665   0.450   5.810   0.590
 9922SOL    HW230666   0.392   5.735   0.722
 9923SOL     OW30667   4.853   5.288   0.010
 9923SOL    HW130668   4.815   5.204   0.049
 9923SOL    HW230669   4.953   5.280   0.006
 9924SOL     OW30670   0.775   3.283   4.934
 9924SOL    HW130671   0.732   3.373   4.929
 9924SOL    HW230672   0.846   3.283   5.004
 9925SOL     OW30673   5.088   2.675   4.669
 9925SOL    HW130674   5.014   2.742   4.660
 9925SOL    HW230675   5.069   2.598   4.609
 9926SOL     OW30676   2.038   4.588   7.009
 9926SOL    HW130677   1.966   4.654   6.989
 9926SOL    HW230678   2.028   4.508   6.949
 9927SOL     OW30679   6.029   0.136   3.083
 9927SOL    HW130680   6.120   0.158   3.049
 9927SOL    HW230681   6.015   0.037   3.078
 9928SOL     OW30682   4.821   4.587   1.375
 9928SOL    HW130683   4.834   4.678   1.336
 9928SOL    HW230684   4.861   4.519   1.314
 9929SOL     OW30685   2.648   4.987   4.780
 9929SOL    HW130686   2.675   4.891   4.782
 9929SOL    HW230687   2.723   5.041   4.742
 9930SOL     OW30688   6.885   0.359   4.518
 9930SOL    HW130689   6.834   0.349   4.603
 9930SOL    HW230690   6.878   0.273   4.465
 9931SOL     OW30691   1.132   4.224   4.959
 9931SOL    HW130692   1.045   4.204   4.914
 9931SOL    HW230693   1.207   4.198   4.898
 9932SOL     OW30694   0.943   6.226   6.319
 9932SOL    HW130695   0.946   6.137   6.364
 9932SOL    HW230696   0.910   6.214   6.225
 9933SOL     OW30697   1.098   5.288   2.115
 9933SOL    HW130698   1.112   5.189   2.121
 9933SOL    HW230699   1.059   5.310   2.026
 9934SOL     OW30700   6.366   2.015   5.606
 9934SOL    HW130701   6.338   1.961   5.685
 9934SOL    HW230702   6.296   2.009   5.535
 9935SOL     OW30703   3.117   0.912   6.395
 9935SOL    HW130704   3.066   0.995   6.415
 9935SOL    HW230705   3.207   0.937   6.358
 9936SOL     OW30706   0.574   4.514   4.265
 9936SOL    HW130707   0.666   4.550   4.279
 9936SOL    HW230708   0.507   4.572   4.311
 9937SOL     OW30709   6.899   2.172   5.980
 9937SOL    HW130710   6.826   2.192   6.045
 9937SOL    HW230711   6.913   2.073   5.974
 9938SOL     OW30712   6.562   6.078   2.620
 9938SOL    HW130713   6.468   6.091   2.649
 9938SOL    HW230714   6.624   6.098   2.696
 9939SOL     OW30715   3.077   3.067   1.803
 9939SOL    HW130716   3.074   2.980   1.754
 9939SOL    HW230717   2.999   3.124   1.777
 9940SOL     OW30718   6.793   0.965   0.883
 9940SOL    HW130719   6.794   1.017   0.798
 9940SOL    HW230720   6.882   0.921   0.896
 9941SOL     OW30721   3.011   4.508   5.682
 9941SOL    HW130722   3.061   4.450   5.618
 9941SOL    HW230723   2.931   4.547   5.637
 9942SOL     OW30724   2.725   5.648   2.884
 9942SOL    HW130725   2.682   5.571   2.838
 9942SOL    HW230726   2.760   5.712   2.815
 9943SOL     OW30727   0.599   6.004   6.060
 9943SOL    HW130728   0.585   5.910   6.028
 9943SOL    HW230729   0.554   6.016   6.148
 9944SOL     OW30730   1.251   3.932   6.564
 9944SOL    HW130731   1.297   3.990   6.631
 9944SOL    HW230732   1.295   3.944   6.475
 9945SOL     OW30733   6.529   5.346   0.458
 9945SOL    HW130734   6.559   5.401   0.537
 9945SOL    HW230735   6.562   5.389   0.374
 9946SOL     OW30736   4.959   0.863   5.107
 9946SOL    HW130737   4.940   0.959   5.087
 9946SOL    HW230738   4.892   0.805   5.060
 9947SOL     OW30739   6.603   4.705   4.581
 9947SOL    HW130740   6.590   4.776   4.650
 9947SOL    HW230741   6.701   4.685   4.573
 9948SOL     OW30742   4.711   4.402   4.898
 9948SOL    HW130743   4.650   4.373   4.823
 9948SOL    HW230744   4.655   4.430   4.976
 9949SOL     OW30745   5.519   5.156   3.001
 9949SOL    HW130746   5.565   5.224   2.945
 9949SOL    HW230747   5.420   5.162   2.986
 9950SOL     OW30748   4.088   6.334   5.353
 9950SOL    HW130749   3.992   6.309   5.341
 9950SOL    HW230750   4.100   6.379   5.442
 9951SOL     OW30751   5.789   2.614   3.061
 9951SOL    HW130752   5.702   2.639   3.019
 9951SOL    HW230753   5.796   2.656   3.152
 9952SOL     OW30754   6.873   4.394   0.378
 9952SOL    HW130755   6.820   4.460   0.324
 9952SOL    HW230756   6.882   4.428   0.472
 9953SOL     OW30757   6.634   1.203   3.588
 9953SOL    HW130758   6.677   1.262   3.656
 9953SOL    HW230759   6.541   1.180   3.618
 9954SOL     OW30760   5.624   6.932   5.282
 9954SOL    HW130761   5.651   6.923   5.378
 9954SOL    HW230762   5.529   6.905   5.272
 9955SOL     OW30763   0.135   3.766   4.100
 9955SOL    HW130764   0.193   3.821   4.160
 9955SOL    HW230765   0.097   3.824   4.028
 9956SOL     OW30766   2.077   6.374   1.745
 9956SOL    HW130767   2.088   6.280   1.712
 9956SOL    HW230768   2.042   6.431   1.671
 9957SOL     OW30769   6.934   4.295   3.830
 9957SOL    HW130770   6.843   4.310   3.791
 9957SOL    HW230771   6.965   4.379   3.874
 9958SOL     OW30772   2.645   3.892   1.202
 9958SOL    HW130773   2.695   3.947   1.269
 9958SOL    HW230774   2.558   3.937   1.180
 9959SOL     OW30775   4.104   3.563   0.183
 9959SOL    HW130776   4.101   3.548   0.084
 9959SOL    HW230777   4.083   3.477   0.230
 9960SOL     OW30778   6.888   1.438   2.525
 9960SOL    HW130779   6.868   1.524   2.478
 9960SOL    HW230780   6.840   1.363   2.479
 9961SOL     OW30781   1.919   5.589   4.500
 9961SOL    HW130782   2.010   5.629   4.515
 9961SOL    HW230783   1.882   5.556   4.587
 9962SOL     OW30784   4.759   6.438   5.180
 9962SOL    HW130785   4.736   6.529   5.146
 9962SOL    HW230786   4.684   6.404   5.238
 9963SOL     OW30787   3.196   1.241   0.814
 9963SOL    HW130788   3.122   1.262   0.749
 9963SOL    HW230789   3.179   1.152   0.856
 9964SOL     OW30790   3.980   6.041   5.111
 9964SOL    HW130791   4.033   6.082   5.038
 9964SOL    HW230792   3.901   5.993   5.072
 9965SOL     OW30793   4.267   0.316   0.118
 9965SOL    HW130794   4.284   0.218   0.115
 9965SOL    HW230795   4.172   0.334   0.094
 9966SOL     OW30796   0.712   6.526   2.305
 9966SOL    HW130797   0.753   6.492   2.220
 9966SOL    HW230798   0.634   6.583   2.283
 9967SOL     OW30799   1.435   5.816   1.033
 9967SOL    HW130800   1.456   5.837   1.129
 9967SOL    HW230801   1.348   5.858   1.008
 9968SOL     OW30802   4.058   3.444   2.360
 9968SOL    HW130803   3.962   3.453   2.387
 9968SOL    HW230804   4.116   3.466   2.438
 9969SOL     OW30805   1.269   3.535   2.130
 9969SOL    HW130806   1.199   3.605   2.116
 9969SOL    HW230807   1.354   3.579   2.158
 9970SOL     OW30808   5.799   4.008   1.638
 9970SOL    HW130809   5.725   3.942   1.623
 9970SOL    HW230810   5.880   3.980   1.586
 9971SOL     OW30811   2.165   4.639   0.624
 9971SOL    HW130812   2.240   4.573   0.633
 9971SOL    HW230813   2.110   4.638   0.707
 9972SOL     OW30814   6.890   4.317   2.437
 9972SOL    HW130815   6.830   4.374   2.381
 9972SOL    HW230816   6.968   4.287   2.383
 9973SOL     OW30817   6.250   1.174   4.369
 9973SOL    HW130818   6.196   1.157   4.286
 9973SOL    HW230819   6.244   1.270   4.393
 9974SOL     OW30820   2.120   1.324   4.065
 9974SOL    HW130821   2.169   1.395   4.115
 9974SOL    HW230822   2.185   1.257   4.029
 9975SOL     OW30823   0.639   2.948   0.337
 9975SOL    HW130824   0.721   2.950   0.280
 9975SOL    HW230825   0.563   2.991   0.289
 9976SOL     OW30826   1.788   6.870   4.759
 9976SOL    HW130827   1.840   6.955   4.749
 9976SOL    HW230828   1.728   6.876   4.839
 9977SOL     OW30829   6.300   4.275   4.640
 9977SOL    HW130830   6.246   4.314   4.565
 9977SOL    HW230831   6.393   4.312   4.635
 9978SOL     OW30832   6.707   1.529   4.392
 9978SOL    HW130833   6.698   1.607   4.330
 9978SOL    HW230834   6.801   1.526   4.428
 9979SOL     OW30835   6.699   3.666   5.345
 9979SOL    HW130836   6.617   3.612   5.326
 9979SOL    HW230837   6.780   3.611   5.325
 9980SOL     OW30838   3.873   0.361   6.156
 9980SOL    HW130839   3.851   0.288   6.092
 9980SOL    HW230840   3.790   0.393   6.200
 9981SOL     OW30841   3.207   2.082   3.950
 9981SOL    HW130842   3.172   2.134   4.028
 9981SOL    HW230843   3.143   2.091   3.873
 9982SOL     OW30844   6.954   6.442   4.310
 9982SOL    HW130845   6.874   6.485   4.351
 9982SOL    HW230846   7.020   6.419   4.381
 9983SOL     OW30847   0.045   1.603   1.810
 9983SOL    HW130848   0.008   1.541   1.740
 9983SOL    HW230849   0.142   1.621   1.791
 9984SOL     OW30850   3.087   2.086   6.552
 9984SOL    HW130851   3.095   2.151   6.628
 9984SOL    HW230852   2.996   2.044   6.555
 9985SOL     OW30853   1.382   0.788   2.136
 9985SOL    HW130854   1.299   0.742   2.105
 9985SOL    HW230855   1.443   0.805   2.058
 9986SOL     OW30856   5.181   3.926   4.835
 9986SOL    HW130857   5.274   3.890   4.842
 9986SOL    HW230858   5.145   3.909   4.744
 9987SOL     OW30859   6.702   3.853   5.909
 9987SOL    HW130860   6.663   3.795   5.837
 9987SOL    HW230861   6.801   3.854   5.902
 9988SOL     OW30862   0.036   6.860   5.387
 9988SOL    HW130863   0.051   6.951   5.349
 9988SOL    HW230864   6.986   6.815   5.338
 9989SOL     OW30865   0.715   3.073   5.306
 9989SOL    HW130866   0.808   3.062   5.270
 9989SOL    HW230867   0.654   3.011   5.258
 9990SOL     OW30868   1.018   5.230   2.797
 9990SOL    HW130869   1.034   5.327   2.780
 9990SOL    HW230870   1.032   5.178   2.713
 9991SOL     OW30871   3.754   2.159   3.595
 9991SOL    HW130872   3.659   2.188   3.584
 9991SOL    HW230873   3.766   2.115   3.684
 9992SOL     OW30874   6.675   5.486   6.109
 9992SOL    HW130875   6.767   5.453   6.131
 9992SOL    HW230876   6.653   5.460   6.015
 9993SOL     OW30877   0.930   1.394   1.926
 9993SOL    HW130878   0.844   1.415   1.973
 9993SOL    HW230879   0.914   1.326   1.855
 9994SOL     OW30880   5.836   4.712   3.275
 9994SOL    HW130881   5.887   4.696   3.190
 9994SOL    HW230882   5.746   4.748   3.254
 9995SOL     OW30883   4.912   1.201   4.646
 9995SOL    HW130884   4.872   1.154   4.567
 9995SOL    HW230885   4.848   1.197   4.723
 9996SOL     OW30886   2.496   3.753   0.146
 9996SOL    HW130887   2.495   3.662   0.188
 9996SOL    HW230888   2.502   3.743   0.046
 9997SOL     OW30889   2.708   0.049   5.197
 9997SOL    HW130890   2.641   7.020   5.249
 9997SOL    HW230891   2.731   0.001   5.112
 9998SOL     OW30892   6.074   5.673   5.404
 9998SOL    HW130893   6.061   5.726   5.320
 9998SOL    HW230894   6.033   5.582   5.392
 9999SOL     OW30895   6.634   2.028   5.093
 9999SOL    HW130896   6.555   1.974   5.121
 9999SOL    HW230897   6.699   1.970   5.044
10000SOL     OW30898   0.186   2.806   6.520
10000SOL    HW130899   0.136   2.892   6.528
10000SOL    HW230900   0.265   2.807   6.581
10001SOL     OW30901   4.306   0.030   2.676
10001SOL    HW130902   4.268   6.973   2.633
10001SOL    HW230903   4.396   0.051   2.637
10002SOL     OW30904   0.667   1.035   2.165
10002SOL    HW130905   0.630   0.999   2.250
10002SOL    HW230906   0.610   1.005   2.089
10003SOL     OW30907   4.401   2.189   3.713
10003SOL    HW130908   4.307   2.160   3.730
10003SOL    HW230909   4.431   2.154   3.624
10004SOL     OW30910   0.103   1.438   3.078
10004SOL    HW130911   0.122   1.532   3.049
10004SOL    HW230912   0.144   1.422   3.168
10005SOL     OW30913   5.093   6.342   4.550
10005SOL    HW130914   5.010   6.398   4.560
10005SOL    HW230915   5.138   6.333   4.639
10006SOL     OW30916   3.495   0.303   4.291
10006SOL    HW130917   3.472   0.399   4.281
10006SOL    HW230918   3.524   0.285   4.385
10007SOL     OW30919   6.559   3.258   3.908
10007SOL    HW130920   6.564   3.161   3.933
10007SOL    HW230921   6.463   3.285   3.898
10008SOL     OW30922   3.259   6.948   3.921
10008SOL    HW130923   3.272   6.899   4.008
10008SOL    HW230924   3.335   6.927   3.860
10009SOL     OW30925   0.962   4.569   1.972
10009SOL    HW130926   1.047   4.619   1.958
10009SOL    HW230927   0.982   4.473   1.992
10010SOL     OW30928   0.870   1.109   6.143
10010SOL    HW130929   0.800   1.049   6.106
10010SOL    HW230930   0.827   1.190   6.182
10011SOL     OW30931   0.275   6.638   5.140
10011SOL    HW130932   0.205   6.604   5.202
10011SOL    HW230933   0.282   6.738   5.149
10012SOL     OW30934   5.879   1.452   3.960
10012SOL    HW130935   5.836   1.361   3.962
10012SOL    HW230936   5.870   1.495   4.049
10013SOL     OW30937   0.657   0.690   3.128
10013SOL    HW130938   0.591   0.692   3.053
10013SOL    HW230939   0.730   0.625   3.106
10014SOL     OW30940   0.944   4.615   6.028
10014SOL    HW130941   0.857   4.570   6.008
10014SOL    HW230942   0.996   4.558   6.092
10015SOL     OW30943   1.644   4.466   0.347
10015SOL    HW130944   1.713   4.473   0.419
10015SOL    HW230945   1.686   4.486   0.258
10016SOL     OW30946   2.493   0.588   5.680
10016SOL    HW130947   2.474   0.527   5.756
10016SOL    HW230948   2.573   0.555   5.630
10017SOL     OW30949   1.143   2.356   4.650
10017SOL    HW130950   1.108   2.445   4.620
10017SOL    HW230951   1.232   2.369   4.693
10018SOL     OW30952   4.989   6.980   6.379
10018SOL    HW130953   4.968   6.989   6.282
10018SOL    HW230954   5.084   6.953   6.391
10019SOL     OW30955   0.817   1.141   2.831
10019SOL    HW130956   0.902   1.177   2.792
10019SOL    HW230957   0.740   1.198   2.801
10020SOL     OW30958   0.592   2.965   1.168
10020SOL    HW130959   0.626   2.997   1.079
10020SOL    HW230960   0.669   2.930   1.222
10021SOL     OW30961   6.837   3.733   0.452
10021SOL    HW130962   6.748   3.688   0.463
10021SOL    HW230963   6.875   3.710   0.362
10022SOL     OW30964   1.837   1.362   6.315
10022SOL    HW130965   1.930   1.359   6.352
10022SOL    HW230966   1.771   1.356   6.390
10023SOL     OW30967   0.199   3.620   0.511
10023SOL    HW130968   0.166   3.655   0.599
10023SOL    HW230969   0.132   3.639   0.440
10024SOL     OW30970   1.664   4.715   3.816
10024SOL    HW130971   1.737   4.700   3.883
10024SOL    HW230972   1.637   4.627   3.777
10025SOL     OW30973   1.461   1.419   0.713
10025SOL    HW130974   1.533   1.460   0.657
10025SOL    HW230975   1.486   1.325   0.735
10026SOL     OW30976   6.902   0.562   3.854
10026SOL    HW130977   6.951   0.483   3.891
10026SOL    HW230978   6.924   0.572   3.757
10027SOL     OW30979   4.688   2.368   5.570
10027SOL    HW130980   4.626   2.408   5.638
10027SOL    HW230981   4.684   2.421   5.485
10028SOL     OW30982   1.913   0.641   1.149
10028SOL    HW130983   2.005   0.642   1.187
10028SOL    HW230984   1.861   0.565   1.189
10029SOL     OW30985   5.647   2.029   3.646
10029SOL    HW130986   5.747   2.016   3.644
10029SOL    HW230987   5.619   2.079   3.564
10030SOL     OW30988   1.922   0.741   3.567
10030SOL    HW130989   1.864   0.690   3.631
10030SOL    HW230990   1.928   0.836   3.596
10031SOL     OW30991   6.871   4.401   4.951
10031SOL    HW130992   6.806   4.440   4.886
10031SOL    HW230993   6.850   4.304   4.965
10032SOL     OW30994   3.069   1.373   4.877
10032SOL    HW130995   3.057   1.365   4.778
10032SOL    HW230996   2.983   1.348   4.923
10033SOL     OW30997   5.613   2.762   4.934
10033SOL    HW130998   5.654   2.808   5.013
10033SOL    HW230999   5.577   2.674   4.961
10034SOL     OW31000   5.428   0.729   6.290
10034SOL    HW131001   5.352   0.683   6.337
10034SOL    HW231002   5.514   0.691   6.322
10035SOL     OW31003   0.218   6.611   2.107
10035SOL    HW131004   0.202   6.596   2.205
10035SOL    HW231005   0.227   6.523   2.061
10036SOL     OW31006   6.844   1.052   0.604
10036SOL    HW131007   6.777   1.093   0.542
10036SOL    HW231008   6.931   1.101   0.596
10037SOL     OW31009   0.732   6.943   1.097
10037SOL    HW131010   0.730   0.017   1.114
10037SOL    HW231011   0.641   6.911   1.072
10038SOL     OW31012   6.344   0.613   1.232
10038SOL    HW131013   6.316   0.680   1.163
10038SOL    HW231014   6.436   0.579   1.209
10039SOL     OW31015   3.205   0.471   3.355
10039SOL    HW131016   3.143   0.503   3.284
10039SOL    HW231017   3.294   0.515   3.345
10040SOL     OW31018   0.874   3.195   1.343
10040SOL    HW131019   0.911   3.283   1.313
10040SOL    HW231020   0.877   3.131   1.267
10041SOL     OW31021   1.942   6.123   0.284
10041SOL    HW131022   1.955   6.091   0.190
10041SOL    HW231023   2.007   6.077   0.345
10042SOL     OW31024   5.706   3.335   2.686
10042SOL    HW131025   5.638   3.397   2.725
10042SOL    HW231026   5.693   3.328   2.588
10043SOL     OW31027   0.495   2.224   4.803
10043SOL    HW131028   0.511   2.322   4.801
10043SOL    HW231029   0.406   2.203   4.761
10044SOL     OW31030   3.579   1.133   5.798
10044SOL    HW131031   3.529   1.205   5.750
10044SOL    HW231032   3.597   1.058   5.734
10045SOL     OW31033   2.950   1.257   0.628
10045SOL    HW131034   2.867   1.268   0.682
10045SOL    HW231035   2.929   1.209   0.543
10046SOL     OW31036   0.827   5.414   0.788
10046SOL    HW131037   0.909   5.362   0.762
10046SOL    HW231038   0.782   5.448   0.705
10047SOL     OW31039   1.181   3.661   1.194
10047SOL    HW131040   1.259   3.636   1.138
10047SOL    HW231041   1.211   3.718   1.270
10048SOL     OW31042   6.039   5.225   3.231
10048SOL    HW131043   6.099   5.191   3.304
10048SOL    HW231044   6.094   5.242   3.149
10049SOL     OW31045   6.651   0.685   5.540
10049SOL    HW131046   6.651   0.635   5.626
10049SOL    HW231047   6.558   0.719   5.521
10050SOL     OW31048   0.346   2.833   6.757
10050SOL    HW131049   0.279   2.844   6.830
10050SOL    HW231050   0.395   2.747   6.770
10051SOL     OW31051   2.388   2.291   3.998
10051SOL    HW131052   2.463   2.356   3.997
10051SOL    HW231053   2.311   2.328   4.050
10052SOL     OW31054   1.065   6.866   3.304
10052SOL    HW131055   1.130   6.801   3.266
10052SOL    HW231056   0.977   6.822   3.316
10053SOL     OW31057   5.822   5.130   3.770
10053SOL    HW131058   5.912   5.088   3.775
10053SOL    HW231059   5.820   5.197   3.695
10054SOL     OW31060   6.952   3.606   4.941
10054SOL    HW131061   7.002   3.619   4.855
10054SOL    HW231062   6.854   3.600   4.922
10055SOL     OW31063   1.506   2.700   6.418
10055SOL    HW131064   1.604   2.687   6.437
10055SOL    HW231065   1.492   2.710   6.320
10056SOL     OW31066   5.916   2.054   3.596
10056SOL    HW131067   5.929   1.981   3.528
10056SOL    HW231068   5.960   2.028   3.681
10057SOL     OW31069   5.465   4.974   5.440
10057SOL    HW131070   5.560   4.946   5.425
10057SOL    HW231071   5.408   4.893   5.456
10058SOL     OW31072   0.103   3.433   5.055
10058SOL    HW131073   0.051   3.516   5.037
10058SOL    HW231074   0.048   3.353   5.031
10059SOL     OW31075   5.690   0.021   0.094
10059SOL    HW131076   5.715   7.004   0.007
10059SOL    HW231077   5.592   0.043   0.094
10060SOL     OW31078   2.711   2.041   1.486
10060SOL    HW131079   2.774   2.118   1.489
10060SOL    HW231080   2.738   1.978   1.412
10061SOL     OW31081   3.561   6.914   2.130
10061SOL    HW131082   3.654   6.927   2.163
10061SOL    HW231083   3.563   6.873   2.039
10062SOL     OW31084   0.770   6.611   5.015
10062SOL    HW131085   0.711   6.685   4.982
10062SOL    HW231086   0.866   6.638   5.004
10063SOL     OW31087   2.081   2.313   5.219
10063SOL    HW131088   2.093   2.349   5.126
10063SOL    HW231089   2.054   2.387   5.280
10064SOL     OW31090   2.647   6.988   0.450
10064SOL    HW131091   2.629   6.922   0.523
10064SOL    HW231092   2.565   0.017   0.432
10065SOL     OW31093   0.445   2.305   1.653
10065SOL    HW131094   0.456   2.404   1.660
10065SOL    HW231095   0.497   2.260   1.726
10066SOL     OW31096   6.119   4.720   4.297
10066SOL    HW131097   6.202   4.742   4.349
10066SOL    HW231098   6.140   4.719   4.200
10067SOL     OW31099   6.784   2.761   5.189
10067SOL    HW131100   6.789   2.741   5.287
10067SOL    HW231101   6.691   2.787   5.165
10068SOL     OW31102   1.595   3.703   2.738
10068SOL    HW131103   1.691   3.715   2.712
10068SOL    HW231104   1.561   3.616   2.702
10069SOL     OW31105   3.012   4.831   0.318
10069SOL    HW131106   2.978   4.913   0.364
10069SOL    HW231107   2.991   4.837   0.220
10070SOL     OW31108   4.849   6.821   6.673
10070SOL    HW131109   4.919   6.892   6.682
10070SOL    HW231110   4.887   6.733   6.700
10071SOL     OW31111   6.045   0.661   5.141
10071SOL    HW131112   6.125   0.663   5.082
10071SOL    HW231113   6.039   0.746   5.193
10072SOL     OW31114   6.138   3.369   1.301
10072SOL    HW131115   6.118   3.327   1.389
10072SOL    HW231116   6.087   3.322   1.229
10073SOL     OW31117   5.716   4.608   4.957
10073SOL    HW131118   5.779   4.534   4.934
10073SOL    HW231119   5.634   4.570   5.000
10074SOL     OW31120   2.114   4.955   0.540
10074SOL    HW131121   2.038   4.996   0.491
10074SOL    HW231122   2.157   4.884   0.483
10075SOL     OW31123   1.274   3.322   1.946
10075SOL    HW131124   1.298   3.365   1.859
10075SOL    HW231125   1.280   3.389   2.020
10076SOL     OW31126   5.522   5.423   4.222
10076SOL    HW131127   5.520   5.508   4.168
10076SOL    HW231128   5.440   5.370   4.203
10077SOL     OW31129   4.612   4.103   6.596
10077SOL    HW131130   4.682   4.033   6.586
10077SOL    HW231131   4.554   4.082   6.674
10078SOL     OW31132   6.391   5.330   4.754
10078SOL    HW131133   6.490   5.326   4.744
10078SOL    HW231134   6.361   5.426   4.752
10079SOL     OW31135   4.943   3.699   4.018
10079SOL    HW131136   4.929   3.770   4.086
10079SOL    HW231137   4.957   3.741   3.928
10080SOL     OW31138   5.255   1.363   5.854
10080SOL    HW131139   5.227   1.379   5.759
10080SOL    HW231140   5.197   1.418   5.915
10081SOL     OW31141   1.086   4.505   0.813
10081SOL    HW131142   1.166   4.563   0.810
10081SOL    HW231143   1.092   4.437   0.740
10082SOL     OW31144   1.206   4.711   1.925
10082SOL    HW131145   1.187   4.802   1.887
10082SOL    HW231146   1.257   4.720   2.010
10083SOL     OW31147   2.739   5.911   2.308
10083SOL    HW131148   2.645   5.880   2.297
10083SOL    HW231149   2.749   5.958   2.396
10084SOL     OW31150   0.613   1.906   4.568
10084SOL    HW131151   0.698   1.884   4.617
10084SOL    HW231152   0.629   1.982   4.506
10085SOL     OW31153   5.264   6.832   1.089
10085SOL    HW131154   5.226   6.744   1.117
10085SOL    HW231155   5.196   6.904   1.103
10086SOL     OW31156   4.667   6.465   3.301
10086SOL    HW131157   4.658   6.563   3.280
10086SOL    HW231158   4.760   6.436   3.282
10087SOL     OW31159   1.506   5.505   5.200
10087SOL    HW131160   1.576   5.479   5.267
10087SOL    HW231161   1.415   5.487   5.238
10088SOL     OW31162   6.548   3.112   1.903
10088SOL    HW131163   6.604   3.117   1.985
10088SOL    HW231164   6.454   3.136   1.925
10089SOL     OW31165   3.676   0.605   1.462
10089SOL    HW131166   3.689   0.525   1.403
10089SOL    HW231167   3.583   0.639   1.450
10090SOL     OW31168   2.022   6.415   3.476
10090SOL    HW131169   2.071   6.411   3.389
10090SOL    HW231170   1.925   6.394   3.461
10091SOL     OW31171   5.601   4.871   4.640
10091SOL    HW131172   5.670   4.800   4.653
10091SOL    HW231173   5.644   4.961   4.643
10092SOL     OW31174   1.260   2.634   4.046
10092SOL    HW131175   1.293   2.540   4.037
10092SOL    HW231176   1.264   2.662   4.142
10093SOL     OW31177   4.463   4.143   6.028
10093SOL    HW131178   4.491   4.227   6.076
10093SOL    HW231179   4.370   4.155   5.994
10094SOL     OW31180   3.483   1.824   1.118
10094SOL    HW131181   3.518   1.805   1.210
10094SOL    HW231182   3.515   1.914   1.088
10095SOL     OW31183   4.326   3.284   5.273
10095SOL    HW131184   4.290   3.194   5.298
10095SOL    HW231185   4.276   3.319   5.194
10096SOL     OW31186   6.732   3.328   2.015
10096SOL    HW131187   6.768   3.339   1.923
10096SOL    HW231188   6.758   3.238   2.050
10097SOL     OW31189   0.503   1.545   1.017
10097SOL    HW131190   0.489   1.598   0.934
10097SOL    HW231191   0.415   1.522   1.058
10098SOL     OW31192   3.416   5.311   4.426
10098SOL    HW131193   3.396   5.363   4.509
10098SOL    HW231194   3.347   5.330   4.357
10099SOL     OW31195   0.225   5.235   3.006
10099SOL    HW131196   0.165   5.313   3.024
10099SOL    HW231197   0.246   5.188   3.092
10100SOL     OW31198   5.467   4.682   3.793
10100SOL    HW131199   5.505   4.615   3.728
10100SOL    HW231200   5.434   4.762   3.743
10101SOL     OW31201   6.427   3.193   0.274
10101SOL    HW131202   6.494   3.123   0.249
10101SOL    HW231203   6.453   3.280   0.230
10102SOL     OW31204   6.778   4.861   3.534
10102SOL    HW131205   6.784   4.925   3.457
10102SOL    HW231206   6.849   4.883   3.600
10103SOL     OW31207   0.464   6.188   6.761
10103SOL    HW131208   0.495   6.280   6.736
10103SOL    HW231209   0.368   6.191   6.787
10104SOL     OW31210   2.711   0.937   4.755
10104SOL    HW131211   2.673   1.008   4.815
10104SOL    HW231212   2.738   0.978   4.668
10105SOL     OW31213   2.647   1.123   4.077
10105SOL    HW131214   2.598   1.190   4.134
10105SOL    HW231215   2.663   1.040   4.130
10106SOL     OW31216   5.321   4.163   1.550
10106SOL    HW131217   5.273   4.250   1.564
10106SOL    HW231218   5.348   4.125   1.638
10107SOL     OW31219   5.375   5.460   6.920
10107SOL    HW131220   5.361   5.537   6.858
10107SOL    HW231221   5.452   5.405   6.889
10108SOL     OW31222   2.007   2.908   4.913
10108SOL    HW131223   1.982   2.812   4.899
10108SOL    HW231224   2.074   2.915   4.987
10109SOL     OW31225   1.045   2.342   1.035
10109SOL    HW131226   1.038   2.428   1.086
10109SOL    HW231227   1.104   2.279   1.086
10110SOL     OW31228   5.848   5.716   2.842
10110SOL    HW131229   5.754   5.694   2.815
10110SOL    HW231230   5.847   5.768   2.927
10111SOL     OW31231   6.770   2.635   2.092
10111SOL    HW131232   6.852   2.603   2.139
10111SOL    HW231233   6.699   2.655   2.159
10112SOL     OW31234   6.282   2.500   3.827
10112SOL    HW131235   6.234   2.539   3.906
10112SOL    HW231236   6.324   2.413   3.853
10113SOL     OW31237   6.140   0.229   6.455
10113SOL    HW131238   6.234   0.193   6.451
10113SOL    HW231239   6.141   0.320   6.496
10114SOL     OW31240   5.828   3.129   1.972
10114SOL    HW131241   5.818   3.050   1.912
10114SOL    HW231242   5.865   3.206   1.920
10115SOL     OW31243   3.252   2.473   5.740
10115SOL    HW131244   3.346   2.506   5.731
10115SOL    HW231245   3.248   2.377   5.715
10116SOL     OW31246   0.186   0.266   6.282
10116SOL    HW131247   0.244   0.336   6.323
10116SOL    HW231248   0.091   0.280   6.312
10117SOL     OW31249   6.624   4.139   2.968
10117SOL    HW131250   6.633   4.046   2.933
10117SOL    HW231251   6.535   4.149   3.012
10118SOL     OW31252   3.918   4.807   3.515
10118SOL    HW131253   3.823   4.775   3.521
10118SOL    HW231254   3.925   4.877   3.444
10119SOL     OW31255   6.011   6.412   6.682
10119SOL    HW131256   6.041   6.507   6.671
10119SOL    HW231257   5.966   6.402   6.771
10120SOL     OW31258   2.708   2.008   3.392
10120SOL    HW131259   2.638   1.943   3.363
10120SOL    HW231260   2.746   1.979   3.480
10121SOL     OW31261   6.862   5.133   1.486
10121SOL    HW131262   6.804   5.151   1.565
10121SOL    HW231263   6.958   5.129   1.516
10122SOL     OW31264   2.155   0.450   3.297
10122SOL    HW131265   2.059   0.476   3.303
10122SOL    HW231266   2.202   0.511   3.234
10123SOL     OW31267   0.037   5.682   6.549
10123SOL    HW131268   0.000   5.672   6.456
10123SOL    HW231269   0.075   5.774   6.559
10124SOL     OW31270   2.124   5.310   2.210
10124SOL    HW131271   2.140   5.238   2.278
10124SOL    HW231272   2.062   5.378   2.248
10125SOL     OW31273   0.981   0.728   4.598
10125SOL    HW131274   1.072   0.745   4.561
10125SOL    HW231275   0.984   0.651   4.661
10126SOL     OW31276   6.536   6.168   5.688
10126SOL    HW131277   6.557   6.217   5.773
10126SOL    HW231278   6.609   6.183   5.622
10127SOL     OW31279   2.248   6.595   6.088
10127SOL    HW131280   2.344   6.574   6.106
10127SOL    HW231281   2.235   6.610   5.990
10128SOL     OW31282   2.433   2.794   6.935
10128SOL    HW131283   2.412   2.864   7.003
10128SOL    HW231284   2.421   2.831   6.843
10129SOL     OW31285   5.964   1.683   5.097
10129SOL    HW131286   5.944   1.780   5.096
10129SOL    HW231287   5.974   1.649   5.003
10130SOL     OW31288   0.274   1.817   3.843
10130SOL    HW131289   0.341   1.888   3.822
10130SOL    HW231290   0.182   1.858   3.846
10131SOL     OW31291   2.048   6.419   5.268
10131SOL    HW131292   2.037   6.469   5.182
10131SOL    HW231293   2.110   6.469   5.328
10132SOL     OW31294   5.521   6.930   2.298
10132SOL    HW131295   5.434   6.911   2.252
10132SOL    HW231296   5.514   6.903   2.395
10133SOL     OW31297   5.463   6.319   0.972
10133SOL    HW131298   5.450   6.250   1.043
10133SOL    HW231299   5.471   6.409   1.014
10134SOL     OW31300   0.103   6.669   3.547
10134SOL    HW131301   0.023   6.611   3.564
10134SOL    HW231302   0.182   6.631   3.595
10135SOL     OW31303   6.183   6.663   2.984
10135SOL    HW131304   6.276   6.634   3.006
10135SOL    HW231305   6.177   6.683   2.886
10136SOL     OW31306   4.709   1.267   3.341
10136SOL    HW131307   4.614   1.277   3.311
10136SOL    HW231308   4.731   1.339   3.407
10137SOL     OW31309   6.488   5.650   4.554
10137SOL    HW131310   6.575   5.603   4.573
10137SOL    HW231311   6.506   5.746   4.534
10138SOL     OW31312   0.028   2.614   2.192
10138SOL    HW131313   0.090   2.654   2.125
10138SOL    HW231314   0.055   2.520   2.212
10139SOL     OW31315   3.146   2.939   6.342
10139SOL    HW131316   3.123   3.025   6.296
10139SOL    HW231317   3.198   2.881   6.280
10140SOL     OW31318   0.416   5.937   5.232
10140SOL    HW131319   0.474   5.856   5.224
10140SOL    HW231320   0.441   6.003   5.161
10141SOL     OW31321   1.784   2.528   3.954
10141SOL    HW131322   1.722   2.592   3.998
10141SOL    HW231323   1.732   2.471   3.889
10142SOL     OW31324   4.847   5.538   3.154
10142SOL    HW131325   4.801   5.611   3.103
10142SOL    HW231326   4.808   5.531   3.246
10143SOL     OW31327   5.683   3.035   5.901
10143SOL    HW131328   5.776   3.071   5.902
10143SOL    HW231329   5.658   3.007   5.808
10144SOL     OW31330   3.360   0.207   0.834
10144SOL    HW131331   3.386   0.112   0.849
10144SOL    HW231332   3.442   0.263   0.821
10145SOL     OW31333   6.575   6.635   6.355
10145SOL    HW131334   6.624   6.626   6.268
10145SOL    HW231335   6.640   6.649   6.429
10146SOL     OW31336   1.449   3.069   5.481
10146SOL    HW131337   1.446   3.039   5.577
10146SOL    HW231338   1.518   3.140   5.470
10147SOL     OW31339   3.818   5.960   6.337
10147SOL    HW131340   3.823   6.010   6.424
10147SOL    HW231341   3.746   6.000   6.281
10148SOL     OW31342   0.494   4.748   6.478
10148SOL    HW131343   0.447   4.767   6.564
10148SOL    HW231344   0.566   4.680   6.495
10149SOL     OW31345   3.689   3.718   1.471
10149SOL    HW131346   3.696   3.793   1.406
10149SOL    HW231347   3.743   3.738   1.553
10150SOL     OW31348   4.792   4.030   1.277
10150SOL    HW131349   4.697   4.032   1.309
10150SOL    HW231350   4.805   4.101   1.208
10151SOL     OW31351   7.000   0.584   6.309
10151SOL    HW131352   0.061   0.592   6.258
10151SOL    HW231353   7.021   0.567   6.405
10152SOL     OW31354   4.100   6.997   2.856
10152SOL    HW131355   4.149   6.969   2.773
10152SOL    HW231356   4.159   0.030   2.912
10153SOL     OW31357   4.604   3.969   1.744
10153SOL    HW131358   4.660   4.017   1.676
10153SOL    HW231359   4.534   4.032   1.779
10154SOL     OW31360   3.641   5.136   5.308
10154SOL    HW131361   3.735   5.109   5.289
10154SOL    HW231362   3.578   5.068   5.270
10155SOL     OW31363   4.253   1.705   3.679
10155SOL    HW131364   4.199   1.621   3.669
10155SOL    HW231365   4.200   1.783   3.646
10156SOL     OW31366   3.814   1.453   5.826
10156SOL    HW131367   3.731   1.496   5.863
10156SOL    HW231368   3.862   1.519   5.769
10157SOL     OW31369   0.489   4.588   1.346
10157SOL    HW131370   0.422   4.520   1.376
10157SOL    HW231371   0.581   4.548   1.350
10158SOL     OW31372   5.664   5.432   6.842
10158SOL    HW131373   5.646   5.506   6.907
10158SOL    HW231374   5.729   5.367   6.881
10159SOL     OW31375   3.377   2.872   1.863
10159SOL    HW131376   3.307   2.839   1.927
10159SOL    HW231377   3.442   2.930   1.913
10160SOL     OW31378   0.049   4.058   2.480
10160SOL    HW131379   0.022   4.125   2.411
10160SOL    HW231380   7.000   4.045   2.546
10161SOL     OW31381   5.396   3.226   5.878
10161SOL    HW131382   5.349   3.234   5.966
10161SOL    HW231383   5.432   3.133   5.867
10162SOL     OW31384   1.710   2.953   2.435
10162SOL    HW131385   1.633   2.937   2.498
10162SOL    HW231386   1.701   2.894   2.355
10163SOL     OW31387   2.866   5.377   4.918
10163SOL    HW131388   2.909   5.396   4.830
10163SOL    HW231389   2.854   5.278   4.928
10164SOL     OW31390   6.849   1.218   3.787
10164SOL    HW131391   6.835   1.297   3.728
10164SOL    HW231392   6.936   1.228   3.836
10165SOL     OW31393   1.370   3.556   4.044
10165SOL    HW131394   1.377   3.643   3.995
10165SOL    HW231395   1.458   3.508   4.039
10166SOL     OW31396   2.627   6.158   2.790
10166SOL    HW131397   2.666   6.119   2.873
10166SOL    HW231398   2.527   6.149   2.793
10167SOL     OW31399   2.537   2.513   6.384
10167SOL    HW131400   2.537   2.571   6.303
10167SOL    HW231401   2.444   2.486   6.405
10168SOL     OW31402   0.300   0.432   0.162
10168SOL    HW131403   0.262   0.456   0.073
10168SOL    HW231404   0.291   0.334   0.177
10169SOL     OW31405   4.801   5.212   3.787
10169SOL    HW131406   4.796   5.115   3.810
10169SOL    HW231407   4.722   5.237   3.731
10170SOL     OW31408   5.130   6.440   0.696
10170SOL    HW131409   5.177   6.521   0.732
10170SOL    HW231410   5.032   6.457   0.694
10171SOL     OW31411   2.325   4.327   4.908
10171SOL    HW131412   2.302   4.230   4.909
10171SOL    HW231413   2.343   4.358   5.001
10172SOL     OW31414   6.968   0.936   2.732
10172SOL    HW131415   6.893   0.881   2.697
10172SOL    HW231416   0.026   0.919   2.678
10173SOL     OW31417   3.796   3.393   5.047
10173SOL    HW131418   3.708   3.425   5.013
10173SOL    HW231419   3.835   3.327   4.983
10174SOL     OW31420   4.593   5.118   1.137
10174SOL    HW131421   4.504   5.162   1.123
10174SOL    HW231422   4.664   5.188   1.142
10175SOL     OW31423   6.306   6.771   4.719
10175SOL    HW131424   6.309   6.838   4.645
10175SOL    HW231425   6.220   6.781   4.770
10176SOL     OW31426   0.462   0.570   4.785
10176SOL    HW131427   0.363   0.579   4.792
10176SOL    HW231428   0.506   0.630   4.852
10177SOL     OW31429   2.521   0.647   4.293
10177SOL    HW131430   2.426   0.642   4.323
10177SOL    HW231431   2.568   0.561   4.313
10178SOL     OW31432   0.697   1.875   1.202
10178SOL    HW131433   0.706   1.964   1.158
10178SOL    HW231434   0.774   1.860   1.263
10179SOL     OW31435   0.140   5.715   0.527
10179SOL    HW131436   0.226   5.741   0.572
10179SOL    HW231437   0.111   5.625   0.561
10180SOL     OW31438   3.747   6.797   6.570
10180SOL    HW131439   3.676   6.838   6.628
10180SOL    HW231440   3.776   6.710   6.611
10181SOL     OW31441   6.585   3.484   3.516
10181SOL    HW131442   6.511   3.492   3.582
10181SOL    HW231443   6.669   3.456   3.562
10182SOL     OW31444   4.040   0.673   0.931
10182SOL    HW131445   4.111   0.666   1.002
10182SOL    HW231446   4.079   0.646   0.843
10183SOL     OW31447   4.428   6.353   5.680
10183SOL    HW131448   4.512   6.375   5.630
10183SOL    HW231449   4.440   6.374   5.777
10184SOL     OW31450   5.297   1.887   5.509
10184SOL    HW131451   5.213   1.839   5.484
10184SOL    HW231452   5.297   1.906   5.607
10185SOL     OW31453   3.178   5.265   1.721
10185SOL    HW131454   3.261   5.223   1.757
10185SOL    HW231455   3.101   5.201   1.733
10186SOL     OW31456   3.819   3.343   6.731
10186SOL    HW131457   3.799   3.364   6.827
10186SOL    HW231458   3.765   3.264   6.702
10187SOL     OW31459   2.073   4.156   5.825
10187SOL    HW131460   2.172   4.166   5.816
10187SOL    HW231461   2.027   4.227   5.771
10188SOL     OW31462   2.646   6.995   6.225
10188SOL    HW131463   2.633   6.900   6.253
10188SOL    HW231464   2.740   7.022   6.241
10189SOL     OW31465   1.847   1.571   4.668
10189SOL    HW131466   1.933   1.566   4.719
10189SOL    HW231467   1.772   1.539   4.726
10190SOL     OW31468   4.521   3.982   0.839
10190SOL    HW131469   4.471   4.014   0.920
10190SOL    HW231470   4.490   3.890   0.816
10191SOL     OW31471   5.125   0.370   0.117
10191SOL    HW131472   5.043   0.414   0.154
10191SOL    HW231473   5.097   0.295   0.056
10192SOL     OW31474   1.957   0.900   4.628
10192SOL    HW131475   1.996   0.988   4.602
10192SOL    HW231476   1.918   0.906   4.720
10193SOL     OW31477   3.936   3.499   3.715
10193SOL    HW131478   3.980   3.587   3.734
10193SOL    HW231479   4.003   3.425   3.726
10194SOL     OW31480   3.278   0.340   3.084
10194SOL    HW131481   3.224   0.399   3.025
10194SOL    HW231482   3.218   0.286   3.143
10195SOL     OW31483   5.575   0.190   2.294
10195SOL    HW131484   5.558   0.092   2.288
10195SOL    HW231485   5.525   0.237   2.221
10196SOL     OW31486   5.390   3.612   4.674
10196SOL    HW131487   5.316   3.635   4.737
10196SOL    HW231488   5.352   3.593   4.584
10197SOL     OW31489   5.441   1.526   2.619
10197SOL    HW131490   5.473   1.528   2.714
10197SOL    HW231491   5.343   1.507   2.618
10198SOL     OW31492   2.964   1.148   1.841
10198SOL    HW131493   2.865   1.167   1.844
10198SOL    HW231494   2.982   1.078   1.771
10199SOL     OW31495   1.098   2.196   0.774
10199SOL    HW131496   1.025   2.223   0.710
10199SOL    HW231497   1.108   2.266   0.844
10200SOL     OW31498   5.974   5.427   5.370
10200SOL    HW131499   5.938   5.361   5.436
10200SOL    HW231500   5.899   5.468   5.319
10201SOL     OW31501   1.850   4.977   2.918
10201SOL    HW131502   1.868   4.969   3.016
10201SOL    HW231503   1.755   5.003   2.903
10202SOL     OW31504   0.538   2.546   3.127
10202SOL    HW131505   0.608   2.568   3.059
10202SOL    HW231506   0.498   2.630   3.162
10203SOL     OW31507   0.879   3.123   1.714
10203SOL    HW131508   0.916   3.124   1.807
10203SOL    HW231509   0.794   3.175   1.712
10204SOL     OW31510   2.871   4.907   3.958
10204SOL    HW131511   2.934   4.862   4.022
10204SOL    HW231512   2.876   5.006   3.969
10205SOL     OW31513   4.620   0.629   1.218
10205SOL    HW131514   4.655   0.555   1.276
10205SOL    HW231515   4.599   0.709   1.274
10206SOL     OW31516   5.208   0.191   6.190
10206SOL    HW131517   5.115   0.181   6.154
10206SOL    HW231518   5.206   0.182   6.289
10207SOL     OW31519   3.986   1.301   3.135
10207SOL    HW131520   3.890   1.328   3.125
10207SOL    HW231521   3.995   1.203   3.118
10208SOL     OW31522   6.649   3.916   5.444
10208SOL    HW131523   6.696   3.829   5.453
10208SOL    HW231524   6.702   3.988   5.491
10209SOL     OW31525   5.045   6.594   6.754
10209SOL    HW131526   5.020   6.529   6.825
10209SOL    HW231527   5.145   6.597   6.744
10210SOL     OW31528   5.553   6.096   0.818
10210SOL    HW131529   5.534   6.187   0.855
10210SOL    HW231530   5.614   6.047   0.881
10211SOL     OW31531   3.395   5.462   5.138
10211SOL    HW131532   3.483   5.491   5.178
10211SOL    HW231533   3.322   5.520   5.173
10212SOL     OW31534   6.177   5.934   5.782
10212SOL    HW131535   6.235   5.893   5.712
10212SOL    HW231536   6.197   5.893   5.871
10213SOL     OW31537   4.665   0.495   4.572
10213SOL    HW131538   4.689   0.443   4.490
10213SOL    HW231539   4.569   0.520   4.569
10214SOL     OW31540   0.289   1.153   1.303
10214SOL    HW131541   0.275   1.111   1.392
10214SOL    HW231542   0.259   1.248   1.305
10215SOL     OW31543   3.915   2.669   6.694
10215SOL    HW131544   3.862   2.601   6.744
10215SOL    HW231545   4.012   2.658   6.717
10216SOL     OW31546   4.805   6.925   2.445
10216SOL    HW131547   4.709   6.950   2.432
10216SOL    HW231548   4.858   7.008   2.465
10217SOL     OW31549   3.235   2.120   5.837
10217SOL    HW131550   3.177   2.100   5.758
10217SOL    HW231551   3.318   2.167   5.806
10218SOL     OW31552   2.685   2.379   6.990
10218SOL    HW131553   2.738   2.299   7.017
10218SOL    HW231554   2.591   2.369   7.023
10219SOL     OW31555   0.635   4.538   6.625
10219SOL    HW131556   0.587   4.451   6.635
10219SOL    HW231557   0.690   4.556   6.706
10220SOL     OW31558   4.342   2.925   0.409
10220SOL    HW131559   4.271   2.925   0.480
10220SOL    HW231560   4.302   2.954   0.322
10221SOL     OW31561   3.189   1.285   4.444
10221SOL    HW131562   3.264   1.351   4.436
10221SOL    HW231563   3.173   1.242   4.356
10222SOL     OW31564   1.884   4.923   5.578
10222SOL    HW131565   1.903   4.961   5.487
10222SOL    HW231566   1.785   4.914   5.590
10223SOL     OW31567   6.935   4.408   0.867
10223SOL    HW131568   7.002   4.338   0.843
10223SOL    HW231569   6.847   4.364   0.889
10224SOL     OW31570   2.412   0.218   4.971
10224SOL    HW131571   2.373   0.153   5.036
10224SOL    HW231572   2.462   0.289   5.020
10225SOL     OW31573   4.916   5.996   4.125
10225SOL    HW131574   4.986   5.930   4.150
10225SOL    HW231575   4.932   6.082   4.174
10226SOL     OW31576   0.146   2.886   6.981
10226SOL    HW131577   0.162   2.823   0.033
10226SOL    HW231578   0.048   2.888   6.961
10227SOL     OW31579   6.067   5.585   5.769
10227SOL    HW131580   5.995   5.598   5.837
10227SOL    HW231581   6.055   5.650   5.694
10228SOL     OW31582   1.166   3.982   2.641
10228SOL    HW131583   1.121   4.066   2.672
10228SOL    HW231584   1.250   3.968   2.692
10229SOL     OW31585   1.726   1.647   1.658
10229SOL    HW131586   1.631   1.617   1.660
10229SOL    HW231587   1.732   1.741   1.691
10230SOL     OW31588   6.002   6.800   4.586
10230SOL    HW131589   5.940   6.841   4.654
10230SOL    HW231590   6.088   6.851   4.585
10231SOL     OW31591   4.800   0.135   4.619
10231SOL    HW131592   4.854   0.144   4.703
10231SOL    HW231593   4.841   0.066   4.560
10232SOL     OW31594   4.502   1.798   3.729
10232SOL    HW131595   4.473   1.852   3.808
10232SOL    HW231596   4.423   1.755   3.687
10233SOL     OW31597   4.904   1.111   5.387
10233SOL    HW131598   4.824   1.082   5.440
10233SOL    HW231599   4.890   1.087   5.291
10234SOL     OW31600   4.589   5.746   1.752
10234SOL    HW131601   4.654   5.822   1.740
10234SOL    HW231602   4.548   5.724   1.663
10235SOL     OW31603   4.906   1.712   6.609
10235SOL    HW131604   4.824   1.686   6.661
10235SOL    HW231605   4.967   1.764   6.669
10236SOL     OW31606   2.383   5.933   1.674
10236SOL    HW131607   2.407   5.934   1.771
10236SOL    HW231608   2.354   5.841   1.647
10237SOL     OW31609   5.739   2.761   3.547
10237SOL    HW131610   5.806   2.688   3.530
10237SOL    HW231611   5.648   2.720   3.560
10238SOL     OW31612   4.624   5.912   4.922
10238SOL    HW131613   4.596   5.924   5.017
10238SOL    HW231614   4.552   5.863   4.873
10239SOL     OW31615   6.650   3.563   4.323
10239SOL    HW131616   6.737   3.611   4.331
10239SOL    HW231617   6.663   3.466   4.346
10240SOL     OW31618   5.762   4.070   3.768
10240SOL    HW131619   5.793   4.165   3.756
10240SOL    HW231620   5.756   4.050   3.865
10241SOL     OW31621   1.771   1.463   3.246
10241SOL    HW131622   1.830   1.419   3.178
10241SOL    HW231623   1.788   1.422   3.336
10242SOL     OW31624   1.091   5.979   6.510
10242SOL    HW131625   1.024   6.044   6.546
10242SOL    HW231626   1.108   5.908   6.578
10243SOL     OW31627   0.575   6.580   2.832
10243SOL    HW131628   0.641   6.638   2.879
10243SOL    HW231629   0.589   6.586   2.733
10244SOL     OW31630   1.625   5.864   0.040
10244SOL    HW131631   1.663   5.869   6.973
10244SOL    HW231632   1.558   5.790   0.045
10245SOL     OW31633   2.133   2.639   0.133
10245SOL    HW131634   2.156   2.736   0.123
10245SOL    HW231635   2.087   2.608   0.050
10246SOL     OW31636   3.517   3.655   3.838
10246SOL    HW131637   3.558   3.565   3.819
10246SOL    HW231638   3.499   3.664   3.936
10247SOL     OW31639   0.764   5.823   5.341
10247SOL    HW131640   0.768   5.902   5.280
10247SOL    HW231641   0.820   5.840   5.422
10248SOL     OW31642   4.751   0.884   2.780
10248SOL    HW131643   4.842   0.909   2.813
10248SOL    HW231644   4.682   0.923   2.842
10249SOL     OW31645   5.269   0.910   6.812
10249SOL    HW131646   5.234   0.887   6.721
10249SOL    HW231647   5.201   0.887   6.881
10250SOL     OW31648   4.798   0.481   0.473
10250SOL    HW131649   4.762   0.413   0.537
10250SOL    HW231650   4.784   0.572   0.510
10251SOL     OW31651   4.121   4.665   6.862
10251SOL    HW131652   4.123   4.734   6.934
10251SOL    HW231653   4.070   4.700   6.784
10252SOL     OW31654   6.342   4.988   1.655
10252SOL    HW131655   6.347   5.085   1.678
10252SOL    HW231656   6.252   4.953   1.679
10253SOL     OW31657   4.075   5.078   6.968
10253SOL    HW131658   4.006   5.130   7.017
10253SOL    HW231659   4.088   4.989   7.013
10254SOL     OW31660   2.311   1.648   4.412
10254SOL    HW131661   2.254   1.598   4.476
10254SOL    HW231662   2.264   1.732   4.384
10255SOL     OW31663   2.868   5.413   2.821
10255SOL    HW131664   2.774   5.432   2.851
10255SOL    HW231665   2.895   5.479   2.751
10256SOL     OW31666   6.070   6.312   0.144
10256SOL    HW131667   5.980   6.272   0.123
10256SOL    HW231668   6.097   6.286   0.236
10257SOL     OW31669   2.365   6.383   6.368
10257SOL    HW131670   2.447   6.327   6.380
10257SOL    HW231671   2.391   6.473   6.334
10258SOL     OW31672   4.620   0.429   3.441
10258SOL    HW131673   4.672   0.509   3.412
10258SOL    HW231674   4.633   0.414   3.539
10259SOL     OW31675   1.086   3.436   4.083
10259SOL    HW131676   1.042   3.459   3.997
10259SOL    HW231677   1.182   3.464   4.080
10260SOL     OW31678   6.980   6.376   1.653
10260SOL    HW131679   6.895   6.395   1.605
10260SOL    HW231680   0.010   6.460   1.659
10261SOL     OW31681   1.954   0.029   1.417
10261SOL    HW131682   1.856   0.045   1.408
10261SOL    HW231683   2.000   0.115   1.441
10262SOL     OW31684   0.978   5.625   4.611
10262SOL    HW131685   0.924   5.569   4.674
10262SOL    HW231686   1.054   5.570   4.575
10263SOL     OW31687   6.766   2.256   5.718
10263SOL    HW131688   6.760   2.249   5.817
10263SOL    HW231689   6.812   2.342   5.693
10264SOL     OW31690   0.294   0.159   0.185
10264SOL    HW131691   0.372   0.117   0.233
10264SOL    HW231692   0.253   0.092   0.123
10265SOL     OW31693   4.147   2.227   2.076
10265SOL    HW131694   4.056   2.232   2.116
10265SOL    HW231695   4.141   2.226   1.976
10266SOL     OW31696   4.049   3.888   6.455
10266SOL    HW131697   4.021   3.965   6.511
10266SOL    HW231698   4.149   3.880   6.458
10267SOL     OW31699   0.134   1.551   6.297
10267SOL    HW131700   0.093   1.523   6.384
10267SOL    HW231701   0.216   1.606   6.314
10268SOL     OW31702   6.220   4.646   1.609
10268SOL    HW131703   6.249   4.737   1.579
10268SOL    HW231704   6.124   4.649   1.637
10269SOL     OW31705   3.230   2.455   6.019
10269SOL    HW131706   3.228   2.468   5.919
10269SOL    HW231707   3.324   2.435   6.048
10270SOL     OW31708   3.260   6.861   1.023
10270SOL    HW131709   3.233   6.914   1.103
10270SOL    HW231710   3.179   6.817   0.983
10271SOL     OW31711   3.373   4.965   0.562
10271SOL    HW131712   3.406   5.059   0.571
10271SOL    HW231713   3.332   4.936   0.648
10272SOL     OW31714   1.300   1.440   5.008
10272SOL    HW131715   1.282   1.532   4.975
10272SOL    HW231716   1.301   1.441   5.108
10273SOL     OW31717   4.043   6.510   3.967
10273SOL    HW131718   4.132   6.489   3.925
10273SOL    HW231719   4.005   6.427   4.006
10274SOL     OW31720   2.105   5.672   6.450
10274SOL    HW131721   2.188   5.721   6.474
10274SOL    HW231722   2.057   5.644   6.533
10275SOL     OW31723   0.922   6.785   2.363
10275SOL    HW131724   0.990   6.762   2.432
10275SOL    HW231725   0.870   6.703   2.338
10276SOL     OW31726   6.966   6.491   0.179
10276SOL    HW131727   6.915   6.558   0.234
10276SOL    HW231728   0.031   6.475   0.221
10277SOL     OW31729   1.066   6.162   2.327
10277SOL    HW131730   1.098   6.067   2.330
10277SOL    HW231731   1.021   6.185   2.413
10278SOL     OW31732   6.783   0.285   6.477
10278SOL    HW131733   6.796   0.319   6.384
10278SOL    HW231734   6.701   0.327   6.516
10279SOL     OW31735   3.881   6.071   3.449
10279SOL    HW131736   3.853   6.025   3.365
10279SOL    HW231737   3.948   6.015   3.497
10280SOL     OW31738   3.288   2.575   6.433
10280SOL    HW131739   3.194   2.578   6.399
10280SOL    HW231740   3.326   2.668   6.431
10281SOL     OW31741   4.319   0.164   4.119
10281SOL    HW131742   4.254   0.209   4.180
10281SOL    HW231743   4.328   0.067   4.143
10282SOL     OW31744   0.903   2.749   4.864
10282SOL    HW131745   0.989   2.705   4.890
10282SOL    HW231746   0.921   2.817   4.793
10283SOL     OW31747   1.612   3.643   5.956
10283SOL    HW131748   1.637   3.726   5.907
10283SOL    HW231749   1.515   3.623   5.941
10284SOL     OW31750   5.446   2.821   6.752
10284SOL    HW131751   5.522   2.755   6.754
10284SOL    HW231752   5.407   2.829   6.844
10285SOL     OW31753   5.761   0.452   0.451
10285SOL    HW131754   5.750   0.379   0.384
10285SOL    HW231755   5.697   0.526   0.431
10286SOL     OW31756   4.247   0.748   4.122
10286SOL    HW131757   4.317   0.800   4.073
10286SOL    HW231758   4.227   0.792   4.209
10287SOL     OW31759   1.291   4.955   1.560
10287SOL    HW131760   1.287   4.965   1.461
10287SOL    HW231761   1.384   4.929   1.587
10288SOL     OW31762   4.883   6.274   4.310
10288SOL    HW131763   4.977   6.308   4.309
10288SOL    HW231764   4.821   6.348   4.283
10289SOL     OW31765   2.594   1.635   1.662
10289SOL    HW131766   2.538   1.669   1.586
10289SOL    HW231767   2.597   1.535   1.658
10290SOL     OW31768   2.774   3.412   1.919
10290SOL    HW131769   2.679   3.410   1.950
10290SOL    HW231770   2.829   3.349   1.973
10291SOL     OW31771   4.682   0.404   5.690
10291SOL    HW131772   4.750   0.348   5.738
10291SOL    HW231773   4.719   0.495   5.672
10292SOL     OW31774   0.250   0.567   5.132
10292SOL    HW131775   0.259   0.619   5.217
10292SOL    HW231776   0.274   0.471   5.150
10293SOL     OW31777   2.852   5.728   3.458
10293SOL    HW131778   2.787   5.766   3.523
10293SOL    HW231779   2.808   5.719   3.368
10294SOL     OW31780   6.345   1.606   3.348
10294SOL    HW131781   6.402   1.633   3.270
10294SOL    HW231782   6.389   1.531   3.396
10295SOL     OW31783   1.799   4.605   4.341
10295SOL    HW131784   1.860   4.677   4.373
10295SOL    HW231785   1.852   4.523   4.321
10296SOL     OW31786   6.786   2.615   1.266
10296SOL    HW131787   6.698   2.661   1.277
10296SOL    HW231788   6.776   2.518   1.287
10297SOL     OW31789   2.798   5.541   4.659
10297SOL    HW131790   2.719   5.481   4.674
10297SOL    HW231791   2.788   5.623   4.714
10298SOL     OW31792   6.041   3.469   2.985
10298SOL    HW131793   5.991   3.531   3.045
10298SOL    HW231794   6.067   3.516   2.901
10299SOL     OW31795   4.961   3.679   2.015
10299SOL    HW131796   4.987   3.687   2.111
10299SOL    HW231797   4.897   3.752   1.991
10300SOL     OW31798   2.081   5.934   1.866
10300SOL    HW131799   2.117   5.995   1.795
10300SOL    HW231800   2.074   5.841   1.829
10301SOL     OW31801   5.373   1.337   1.358
10301SOL    HW131802   5.308   1.284   1.304
10301SOL    HW231803   5.424   1.276   1.418
10302SOL     OW31804   1.452   5.213   3.672
10302SOL    HW131805   1.440   5.143   3.742
10302SOL    HW231806   1.376   5.278   3.675
10303SOL     OW31807   3.818   3.107   1.359
10303SOL    HW131808   3.818   3.009   1.377
10303SOL    HW231809   3.865   3.125   1.272
10304SOL     OW31810   6.128   6.676   3.987
10304SOL    HW131811   6.221   6.650   3.962
10304SOL    HW231812   6.085   6.723   3.909
10305SOL     OW31813   1.924   5.182   0.987
10305SOL    HW131814   1.941   5.084   0.974
10305SOL    HW231815   1.900   5.199   1.083
10306SOL     OW31816   4.159   4.821   0.070
10306SOL    HW131817   4.257   4.807   0.054
10306SOL    HW231818   4.133   4.777   0.156
10307SOL     OW31819   2.939   0.821   5.399
10307SOL    HW131820   2.942   0.918   5.375
10307SOL    HW231821   2.851   0.801   5.442
10308SOL     OW31822   2.986   5.368   3.829
10308SOL    HW131823   3.063   5.364   3.892
10308SOL    HW231824   2.953   5.462   3.822
10309SOL     OW31825   0.259   6.248   3.546
10309SOL    HW131826   0.228   6.297   3.465
10309SOL    HW231827   0.353   6.216   3.533
10310SOL     OW31828   2.929   3.322   4.114
10310SOL    HW131829   2.888   3.325   4.205
10310SOL    HW231830   2.881   3.385   4.054
10311SOL     OW31831   0.672   6.388   1.063
10311SOL    HW131832   0.663   6.487   1.061
10311SOL    HW231833   0.589   6.347   1.102
10312SOL     OW31834   2.348   4.471   0.682
10312SOL    HW131835   2.335   4.450   0.779
10312SOL    HW231836   2.445   4.460   0.658
10313SOL     OW31837   6.197   6.268   4.144
10313SOL    HW131838   6.271   6.272   4.211
10313SOL    HW231839   6.233   6.241   4.055
10314SOL     OW31840   6.399   5.011   5.451
10314SOL    HW131841   6.302   4.990   5.448
10314SOL    HW231842   6.432   5.004   5.545
10315SOL     OW31843   4.912   6.119   5.431
10315SOL    HW131844   4.887   6.073   5.346
10315SOL    HW231845   4.832   6.127   5.490
10316SOL     OW31846   0.236   3.478   2.742
10316SOL    HW131847   0.184   3.534   2.678
10316SOL    HW231848   0.175   3.437   2.810
10317SOL     OW31849   4.328   4.604   0.559
10317SOL    HW131850   4.360   4.590   0.465
10317SOL    HW231851   4.403   4.590   0.623
10318SOL     OW31852   6.348   5.664   2.228
10318SOL    HW131853   6.333   5.763   2.221
10318SOL    HW231854   6.277   5.616   2.175
10319SOL     OW31855   5.328   5.932   4.824
10319SOL    HW131856   5.324   5.843   4.779
10319SOL    HW231857   5.370   5.999   4.763
10320SOL     OW31858   4.281   6.059   1.730
10320SOL    HW131859   4.273   6.149   1.686
10320SOL    HW231860   4.369   6.018   1.707
10321SOL     OW31861   3.677   0.030   3.691
10321SOL    HW131862   3.740   0.105   3.672
10321SOL    HW231863   3.714   6.970   3.652
10322SOL     OW31864   0.556   2.414   0.232
10322SOL    HW131865   0.517   2.500   0.198
10322SOL    HW231866   0.656   2.423   0.237
10323SOL     OW31867   6.970   2.295   5.151
10323SOL    HW131868   6.962   2.197   5.169
10323SOL    HW231869   6.882   2.339   5.167
10324SOL     OW31870   3.428   2.879   3.844
10324SOL    HW131871   3.487   2.839   3.914
10324SOL    HW231872   3.485   2.912   3.768
10325SOL     OW31873   0.187   3.572   3.177
10325SOL    HW131874   0.274   3.541   3.217
10325SOL    HW231875   0.116   3.505   3.195
10326SOL     OW31876   5.143   1.437   0.913
10326SOL    HW131877   5.115   1.533   0.921
10326SOL    HW231878   5.073   1.386   0.863
10327SOL     OW31879   6.818   0.625   3.250
10327SOL    HW131880   6.787   0.612   3.155
10327SOL    HW231881   6.739   0.643   3.309
10328SOL     OW31882   6.149   3.478   2.487
10328SOL    HW131883   6.109   3.438   2.404
10328SOL    HW231884   6.091   3.456   2.566
10329SOL     OW31885   3.494   6.620   3.085
10329SOL    HW131886   3.528   6.666   3.003
10329SOL    HW231887   3.534   6.529   3.091
10330SOL     OW31888   3.500   4.255   0.991
10330SOL    HW131889   3.482   4.186   0.922
10330SOL    HW231890   3.448   4.234   1.074
10331SOL     OW31891   4.738   0.329   4.372
10331SOL    HW131892   4.700   0.286   4.290
10331SOL    HW231893   4.782   0.260   4.429
10332SOL     OW31894   0.383   1.705   0.058
10332SOL    HW131895   0.316   1.671   0.123
10332SOL    HW231896   0.413   1.630   7.024
10333SOL     OW31897   5.196   4.405   5.181
10333SOL    HW131898   5.098   4.404   5.160
10333SOL    HW231899   5.211   4.378   5.276
10334SOL     OW31900   1.078   5.015   4.904
10334SOL    HW131901   1.071   5.025   5.003
10334SOL    HW231902   1.043   4.924   4.878
10335SOL     OW31903   2.730   5.229   1.707
10335SOL    HW131904   2.805   5.293   1.695
10335SOL    HW231905   2.759   5.154   1.767
10336SOL     OW31906   4.808   6.295   2.981
10336SOL    HW131907   4.772   6.259   2.895
10336SOL    HW231908   4.787   6.393   2.988
10337SOL     OW31909   1.135   4.771   5.181
10337SOL    HW131910   1.098   4.781   5.089
10337SOL    HW231911   1.109   4.681   5.218
10338SOL     OW31912   3.150   4.832   3.138
10338SOL    HW131913   3.242   4.871   3.132
10338SOL    HW231914   3.115   4.843   3.231
10339SOL     OW31915   3.009   5.439   0.372
10339SOL    HW131916   2.932   5.426   0.310
10339SOL    HW231917   2.997   5.526   0.421
10340SOL     OW31918   1.685   6.589   0.121
10340SOL    HW131919   1.606   6.585   0.060
10340SOL    HW231920   1.696   6.501   0.167
10341SOL     OW31921   1.037   2.419   2.560
10341SOL    HW131922   1.023   2.394   2.464
10341SOL    HW231923   1.064   2.515   2.566
10342SOL     OW31924   3.321   6.221   3.603
10342SOL    HW131925   3.302   6.204   3.700
10342SOL    HW231926   3.399   6.282   3.594
10343SOL     OW31927   2.297   2.867   3.793
10343SOL    HW131928   2.337   2.791   3.742
10343SOL    HW231929   2.314   2.953   3.744
10344SOL     OW31930   4.225   3.766   0.642
10344SOL    HW131931   4.302   3.723   0.690
10344SOL    HW231932   4.146   3.772   0.704
10345SOL     OW31933   1.990   1.830   5.338
10345SOL    HW131934   2.041   1.832   5.424
10345SOL    HW231935   1.894   1.807   5.358
10346SOL     OW31936   5.908   4.914   0.650
10346SOL    HW131937   5.849   4.929   0.729
10346SOL    HW231938   5.882   4.978   0.577
10347SOL     OW31939   5.000   0.385   2.038
10347SOL    HW131940   5.002   0.376   1.938
10347SOL    HW231941   5.076   0.443   2.067
10348SOL     OW31942   6.622   4.876   5.849
10348SOL    HW131943   6.644   4.807   5.780
10348SOL    HW231944   6.584   4.832   5.930
10349SOL     OW31945   6.610   2.142   1.022
10349SOL    HW131946   6.693   2.188   0.991
10349SOL    HW231947   6.533   2.168   0.963
10350SOL     OW31948   2.030   4.931   4.926
10350SOL    HW131949   2.093   5.008   4.930
10350SOL    HW231950   2.043   4.873   5.006
10351SOL     OW31951   3.951   4.850   4.227
10351SOL    HW131952   4.040   4.804   4.222
10351SOL    HW231953   3.926   4.883   4.136
10352SOL     OW31954   6.489   1.035   0.320
10352SOL    HW131955   6.459   1.102   0.388
10352SOL    HW231956   6.494   1.079   0.230
10353SOL     OW31957   6.299   2.101   3.649
10353SOL    HW131958   6.323   2.155   3.730
10353SOL    HW231959   6.247   2.020   3.676
10354SOL     OW31960   6.228   2.955   1.272
10354SOL    HW131961   6.136   2.918   1.285
10354SOL    HW231962   6.265   2.922   1.185
10355SOL     OW31963   0.875   1.248   0.914
10355SOL    HW131964   0.873   1.346   0.898
10355SOL    HW231965   0.892   1.230   1.010
10356SOL     OW31966   5.921   2.771   5.778
10356SOL    HW131967   5.869   2.826   5.712
10356SOL    HW231968   5.975   2.832   5.836
10357SOL     OW31969   1.465   0.410   6.039
10357SOL    HW131970   1.405   0.449   6.109
10357SOL    HW231971   1.409   0.373   5.965
10358SOL     OW31972   0.226   2.915   3.099
10358SOL    HW131973   0.286   2.847   3.142
10358SOL    HW231974   0.156   2.944   3.163
10359SOL     OW31975   6.466   1.815   2.457
10359SOL    HW131976   6.466   1.792   2.359
10359SOL    HW231977   6.556   1.850   2.483
10360SOL     OW31978   5.521   3.860   1.820
10360SOL    HW131979   5.443   3.923   1.824
10360SOL    HW231980   5.540   3.836   1.725
10361SOL     OW31981   5.905   2.226   2.428
10361SOL    HW131982   5.879   2.172   2.348
10361SOL    HW231983   5.900   2.169   2.510
10362SOL     OW31984   1.466   6.080   1.349
10362SOL    HW131985   1.526   6.139   1.296
10362SOL    HW231986   1.378   6.071   1.303
10363SOL     OW31987   5.316   4.218   6.460
10363SOL    HW131988   5.219   4.213   6.438
10363SOL    HW231989   5.331   4.284   6.533
10364SOL     OW31990   5.499   4.740   2.721
10364SOL    HW131991   5.529   4.828   2.685
10364SOL    HW231992   5.416   4.752   2.776
10365SOL     OW31993   5.951   5.209   0.949
10365SOL    HW131994   6.050   5.220   0.959
10365SOL    HW231995   5.931   5.118   0.913
10366SOL     OW31996   3.253   6.202   3.868
10366SOL    HW131997   3.240   6.300   3.885
10366SOL    HW231998   3.272   6.156   3.955
10367SOL     OW31999   5.181   6.177   1.555
10367SOL    HW132000   5.212   6.154   1.647
10367SOL    HW232001   5.121   6.256   1.559
10368SOL     OW32002   1.865   6.226   1.332
10368SOL    HW132003   1.938   6.294   1.326
10368SOL    HW232004   1.880   6.155   1.262
10369SOL     OW32005   2.677   0.031   5.957
10369SOL    HW132006   2.592   0.066   5.918
10369SOL    HW232007   2.663   0.010   6.054
10370SOL     OW32008   1.800   1.210   5.286
10370SOL    HW132009   1.838   1.222   5.378
10370SOL    HW232010   1.875   1.195   5.221
10371SOL     OW32011   4.547   5.393   3.162
10371SOL    HW132012   4.537   5.492   3.151
10371SOL    HW232013   4.643   5.367   3.146
10372SOL     OW32014   2.472   6.876   0.878
10372SOL    HW132015   2.568   6.891   0.902
10372SOL    HW232016   2.442   6.948   0.815
10373SOL     OW32017   6.442   1.367   6.451
10373SOL    HW132018   6.535   1.330   6.451
10373SOL    HW232019   6.436   1.444   6.387
10374SOL     OW32020   3.373   4.916   3.508
10374SOL    HW132021   3.410   4.888   3.597
10374SOL    HW232022   3.447   4.924   3.442
10375SOL     OW32023   2.734   5.143   0.620
10375SOL    HW132024   2.712   5.183   0.531
10375SOL    HW232025   2.728   5.213   0.691
10376SOL     OW32026   2.399   5.034   4.631
10376SOL    HW132027   2.473   5.027   4.697
10376SOL    HW232028   2.433   5.013   4.540
10377SOL     OW32029   2.063   1.104   2.533
10377SOL    HW132030   2.100   1.030   2.477
10377SOL    HW232031   2.091   1.192   2.494
10378SOL     OW32032   7.004   5.753   3.932
10378SOL    HW132033   0.063   5.780   3.979
10378SOL    HW232034   6.954   5.835   3.905
10379SOL     OW32035   1.819   0.121   4.267
10379SOL    HW132036   1.802   0.084   4.358
10379SOL    HW232037   1.765   0.071   4.199
10380SOL     OW32038   2.863   2.335   4.229
10380SOL    HW132039   2.824   2.407   4.287
10380SOL    HW232040   2.826   2.342   4.137
10381SOL     OW32041   3.780   6.406   2.439
10381SOL    HW132042   3.697   6.444   2.478
10381SOL    HW232043   3.758   6.323   2.387
10382SOL     OW32044   4.010   5.438   1.027
10382SOL    HW132045   4.011   5.342   1.056
10382SOL    HW232046   4.084   5.487   1.073
10383SOL     OW32047   0.861   4.914   0.115
10383SOL    HW132048   0.789   4.976   0.146
10383SOL    HW232049   0.922   4.963   0.052
10384SOL     OW32050   5.051   5.717   0.932
10384SOL    HW132051   5.115   5.764   0.992
10384SOL    HW232052   5.030   5.775   0.853
10385SOL     OW32053   4.086   4.416   0.472
10385SOL    HW132054   4.156   4.445   0.407
10385SOL    HW232055   4.085   4.479   0.550
10386SOL     OW32056   0.016   0.888   0.931
10386SOL    HW132057   0.085   0.943   0.979
10386SOL    HW232058   0.060   0.808   0.891
10387SOL     OW32059   5.031   3.096   1.952
10387SOL    HW132060   4.984   3.008   1.957
10387SOL    HW232061   4.982   3.163   2.008
10388SOL     OW32062   2.000   6.314   5.871
10388SOL    HW132063   1.998   6.316   5.971
10388SOL    HW232064   1.907   6.326   5.835
10389SOL     OW32065   0.565   4.156   6.990
10389SOL    HW132066   0.548   4.235   0.024
10389SOL    HW232067   0.654   4.166   6.946
10390SOL     OW32068   2.408   2.431   2.012
10390SOL    HW132069   2.504   2.411   1.994
10390SOL    HW232070   2.375   2.373   2.087
10391SOL     OW32071   5.798   6.649   3.733
10391SOL    HW132072   5.760   6.557   3.723
10391SOL    HW232073   5.781   6.683   3.826
10392SOL     OW32074   6.566   3.361   4.651
10392SOL    HW132075   6.521   3.373   4.740
10392SOL    HW232076   6.524   3.284   4.603
10393SOL     OW32077   1.846   3.609   3.486
10393SOL    HW132078   1.842   3.654   3.397
10393SOL    HW232079   1.930   3.637   3.534
10394SOL     OW32080   3.371   0.543   4.214
10394SOL    HW132081   3.326   0.472   4.161
10394SOL    HW232082   3.306   0.618   4.232
10395SOL     OW32083   1.441   6.850   1.227
10395SOL    HW132084   1.380   6.770   1.230
10395SOL    HW232085   1.527   6.828   1.274
10396SOL     OW32086   3.225   2.188   4.455
10396SOL    HW132087   3.224   2.287   4.469
10396SOL    HW232088   3.278   2.167   4.372
10397SOL     OW32089   4.446   1.953   4.013
10397SOL    HW132090   4.370   1.902   4.055
10397SOL    HW232091   4.409   2.031   3.962
10398SOL     OW32092   6.094   3.277   1.572
10398SOL    HW132093   6.150   3.197   1.591
10398SOL    HW232094   5.997   3.254   1.580
10399SOL     OW32095   1.020   3.900   1.662
10399SOL    HW132096   0.936   3.847   1.664
10399SOL    HW232097   1.032   3.940   1.571
10400SOL     OW32098   3.066   6.161   0.959
10400SOL    HW132099   3.094   6.232   0.894
10400SOL    HW232100   2.977   6.125   0.933
10401SOL     OW32101   0.213   1.051   5.936
10401SOL    HW132102   0.180   1.060   5.842
10401SOL    HW232103   0.223   1.143   5.976
10402SOL     OW32104   0.142   2.809   5.238
10402SOL    HW132105   0.224   2.862   5.262
10402SOL    HW232106   0.094   2.782   5.321
10403SOL     OW32107   3.562   0.748   1.153
10403SOL    HW132108   3.618   0.808   1.095
10403SOL    HW232109   3.620   0.695   1.213
10404SOL     OW32110   0.226   6.355   6.505
10404SOL    HW132111   0.127   6.355   6.495
10404SOL    HW232112   0.255   6.433   6.560
10405SOL     OW32113   0.558   2.517   6.474
10405SOL    HW132114   0.656   2.521   6.491
10405SOL    HW232115   0.540   2.511   6.376
10406SOL     OW32116   2.767   4.928   1.311
10406SOL    HW132117   2.731   4.916   1.404
10406SOL    HW232118   2.851   4.874   1.301
10407SOL     OW32119   2.928   6.842   6.629
10407SOL    HW132120   2.849   6.904   6.631
10407SOL    HW232121   2.910   6.763   6.687
10408SOL     OW32122   4.015   1.879   6.947
10408SOL    HW132123   3.995   1.958   6.889
10408SOL    HW232124   3.942   1.811   6.938
10409SOL     OW32125   6.078   4.833   1.219
10409SOL    HW132126   6.126   4.745   1.213
10409SOL    HW232127   6.090   4.871   1.311
10410SOL     OW32128   5.634   0.319   0.661
10410SOL    HW132129   5.673   0.379   0.591
10410SOL    HW232130   5.534   0.324   0.658
10411SOL     OW32131   2.512   5.177   3.477
10411SOL    HW132132   2.529   5.275   3.466
10411SOL    HW232133   2.419   5.163   3.511
10412SOL     OW32134   6.414   0.781   0.749
10412SOL    HW132135   6.488   0.734   0.701
10412SOL    HW232136   6.362   0.715   0.803
10413SOL     OW32137   0.155   2.877   1.653
10413SOL    HW132138   0.080   2.863   1.717
10413SOL    HW232139   0.185   2.972   1.657
10414SOL     OW32140   4.767   2.926   4.057
10414SOL    HW132141   4.756   2.952   3.961
10414SOL    HW232142   4.801   3.004   4.109
10415SOL     OW32143   0.228   6.822   6.226
10415SOL    HW132144   0.276   6.880   6.292
10415SOL    HW232145   0.292   6.793   6.155
10416SOL     OW32146   5.537   2.685   4.494
10416SOL    HW132147   5.491   2.598   4.513
10416SOL    HW232148   5.509   2.720   4.405
10417SOL     OW32149   2.477   4.365   3.862
10417SOL    HW132150   2.400   4.309   3.892
10417SOL    HW232151   2.475   4.373   3.762
10418SOL     OW32152   0.809   4.329   5.388
10418SOL    HW132153   0.749   4.362   5.316
10418SOL    HW232154   0.796   4.384   5.470
10419SOL     OW32155   1.228   1.071   0.539
10419SOL    HW132156   1.280   1.156   0.542
10419SOL    HW232157   1.189   1.052   0.629
10420SOL     OW32158   6.970   3.478   3.877
10420SOL    HW132159   0.014   3.406   3.888
10420SOL    HW232160   7.014   3.564   3.853
10421SOL     OW32161   0.210   0.694   2.972
10421SOL    HW132162   0.191   0.640   3.054
10421SOL    HW232163   0.159   0.780   2.975
10422SOL     OW32164   5.899   3.285   6.112
10422SOL    HW132165   5.921   3.244   6.023
10422SOL    HW232166   5.813   3.335   6.106
10423SOL     OW32167   5.432   4.636   3.103
10423SOL    HW132168   5.396   4.640   3.196
10423SOL    HW232169   5.494   4.558   3.094
10424SOL     OW32170   5.017   1.735   6.343
10424SOL    HW132171   5.075   1.814   6.325
10424SOL    HW232172   4.968   1.748   6.430
10425SOL     OW32173   2.012   6.810   1.909
10425SOL    HW132174   1.939   6.748   1.938
10425SOL    HW232175   2.101   6.765   1.920
10426SOL     OW32176   6.696   4.313   6.708
10426SOL    HW132177   6.646   4.257   6.775
10426SOL    HW232178   6.744   4.253   6.644
10427SOL     OW32179   4.870   1.429   0.385
10427SOL    HW132180   4.933   1.503   0.363
10427SOL    HW232181   4.847   1.432   0.482
10428SOL     OW32182   4.601   0.746   4.361
10428SOL    HW132183   4.611   0.798   4.275
10428SOL    HW232184   4.677   0.682   4.370
10429SOL     OW32185   6.329   5.932   2.091
10429SOL    HW132186   6.328   5.955   1.994
10429SOL    HW232187   6.423   5.937   2.126
10430SOL     OW32188   3.593   6.342   3.110
10430SOL    HW132189   3.611   6.247   3.135
10430SOL    HW232190   3.637   6.363   3.023
10431SOL     OW32191   2.945   0.971   5.071
10431SOL    HW132192   3.025   1.028   5.051
10431SOL    HW232193   2.959   0.880   5.032
10432SOL     OW32194   6.210   0.588   5.506
10432SOL    HW132195   6.150   0.543   5.571
10432SOL    HW232196   6.251   0.520   5.445
10433SOL     OW32197   2.465   6.608   0.800
10433SOL    HW132198   2.463   6.685   0.864
10433SOL    HW232199   2.445   6.524   0.849
10434SOL     OW32200   2.214   1.431   3.740
10434SOL    HW132201   2.123   1.420   3.781
10434SOL    HW232202   2.204   1.475   3.651
10435SOL     OW32203   5.228   6.347   0.323
10435SOL    HW132204   5.138   6.359   0.365
10435SOL    HW232205   5.234   6.257   0.280
10436SOL     OW32206   1.020   6.229   2.919
10436SOL    HW132207   0.971   6.284   2.988
10436SOL    HW232208   1.103   6.278   2.890
10437SOL     OW32209   6.736   4.867   6.216
10437SOL    HW132210   6.710   4.816   6.297
10437SOL    HW232211   6.801   4.813   6.162
10438SOL     OW32212   2.990   5.762   6.819
10438SOL    HW132213   2.898   5.790   6.846
10438SOL    HW232214   3.051   5.841   6.821
10439SOL     OW32215   4.258   6.746   5.892
10439SOL    HW132216   4.254   6.766   5.990
10439SOL    HW232217   4.196   6.671   5.870
10440SOL     OW32218   2.095   5.605   0.701
10440SOL    HW132219   2.156   5.616   0.622
10440SOL    HW232220   2.145   5.562   0.776
10441SOL     OW32221   5.298   1.700   6.497
10441SOL    HW132222   5.327   1.718   6.591
10441SOL    HW232223   5.200   1.682   6.495
10442SOL     OW32224   4.282   5.330   5.815
10442SOL    HW132225   4.233   5.308   5.731
10442SOL    HW232226   4.362   5.271   5.823
10443SOL     OW32227   6.011   2.903   5.244
10443SOL    HW132228   6.053   2.882   5.156
10443SOL    HW232229   5.985   2.817   5.289
10444SOL     OW32230   3.958   5.412   4.003
10444SOL    HW132231   3.941   5.319   4.034
10444SOL    HW232232   3.912   5.477   4.064
10445SOL     OW32233   6.228   5.965   4.926
10445SOL    HW132234   6.314   5.995   4.886
10445SOL    HW232235   6.161   6.039   4.923
10446SOL     OW32236   1.008   5.378   6.431
10446SOL    HW132237   1.050   5.300   6.478
10446SOL    HW232238   0.967   5.439   6.499
10447SOL     OW32239   6.025   2.411   1.588
10447SOL    HW132240   5.968   2.333   1.565
10447SOL    HW232241   6.034   2.471   1.509
10448SOL     OW32242   3.668   3.992   2.511
10448SOL    HW132243   3.578   3.971   2.472
10448SOL    HW232244   3.657   4.032   2.602
10449SOL     OW32245   2.018   5.054   4.106
10449SOL    HW132246   2.015   5.153   4.122
10449SOL    HW232247   1.927   5.015   4.122
10450SOL     OW32248   0.351   2.874   1.297
10450SOL    HW132249   0.444   2.911   1.295
10450SOL    HW232250   0.319   2.874   1.392
10451SOL     OW32251   2.389   4.486   2.956
10451SOL    HW132252   2.352   4.513   2.867
10451SOL    HW232253   2.455   4.554   2.987
10452SOL     OW32254   1.228   3.305   4.979
10452SOL    HW132255   1.322   3.280   4.955
10452SOL    HW232256   1.182   3.345   4.899
10453SOL     OW32257   4.888   6.907   1.763
10453SOL    HW132258   4.980   6.933   1.790
10453SOL    HW232259   4.887   6.884   1.666
10454SOL     OW32260   4.963   3.583   2.362
10454SOL    HW132261   4.890   3.637   2.319
10454SOL    HW232262   4.923   3.518   2.426
10455SOL     OW32263   0.102   4.537   3.371
10455SOL    HW132264   0.150   4.612   3.326
10455SOL    HW232265   0.011   4.526   3.330
10456SOL     OW32266   4.246   5.949   0.667
10456SOL    HW132267   4.230   5.917   0.760
10456SOL    HW232268   4.179   5.909   0.605
10457SOL     OW32269   3.623   4.128   4.132
10457SOL    HW132270   3.584   4.218   4.151
10457SOL    HW232271   3.551   4.059   4.134
10458SOL     OW32272   0.259   6.803   1.444
10458SOL    HW132273   0.185   6.785   1.508
10458SOL    HW232274   0.290   6.716   1.404
10459SOL     OW32275   6.669   5.190   2.324
10459SOL    HW132276   6.761   5.159   2.346
10459SOL    HW232277   6.603   5.118   2.345
10460SOL     OW32278   2.014   5.664   2.281
10460SOL    HW132279   1.995   5.681   2.185
10460SOL    HW232280   1.940   5.700   2.337
10461SOL     OW32281   2.859   2.144   6.714
10461SOL    HW132282   2.835   2.160   6.809
10461SOL    HW232283   2.779   2.108   6.665
10462SOL     OW32284   6.531   0.277   1.252
10462SOL    HW132285   6.538   0.210   1.178
10462SOL    HW232286   6.527   0.369   1.212
10463SOL     OW32287   2.822   3.729   1.017
10463SOL    HW132288   2.769   3.740   1.101
10463SOL    HW232289   2.760   3.720   0.939
10464SOL     OW32290   5.575   0.125   1.745
10464SOL    HW132291   5.492   0.124   1.801
10464SOL    HW232292   5.556   0.170   1.658
10465SOL     OW32293   6.199   5.060   5.686
10465SOL    HW132294   6.203   5.142   5.630
10465SOL    HW232295   6.105   5.045   5.718
10466SOL     OW32296   4.922   6.042   5.951
10466SOL    HW132297   4.952   6.014   6.043
10466SOL    HW232298   4.823   6.032   5.943
10467SOL     OW32299   3.803   0.666   4.342
10467SOL    HW132300   3.718   0.685   4.391
10467SOL    HW232301   3.816   0.733   4.269
10468SOL     OW32302   3.781   5.911   2.833
10468SOL    HW132303   3.781   6.001   2.790
10468SOL    HW232304   3.733   5.846   2.774
10469SOL     OW32305   1.189   4.660   0.247
10469SOL    HW132306   1.214   4.564   0.232
10469SOL    HW232307   1.252   4.700   0.313
10470SOL     OW32308   2.899   1.913   4.325
10470SOL    HW132309   2.971   1.914   4.394
10470SOL    HW232310   2.902   1.828   4.273
10471SOL     OW32311   3.979   3.764   0.509
10471SOL    HW132312   3.932   3.847   0.480
10471SOL    HW232313   4.077   3.782   0.515
10472SOL     OW32314   4.535   1.228   2.586
10472SOL    HW132315   4.604   1.157   2.578
10472SOL    HW232316   4.501   1.252   2.495
10473SOL     OW32317   5.014   5.908   0.721
10473SOL    HW132318   4.917   5.905   0.699
10473SOL    HW232319   5.049   6.001   0.707
10474SOL     OW32320   4.332   6.925   4.187
10474SOL    HW132321   4.293   6.833   4.183
10474SOL    HW232322   4.416   6.923   4.241
10475SOL     OW32323   4.362   5.851   1.480
10475SOL    HW132324   4.392   5.946   1.480
10475SOL    HW232325   4.413   5.800   1.412
10476SOL     OW32326   0.222   4.662   0.732
10476SOL    HW132327   0.234   4.640   0.635
10476SOL    HW232328   0.130   4.698   0.747
10477SOL     OW32329   5.485   4.491   4.852
10477SOL    HW132330   5.495   4.395   4.878
10477SOL    HW232331   5.502   4.502   4.754
10478SOL     OW32332   0.454   6.365   1.686
10478SOL    HW132333   0.506   6.281   1.671
10478SOL    HW232334   0.499   6.421   1.756
10479SOL     OW32335   1.702   4.989   3.352
10479SOL    HW132336   1.615   5.031   3.377
10479SOL    HW232337   1.720   4.911   3.413
10480SOL     OW32338   6.075   0.054   2.558
10480SOL    HW132339   6.135   0.116   2.508
10480SOL    HW232340   5.990   0.041   2.508
10481SOL     OW32341   2.386   0.562   5.125
10481SOL    HW132342   2.447   0.541   5.201
10481SOL    HW232343   2.436   0.614   5.056
10482SOL     OW32344   0.693   5.235   6.014
10482SOL    HW132345   0.748   5.229   6.097
10482SOL    HW232346   0.726   5.168   5.947
10483SOL     OW32347   6.794   5.241   0.734
10483SOL    HW132348   6.754   5.158   0.694
10483SOL    HW232349   6.732   5.318   0.721
10484SOL     OW32350   6.290   1.960   1.537
10484SOL    HW132351   6.216   1.964   1.604
10484SOL    HW232352   6.261   1.906   1.458
10485SOL     OW32353   3.265   4.148   3.746
10485SOL    HW132354   3.233   4.143   3.841
10485SOL    HW232355   3.362   4.172   3.746
10486SOL     OW32356   6.061   6.006   5.389
10486SOL    HW132357   6.157   6.023   5.408
10486SOL    HW232358   6.052   5.940   5.314
10487SOL     OW32359   4.626   1.812   2.035
10487SOL    HW132360   4.665   1.852   2.118
10487SOL    HW232361   4.537   1.854   2.016
10488SOL     OW32362   6.614   2.174   5.401
10488SOL    HW132363   6.633   2.228   5.318
10488SOL    HW232364   6.698   2.132   5.434
10489SOL     OW32365   6.089   4.116   4.402
10489SOL    HW132366   6.116   4.212   4.394
10489SOL    HW232367   6.157   4.059   4.356
10490SOL     OW32368   5.796   6.720   0.200
10490SOL    HW132369   5.774   6.623   0.187
10490SOL    HW232370   5.810   6.762   0.110
10491SOL     OW32371   2.028   2.512   5.421
10491SOL    HW132372   2.045   2.500   5.519
10491SOL    HW232373   1.937   2.476   5.399
10492SOL     OW32374   3.947   6.740   6.839
10492SOL    HW132375   3.962   6.721   6.936
10492SOL    HW232376   3.906   6.831   6.828
10493SOL     OW32377   3.382   5.439   1.595
10493SOL    HW132378   3.303   5.409   1.650
10493SOL    HW232379   3.465   5.434   1.650
10494SOL     OW32380   1.308   4.164   4.742
10494SOL    HW132381   1.265   4.182   4.654
10494SOL    HW232382   1.407   4.170   4.733
10495SOL     OW32383   6.837   6.301   0.845
10495SOL    HW132384   6.800   6.213   0.874
10495SOL    HW232385   6.795   6.374   0.898
10496SOL     OW32386   0.759   3.490   5.999
10496SOL    HW132387   0.679   3.543   6.027
10496SOL    HW232388   0.731   3.396   5.977
10497SOL     OW32389   2.501   0.582   1.921
10497SOL    HW132390   2.498   0.483   1.920
10497SOL    HW232391   2.596   0.613   1.929
10498SOL     OW32392   4.631   4.397   6.968
10498SOL    HW132393   4.590   4.447   6.891
10498SOL    HW232394   4.564   4.334   7.006
10499SOL     OW32395   5.971   3.916   2.487
10499SOL    HW132396   5.935   3.888   2.576
10499SOL    HW232397   6.030   3.996   2.499
10500SOL     OW32398   0.721   3.558   5.363
10500SOL    HW132399   0.747   3.625   5.433
10500SOL    HW232400   0.769   3.578   5.278
10501SOL     OW32401   3.424   4.965   3.167
10501SOL    HW132402   3.472   4.947   3.081
10501SOL    HW232403   3.489   5.000   3.235
10502SOL     OW32404   3.561   3.385   2.540
10502SOL    HW132405   3.537   3.353   2.632
10502SOL    HW232406   3.545   3.312   2.474
10503SOL     OW32407   0.199   1.944   6.246
10503SOL    HW132408   0.194   2.038   6.280
10503SOL    HW232409   0.127   1.889   6.290
10504SOL     OW32410   0.957   2.977   5.796
10504SOL    HW132411   0.909   3.053   5.751
10504SOL    HW232412   0.906   2.949   5.877
10505SOL     OW32413   5.704   0.059   0.881
10505SOL    HW132414   5.803   0.052   0.896
10505SOL    HW232415   5.685   0.058   0.783
10506SOL     OW32416   1.017   3.326   6.214
10506SOL    HW132417   1.047   3.413   6.177
10506SOL    HW232418   0.958   3.280   6.148
10507SOL     OW32419   1.205   5.047   5.727
10507SOL    HW132420   1.191   5.146   5.738
10507SOL    HW232421   1.293   5.031   5.683
10508SOL     OW32422   1.628   5.439   5.480
10508SOL    HW132423   1.616   5.341   5.464
10508SOL    HW232424   1.723   5.464   5.462
10509SOL     OW32425   4.576   2.300   2.184
10509SOL    HW132426   4.651   2.361   2.209
10509SOL    HW232427   4.503   2.307   2.252
10510SOL     OW32428   5.737   5.876   3.735
10510SOL    HW132429   5.704   5.935   3.809
10510SOL    HW232430   5.785   5.797   3.774
10511SOL     OW32431   4.617   1.304   1.234
10511SOL    HW132432   4.695   1.314   1.172
10511SOL    HW232433   4.574   1.393   1.248
10512SOL     OW32434   4.754   1.088   4.864
10512SOL    HW132435   4.720   1.013   4.807
10512SOL    HW232436   4.711   1.173   4.835
10513SOL     OW32437   4.028   2.644   0.688
10513SOL    HW132438   3.973   2.614   0.610
10513SOL    HW232439   3.969   2.694   0.752
10514SOL     OW32440   1.661   3.325   2.176
10514SOL    HW132441   1.683   3.392   2.248
10514SOL    HW232442   1.634   3.373   2.093
10515SOL     OW32443   2.260   2.759   4.710
10515SOL    HW132444   2.162   2.747   4.720
10515SOL    HW232445   2.305   2.744   4.799
10516SOL     OW32446   4.821   2.424   1.624
10516SOL    HW132447   4.751   2.384   1.683
10516SOL    HW232448   4.823   2.374   1.537
10517SOL     OW32449   0.866   2.643   2.400
10517SOL    HW132450   0.950   2.681   2.438
10517SOL    HW232451   0.805   2.616   2.474
10518SOL     OW32452   0.616   5.252   2.966
10518SOL    HW132453   0.538   5.315   2.968
10518SOL    HW232454   0.691   5.290   3.020
10519SOL     OW32455   3.949   0.238   0.996
10519SOL    HW132456   4.042   0.272   0.986
10519SOL    HW232457   3.936   0.205   1.090
10520SOL     OW32458   0.830   2.662   5.716
10520SOL    HW132459   0.913   2.655   5.771
10520SOL    HW232460   0.848   2.629   5.624
10521SOL     OW32461   6.267   2.886   2.955
10521SOL    HW132462   6.340   2.833   2.998
10521SOL    HW232463   6.302   2.928   2.870
10522SOL     OW32464   5.707   2.173   4.000
10522SOL    HW132465   5.621   2.195   4.045
10522SOL    HW232466   5.730   2.245   3.935
10523SOL     OW32467   1.420   4.165   3.043
10523SOL    HW132468   1.324   4.139   3.038
10523SOL    HW232469   1.427   4.265   3.047
10524SOL     OW32470   6.646   6.487   5.446
10524SOL    HW132471   6.629   6.395   5.409
10524SOL    HW232472   6.715   6.533   5.389
10525SOL     OW32473   5.174   1.352   4.024
10525SOL    HW132474   5.251   1.408   3.996
10525SOL    HW232475   5.092   1.409   4.033
10526SOL     OW32476   0.805   4.782   6.788
10526SOL    HW132477   0.849   4.743   6.869
10526SOL    HW232478   0.715   4.818   6.813
10527SOL     OW32479   0.808   0.094   5.737
10527SOL    HW132480   0.853   0.050   5.815
10527SOL    HW232481   0.811   0.032   5.658
10528SOL     OW32482   1.342   4.008   5.355
10528SOL    HW132483   1.387   3.929   5.313
10528SOL    HW232484   1.367   4.090   5.304
10529SOL     OW32485   0.076   5.444   0.567
10529SOL    HW132486   0.150   5.417   0.629
10529SOL    HW232487   0.109   5.441   0.473
10530SOL     OW32488   0.125   6.037   1.333
10530SOL    HW132489   0.119   6.127   1.375
10530SOL    HW232490   0.087   6.040   1.241
10531SOL     OW32491   3.042   3.177   5.041
10531SOL    HW132492   3.010   3.270   5.056
10531SOL    HW232493   3.083   3.142   5.124
10532SOL     OW32494   5.303   6.101   6.801
10532SOL    HW132495   5.229   6.143   6.748
10532SOL    HW232496   5.380   6.082   6.740
10533SOL     OW32497   3.925   0.393   2.840
10533SOL    HW132498   3.988   0.362   2.768
10533SOL    HW232499   3.856   0.323   2.857
10534SOL     OW32500   1.304   5.823   4.073
10534SOL    HW132501   1.270   5.729   4.081
10534SOL    HW232502   1.392   5.823   4.026
10535SOL     OW32503   3.582   2.087   2.776
10535SOL    HW132504   3.535   2.060   2.692
10535SOL    HW232505   3.678   2.107   2.755
10536SOL     OW32506   4.880   3.194   4.774
10536SOL    HW132507   4.923   3.275   4.735
10536SOL    HW232508   4.943   3.116   4.766
10537SOL     OW32509   3.553   6.973   3.926
10537SOL    HW132510   3.549   0.037   3.972
10537SOL    HW232511   3.589   6.985   3.833
10538SOL     OW32512   6.838   3.200   3.080
10538SOL    HW132513   6.809   3.105   3.093
10538SOL    HW232514   6.758   3.258   3.070
10539SOL     OW32515   0.108   0.195   3.492
10539SOL    HW132516   0.101   0.199   3.592
10539SOL    HW232517   0.023   0.159   3.454
10540SOL     OW32518   1.397   4.662   6.573
10540SOL    HW132519   1.328   4.589   6.576
10540SOL    HW232520   1.417   4.692   6.666
10541SOL     OW32521   3.180   3.334   5.374
10541SOL    HW132522   3.183   3.399   5.299
10541SOL    HW232523   3.235   3.253   5.351
10542SOL     OW32524   5.323   0.044   3.552
10542SOL    HW132525   5.337   0.094   3.637
10542SOL    HW232526   5.394   6.998   3.543
10543SOL     OW32527   1.547   3.318   4.080
10543SOL    HW132528   1.613   3.345   4.010
10543SOL    HW232529   1.591   3.320   4.170
10544SOL     OW32530   2.581   1.510   2.901
10544SOL    HW132531   2.643   1.588   2.912
10544SOL    HW232532   2.583   1.480   2.806
10545SOL     OW32533   2.371   2.645   2.597
10545SOL    HW132534   2.370   2.683   2.504
10545SOL    HW232535   2.332   2.712   2.660
10546SOL     OW32536   2.976   0.031   6.320
10546SOL    HW132537   3.010   0.057   6.410
10546SOL    HW232538   2.970   6.956   6.313
10547SOL     OW32539   4.482   6.716   5.499
10547SOL    HW132540   4.386   6.732   5.524
10547SOL    HW232541   4.507   6.778   5.425
10548SOL     OW32542   6.965   6.063   3.017
10548SOL    HW132543   7.015   6.017   3.091
10548SOL    HW232544   6.926   6.149   3.051
10549SOL     OW32545   6.464   0.249   1.678
10549SOL    HW132546   6.408   0.202   1.609
10549SOL    HW232547   6.484   0.342   1.647
10550SOL     OW32548   4.975   6.100   3.323
10550SOL    HW132549   5.030   6.040   3.265
10550SOL    HW232550   5.032   6.136   3.398
10551SOL     OW32551   3.370   0.343   5.053
10551SOL    HW132552   3.303   0.382   4.990
10551SOL    HW232553   3.344   0.365   5.147
10552SOL     OW32554   2.748   0.255   3.888
10552SOL    HW132555   2.715   0.349   3.877
10552SOL    HW232556   2.761   0.235   3.985
10553SOL     OW32557   6.499   5.579   1.311
10553SOL    HW132558   6.457   5.549   1.397
10553SOL    HW232559   6.599   5.579   1.322
10554SOL     OW32560   5.948   6.065   2.700
10554SOL    HW132561   5.935   6.148   2.754
10554SOL    HW232562   5.895   6.071   2.615
10555SOL     OW32563   3.665   3.306   1.017
10555SOL    HW132564   3.629   3.321   0.925
10555SOL    HW232565   3.589   3.301   1.082
10556SOL     OW32566   2.201   1.686   2.051
10556SOL    HW132567   2.170   1.781   2.053
10556SOL    HW232568   2.128   1.627   2.018
10557SOL     OW32569   2.364   4.805   3.251
10557SOL    HW132570   2.314   4.839   3.171
10557SOL    HW232571   2.461   4.831   3.242
10558SOL     OW32572   3.337   4.961   5.551
10558SOL    HW132573   3.300   4.983   5.460
10558SOL    HW232574   3.335   4.862   5.564
10559SOL     OW32575   4.177   6.442   1.255
10559SOL    HW132576   4.082   6.421   1.279
10559SOL    HW232577   4.179   6.502   1.176
10560SOL     OW32578   5.732   6.948   2.990
10560SOL    HW132579   5.716   0.021   3.002
10560SOL    HW232580   5.830   6.930   2.984
10561SOL     OW32581   6.698   4.888   0.004
10561SOL    HW132582   6.770   4.911   0.069
10561SOL    HW232583   6.698   4.790   7.011
10562SOL     OW32584   4.604   5.800   2.336
10562SOL    HW132585   4.681   5.851   2.298
10562SOL    HW232586   4.571   5.845   2.419
10563SOL     OW32587   0.214   6.966   2.307
10563SOL    HW132588   0.291   7.018   2.344
10563SOL    HW232589   0.211   6.876   2.350
10564SOL     OW32590   5.024   4.090   3.524
10564SOL    HW132591   5.043   4.185   3.501
10564SOL    HW232592   4.930   4.067   3.496
10565SOL     OW32593   1.058   0.855   6.182
10565SOL    HW132594   1.070   0.777   6.122
10565SOL    HW232595   1.006   0.926   6.135
10566SOL     OW32596   3.646   2.513   0.073
10566SOL    HW132597   3.594   2.480   0.152
10566SOL    HW232598   3.738   2.538   0.103
10567SOL     OW32599   2.040   2.471   5.921
10567SOL    HW132600   2.129   2.448   5.961
10567SOL    HW232601   2.045   2.462   5.822
10568SOL     OW32602   4.332   2.439   6.096
10568SOL    HW132603   4.422   2.412   6.063
10568SOL    HW232604   4.340   2.477   6.188
10569SOL     OW32605   5.811   0.283   0.213
10569SOL    HW132606   5.894   0.240   0.248
10569SOL    HW232607   5.733   0.223   0.231
10570SOL     OW32608   1.254   4.011   3.326
10570SOL    HW132609   1.251   3.912   3.312
10570SOL    HW232610   1.259   4.031   3.424
10571SOL     OW32611   6.251   4.113   5.520
10571SOL    HW132612   6.253   4.113   5.420
10571SOL    HW232613   6.334   4.157   5.555
10572SOL     OW32614   6.077   4.145   1.059
10572SOL    HW132615   6.055   4.226   1.113
10572SOL    HW232616   6.176   4.128   1.063
10573SOL     OW32617   6.404   2.017   2.885
10573SOL    HW132618   6.484   2.070   2.855
10573SOL    HW232619   6.373   1.960   2.809
10574SOL     OW32620   5.854   3.092   2.435
10574SOL    HW132621   5.909   3.030   2.491
10574SOL    HW232622   5.764   3.052   2.418
10575SOL     OW32623   5.916   6.778   2.277
10575SOL    HW132624   6.013   6.766   2.259
10575SOL    HW232625   5.877   6.692   2.309
10576SOL     OW32626   1.528   4.356   4.423
10576SOL    HW132627   1.611   4.332   4.373
10576SOL    HW232628   1.533   4.452   4.451
10577SOL     OW32629   3.611   3.988   0.161
10577SOL    HW132630   3.662   3.904   0.144
10577SOL    HW232631   3.597   4.036   0.075
10578SOL     OW32632   0.408   3.731   3.743
10578SOL    HW132633   0.398   3.816   3.692
10578SOL    HW232634   0.485   3.678   3.707
10579SOL     OW32635   0.466   3.514   6.559
10579SOL    HW132636   0.533   3.478   6.494
10579SOL    HW232637   0.488   3.483   6.651
10580SOL     OW32638   6.090   0.207   0.279
10580SOL    HW132639   6.152   0.283   0.299
10580SOL    HW232640   6.128   0.122   0.316
10581SOL     OW32641   4.325   0.259   2.873
10581SOL    HW132642   4.299   0.211   2.790
10581SOL    HW232643   4.353   0.352   2.851
10582SOL     OW32644   6.259   3.565   6.462
10582SOL    HW132645   6.285   3.470   6.481
10582SOL    HW232646   6.179   3.589   6.517
10583SOL     OW32647   3.163   1.807   5.072
10583SOL    HW132648   3.255   1.774   5.050
10583SOL    HW232649   3.157   1.905   5.050
10584SOL     OW32650   0.997   6.769   3.766
10584SOL    HW132651   0.972   6.697   3.701
10584SOL    HW232652   1.032   6.848   3.717
10585SOL     OW32653   1.538   0.837   5.155
10585SOL    HW132654   1.499   0.924   5.124
10585SOL    HW232655   1.625   0.854   5.200
10586SOL     OW32656   4.121   4.232   5.279
10586SOL    HW132657   4.189   4.168   5.314
10586SOL    HW232658   4.166   4.298   5.218
10587SOL     OW32659   2.018   5.091   5.760
10587SOL    HW132660   1.992   5.152   5.835
10587SOL    HW232661   1.939   5.073   5.702
10588SOL     OW32662   1.470   3.855   3.549
10588SOL    HW132663   1.441   3.763   3.521
10588SOL    HW232664   1.391   3.905   3.586
10589SOL     OW32665   5.482   6.525   4.164
10589SOL    HW132666   5.437   6.603   4.121
10589SOL    HW232667   5.578   6.547   4.180
10590SOL     OW32668   0.596   4.952   2.112
10590SOL    HW132669   0.522   4.973   2.176
10590SOL    HW232670   0.610   5.030   2.051
10591SOL     OW32671   6.885   3.341   1.794
10591SOL    HW132672   6.836   3.410   1.741
10591SOL    HW232673   6.859   3.250   1.762
10592SOL     OW32674   0.067   0.976   5.137
10592SOL    HW132675   0.057   1.029   5.053
10592SOL    HW232676   0.049   0.879   5.117
10593SOL     OW32677   2.971   5.114   3.327
10593SOL    HW132678   2.893   5.103   3.389
10593SOL    HW232679   2.938   5.124   3.233
10594SOL     OW32680   3.526   5.347   3.801
10594SOL    HW132681   3.494   5.442   3.803
10594SOL    HW232682   3.479   5.297   3.728
10595SOL     OW32683   4.565   6.966   0.623
10595SOL    HW132684   4.550   0.017   0.559
10595SOL    HW232685   4.607   6.890   0.575
10596SOL     OW32686   5.147   3.398   0.066
10596SOL    HW132687   5.219   3.442   0.119
10596SOL    HW232688   5.187   3.332   0.003
10597SOL     OW32689   2.125   6.699   4.514
10597SOL    HW132690   2.219   6.726   4.537
10597SOL    HW232691   2.118   6.599   4.516
10598SOL     OW32692   3.168   1.193   6.290
10598SOL    HW132693   3.226   1.244   6.226
10598SOL    HW232694   3.081   1.170   6.245
10599SOL     OW32695   0.427   2.048   0.475
10599SOL    HW132696   0.454   2.100   0.556
10599SOL    HW232697   0.506   2.035   0.416
10600SOL     OW32698   3.477   1.959   1.552
10600SOL    HW132699   3.485   2.052   1.588
10600SOL    HW232700   3.503   1.894   1.624
10601SOL     OW32701   2.107   0.534   5.120
10601SOL    HW132702   2.207   0.526   5.123
10601SOL    HW232703   2.074   0.577   5.204
10602SOL     OW32704   6.852   6.930   1.457
10602SOL    HW132705   6.890   6.925   1.550
10602SOL    HW232706   6.759   6.893   1.458
10603SOL     OW32707   5.459   0.422   2.644
10603SOL    HW132708   5.547   0.375   2.656
10603SOL    HW232709   5.396   0.392   2.715
10604SOL     OW32710   4.900   0.593   4.672
10604SOL    HW132711   4.896   0.591   4.772
10604SOL    HW232712   4.817   0.550   4.635
10605SOL     OW32713   2.993   2.155   1.445
10605SOL    HW132714   3.034   2.198   1.364
10605SOL    HW232715   3.048   2.075   1.471
10606SOL     OW32716   6.780   0.973   0.170
10606SOL    HW132717   6.697   0.989   0.224
10606SOL    HW232718   6.809   0.878   0.182
10607SOL     OW32719   3.029   4.205   6.976
10607SOL    HW132720   3.066   4.262   0.024
10607SOL    HW232721   3.029   4.257   6.890
10608SOL     OW32722   5.665   4.241   4.400
10608SOL    HW132723   5.665   4.188   4.485
10608SOL    HW232724   5.758   4.241   4.361
10609SOL     OW32725   5.652   0.631   6.376
10609SOL    HW132726   5.736   0.669   6.414
10609SOL    HW232727   5.669   0.538   6.345
10610SOL     OW32728   0.481   1.146   3.619
10610SOL    HW132729   0.397   1.199   3.633
10610SOL    HW232730   0.480   1.107   3.527
10611SOL     OW32731   3.733   5.651   4.778
10611SOL    HW132732   3.638   5.640   4.805
10611SOL    HW232733   3.788   5.580   4.821
10612SOL     OW32734   6.447   2.382   3.398
10612SOL    HW132735   6.484   2.290   3.389
10612SOL    HW232736   6.447   2.428   3.309
10613SOL     OW32737   4.256   6.183   4.384
10613SOL    HW132738   4.248   6.274   4.424
10613SOL    HW232739   4.347   6.172   4.344
10614SOL     OW32740   3.905   1.795   6.032
10614SOL    HW132741   3.958   1.777   5.949
10614SOL    HW232742   3.859   1.883   6.023
10615SOL     OW32743   2.305   1.654   5.142
10615SOL    HW132744   2.229   1.714   5.168
10615SOL    HW232745   2.366   1.641   5.221
10616SOL     OW32746   1.978   6.125   6.763
10616SOL    HW132747   1.937   6.128   6.672
10616SOL    HW232748   2.075   6.147   6.757
10617SOL     OW32749   1.962   2.801   1.434
10617SOL    HW132750   1.945   2.897   1.414
10617SOL    HW232751   2.045   2.771   1.386
10618SOL     OW32752   0.922   5.257   4.008
10618SOL    HW132753   1.005   5.291   4.052
10618SOL    HW232754   0.873   5.333   3.965
10619SOL     OW32755   1.105   2.682   2.524
10619SOL    HW132756   1.193   2.662   2.480
10619SOL    HW232757   1.114   2.765   2.580
10620SOL     OW32758   3.510   0.605   5.584
10620SOL    HW132759   3.584   0.631   5.647
10620SOL    HW232760   3.422   0.615   5.630
10621SOL     OW32761   0.650   3.678   3.263
10621SOL    HW132762   0.629   3.648   3.170
10621SOL    HW232763   0.704   3.762   3.259
10622SOL     OW32764   4.278   1.943   7.000
10622SOL    HW132765   4.178   1.937   6.991
10622SOL    HW232766   4.301   2.032   0.015
10623SOL     OW32767   4.755   6.638   6.023
10623SOL    HW132768   4.670   6.662   5.977
10623SOL    HW232769   4.827   6.620   5.956
10624SOL     OW32770   0.844   2.217   0.615
10624SOL    HW132771   0.813   2.303   0.656
10624SOL    HW232772   0.843   2.225   0.515
10625SOL     OW32773   6.144   5.236   0.109
10625SOL    HW132774   6.242   5.239   0.129
10625SOL    HW232775   6.111   5.143   0.118
10626SOL     OW32776   5.480   3.093   1.033
10626SOL    HW132777   5.472   3.095   1.132
10626SOL    HW232778   5.430   3.170   0.994
10627SOL     OW32779   5.716   5.679   5.254
10627SOL    HW132780   5.758   5.689   5.344
10627SOL    HW232781   5.710   5.582   5.230
10628SOL     OW32782   3.477   6.543   0.065
10628SOL    HW132783   3.525   6.500   7.014
10628SOL    HW232784   3.531   6.533   0.148
10629SOL     OW32785   3.945   5.467   4.760
10629SOL    HW132786   3.950   5.526   4.680
10629SOL    HW232787   3.972   5.518   4.841
10630SOL     OW32788   3.725   1.445   1.363
10630SOL    HW132789   3.751   1.377   1.431
10630SOL    HW232790   3.633   1.480   1.384
10631SOL     OW32791   3.454   6.031   0.998
10631SOL    HW132792   3.521   5.957   0.994
10631SOL    HW232793   3.362   5.992   0.996
10632SOL     OW32794   5.000   6.182   3.849
10632SOL    HW132795   5.047   6.113   3.903
10632SOL    HW232796   5.063   6.223   3.784
10633SOL     OW32797   1.852   3.199   0.889
10633SOL    HW132798   1.913   3.262   0.841
10633SOL    HW232799   1.786   3.161   0.824
10634SOL     OW32800   0.175   4.175   0.041
10634SOL    HW132801   0.188   4.133   0.131
10634SOL    HW232802   0.258   4.224   0.015
10635SOL     OW32803   2.194   5.385   6.474
10635SOL    HW132804   2.247   5.393   6.558
10635SOL    HW232805   2.205   5.468   6.419
10636SOL     OW32806   6.630   2.202   0.029
10636SOL    HW132807   6.589   2.121   0.071
10636SOL    HW232808   6.681   2.254   0.097
10637SOL     OW32809   2.567   0.238   6.855
10637SOL    HW132810   2.646   0.204   6.804
10637SOL    HW232811   2.590   0.326   6.896
10638SOL     OW32812   5.752   4.887   1.271
10638SOL    HW132813   5.666   4.928   1.301
10638SOL    HW232814   5.824   4.957   1.271
10639SOL     OW32815   0.638   5.391   1.665
10639SOL    HW132816   0.601   5.313   1.615
10639SOL    HW232817   0.564   5.439   1.712
10640SOL     OW32818   4.641   6.611   3.612
10640SOL    HW132819   4.638   6.512   3.600
10640SOL    HW232820   4.618   6.634   3.707
10641SOL     OW32821   1.241   1.452   3.355
10641SOL    HW132822   1.326   1.431   3.306
10641SOL    HW232823   1.190   1.521   3.304
10642SOL     OW32824   6.974   3.116   6.080
10642SOL    HW132825   6.974   3.050   6.155
10642SOL    HW232826   6.933   3.202   6.111
10643SOL     OW32827   2.641   5.224   5.930
10643SOL    HW132828   2.708   5.216   5.857
10643SOL    HW232829   2.687   5.220   6.019
10644SOL     OW32830   6.582   3.023   2.866
10644SOL    HW132831   6.516   2.991   2.798
10644SOL    HW232832   6.533   3.052   2.948
10645SOL     OW32833   2.084   2.203   3.202
10645SOL    HW132834   2.090   2.112   3.159
10645SOL    HW232835   1.989   2.232   3.207
10646SOL     OW32836   5.168   0.761   3.523
10646SOL    HW132837   5.174   0.820   3.604
10646SOL    HW232838   5.174   0.665   3.551
10647SOL     OW32839   3.448   5.600   5.687
10647SOL    HW132840   3.381   5.632   5.619
10647SOL    HW232841   3.533   5.576   5.641
10648SOL     OW32842   4.684   4.511   5.903
10648SOL    HW132843   4.606   4.478   5.956
10648SOL    HW232844   4.656   4.526   5.808
10649SOL     OW32845   5.966   3.222   2.649
10649SOL    HW132846   5.884   3.249   2.700
10649SOL    HW232847   5.939   3.188   2.559
10650SOL     OW32848   1.007   0.133   3.779
10650SOL    HW132849   1.033   0.067   3.709
10650SOL    HW232850   1.023   0.226   3.746
10651SOL     OW32851   3.235   6.186   6.130
10651SOL    HW132852   3.211   6.236   6.047
10651SOL    HW232853   3.298   6.112   6.107
10652SOL     OW32854   2.094   0.501   0.432
10652SOL    HW132855   2.061   0.577   0.488
10652SOL    HW232856   2.090   0.526   0.335
10653SOL     OW32857   4.340   5.956   4.533
10653SOL    HW132858   4.407   5.937   4.604
10653SOL    HW232859   4.310   6.051   4.539
10654SOL     OW32860   5.971   1.421   4.447
10654SOL    HW132861   6.037   1.463   4.383
10654SOL    HW232862   5.909   1.362   4.396
10655SOL     OW32863   0.019   4.282   2.033
10655SOL    HW132864   0.030   4.262   2.131
10655SOL    HW232865   0.046   4.377   2.015
10656SOL     OW32866   6.164   2.629   4.039
10656SOL    HW132867   6.171   2.543   4.089
10656SOL    HW232868   6.069   2.642   4.009
10657SOL     OW32869   4.666   6.695   4.334
10657SOL    HW132870   4.657   6.660   4.427
10657SOL    HW232871   4.628   6.629   4.269
10658SOL     OW32872   0.635   2.782   5.277
10658SOL    HW132873   0.648   2.691   5.316
10658SOL    HW232874   0.544   2.816   5.300
10659SOL     OW32875   0.621   5.834   0.534
10659SOL    HW132876   0.697   5.783   0.575
10659SOL    HW232877   0.622   5.821   0.435
10660SOL     OW32878   5.579   3.032   5.387
10660SOL    HW132879   5.491   3.034   5.340
10660SOL    HW232880   5.601   3.123   5.422
10661SOL     OW32881   2.820   4.927   5.946
10661SOL    HW132882   2.779   5.011   5.910
10661SOL    HW232883   2.778   4.904   6.033
10662SOL     OW32884   2.372   1.236   1.364
10662SOL    HW132885   2.343   1.190   1.448
10662SOL    HW232886   2.361   1.335   1.374
10663SOL     OW32887   0.713   1.784   3.417
10663SOL    HW132888   0.730   1.722   3.340
10663SOL    HW232889   0.754   1.746   3.500
10664SOL     OW32890   0.645   5.497   4.883
10664SOL    HW132891   0.602   5.421   4.931
10664SOL    HW232892   0.739   5.473   4.859
10665SOL     OW32893   3.107   3.256   6.985
10665SOL    HW132894   3.124   3.232   6.889
10665SOL    HW232895   3.158   3.194   0.020
10666SOL     OW32896   3.693   4.118   1.558
10666SOL    HW132897   3.601   4.079   1.555
10666SOL    HW232898   3.758   4.048   1.588
10667SOL     OW32899   5.041   2.544   3.536
10667SOL    HW132900   5.060   2.548   3.634
10667SOL    HW232901   5.122   2.510   3.488
10668SOL     OW32902   3.399   2.917   5.515
10668SOL    HW132903   3.351   2.952   5.595
10668SOL    HW232904   3.335   2.871   5.454
10669SOL     OW32905   5.704   1.249   1.769
10669SOL    HW132906   5.739   1.297   1.688
10669SOL    HW232907   5.673   1.158   1.743
10670SOL     OW32908   4.860   3.713   4.538
10670SOL    HW132909   4.816   3.801   4.519
10670SOL    HW232910   4.947   3.708   4.488
10671SOL     OW32911   1.716   3.160   5.121
10671SOL    HW132912   1.735   3.258   5.113
10671SOL    HW232913   1.733   3.115   5.033
10672SOL     OW32914   5.711   3.409   1.821
10672SOL    HW132915   5.777   3.484   1.822
10672SOL    HW232916   5.667   3.401   1.911
10673SOL     OW32917   1.955   1.164   1.120
10673SOL    HW132918   1.929   1.068   1.113
10673SOL    HW232919   1.891   1.221   1.069
10674SOL     OW32920   3.977   3.840   3.392
10674SOL    HW132921   3.897   3.899   3.381
10674SOL    HW232922   3.948   3.745   3.403
10675SOL     OW32923   3.709   6.779   5.274
10675SOL    HW132924   3.799   6.768   5.233
10675SOL    HW232925   3.662   6.690   5.277
10676SOL     OW32926   1.596   0.414   5.346
10676SOL    HW132927   1.651   0.475   5.289
10676SOL    HW232928   1.500   0.421   5.319
10677SOL     OW32929   0.301   1.278   0.655
10677SOL    HW132930   0.217   1.232   0.625
10677SOL    HW232931   0.365   1.284   0.577
10678SOL     OW32932   3.938   5.688   3.428
10678SOL    HW132933   4.029   5.677   3.389
10678SOL    HW232934   3.945   5.738   3.515
10679SOL     OW32935   4.226   3.522   6.622
10679SOL    HW132936   4.275   3.560   6.544
10679SOL    HW232937   4.279   3.447   6.662
10680SOL     OW32938   4.053   1.249   4.336
10680SOL    HW132939   4.096   1.228   4.424
10680SOL    HW232940   3.985   1.178   4.314
10681SOL     OW32941   1.524   2.763   5.392
10681SOL    HW132942   1.480   2.675   5.377
10681SOL    HW232943   1.470   2.817   5.457
10682SOL     OW32944   5.321   3.224   6.151
10682SOL    HW132945   5.312   3.323   6.168
10682SOL    HW232946   5.405   3.190   6.194
10683SOL     OW32947   2.932   0.534   3.771
10683SOL    HW132948   2.849   0.495   3.731
10683SOL    HW232949   3.011   0.481   3.743
10684SOL     OW32950   4.389   4.945   2.255
10684SOL    HW132951   4.331   4.864   2.270
10684SOL    HW232952   4.445   4.961   2.337
10685SOL     OW32953   0.813   5.993   1.202
10685SOL    HW132954   0.795   6.049   1.121
10685SOL    HW232955   0.764   6.030   1.281
10686SOL     OW32956   3.056   1.428   6.547
10686SOL    HW132957   2.983   1.429   6.479
10686SOL    HW232958   3.038   1.497   6.617
10687SOL     OW32959   0.300   3.915   3.159
10687SOL    HW132960   0.301   3.871   3.249
10687SOL    HW232961   0.390   3.908   3.117
10688SOL     OW32962   5.229   2.139   2.230
10688SOL    HW132963   5.143   2.189   2.221
10688SOL    HW232964   5.294   2.193   2.283
10689SOL     OW32965   0.028   0.323   3.089
10689SOL    HW132966   7.013   0.271   3.014
10689SOL    HW232967   0.088   0.264   3.142
10690SOL     OW32968   0.012   0.146   4.147
10690SOL    HW132969   0.076   0.213   4.184
10690SOL    HW232970   0.059   0.060   4.130
10691SOL     OW32971   3.128   0.393   2.804
10691SOL    HW132972   3.127   0.491   2.822
10691SOL    HW232973   3.125   0.377   2.705
10692SOL     OW32974   2.042   0.601   4.196
10692SOL    HW132975   2.044   0.510   4.238
10692SOL    HW232976   2.121   0.654   4.226
10693SOL     OW32977   1.816   5.133   0.619
10693SOL    HW132978   1.841   5.228   0.636
10693SOL    HW232979   1.717   5.126   0.611
10694SOL     OW32980   4.225   6.848   5.273
10694SOL    HW132981   4.324   6.842   5.257
10694SOL    HW232982   4.207   6.866   5.369
10695SOL     OW32983   6.067   4.067   1.721
10695SOL    HW132984   6.072   4.019   1.634
10695SOL    HW232985   6.023   4.156   1.707
10696SOL     OW32986   6.566   4.720   4.308
10696SOL    HW132987   6.579   4.689   4.402
10696SOL    HW232988   6.652   4.715   4.259
10697SOL     OW32989   1.372   5.153   5.288
10697SOL    HW132990   1.455   5.145   5.343
10697SOL    HW232991   1.323   5.237   5.313
10698SOL     OW32992   4.666   2.812   0.124
10698SOL    HW132993   4.720   2.879   0.074
10698SOL    HW232994   4.685   2.820   0.222
10699SOL     OW32995   3.425   3.173   0.125
10699SOL    HW132996   3.342   3.148   0.175
10699SOL    HW232997   3.506   3.148   0.179
10700SOL     OW32998   5.107   0.841   1.311
10700SOL    HW132999   5.070   0.912   1.371
10700SOL    HW233000   5.042   0.821   1.238
10701SOL     OW33001   2.981   0.677   5.940
10701SOL    HW133002   3.032   0.656   6.024
10701SOL    HW233003   2.883   0.679   5.961
10702SOL     OW33004   5.908   2.409   1.880
10702SOL    HW133005   5.907   2.500   1.920
10702SOL    HW233006   5.927   2.416   1.782
10703SOL     OW33007   1.204   2.776   6.321
10703SOL    HW133008   1.174   2.809   6.232
10703SOL    HW233009   1.285   2.826   6.351
10704SOL     OW33010   5.934   6.868   1.447
10704SOL    HW133011   6.032   6.889   1.440
10704SOL    HW233012   5.922   6.771   1.470
10705SOL     OW33013   5.574   4.447   1.660
10705SOL    HW133014   5.557   4.493   1.572
10705SOL    HW233015   5.642   4.374   1.647
10706SOL     OW33016   4.455   0.424   1.569
10706SOL    HW133017   4.422   0.379   1.487
10706SOL    HW233018   4.413   0.382   1.650
10707SOL     OW33019   5.839   0.521   4.312
10707SOL    HW133020   5.832   0.620   4.301
10707SOL    HW233021   5.837   0.498   4.409
10708SOL     OW33022   4.347   1.807   2.163
10708SOL    HW133023   4.286   1.808   2.242
10708SOL    HW233024   4.372   1.900   2.139
10709SOL     OW33025   6.160   5.139   4.116
10709SOL    HW133026   6.156   5.221   4.060
10709SOL    HW233027   6.129   5.060   4.063
10710SOL     OW33028   5.267   1.105   3.369
10710SOL    HW133029   5.357   1.062   3.357
10710SOL    HW233030   5.215   1.098   3.284
10711SOL     OW33031   3.939   6.870   1.656
10711SOL    HW133032   3.982   6.957   1.678
10711SOL    HW233033   3.930   6.815   1.739
10712SOL     OW33034   4.842   6.631   3.051
10712SOL    HW133035   4.770   6.671   3.108
10712SOL    HW233036   4.925   6.619   3.105
10713SOL     OW33037   1.518   4.044   1.266
10713SOL    HW133038   1.597   4.100   1.240
10713SOL    HW233039   1.523   4.022   1.363
10714SOL     OW33040   3.686   3.741   4.370
10714SOL    HW133041   3.742   3.734   4.287
10714SOL    HW233042   3.589   3.748   4.344
10715SOL     OW33043   5.923   0.854   2.696
10715SOL    HW133044   5.883   0.945   2.695
10715SOL    HW233045   5.994   0.849   2.766
10716SOL     OW33046   5.978   2.317   3.672
10716SOL    HW133047   5.944   2.226   3.648
10716SOL    HW233048   6.076   2.323   3.650
10717SOL     OW33049   1.448   2.515   6.941
10717SOL    HW133050   1.361   2.530   6.894
10717SOL    HW233051   1.431   2.503   0.014
10718SOL     OW33052   1.392   4.963   5.550
10718SOL    HW133053   1.304   4.956   5.503
10718SOL    HW233054   1.449   4.884   5.527
10719SOL     OW33055   6.301   5.570   4.714
10719SOL    HW133056   6.216   5.619   4.695
10719SOL    HW233057   6.375   5.607   4.657
10720SOL     OW33058   6.062   5.774   4.130
10720SOL    HW133059   6.005   5.705   4.086
10720SOL    HW233060   6.077   5.749   4.226
10721SOL     OW33061   5.049   3.628   5.232
10721SOL    HW133062   5.040   3.710   5.176
10721SOL    HW233063   5.127   3.574   5.200
10722SOL     OW33064   0.166   4.152   5.922
10722SOL    HW133065   0.199   4.075   5.867
10722SOL    HW233066   0.164   4.126   6.018
10723SOL     OW33067   6.699   0.250   0.404
10723SOL    HW133068   6.689   0.151   0.415
10723SOL    HW233069   6.793   0.271   0.376
10724SOL     OW33070   6.500   6.431   0.309
10724SOL    HW133071   6.587   6.414   0.262
10724SOL    HW233072   6.454   6.509   0.267
10725SOL     OW33073   2.463   5.565   5.515
10725SOL    HW133074   2.549   5.533   5.474
10725SOL    HW233075   2.445   5.513   5.598
10726SOL     OW33076   4.530   0.439   4.004
10726SOL    HW133077   4.448   0.425   4.058
10726SOL    HW233078   4.505   0.474   3.914
10727SOL     OW33079   1.285   5.876   5.655
10727SOL    HW133080   1.325   5.956   5.699
10727SOL    HW233081   1.353   5.832   5.596
10728SOL     OW33082   6.508   5.285   0.900
10728SOL    HW133083   6.573   5.302   0.974
10728SOL    HW233084   6.441   5.359   0.896
10729SOL     OW33085   6.783   2.368   1.373
10729SOL    HW133086   6.877   2.338   1.389
10729SOL    HW233087   6.733   2.367   1.460
10730SOL     OW33088   4.316   6.961   1.633
10730SOL    HW133089   4.403   7.009   1.638
10730SOL    HW233090   4.241   0.003   1.628
10731SOL     OW33091   4.095   1.382   1.011
10731SOL    HW133092   4.070   1.474   0.981
10731SOL    HW233093   4.194   1.370   1.002
10732SOL     OW33094   0.526   5.341   5.085
10732SOL    HW133095   0.599   5.366   5.148
10732SOL    HW233096   0.464   5.276   5.129
10733SOL     OW33097   5.834   2.422   6.666
10733SOL    HW133098   5.798   2.343   6.715
10733SOL    HW233099   5.788   2.430   6.578
10734SOL     OW33100   0.686   2.140   1.566
10734SOL    HW133101   0.698   2.189   1.480
10734SOL    HW233102   0.589   2.121   1.581
10735SOL     OW33103   0.387   3.662   2.043
10735SOL    HW133104   0.296   3.648   2.081
10735SOL    HW233105   0.456   3.625   2.106
10736SOL     OW33106   3.204   6.711   3.721
10736SOL    HW133107   3.256   6.793   3.743
10736SOL    HW233108   3.146   6.728   3.641
10737SOL     OW33109   0.149   2.594   1.567
10737SOL    HW133110   0.050   2.595   1.549
10737SOL    HW233111   0.178   2.683   1.601
10738SOL     OW33112   4.375   0.827   3.001
10738SOL    HW133113   4.329   0.820   3.090
10738SOL    HW233114   4.453   0.889   3.010
10739SOL     OW33115   2.169   2.436   1.870
10739SOL    HW133116   2.153   2.338   1.882
10739SOL    HW233117   2.256   2.461   1.913
10740SOL     OW33118   5.333   4.548   4.173
10740SOL    HW133119   5.265   4.555   4.100
10740SOL    HW233120   5.343   4.637   4.218
10741SOL     OW33121   3.741   0.767   2.217
10741SOL    HW133122   3.700   0.757   2.127
10741SOL    HW233123   3.766   0.677   2.253
10742SOL     OW33124   5.684   5.248   0.884
10742SOL    HW133125   5.655   5.152   0.880
10742SOL    HW233126   5.783   5.253   0.897
10743SOL     OW33127   2.309   2.227   3.751
10743SOL    HW133128   2.338   2.238   3.846
10743SOL    HW233129   2.209   2.235   3.745
10744SOL     OW33130   3.712   2.538   0.963
10744SOL    HW133131   3.793   2.535   1.022
10744SOL    HW233132   3.652   2.612   0.992
10745SOL     OW33133   6.777   5.857   6.001
10745SOL    HW133134   6.702   5.923   6.005
10745SOL    HW233135   6.864   5.906   6.001
10746SOL     OW33136   0.599   4.169   5.086
10746SOL    HW133137   0.604   4.078   5.128
10746SOL    HW233138   0.613   4.239   5.156
10747SOL     OW33139   2.851   0.708   4.852
10747SOL    HW133140   2.939   0.705   4.805
10747SOL    HW233141   2.800   0.788   4.822
10748SOL     OW33142   5.126   0.958   2.231
10748SOL    HW133143   5.180   0.995   2.156
10748SOL    HW233144   5.181   0.958   2.315
10749SOL     OW33145   2.027   6.445   4.577
10749SOL    HW133146   1.980   6.385   4.512
10749SOL    HW233147   2.009   6.414   4.670
10750SOL     OW33148   3.927   0.701   5.232
10750SOL    HW133149   3.877   0.787   5.223
10750SOL    HW233150   3.876   0.628   5.187
10751SOL     OW33151   2.340   4.740   4.529
10751SOL    HW133152   2.305   4.794   4.606
10751SOL    HW233153   2.439   4.733   4.535
10752SOL     OW33154   5.397   4.774   4.812
10752SOL    HW133155   5.413   4.679   4.837
10752SOL    HW233156   5.447   4.796   4.729
10753SOL     OW33157   0.530   3.099   3.829
10753SOL    HW133158   0.497   3.060   3.915
10753SOL    HW233159   0.608   3.046   3.796
10754SOL     OW33160   1.355   0.560   3.043
10754SOL    HW133161   1.397   0.492   3.104
10754SOL    HW233162   1.265   0.586   3.079
10755SOL     OW33163   6.251   6.225   1.649
10755SOL    HW133164   6.286   6.318   1.663
10755SOL    HW233165   6.202   6.221   1.561
10756SOL     OW33166   6.490   6.716   5.111
10756SOL    HW133167   6.434   6.634   5.117
10756SOL    HW233168   6.484   6.767   5.196
10757SOL     OW33169   2.243   3.069   0.451
10757SOL    HW133170   2.256   3.034   0.543
10757SOL    HW233171   2.146   3.093   0.437
10758SOL     OW33172   0.942   6.121   3.644
10758SOL    HW133173   0.995   6.199   3.677
10758SOL    HW233174   0.855   6.116   3.692
10759SOL     OW33175   0.663   2.703   0.478
10759SOL    HW133176   0.613   2.783   0.445
10759SOL    HW233177   0.745   2.689   0.421
10760SOL     OW33178   6.089   1.322   3.457
10760SOL    HW133179   6.153   1.246   3.471
10760SOL    HW233180   6.008   1.309   3.514
10761SOL     OW33181   2.499   5.003   5.523
10761SOL    HW133182   2.409   5.045   5.531
10761SOL    HW233183   2.491   4.916   5.476
10762SOL     OW33184   3.084   0.615   4.532
10762SOL    HW133185   2.984   0.612   4.541
10762SOL    HW233186   3.119   0.523   4.514
10763SOL     OW33187   3.788   0.773   3.127
10763SOL    HW133188   3.721   0.700   3.141
10763SOL    HW233189   3.751   0.859   3.164
10764SOL     OW33190   5.168   1.050   4.099
10764SOL    HW133191   5.162   1.076   4.002
10764SOL    HW233192   5.083   1.006   4.127
10765SOL     OW33193   5.040   3.412   1.633
10765SOL    HW133194   4.961   3.366   1.672
10765SOL    HW233195   5.022   3.434   1.537
10766SOL     OW33196   3.120   3.274   1.022
10766SOL    HW133197   3.045   3.255   1.085
10766SOL    HW233198   3.168   3.189   1.001
10767SOL     OW33199   1.993   0.540   1.727
10767SOL    HW133200   1.993   0.442   1.748
10767SOL    HW233201   2.069   0.584   1.775
10768SOL     OW33202   6.561   4.840   0.789
10768SOL    HW133203   6.528   4.911   0.852
10768SOL    HW233204   6.614   4.773   0.840
10769SOL     OW33205   2.378   3.404   6.237
10769SOL    HW133206   2.284   3.378   6.259
10769SOL    HW233207   2.406   3.480   6.295
10770SOL     OW33208   4.596   5.807   3.408
10770SOL    HW133209   4.548   5.889   3.378
10770SOL    HW233210   4.678   5.793   3.352
10771SOL     OW33211   3.048   6.994   3.768
10771SOL    HW133212   3.132   6.989   3.823
10771SOL    HW233213   2.971   6.958   3.822
10772SOL     OW33214   5.803   5.603   3.779
10772SOL    HW133215   5.862   5.542   3.726
10772SOL    HW233216   5.833   5.605   3.874
10773SOL     OW33217   5.475   4.980   4.140
10773SOL    HW133218   5.466   5.080   4.143
10773SOL    HW233219   5.551   4.956   4.080
10774SOL     OW33220   1.614   0.972   4.019
10774SOL    HW133221   1.548   1.009   3.955
10774SOL    HW233222   1.646   0.883   3.988
10775SOL     OW33223   0.370   4.408   2.066
10775SOL    HW133224   0.418   4.454   1.991
10775SOL    HW233225   0.415   4.321   2.086
10776SOL     OW33226   1.978   0.271   6.988
10776SOL    HW133227   1.975   0.185   6.937
10776SOL    HW233228   1.980   0.348   6.925
10777SOL     OW33229   3.330   6.074   1.529
10777SOL    HW133230   3.341   6.018   1.447
10777SOL    HW233231   3.417   6.118   1.551
10778SOL     OW33232   5.923   6.361   3.485
10778SOL    HW133233   6.005   6.355   3.543
10778SOL    HW233234   5.844   6.385   3.542
10779SOL     OW33235   5.479   2.678   3.534
10779SOL    HW133236   5.451   2.773   3.523
10779SOL    HW233237   5.412   2.618   3.488
10780SOL     OW33238   0.956   1.337   3.275
10780SOL    HW133239   1.054   1.346   3.254
10780SOL    HW233240   0.914   1.273   3.211
10781SOL     OW33241   3.232   0.108   4.251
10781SOL    HW133242   3.220   0.009   4.248
10781SOL    HW233243   3.311   0.131   4.307
10782SOL     OW33244   6.106   6.263   4.522
10782SOL    HW133245   6.203   6.247   4.541
10782SOL    HW233246   6.085   6.231   4.429
10783SOL     OW33247   6.566   2.196   2.757
10783SOL    HW133248   6.627   2.275   2.762
10783SOL    HW233249   6.556   2.167   2.662
10784SOL     OW33250   2.824   1.372   3.763
10784SOL    HW133251   2.759   1.429   3.813
10784SOL    HW233252   2.873   1.313   3.828
10785SOL     OW33253   0.424   3.967   6.830
10785SOL    HW133254   0.472   4.038   6.882
10785SOL    HW233255   0.406   4.000   6.737
10786SOL     OW33256   6.714   5.663   2.820
10786SOL    HW133257   6.758   5.623   2.739
10786SOL    HW233258   6.618   5.683   2.799
10787SOL     OW33259   1.402   1.673   5.234
10787SOL    HW133260   1.406   1.680   5.134
10787SOL    HW233261   1.379   1.763   5.272
10788SOL     OW33262   6.583   4.140   6.424
10788SOL    HW133263   6.663   4.171   6.476
10788SOL    HW233264   6.511   4.111   6.487
10789SOL     OW33265   0.053   2.418   0.063
10789SOL    HW133266   0.010   2.435   7.000
10789SOL    HW233267   0.008   2.342   0.109
10790SOL     OW33268   0.197   0.209   2.214
10790SOL    HW133269   0.115   0.255   2.249
10790SOL    HW233270   0.201   0.117   2.250
10791SOL     OW33271   6.187   6.362   2.307
10791SOL    HW133272   6.214   6.293   2.240
10791SOL    HW233273   6.232   6.343   2.394
10792SOL     OW33274   3.923   3.779   5.072
10792SOL    HW133275   3.948   3.854   5.135
10792SOL    HW233276   3.936   3.809   4.978
10793SOL     OW33277   5.683   3.205   4.988
10793SOL    HW133278   5.705   3.286   4.935
10793SOL    HW233279   5.648   3.133   4.927
10794SOL     OW33280   3.436   3.342   3.714
10794SOL    HW133281   3.515   3.364   3.771
10794SOL    HW233282   3.381   3.271   3.759
10795SOL     OW33283   1.046   4.143   2.870
10795SOL    HW133284   1.064   4.191   2.785
10795SOL    HW233285   1.048   4.208   2.946
10796SOL     OW33286   0.996   5.974   4.957
10796SOL    HW133287   1.062   5.998   4.886
10796SOL    HW233288   0.929   5.910   4.919
10797SOL     OW33289   3.794   3.261   0.733
10797SOL    HW133290   3.788   3.207   0.649
10797SOL    HW233291   3.880   3.241   0.779
10798SOL     OW33292   1.244   1.410   1.123
10798SOL    HW133293   1.288   1.474   1.060
10798SOL    HW233294   1.144   1.421   1.116
10799SOL     OW33295   3.936   1.359   2.306
10799SOL    HW133296   3.868   1.419   2.265
10799SOL    HW233297   3.951   1.385   2.401
10800SOL     OW33298   0.861   6.599   0.159
10800SOL    HW133299   0.881   6.509   0.121
10800SOL    HW233300   0.940   6.632   0.211
10801SOL     OW33301   1.851   0.914   1.092
10801SOL    HW133302   1.752   0.904   1.096
10801SOL    HW233303   1.894   0.831   1.129
10802SOL     OW33304   6.323   6.999   3.358
10802SOL    HW133305   6.405   7.012   3.301
10802SOL    HW233306   6.269   6.923   3.322
10803SOL     OW33307   1.856   5.404   6.544
10803SOL    HW133308   1.916   5.408   6.624
10803SOL    HW233309   1.797   5.323   6.550
10804SOL     OW33310   0.107   3.200   3.700
10804SOL    HW133311   0.188   3.245   3.738
10804SOL    HW233312   0.058   3.153   3.774
10805SOL     OW33313   6.051   0.586   5.953
10805SOL    HW133314   5.982   0.624   5.892
10805SOL    HW233315   6.020   0.496   5.986
10806SOL     OW33316   1.663   4.793   6.886
10806SOL    HW133317   1.763   4.799   6.894
10806SOL    HW233318   1.623   4.794   6.978
10807SOL     OW33319   2.083   5.923   3.968
10807SOL    HW133320   2.084   5.995   4.037
10807SOL    HW233321   2.176   5.896   3.945
10808SOL     OW33322   0.467   1.913   6.235
10808SOL    HW133323   0.374   1.951   6.239
10808SOL    HW233324   0.521   1.950   6.310
10809SOL     OW33325   2.334   5.514   4.710
10809SOL    HW133326   2.426   5.486   4.683
10809SOL    HW233327   2.269   5.442   4.687
10810SOL     OW33328   0.358   0.077   4.651
10810SOL    HW133329   0.335   0.173   4.635
10810SOL    HW233330   0.373   0.063   4.749
10811SOL     OW33331   4.808   5.318   5.229
10811SOL    HW133332   4.853   5.402   5.198
10811SOL    HW233333   4.769   5.270   5.151
10812SOL     OW33334   6.936   2.647   6.568
10812SOL    HW133335   0.010   2.659   6.564
10812SOL    HW233336   6.890   2.733   6.546
10813SOL     OW33337   0.272   4.086   6.183
10813SOL    HW133338   0.262   3.987   6.170
10813SOL    HW233339   0.363   4.115   6.152
10814SOL     OW33340   2.272   0.596   0.957
10814SOL    HW133341   2.307   0.641   1.040
10814SOL    HW233342   2.241   0.666   0.893
10815SOL     OW33343   4.610   1.181   4.535
10815SOL    HW133344   4.583   1.093   4.575
10815SOL    HW233345   4.668   1.165   4.455
10816SOL     OW33346   3.441   3.223   3.221
10816SOL    HW133347   3.499   3.169   3.160
10816SOL    HW233348   3.478   3.316   3.228
10817SOL     OW33349   2.203   6.902   3.393
10817SOL    HW133350   2.253   6.855   3.320
10817SOL    HW233351   2.154   6.834   3.449
10818SOL     OW33352   4.490   5.158   5.833
10818SOL    HW133353   4.559   5.205   5.778
10818SOL    HW233354   4.524   5.147   5.926
10819SOL     OW33355   6.683   5.723   6.240
10819SOL    HW133356   6.728   5.780   6.171
10819SOL    HW233357   6.654   5.637   6.199
10820SOL     OW33358   2.185   4.570   5.857
10820SOL    HW133359   2.262   4.542   5.914
10820SOL    HW233360   2.165   4.497   5.791
10821SOL     OW33361   4.588   4.731   3.321
10821SOL    HW133362   4.582   4.827   3.293
10821SOL    HW233363   4.575   4.725   3.420
10822SOL     OW33364   5.718   2.851   1.138
10822SOL    HW133365   5.665   2.858   1.053
10822SOL    HW233366   5.727   2.754   1.163
10823SOL     OW33367   6.596   6.372   2.882
10823SOL    HW133368   6.660   6.297   2.868
10823SOL    HW233369   6.511   6.336   2.923
10824SOL     OW33370   1.024   1.978   4.023
10824SOL    HW133371   0.987   1.919   3.952
10824SOL    HW233372   0.966   1.974   4.104
10825SOL     OW33373   1.630   1.817   0.656
10825SOL    HW133374   1.581   1.903   0.669
10825SOL    HW233375   1.656   1.807   0.560
10826SOL     OW33376   1.285   2.494   2.837
10826SOL    HW133377   1.377   2.455   2.840
10826SOL    HW233378   1.291   2.594   2.833
10827SOL     OW33379   6.960   3.106   4.671
10827SOL    HW133380   6.950   3.047   4.751
10827SOL    HW233381   0.030   3.136   4.663
10828SOL     OW33382   6.336   4.645   5.878
10828SOL    HW133383   6.409   4.580   5.862
10828SOL    HW233384   6.260   4.599   5.926
10829SOL     OW33385   3.950   3.433   5.569
10829SOL    HW133386   4.042   3.411   5.535
10829SOL    HW233387   3.900   3.349   5.587
10830SOL     OW33388   4.693   0.947   3.784
10830SOL    HW133389   4.610   0.908   3.823
10830SOL    HW233390   4.757   0.970   3.857
10831SOL     OW33391   3.951   0.864   2.942
10831SOL    HW133392   3.912   0.809   3.016
10831SOL    HW233393   3.948   0.812   2.857
10832SOL     OW33394   6.940   3.376   6.776
10832SOL    HW133395   6.902   3.310   6.841
10832SOL    HW233396   7.018   3.422   6.817
10833SOL     OW33397   1.037   1.060   0.788
10833SOL    HW133398   0.983   1.123   0.844
10833SOL    HW233399   1.025   0.967   0.822
10834SOL     OW33400   6.794   6.558   0.385
10834SOL    HW133401   6.863   6.563   0.458
10834SOL    HW233402   6.774   6.462   0.365
10835SOL     OW33403   7.009   2.419   5.971
10835SOL    HW133404   6.974   2.325   5.977
10835SOL    HW233405   7.016   2.457   6.063
10836SOL     OW33406   0.149   1.584   3.771
10836SOL    HW133407   0.201   1.659   3.812
10836SOL    HW233408   0.134   1.602   3.674
10837SOL     OW33409   6.872   4.053   2.696
10837SOL    HW133410   6.952   4.097   2.736
10837SOL    HW233411   6.807   4.029   2.769
10838SOL     OW33412   6.397   5.851   3.730
10838SOL    HW133413   6.421   5.804   3.645
10838SOL    HW233414   6.330   5.922   3.710
10839SOL     OW33415   4.527   3.024   0.738
10839SOL    HW133416   4.486   3.068   0.658
10839SOL    HW233417   4.456   2.976   0.789
10840SOL     OW33418   2.974   0.574   1.038
10840SOL    HW133419   2.888   0.612   1.005
10840SOL    HW233420   3.024   0.533   0.962
10841SOL     OW33421   1.280   5.293   4.769
10841SOL    HW133422   1.282   5.319   4.673
10841SOL    HW233423   1.320   5.202   4.779
10842SOL     OW33424   5.301   4.274   0.500
10842SOL    HW133425   5.274   4.323   0.417
10842SOL    HW233426   5.375   4.324   0.546
10843SOL     OW33427   2.312   2.288   1.539
10843SOL    HW133428   2.249   2.363   1.559
10843SOL    HW233429   2.405   2.315   1.564
10844SOL     OW33430   1.111   5.338   4.988
10844SOL    HW133431   1.134   5.263   5.050
10844SOL    HW233432   1.170   5.335   4.908
10845SOL     OW33433   4.399   6.518   5.048
10845SOL    HW133434   4.380   6.456   4.972
10845SOL    HW233435   4.356   6.482   5.131
10846SOL     OW33436   5.133   0.365   0.557
10846SOL    HW133437   5.051   0.345   0.611
10846SOL    HW233438   5.177   0.279   0.530
10847SOL     OW33439   1.912   1.381   6.783
10847SOL    HW133440   2.004   1.350   6.806
10847SOL    HW233441   1.874   1.432   6.860
10848SOL     OW33442   1.501   4.434   1.651
10848SOL    HW133443   1.409   4.471   1.643
10848SOL    HW233444   1.565   4.508   1.673
10849SOL     OW33445   2.309   6.083   3.729
10849SOL    HW133446   2.292   6.166   3.675
10849SOL    HW233447   2.296   6.103   3.826
10850SOL     OW33448   3.245   5.989   0.461
10850SOL    HW133449   3.255   5.891   0.478
10850SOL    HW233450   3.306   6.040   0.521
10851SOL     OW33451   2.100   4.800   1.275
10851SOL    HW133452   2.049   4.827   1.357
10851SOL    HW233453   2.094   4.872   1.206
10852SOL     OW33454   1.930   1.685   1.035
10852SOL    HW133455   1.946   1.778   1.003
10852SOL    HW233456   2.009   1.653   1.087
10853SOL     OW33457   2.759   1.856   6.448
10853SOL    HW133458   2.784   1.933   6.390
10853SOL    HW233459   2.838   1.795   6.459
10854SOL     OW33460   4.114   6.146   5.761
10854SOL    HW133461   4.113   6.109   5.854
10854SOL    HW233462   4.182   6.098   5.706
10855SOL     OW33463   3.511   1.137   0.211
10855SOL    HW133464   3.597   1.118   0.257
10855SOL    HW233465   3.445   1.174   0.277
10856SOL     OW33466   0.417   0.973   0.214
10856SOL    HW133467   0.375   1.062   0.196
10856SOL    HW233468   0.347   0.902   0.207
10857SOL     OW33469   6.150   2.283   2.726
10857SOL    HW133470   6.098   2.364   2.700
10857SOL    HW233471   6.237   2.281   2.675
10858SOL     OW33472   2.862   6.046   1.558
10858SOL    HW133473   2.803   6.012   1.631
10858SOL    HW233474   2.955   6.058   1.592
10859SOL     OW33475   1.506   5.560   3.385
10859SOL    HW133476   1.483   5.610   3.469
10859SOL    HW233477   1.577   5.493   3.405
10860SOL     OW33478   6.936   2.158   3.217
10860SOL    HW133479   6.899   2.236   3.269
10860SOL    HW233480   6.861   2.097   3.192
10861SOL     OW33481   3.887   3.134   4.173
10861SOL    HW133482   3.878   3.079   4.090
10861SOL    HW233483   3.895   3.074   4.252
10862SOL     OW33484   1.414   0.573   4.522
10862SOL    HW133485   1.361   0.658   4.520
10862SOL    HW233486   1.406   0.527   4.434
10863SOL     OW33487   3.023   5.602   4.512
10863SOL    HW133488   2.948   5.579   4.574
10863SOL    HW233489   3.106   5.555   4.542
10864SOL     OW33490   3.215   6.159   2.709
10864SOL    HW133491   3.172   6.098   2.642
10864SOL    HW233492   3.258   6.105   2.781
10865SOL     OW33493   6.348   2.071   6.286
10865SOL    HW133494   6.336   2.170   6.299
10865SOL    HW233495   6.332   2.024   6.373
10866SOL     OW33496   5.564   4.889   0.535
10866SOL    HW133497   5.549   4.869   0.438
10866SOL    HW233498   5.570   4.988   0.548
10867SOL     OW33499   3.459   2.832   0.313
10867SOL    HW133500   3.496   2.910   0.263
10867SOL    HW233501   3.382   2.863   0.370
10868SOL     OW33502   3.184   1.787   2.855
10868SOL    HW133503   3.084   1.780   2.850
10868SOL    HW233504   3.216   1.857   2.791
10869NA      NA33505   6.564   2.149   5.647
10870NA      NA33506   4.316   4.642   5.260
10871NA      NA33507   2.162   3.507   1.432
10872NA      NA33508   4.828   3.655   5.298
10873NA      NA33509   4.193   2.335   5.290
10874NA      NA33510   3.670   4.610   1.652
10875NA      NA33511   6.788   5.716   5.806
10876NA      NA33512   4.008   3.561   5.122
10877NA      NA33513   4.595   6.833   6.979
10878NA      NA33514   3.639   6.956   5.141
10879NA      NA33515   6.431   4.814   2.534
10880NA      NA33516   2.336   0.776   3.203
10881NA      NA33517   3.441   4.454   0.870
10882NA      NA33518   3.586   3.691   2.892
   7.02481   7.02481   7.02481
