Generated by trjconv : CNT in water t= 575.00000
33518
    1C        C    1   2.845   2.774   4.749
    1C        C    2   2.900   2.726   4.870
    1C        C    3   2.849   2.782   4.988
    1C        C    4   2.851   2.782   4.263
    1C        C    5   2.907   2.738   4.384
    1C        C    6   2.851   2.780   4.507
    1C        C    7   3.013   2.643   4.628
    1C        C    8   2.898   2.725   4.628
    1C        C    9   3.080   2.610   4.749
    1C        C   10   3.013   2.641   4.869
    1C        C   11   3.182   2.502   4.978
    1C        C   12   3.059   2.569   4.980
    1C        C   13   2.858   2.779   3.773
    1C        C   14   2.907   2.733   3.897
    1C        C   15   2.853   2.778   4.019
    1C        C   16   3.022   2.652   4.141
    1C        C   17   2.906   2.734   4.142
    1C        C   18   3.085   2.619   4.263
    1C        C   19   3.021   2.655   4.384
    1C        C   20   3.211   2.564   4.507
    1C        C   21   3.079   2.614   4.507
    1C        C   22   3.283   2.544   4.627
    1C        C   23   3.210   2.554   4.748
    1C        C   24   3.414   2.487   4.867
    1C        C   25   3.272   2.508   4.867
    1C        C   26   3.493   2.478   4.983
    1C        C   27   2.858   2.781   3.284
    1C        C   28   2.907   2.731   3.406
    1C        C   29   2.851   2.775   3.529
    1C        C   30   3.023   2.650   3.653
    1C        C   31   2.905   2.727   3.651
    1C        C   32   3.084   2.614   3.775
    1C        C   33   3.019   2.646   3.896
    1C        C   34   3.214   2.564   4.019
    1C        C   35   3.083   2.617   4.019
    1C        C   36   3.283   2.545   4.141
    1C        C   37   3.217   2.568   4.263
    1C        C   38   3.419   2.514   4.384
    1C        C   39   3.281   2.543   4.386
    1C        C   40   3.490   2.504   4.506
    1C        C   41   3.420   2.511   4.628
    1C        C   42   3.634   2.487   4.748
    1C        C   43   3.492   2.488   4.748
    1C        C   44   3.710   2.488   4.867
    1C        C   45   3.632   2.480   4.984
    1C        C   46   2.841   2.756   2.795
    1C        C   47   2.896   2.715   2.918
    1C        C   48   2.851   2.771   3.041
    1C        C   49   3.024   2.646   3.164
    1C        C   50   2.910   2.729   3.163
    1C        C   51   3.084   2.612   3.287
    1C        C   52   3.024   2.652   3.408
    1C        C   53   3.215   2.561   3.528
    1C        C   54   3.085   2.617   3.530
    1C        C   55   3.280   2.536   3.651
    1C        C   56   3.215   2.561   3.774
    1C        C   57   3.418   2.506   3.897
    1C        C   58   3.280   2.538   3.897
    1C        C   59   3.489   2.502   4.019
    1C        C   60   3.421   2.515   4.142
    1C        C   61   3.633   2.501   4.261
    1C        C   62   3.492   2.505   4.264
    1C        C   63   3.704   2.505   4.383
    1C        C   64   3.631   2.498   4.504
    1C        C   65   3.839   2.541   4.625
    1C        C   66   3.703   2.503   4.626
    1C        C   67   3.909   2.562   4.745
    1C        C   68   3.846   2.526   4.866
    1C        C   69   4.054   2.586   4.982
    1C        C   70   3.930   2.522   4.978
    1C        C   71   2.829   2.741   2.309
    1C        C   72   2.888   2.701   2.431
    1C        C   73   2.832   2.749   2.552
    1C        C   74   3.014   2.635   2.677
    1C        C   75   2.892   2.706   2.673
    1C        C   76   3.079   2.603   2.798
    1C        C   77   3.014   2.639   2.919
    1C        C   78   3.210   2.553   3.041
    1C        C   79   3.078   2.605   3.040
    1C        C   80   3.277   2.529   3.163
    1C        C   81   3.210   2.549   3.286
    1C        C   82   3.420   2.503   3.405
    1C        C   83   3.281   2.531   3.407
    1C        C   84   3.487   2.494   3.530
    1C        C   85   3.418   2.503   3.653
    1C        C   86   3.630   2.499   3.771
    1C        C   87   3.488   2.495   3.775
    1C        C   88   3.700   2.509   3.894
    1C        C   89   3.630   2.506   4.017
    1C        C   90   3.839   2.548   4.140
    1C        C   91   3.701   2.515   4.138
    1C        C   92   3.906   2.569   4.262
    1C        C   93   3.840   2.544   4.385
    1C        C   94   4.037   2.629   4.503
    1C        C   95   3.910   2.566   4.505
    1C        C   96   4.094   2.670   4.625
    1C        C   97   4.036   2.627   4.746
    1C        C   98   4.191   2.769   4.864
    1C        C   99   4.102   2.657   4.868
    1C        C  100   4.217   2.845   4.979
    1C        C  101   2.822   2.735   2.074
    1C        C  102   2.996   2.597   2.195
    1C        C  103   2.883   2.684   2.190
    1C        C  104   3.069   2.581   2.316
    1C        C  105   3.006   2.623   2.435
    1C        C  106   3.203   2.539   2.555
    1C        C  107   3.075   2.597   2.555
    1C        C  108   3.274   2.521   2.675
    1C        C  109   3.206   2.541   2.798
    1C        C  110   3.416   2.505   2.918
    1C        C  111   3.276   2.527   2.919
    1C        C  112   3.487   2.495   3.040
    1C        C  113   3.416   2.504   3.162
    1C        C  114   3.630   2.499   3.283
    1C        C  115   3.489   2.496   3.282
    1C        C  116   3.697   2.507   3.407
    1C        C  117   3.628   2.495   3.529
    1C        C  118   3.838   2.540   3.648
    1C        C  119   3.701   2.505   3.650
    1C        C  120   3.903   2.562   3.772
    1C        C  121   3.837   2.541   3.895
    1C        C  122   4.030   2.631   4.017
    1C        C  123   3.905   2.566   4.017
    1C        C  124   4.089   2.677   4.137
    1C        C  125   4.031   2.635   4.259
    1C        C  126   4.201   2.762   4.378
    1C        C  127   4.094   2.670   4.380
    1C        C  128   4.244   2.819   4.499
    1C        C  129   4.198   2.766   4.622
    1C        C  130   4.324   2.941   4.744
    1C        C  131   4.240   2.826   4.743
    1C        C  132   4.360   3.006   4.864
    1C        C  133   4.292   2.963   4.978
    1C        C  134   3.176   2.471   2.087
    1C        C  135   3.042   2.515   2.087
    1C        C  136   3.263   2.481   2.196
    1C        C  137   3.200   2.526   2.314
    1C        C  138   3.411   2.487   2.431
    1C        C  139   3.273   2.512   2.434
    1C        C  140   3.484   2.490   2.552
    1C        C  141   3.414   2.499   2.675
    1C        C  142   3.627   2.495   2.795
    1C        C  143   3.485   2.491   2.796
    1C        C  144   3.699   2.502   2.917
    1C        C  145   3.628   2.495   3.039
    1C        C  146   3.838   2.534   3.162
    1C        C  147   3.701   2.500   3.160
    1C        C  148   3.905   2.562   3.283
    1C        C  149   3.834   2.542   3.404
    1C        C  150   4.032   2.623   3.528
    1C        C  151   3.903   2.565   3.525
    1C        C  152   4.090   2.663   3.651
    1C        C  153   4.028   2.628   3.773
    1C        C  154   4.194   2.763   3.890
    1C        C  155   4.085   2.673   3.894
    1C        C  156   4.247   2.813   4.011
    1C        C  157   4.198   2.767   4.135
    1C        C  158   4.340   2.926   4.254
    1C        C  159   4.252   2.815   4.257
    1C        C  160   4.375   2.985   4.378
    1C        C  161   4.326   2.935   4.500
    1C        C  162   4.438   3.117   4.619
    1C        C  163   4.365   2.997   4.621
    1C        C  164   4.471   3.187   4.737
    1C        C  165   4.436   3.125   4.860
    1C        C  166   4.513   3.323   4.972
    1C        C  167   4.484   3.187   4.976
    1C        C  168   3.478   2.438   2.077
    1C        C  169   3.402   2.454   2.194
    1C        C  170   3.623   2.465   2.310
    1C        C  171   3.481   2.462   2.311
    1C        C  172   3.698   2.487   2.429
    1C        C  173   3.625   2.492   2.549
    1C        C  174   3.832   2.534   2.672
    1C        C  175   3.695   2.500   2.672
    1C        C  176   3.903   2.550   2.794
    1C        C  177   3.837   2.530   2.917
    1C        C  178   4.030   2.620   3.036
    1C        C  179   3.904   2.557   3.038
    1C        C  180   4.089   2.661   3.158
    1C        C  181   4.032   2.624   3.282
    1C        C  182   4.205   2.741   3.399
    1C        C  183   4.095   2.652   3.406
    1C        C  184   4.249   2.797   3.521
    1C        C  185   4.199   2.754   3.646
    1C        C  186   4.336   2.918   3.766
    1C        C  187   4.246   2.809   3.767
    1C        C  188   4.375   2.981   3.886
    1C        C  189   4.335   2.924   4.008
    1C        C  190   4.444   3.105   4.129
    1C        C  191   4.380   2.979   4.130
    1C        C  192   4.468   3.174   4.250
    1C        C  193   4.439   3.111   4.373
    1C        C  194   4.504   3.315   4.491
    1C        C  195   4.463   3.180   4.494
    1C        C  196   4.524   3.387   4.611
    1C        C  197   4.513   3.322   4.736
    1C        C  198   4.557   3.538   4.850
    1C        C  199   4.531   3.398   4.855
    1C        C  200   4.586   3.622   4.962
    1C        C  201   3.617   2.420   2.078
    1C        C  202   3.830   2.514   2.187
    1C        C  203   3.696   2.466   2.188
    1C        C  204   3.904   2.537   2.307
    1C        C  205   3.837   2.511   2.428
    1C        C  206   4.023   2.618   2.549
    1C        C  207   3.900   2.548   2.549
    1C        C  208   4.084   2.657   2.670
    1C        C  209   4.024   2.623   2.793
    1C        C  210   4.193   2.754   2.909
    1C        C  211   4.087   2.661   2.913
    1C        C  212   4.247   2.800   3.031
    1C        C  213   4.201   2.746   3.154
    1C        C  214   4.337   2.906   3.276
    1C        C  215   4.253   2.793   3.277
    1C        C  216   4.369   2.971   3.398
    1C        C  217   4.332   2.911   3.521
    1C        C  218   4.427   3.104   3.637
    1C        C  219   4.372   2.974   3.641
    1C        C  220   4.452   3.171   3.759
    1C        C  221   4.437   3.108   3.885
    1C        C  222   4.497   3.311   4.005
    1C        C  223   4.466   3.173   4.007
    1C        C  224   4.510   3.383   4.126
    1C        C  225   4.502   3.311   4.248
    1C        C  226   4.522   3.526   4.369
    1C        C  227   4.513   3.385   4.368
    1C        C  228   4.523   3.598   4.490
    1C        C  229   4.535   3.528   4.612
    1C        C  230   4.511   3.748   4.726
    1C        C  231   4.540   3.609   4.727
    1C        C  232   4.503   3.824   4.845
    1C        C  233   4.555   3.759   4.957
    1C        C  234   4.022   2.609   2.065
    1C        C  235   3.902   2.539   2.069
    1C        C  236   4.084   2.651   2.184
    1C        C  237   4.028   2.607   2.306
    1C        C  238   4.196   2.741   2.423
    1C        C  239   4.085   2.652   2.427
    1C        C  240   4.254   2.787   2.543
    1C        C  241   4.198   2.741   2.664
    1C        C  242   4.336   2.906   2.787
    1C        C  243   4.244   2.799   2.785
    1C        C  244   4.374   2.965   2.909
    1C        C  245   4.336   2.910   3.033
    1C        C  246   4.433   3.096   3.153
    1C        C  247   4.379   2.966   3.155
    1C        C  248   4.449   3.168   3.274
    1C        C  249   4.426   3.100   3.395
    1C        C  250   4.490   3.306   3.517
    1C        C  251   4.455   3.169   3.515
    1C        C  252   4.503   3.376   3.639
    1C        C  253   4.489   3.307   3.762
    1C        C  254   4.517   3.520   3.879
    1C        C  255   4.508   3.379   3.882
    1C        C  256   4.517   3.594   3.999
    1C        C  257   4.519   3.524   4.122
    1C        C  258   4.498   3.732   4.243
    1C        C  259   4.520   3.593   4.245
    1C        C  260   4.483   3.806   4.363
    1C        C  261   4.501   3.738   4.485
    1C        C  262   4.429   3.943   4.604
    1C        C  263   4.479   3.810   4.604
    1C        C  264   4.405   4.013   4.724
    1C        C  265   4.440   3.951   4.846
    1C        C  266   4.328   4.138   4.960
    1C        C  267   4.403   4.020   4.961
    1C        C  268   4.264   2.776   2.065
    1C        C  269   4.199   2.733   2.181
    1C        C  270   4.344   2.893   2.301
    1C        C  271   4.253   2.783   2.301
    1C        C  272   4.383   2.956   2.421
    1C        C  273   4.346   2.895   2.542
    1C        C  274   4.444   3.085   2.663
    1C        C  275   4.379   2.960   2.663
    1C        C  276   4.466   3.154   2.784
    1C        C  277   4.437   3.092   2.908
    1C        C  278   4.501   3.295   3.027
    1C        C  279   4.463   3.159   3.030
    1C        C  280   4.511   3.370   3.146
    1C        C  281   4.489   3.303   3.269
    1C        C  282   4.510   3.513   3.392
    1C        C  283   4.499   3.372   3.392
    1C        C  284   4.512   3.587   3.512
    1C        C  285   4.515   3.517   3.635
    1C        C  286   4.493   3.730   3.756
    1C        C  287   4.512   3.590   3.756
    1C        C  288   4.477   3.800   3.877
    1C        C  289   4.493   3.734   4.001
    1C        C  290   4.432   3.937   4.120
    1C        C  291   4.478   3.803   4.123
    1C        C  292   4.402   4.004   4.241
    1C        C  293   4.430   3.937   4.362
    1C        C  294   4.333   4.130   4.480
    1C        C  295   4.400   4.007   4.481
    1C        C  296   4.291   4.191   4.601
    1C        C  297   4.335   4.137   4.723
    1C        C  298   4.201   4.315   4.840
    1C        C  299   4.288   4.201   4.841
    1C        C  300   4.174   4.406   4.947
    1C        C  301   4.360   2.877   2.066
    1C        C  302   4.471   3.070   2.180
    1C        C  303   4.398   2.947   2.181
    1C        C  304   4.488   3.144   2.300
    1C        C  305   4.449   3.081   2.421
    1C        C  306   4.508   3.287   2.540
    1C        C  307   4.475   3.150   2.542
    1C        C  308   4.518   3.360   2.660
    1C        C  309   4.501   3.291   2.783
    1C        C  310   4.527   3.503   2.902
    1C        C  311   4.519   3.362   2.904
    1C        C  312   4.519   3.578   3.022
    1C        C  313   4.517   3.511   3.146
    1C        C  314   4.492   3.721   3.268
    1C        C  315   4.513   3.581   3.268
    1C        C  316   4.476   3.791   3.389
    1C        C  317   4.496   3.727   3.513
    1C        C  318   4.427   3.930   3.631
    1C        C  319   4.480   3.799   3.634
    1C        C  320   4.397   3.994   3.753
    1C        C  321   4.431   3.934   3.876
    1C        C  322   4.323   4.118   3.993
    1C        C  323   4.399   3.999   3.997
    1C        C  324   4.282   4.177   4.115
    1C        C  325   4.325   4.122   4.238
    1C        C  326   4.190   4.288   4.356
    1C        C  327   4.288   4.186   4.359
    1C        C  328   4.138   4.339   4.477
    1C        C  329   4.193   4.294   4.599
    1C        C  330   4.023   4.432   4.718
    1C        C  331   4.136   4.345   4.717
    1C        C  332   3.969   4.491   4.834
    1C        C  333   4.053   4.476   4.946
    1C        C  334   4.551   3.272   2.060
    1C        C  335   4.530   3.133   2.066
    1C        C  336   4.537   3.352   2.174
    1C        C  337   4.515   3.284   2.296
    1C        C  338   4.526   3.497   2.413
    1C        C  339   4.520   3.356   2.417
    1C        C  340   4.521   3.570   2.534
    1C        C  341   4.521   3.501   2.657
    1C        C  342   4.499   3.711   2.777
    1C        C  343   4.522   3.572   2.779
    1C        C  344   4.483   3.783   2.898
    1C        C  345   4.500   3.718   3.022
    1C        C  346   4.431   3.920   3.140
    1C        C  347   4.479   3.787   3.144
    1C        C  348   4.403   3.987   3.261
    1C        C  349   4.432   3.926   3.384
    1C        C  350   4.324   4.109   3.505
    1C        C  351   4.403   3.992   3.506
    1C        C  352   4.280   4.170   3.625
    1C        C  353   4.322   4.114   3.748
    1C        C  354   4.178   4.269   3.869
    1C        C  355   4.277   4.169   3.870
    1C        C  356   4.126   4.319   3.991
    1C        C  357   4.178   4.273   4.113
    1C        C  358   4.011   4.404   4.234
    1C        C  359   4.126   4.323   4.235
    1C        C  360   3.953   4.446   4.356
    1C        C  361   4.019   4.415   4.477
    1C        C  362   3.830   4.518   4.596
    1C        C  363   3.960   4.464   4.596
    1C        C  364   3.764   4.548   4.717
    1C        C  365   3.837   4.541   4.837
    1C        C  366   3.632   4.596   4.954
    1C        C  367   3.769   4.572   4.956
    1C        C  368   4.514   3.567   2.054
    1C        C  369   4.531   3.493   2.172
    1C        C  370   4.499   3.708   2.290
    1C        C  371   4.518   3.568   2.291
    1C        C  372   4.489   3.779   2.412
    1C        C  373   4.507   3.711   2.534
    1C        C  374   4.435   3.912   2.653
    1C        C  375   4.484   3.780   2.655
    1C        C  376   4.403   3.978   2.774
    1C        C  377   4.436   3.916   2.896
    1C        C  378   4.327   4.102   3.015
    1C        C  379   4.405   3.984   3.017
    1C        C  380   4.280   4.158   3.135
    1C        C  381   4.322   4.103   3.258
    1C        C  382   4.178   4.258   3.379
    1C        C  383   4.277   4.157   3.381
    1C        C  384   4.126   4.310   3.500
    1C        C  385   4.181   4.270   3.624
    1C        C  386   4.006   4.390   3.744
    1C        C  387   4.123   4.312   3.746
    1C        C  388   3.946   4.428   3.866
    1C        C  389   4.006   4.394   3.990
    1C        C  390   3.817   4.488   4.111
    1C        C  391   3.947   4.433   4.112
    1C        C  392   3.750   4.515   4.233
    1C        C  393   3.824   4.502   4.353
    1C        C  394   3.620   4.560   4.477
    1C        C  395   3.759   4.533   4.474
    1C        C  396   3.548   4.567   4.598
    1C        C  397   3.623   4.561   4.717
    1C        C  398   3.415   4.551   4.842
    1C        C  399   3.555   4.570   4.840
    1C        C  400   3.344   4.518   4.959
    1C        C  401   4.505   3.706   2.053
    1C        C  402   4.457   3.919   2.169
    1C        C  403   4.495   3.783   2.170
    1C        C  404   4.414   3.978   2.290
    1C        C  405   4.443   3.912   2.412
    1C        C  406   4.332   4.098   2.529
    1C        C  407   4.406   3.978   2.531
    1C        C  408   4.284   4.153   2.649
    1C        C  409   4.326   4.097   2.772
    1C        C  410   4.176   4.249   2.890
    1C        C  411   4.279   4.153   2.893
    1C        C  412   4.124   4.298   3.012
    1C        C  413   4.176   4.254   3.136
    1C        C  414   4.005   4.381   3.256
    1C        C  415   4.124   4.304   3.257
    1C        C  416   3.943   4.417   3.378
    1C        C  417   4.005   4.382   3.500
    1C        C  418   3.813   4.476   3.623
    1C        C  419   3.941   4.418   3.621
    1C        C  420   3.748   4.506   3.745
    1C        C  421   3.817   4.485   3.866
    1C        C  422   3.613   4.542   3.990
    1C        C  423   3.751   4.510   3.989
    1C        C  424   3.543   4.551   4.112
    1C        C  425   3.613   4.547   4.235
    1C        C  426   3.405   4.559   4.359
    1C        C  427   3.546   4.569   4.357
    1C        C  428   3.334   4.550   4.481
    1C        C  429   3.407   4.558   4.601
    1C        C  430   3.198   4.521   4.724
    1C        C  431   3.338   4.550   4.724
    1C        C  432   3.129   4.498   4.845
    1C        C  433   3.207   4.499   4.962
    1C        C  434   4.384   4.123   2.054
    1C        C  435   4.459   4.004   2.059
    1C        C  436   4.306   4.167   2.166
    1C        C  437   4.335   4.096   2.286
    1C        C  438   4.187   4.250   2.403
    1C        C  439   4.292   4.156   2.406
    1C        C  440   4.128   4.293   2.524
    1C        C  441   4.182   4.251   2.648
    1C        C  442   4.005   4.375   2.766
    1C        C  443   4.123   4.297   2.768
    1C        C  444   3.945   4.412   2.889
    1C        C  445   4.008   4.378   3.011
    1C        C  446   3.815   4.470   3.130
    1C        C  447   3.945   4.413   3.132
    1C        C  448   3.748   4.495   3.252
    1C        C  449   3.814   4.475   3.375
    1C        C  450   3.612   4.531   3.498
    1C        C  451   3.748   4.496   3.498
    1C        C  452   3.544   4.546   3.621
    1C        C  453   3.611   4.539   3.745
    1C        C  454   3.401   4.548   3.866
    1C        C  455   3.542   4.550   3.868
    1C        C  456   3.333   4.542   3.990
    1C        C  457   3.402   4.549   4.113
    1C        C  458   3.198   4.508   4.240
    1C        C  459   3.335   4.543   4.237
    1C        C  460   3.128   4.490   4.362
    1C        C  461   3.197   4.515   4.483
    1C        C  462   2.999   4.439   4.605
    1C        C  463   3.126   4.500   4.604
    1C        C  464   2.933   4.407   4.726
    1C        C  465   2.994   4.449   4.847
    1C        C  466   2.810   4.335   4.962
    1C        C  467   2.910   4.433   4.962
    1C        C  468   4.127   4.285   2.043
    1C        C  469   4.191   4.252   2.163
    1C        C  470   4.013   4.378   2.282
    1C        C  471   4.129   4.295   2.282
    1C        C  472   3.943   4.403   2.402
    1C        C  473   4.008   4.368   2.523
    1C        C  474   3.816   4.465   2.644
    1C        C  475   3.944   4.406   2.643
    1C        C  476   3.748   4.491   2.765
    1C        C  477   3.815   4.467   2.887
    1C        C  478   3.609   4.522   3.010
    1C        C  479   3.747   4.493   3.008
    1C        C  480   3.539   4.530   3.133
    1C        C  481   3.611   4.527   3.255
    1C        C  482   3.399   4.534   3.381
    1C        C  483   3.540   4.538   3.376
    1C        C  484   3.329   4.535   3.504
    1C        C  485   3.402   4.548   3.623
    1C        C  486   3.193   4.508   3.748
    1C        C  487   3.330   4.541   3.745
    1C        C  488   3.130   4.483   3.872
    1C        C  489   3.196   4.506   3.995
    1C        C  490   3.007   4.416   4.118
    1C        C  491   3.132   4.481   4.118
    1C        C  492   2.940   4.389   4.240
    1C        C  493   3.002   4.426   4.361
    1C        C  494   2.831   4.308   4.486
    1C        C  495   2.939   4.399   4.484
    1C        C  496   2.775   4.262   4.607
    1C        C  497   2.823   4.317   4.728
    1C        C  498   2.668   4.167   4.845
    1C        C  499   2.756   4.278   4.846
    1C        C  500   2.600   4.119   4.957
    1C        C  501   4.007   4.355   2.046
    1C        C  502   3.817   4.465   2.158
    1C        C  503   3.945   4.405   2.161
    1C        C  504   3.746   4.480   2.279
    1C        C  505   3.809   4.448   2.401
    1C        C  506   3.606   4.508   2.522
    1C        C  507   3.744   4.478   2.523
    1C        C  508   3.537   4.524   2.645
    1C        C  509   3.610   4.516   2.766
    1C        C  510   3.397   4.526   2.889
    1C        C  511   3.538   4.525   2.888
    1C        C  512   3.327   4.527   3.012
    1C        C  513   3.398   4.534   3.135
    1C        C  514   3.191   4.499   3.257
    1C        C  515   3.330   4.528   3.258
    1C        C  516   3.125   4.475   3.379
    1C        C  517   3.191   4.503   3.501
    1C        C  518   3.004   4.413   3.629
    1C        C  519   3.128   4.482   3.626
    1C        C  520   2.946   4.372   3.751
    1C        C  521   3.006   4.415   3.871
    1C        C  522   2.843   4.284   4.001
    1C        C  523   2.952   4.374   3.995
    1C        C  524   2.794   4.236   4.124
    1C        C  525   2.835   4.295   4.246
    1C        C  526   2.699   4.134   4.370
    1C        C  527   2.782   4.248   4.368
    1C        C  528   2.658   4.074   4.491
    1C        C  529   2.694   4.146   4.607
    1C        C  530   2.587   3.962   4.734
    1C        C  531   2.646   4.091   4.728
    1C        C  532   2.540   3.904   4.855
    1C        C  533   2.532   3.997   4.964
    1C        C  534   3.618   4.556   2.039
    1C        C  535   3.752   4.516   2.045
    1C        C  536   3.540   4.531   2.156
    1C        C  537   3.607   4.508   2.279
    1C        C  538   3.394   4.522   2.403
    1C        C  539   3.536   4.522   2.401
    1C        C  540   3.322   4.515   2.524
    1C        C  541   3.396   4.521   2.645
    1C        C  542   3.187   4.490   2.769
    1C        C  543   3.326   4.516   2.768
    1C        C  544   3.123   4.467   2.892
    1C        C  545   3.192   4.488   3.013
    1C        C  546   2.997   4.408   3.138
    1C        C  547   3.123   4.473   3.136
    1C        C  548   2.941   4.370   3.261
    1C        C  549   3.000   4.410   3.383
    1C        C  550   2.836   4.282   3.509
    1C        C  551   2.942   4.376   3.508
    1C        C  552   2.787   4.231   3.632
    1C        C  553   2.838   4.281   3.753
    1C        C  554   2.706   4.124   3.879
    1C        C  555   2.788   4.239   3.879
    1C        C  556   2.672   4.062   4.001
    1C        C  557   2.708   4.123   4.123
    1C        C  558   2.603   3.946   4.249
    1C        C  559   2.663   4.074   4.247
    1C        C  560   2.575   3.880   4.370
    1C        C  561   2.596   3.947   4.493
    1C        C  562   2.533   3.748   4.620
    1C        C  563   2.566   3.886   4.616
    1C        C  564   2.517   3.682   4.743
    1C        C  565   2.527   3.762   4.861
    1C        C  566   2.532   3.546   4.984
    1C        C  567   2.529   3.685   4.978
    1C        C  568   3.329   4.477   2.043
    1C        C  569   3.400   4.508   2.160
    1C        C  570   3.186   4.476   2.281
    1C        C  571   3.325   4.506   2.281
    1C        C  572   3.116   4.461   2.403
    1C        C  573   3.183   4.489   2.524
    1C        C  574   2.993   4.404   2.650
    1C        C  575   3.117   4.471   2.647
    1C        C  576   2.935   4.364   2.772
    1C        C  577   2.999   4.399   2.893
    1C        C  578   2.826   4.280   3.018
    1C        C  579   2.937   4.367   3.017
    1C        C  580   2.783   4.228   3.142
    1C        C  581   2.835   4.277   3.264
    1C        C  582   2.705   4.114   3.390
    1C        C  583   2.788   4.228   3.388
    1C        C  584   2.665   4.058   3.513
    1C        C  585   2.698   4.122   3.635
    1C        C  586   2.600   3.937   3.759
    1C        C  587   2.661   4.064   3.759
    1C        C  588   2.576   3.872   3.882
    1C        C  589   2.606   3.937   4.004
    1C        C  590   2.543   3.739   4.132
    1C        C  591   2.580   3.876   4.129
    1C        C  592   2.526   3.673   4.255
    1C        C  593   2.539   3.743   4.377
    1C        C  594   2.512   3.534   4.501
    1C        C  595   2.523   3.675   4.499
    1C        C  596   2.521   3.466   4.624
    1C        C  597   2.519   3.540   4.745
    1C        C  598   2.532   3.329   4.867
    1C        C  599   2.523   3.470   4.867
    1C        C  600   2.536   3.252   4.984
    1C        C  601   3.198   4.435   2.044
    1C        C  602   2.984   4.397   2.161
    1C        C  603   3.120   4.441   2.160
    1C        C  604   2.922   4.366   2.285
    1C        C  605   2.987   4.403   2.405
    1C        C  606   2.826   4.270   2.530
    1C        C  607   2.934   4.362   2.529
    1C        C  608   2.774   4.224   2.653
    1C        C  609   2.824   4.277   2.774
    1C        C  610   2.692   4.113   2.898
    1C        C  611   2.774   4.229   2.897
    1C        C  612   2.657   4.056   3.022
    1C        C  613   2.699   4.115   3.144
    1C        C  614   2.600   3.930   3.268
    1C        C  615   2.665   4.055   3.267
    1C        C  616   2.574   3.868   3.393
    1C        C  617   2.601   3.932   3.516
    1C        C  618   2.536   3.731   3.640
    1C        C  619   2.574   3.867   3.639
    1C        C  620   2.522   3.664   3.764
    1C        C  621   2.541   3.735   3.884
    1C        C  622   2.514   3.529   4.009
    1C        C  623   2.532   3.670   4.009
    1C        C  624   2.513   3.461   4.133
    1C        C  625   2.510   3.532   4.255
    1C        C  626   2.537   3.325   4.382
    1C        C  627   2.513   3.464   4.378
    1C        C  628   2.553   3.255   4.503
    1C        C  629   2.535   3.326   4.624
    1C        C  630   2.596   3.123   4.748
    1C        C  631   2.547   3.257   4.747
    1C        C  632   2.617   3.053   4.870
    1C        C  633   2.561   3.114   4.987
    1C        C  634   2.782   4.310   2.057
    1C        C  635   2.893   4.395   2.050
    1C        C  636   2.755   4.231   2.170
    1C        C  637   2.811   4.276   2.291
    1C        C  638   2.677   4.111   2.411
    1C        C  639   2.763   4.224   2.412
    1C        C  640   2.644   4.053   2.535
    1C        C  641   2.688   4.111   2.656
    1C        C  642   2.588   3.924   2.780
    1C        C  643   2.654   4.049   2.778
    1C        C  644   2.560   3.862   2.904
    1C        C  645   2.593   3.930   3.023
    1C        C  646   2.532   3.729   3.151
    1C        C  647   2.571   3.865   3.146
    1C        C  648   2.516   3.662   3.274
    1C        C  649   2.534   3.733   3.395
    1C        C  650   2.515   3.521   3.519
    1C        C  651   2.524   3.662   3.517
    1C        C  652   2.514   3.454   3.643
    1C        C  653   2.511   3.524   3.766
    1C        C  654   2.530   3.316   3.892
    1C        C  655   2.506   3.455   3.890
    1C        C  656   2.553   3.251   4.016
    1C        C  657   2.542   3.323   4.137
    1C        C  658   2.603   3.122   4.262
    1C        C  659   2.554   3.254   4.260
    1C        C  660   2.633   3.057   4.384
    1C        C  661   2.600   3.121   4.505
    1C        C  662   2.707   2.940   4.628
    1C        C  663   2.625   3.055   4.628
    1C        C  664   2.750   2.880   4.748
    1C        C  665   2.700   2.936   4.869
    1C        C  666   2.746   2.876   4.987
    1C        C  667   2.685   4.027   2.053
    1C        C  668   2.687   4.107   2.168
    1C        C  669   2.593   3.916   2.293
    1C        C  670   2.643   4.049   2.289
    1C        C  671   2.566   3.854   2.416
    1C        C  672   2.588   3.923   2.537
    1C        C  673   2.519   3.721   2.659
    1C        C  674   2.561   3.857   2.659
    1C        C  675   2.512   3.654   2.783
    1C        C  676   2.531   3.724   2.904
    1C        C  677   2.513   3.517   3.032
    1C        C  678   2.523   3.658   3.029
    1C        C  679   2.514   3.448   3.155
    1C        C  680   2.511   3.521   3.276
    1C        C  681   2.528   3.309   3.401
    1C        C  682   2.512   3.450   3.398
    1C        C  683   2.551   3.244   3.524
    1C        C  684   2.533   3.314   3.646
    1C        C  685   2.601   3.118   3.770
    1C        C  686   2.545   3.247   3.770
    1C        C  687   2.638   3.061   3.894
    1C        C  688   2.602   3.119   4.018
    1C        C  689   2.711   2.939   4.139
    1C        C  690   2.632   3.055   4.140
    1C        C  691   2.755   2.886   4.262
    1C        C  692   2.712   2.940   4.385
    1C        C  693   2.754   2.883   4.507
    1C        C  694   2.630   3.898   2.057
    1C        C  695   2.540   3.704   2.175
    1C        C  696   2.585   3.838   2.175
    1C        C  697   2.516   3.642   2.300
    1C        C  698   2.519   3.720   2.417
    1C        C  699   2.493   3.510   2.545
    1C        C  700   2.499   3.651   2.538
    1C        C  701   2.501   3.439   2.667
    1C        C  702   2.501   3.513   2.787
    1C        C  703   2.528   3.305   2.913
    1C        C  704   2.509   3.445   2.910
    1C        C  705   2.545   3.237   3.036
    1C        C  706   2.531   3.308   3.157
    1C        C  707   2.599   3.109   3.280
    1C        C  708   2.546   3.239   3.280
    1C        C  709   2.631   3.048   3.403
    1C        C  710   2.602   3.112   3.526
    1C        C  711   2.715   2.936   3.654
    1C        C  712   2.635   3.052   3.650
    1C        C  713   2.765   2.886   3.776
    1C        C  714   2.719   2.944   3.896
    1C        C  715   2.762   2.887   4.018
    1C        C  716   2.455   3.501   2.064
    1C        C  717   2.495   3.636   2.061
    1C        C  718   2.472   3.426   2.184
    1C        C  719   2.492   3.502   2.303
    1C        C  720   2.515   3.294   2.426
    1C        C  721   2.490   3.433   2.426
    1C        C  722   2.540   3.228   2.548
    1C        C  723   2.527   3.300   2.669
    1C        C  724   2.594   3.101   2.792
    1C        C  725   2.546   3.234   2.793
    1C        C  726   2.629   3.040   2.914
    1C        C  727   2.597   3.105   3.035
    1C        C  728   2.708   2.926   3.160
    1C        C  729   2.626   3.042   3.158
    1C        C  730   2.759   2.882   3.284
    1C        C  731   2.713   2.934   3.408
    1C        C  732   2.756   2.879   3.531
    1C        C  733   2.489   3.198   2.076
    1C        C  734   2.487   3.283   2.186
    1C        C  735   2.583   3.089   2.306
    1C        C  736   2.524   3.218   2.307
    1C        C  737   2.613   3.026   2.429
    1C        C  738   2.593   3.097   2.549
    1C        C  739   2.702   2.916   2.672
    1C        C  740   2.625   3.034   2.671
    1C        C  741   2.744   2.859   2.794
    1C        C  742   2.701   2.918   2.915
    1C        C  743   2.749   2.868   3.039
    1C        C  744   2.540   3.068   2.074
    1C        C  745   2.685   2.900   2.189
    1C        C  746   2.608   3.018   2.186
    1C        C  747   2.730   2.843   2.310
    1C        C  748   2.688   2.906   2.429
    1C        C  749   2.737   2.853   2.550
    1C        C  750   2.733   2.841   2.071
    1C        C  751   3.657   2.311   1.986
    1C        O  752   3.645   2.193   2.026
    1C        O  753   3.651   2.326   1.847
    1C        C  754   4.625   3.063   1.978
    1C        O  755   4.602   3.020   1.862
    1C        O  756   4.741   2.999   2.024
    1C        C  757   4.422   4.215   1.944
    1C        O  758   4.533   4.273   1.954
    1C        O  759   4.387   4.197   1.809
    1C        C  760   3.589   4.667   1.944
    1C        O  761   3.630   4.783   1.968
    1C        O  762   3.579   4.628   1.810
    1C        C  763   2.898   4.485   1.933
    1C        O  764   2.945   4.443   1.825
    1C        O  765   2.798   4.583   1.915
    1C        C  766   2.342   3.473   1.973
    1C        O  767   2.350   3.427   1.856
    1C        O  768   2.211   3.520   1.993
    1C        C  769   4.696   3.583   5.053
    1C        O  770   4.666   3.557   5.173
    1C        O  771   4.833   3.611   5.040
    1C        C  772   4.266   4.471   5.043
    1C        O  773   4.231   4.452   5.162
    1C        O  774   4.334   4.592   5.023
    1C        C  775   4.153   2.543   5.084
    1C        O  776   4.177   2.423   5.113
    1C        O  777   4.168   2.616   5.203
    1C        C  778   2.852   4.555   5.023
    1C        O  779   2.849   4.660   4.953
    1C        O  780   2.879   4.582   5.158
    1C        C  781   2.465   3.043   5.074
    1C        O  782   2.351   3.014   5.031
    1C        O  783   2.495   3.021   5.208
    1C        C  784   2.429   3.982   5.069
    1C        O  785   2.327   4.055   5.079
    1C        O  786   2.457   3.917   5.190
    1C        C  787   2.956   2.417   2.019
    1C        O  788   2.895   2.457   1.916
    1C        O  789   2.871   2.331   2.088
    1C        C  790   3.197   2.415   5.097
    1C        O  791   3.142   2.302   5.095
    1C        O  792   3.231   2.462   5.224
    1C        H  793   4.304   3.012   5.072
    1C        H  794   4.170   2.819   5.071
    1C        H  795   4.529   3.127   5.053
    1C        H  796   4.513   3.369   5.068
    1C        H  797   4.569   3.816   5.046
    1C        H  798   4.394   3.965   5.052
    1C        H  799   4.311   4.190   5.051
    1C        H  800   4.011   4.497   5.042
    1C        H  801   3.820   4.576   5.049
    1C        H  802   3.593   4.633   5.046
    1C        H  803   3.383   4.544   5.055
    1C        H  804   3.157   4.543   5.045
    1C        H  805   3.907   2.455   5.058
    1C        H  806   3.678   2.460   5.078
    1C        H  807   3.010   2.569   5.075
    1C        H  808   3.448   2.423   5.062
    1C        H  809   2.877   2.737   5.081
    1C        H  810   2.693   2.891   5.079
    1C        H  811   2.530   3.298   5.080
    1C        H  812   2.599   3.508   5.059
    1C        H  813   2.551   3.739   5.068
    1C        H  814   2.594   4.180   5.045
    1C        H  815   2.801   4.279   5.053
    1C        H  816   2.698   2.880   1.977
    1C        H  817   2.850   2.697   1.978
    1C        H  818   3.211   2.415   2.003
    1C        H  819   3.437   2.481   1.989
    1C        H  820   3.883   2.477   1.984
    1C        H  821   4.080   2.603   1.975
    1C        H  822   4.225   2.749   1.968
    1C        H  823   4.420   2.887   1.978
    1C        H  824   4.593   3.316   1.972
    1C        H  825   4.477   3.517   1.967
    1C        H  826   4.495   3.756   1.959
    1C        H  827   3.816   4.552   1.967
    1C        H  828   3.945   4.345   1.959
    1C        H  829   4.148   4.226   1.956
    1C        H  830   4.557   4.012   2.018
    1C        H  831   2.689   3.838   1.990
    1C        H  832   2.696   4.071   1.956
    1C        H  833   2.698   4.333   1.995
    1C        H  834   3.349   4.536   1.956
    1C        H  835   3.182   4.351   1.979
    1C        H  836   2.485   2.998   2.016
    1C        H  837   2.410   3.213   2.005
    1C        H  838   2.506   3.678   1.964
    2V3OU   H29  839   2.809   3.557   6.310
    2V3OU   C27  840   2.782   3.505   6.405
    2V3OU   H27  841   2.726   3.569   6.479
    2V3OU   H28  842   2.729   3.406   6.394
    2V3OU   O11  843   2.909   3.482   6.467
    2V3OU   C15  844   2.924   3.396   6.574
    2V3OU   C13  845   3.052   3.382   6.631
    2V3OU   C14  846   3.075   3.278   6.722
    2V3OU   C16  847   2.970   3.195   6.761
    2V3OU    H6  848   2.994   3.113   6.831
    2V3OU   C12  849   3.214   3.232   6.739
    2V3OU    O2  850   3.240   3.128   6.803
    2V3OU   C10  851   3.329   3.310   6.691
    2V3OU    C8  852   3.461   3.271   6.713
    2V3OU   O10  853   3.490   3.155   6.779
    2V3OU   H26  854   3.402   3.118   6.794
    2V3OU    C6  855   3.570   3.353   6.671
    2V3OU    C5  856   3.540   3.470   6.602
    2V3OU    C4  857   3.710   3.302   6.665
    2V3OU    H4  858   3.729   3.230   6.750
    2V3OU    H5  859   3.718   3.236   6.574
    2V3OU    C2  860   3.823   3.405   6.664
    2V3OU    O6  861   3.814   3.475   6.789
    2V3OU   H21  862   3.769   3.557   6.765
    2V3OU    C3  863   3.784   3.498   6.549
    2V3OU    H2  864   3.866   3.575   6.546
    2V3OU    H3  865   3.784   3.443   6.452
    2V3OU   C25  866   3.953   3.329   6.639
    2V3OU    O7  867   3.997   3.295   6.529
    2V3OU   C26  868   4.038   3.291   6.760
    2V3OU   H22  869   4.073   3.384   6.810
    2V3OU   H23  870   4.124   3.227   6.728
    2V3OU    O8  871   3.973   3.210   6.855
    2V3OU   H24  872   3.923   3.271   6.912
    2V3OU    C1  873   3.649   3.566   6.564
    2V3OU    H1  874   3.626   3.621   6.468
    2V3OU    O3  875   3.664   3.658   6.672
    2V3OU   C19  876   3.620   3.793   6.651
    2V3OU    H9  877   3.519   3.808   6.603
    2V3OU    O4  878   3.714   3.848   6.561
    2V3OU   C20  879   3.843   3.877   6.613
    2V3OU   H10  880   3.889   3.776   6.631
    2V3OU   C24  881   3.617   3.861   6.787
    2V3OU   H16  882   3.557   3.793   6.854
    2V3OU   H17  883   3.566   3.961   6.779
    2V3OU   C23  884   3.755   3.884   6.848
    2V3OU   H15  885   3.795   3.780   6.870
    2V3OU    N1  886   3.743   3.961   6.971
    2V3OU   H19  887   3.816   3.933   0.005
    2V3OU   H20  888   3.654   3.937   7.010
    2V3OU   C21  889   3.850   3.953   6.746
    2V3OU   H11  890   3.954   3.933   6.784
    2V3OU    O5  891   3.835   4.095   6.747
    2V3OU   H18  892   3.790   4.111   6.831
    2V3OU   C22  893   3.917   3.955   6.505
    2V3OU   H12  894   3.862   4.051   6.484
    2V3OU   H13  895   3.919   3.891   6.413
    2V3OU   H14  896   4.024   3.964   6.537
    2V3OU   C11  897   3.163   3.470   6.591
    2V3OU    O1  898   3.137   3.585   6.549
    2V3OU    C9  899   3.303   3.428   6.616
    2V3OU    C7  900   3.406   3.507   6.567
    2V3OU    O9  901   3.391   3.618   6.486
    2V3OU   H25  902   3.294   3.620   6.490
    2V3OU   C17  903   2.820   3.315   6.624
    2V3OU    H7  904   2.718   3.353   6.613
    2V3OU   C18  905   2.842   3.209   6.710
    2V3OU    H8  906   2.753   3.152   6.741
    3SOL     OW  907   2.859   3.784   5.131
    3SOL    HW1  908   2.889   3.855   5.067
    3SOL    HW2  909   2.804   3.826   5.203
    4SOL     OW  910   1.413   0.047   0.577
    4SOL    HW1  911   1.395   0.141   0.606
    4SOL    HW2  912   1.331   0.008   0.536
    5SOL     OW  913   4.085   1.978   0.883
    5SOL    HW1  914   4.124   1.985   0.975
    5SOL    HW2  915   4.096   1.884   0.849
    6SOL     OW  916   3.285   1.905   2.132
    6SOL    HW1  917   3.236   1.983   2.169
    6SOL    HW2  918   3.345   1.934   2.058
    7SOL     OW  919   2.319   2.844   4.715
    7SOL    HW1  920   2.230   2.857   4.758
    7SOL    HW2  921   2.389   2.834   4.786
    8SOL     OW  922   1.334   1.641   6.221
    8SOL    HW1  923   1.433   1.650   6.216
    8SOL    HW2  924   1.302   1.669   6.311
    9SOL     OW  925   2.312   2.135   5.682
    9SOL    HW1  926   2.245   2.081   5.732
    9SOL    HW2  927   2.351   2.204   5.743
   10SOL     OW  928   5.421   5.164   0.873
   10SOL    HW1  929   5.390   5.137   0.782
   10SOL    HW2  930   5.413   5.087   0.936
   11SOL     OW  931   3.244   1.318   0.548
   11SOL    HW1  932   3.284   1.371   0.474
   11SOL    HW2  933   3.300   1.237   0.566
   12SOL     OW  934   5.519   5.042   1.220
   12SOL    HW1  935   5.530   5.136   1.188
   12SOL    HW2  936   5.446   5.038   1.289
   13SOL     OW  937   4.125   5.213   1.633
   13SOL    HW1  938   4.029   5.218   1.657
   13SOL    HW2  939   4.169   5.300   1.652
   14SOL     OW  940   4.279   6.096   0.851
   14SOL    HW1  941   4.182   6.069   0.847
   14SOL    HW2  942   4.291   6.184   0.806
   15SOL     OW  943   0.599   0.071   6.687
   15SOL    HW1  944   0.660   0.016   6.745
   15SOL    HW2  945   0.510   0.080   6.731
   16SOL     OW  946   1.921   5.022   5.588
   16SOL    HW1  947   1.952   4.970   5.508
   16SOL    HW2  948   1.890   5.112   5.560
   17SOL     OW  949   0.135   1.948   3.999
   17SOL    HW1  950   0.038   1.929   3.983
   17SOL    HW2  951   0.157   2.040   3.967
   18SOL     OW  952   2.682   6.932   5.370
   18SOL    HW1  953   2.759   6.970   5.420
   18SOL    HW2  954   2.694   6.947   5.272
   19SOL     OW  955   4.212   5.906   3.222
   19SOL    HW1  956   4.288   5.912   3.288
   19SOL    HW2  957   4.212   5.815   3.181
   20SOL     OW  958   0.464   1.897   4.643
   20SOL    HW1  959   0.556   1.870   4.615
   20SOL    HW2  960   0.452   1.995   4.630
   21SOL     OW  961   1.715   3.104   1.630
   21SOL    HW1  962   1.732   3.022   1.575
   21SOL    HW2  963   1.778   3.105   1.707
   22SOL     OW  964   0.970   0.594   0.765
   22SOL    HW1  965   1.052   0.617   0.712
   22SOL    HW2  966   0.899   0.559   0.704
   23SOL     OW  967   0.664   5.601   0.423
   23SOL    HW1  968   0.579   5.589   0.474
   23SOL    HW2  969   0.736   5.631   0.485
   24SOL     OW  970   4.640   0.870   0.168
   24SOL    HW1  971   4.640   0.813   0.086
   24SOL    HW2  972   4.648   0.966   0.141
   25SOL     OW  973   1.240   0.841   5.137
   25SOL    HW1  974   1.323   0.836   5.081
   25SOL    HW2  975   1.265   0.835   5.234
   26SOL     OW  976   2.502   6.680   5.344
   26SOL    HW1  977   2.574   6.749   5.337
   26SOL    HW2  978   2.413   6.725   5.341
   27SOL     OW  979   6.951   6.993   2.450
   27SOL    HW1  980   0.003   0.018   2.426
   27SOL    HW2  981   6.968   6.943   2.535
   28SOL     OW  982   2.294   0.807   5.045
   28SOL    HW1  983   2.362   0.843   5.109
   28SOL    HW2  984   2.220   0.874   5.034
   29SOL     OW  985   5.416   0.759   1.426
   29SOL    HW1  986   5.358   0.800   1.356
   29SOL    HW2  987   5.403   0.660   1.426
   30SOL     OW  988   5.000   6.690   4.858
   30SOL    HW1  989   5.025   6.708   4.953
   30SOL    HW2  990   5.011   6.592   4.839
   31SOL     OW  991   6.491   3.976   4.140
   31SOL    HW1  992   6.436   3.961   4.222
   31SOL    HW2  993   6.569   3.914   4.140
   32SOL     OW  994   3.292   1.259   1.568
   32SOL    HW1  995   3.271   1.200   1.490
   32SOL    HW2  996   3.244   1.225   1.649
   33SOL     OW  997   1.891   4.333   5.397
   33SOL    HW1  998   1.961   4.306   5.331
   33SOL    HW2  999   1.813   4.272   5.389
   34SOL     OW 1000   2.565   6.685   5.055
   34SOL    HW1 1001   2.543   6.604   5.002
   34SOL    HW2 1002   2.590   6.659   5.148
   35SOL     OW 1003   1.680   3.398   4.986
   35SOL    HW1 1004   1.779   3.404   4.999
   35SOL    HW2 1005   1.634   3.436   5.066
   36SOL     OW 1006   5.173   1.251   3.962
   36SOL    HW1 1007   5.142   1.342   3.991
   36SOL    HW2 1008   5.255   1.261   3.905
   37SOL     OW 1009   1.080   5.685   4.035
   37SOL    HW1 1010   1.009   5.749   4.065
   37SOL    HW2 1011   1.047   5.634   3.955
   38SOL     OW 1012   1.027   3.254   1.908
   38SOL    HW1 1013   0.970   3.293   1.835
   38SOL    HW2 1014   1.035   3.156   1.895
   39SOL     OW 1015   6.312   5.417   1.406
   39SOL    HW1 1016   6.277   5.415   1.500
   39SOL    HW2 1017   6.327   5.324   1.374
   40SOL     OW 1018   4.172   0.961   6.344
   40SOL    HW1 1019   4.088   0.989   6.298
   40SOL    HW2 1020   4.241   0.937   6.276
   41SOL     OW 1021   6.892   3.580   1.129
   41SOL    HW1 1022   6.982   3.621   1.145
   41SOL    HW2 1023   6.841   3.635   1.063
   42SOL     OW 1024   2.770   3.463   0.688
   42SOL    HW1 1025   2.770   3.514   0.602
   42SOL    HW2 1026   2.847   3.493   0.744
   43SOL     OW 1027   4.906   0.774   3.906
   43SOL    HW1 1028   4.896   0.750   3.809
   43SOL    HW2 1029   4.927   0.872   3.914
   44SOL     OW 1030   0.169   0.625   6.879
   44SOL    HW1 1031   0.131   0.616   6.972
   44SOL    HW2 1032   0.119   0.565   6.817
   45SOL     OW 1033   1.815   3.740   5.932
   45SOL    HW1 1034   1.884   3.701   5.994
   45SOL    HW2 1035   1.802   3.679   5.854
   46SOL     OW 1036   1.203   4.559   4.140
   46SOL    HW1 1037   1.133   4.561   4.211
   46SOL    HW2 1038   1.285   4.513   4.174
   47SOL     OW 1039   0.106   4.656   6.303
   47SOL    HW1 1040   0.123   4.559   6.286
   47SOL    HW2 1041   0.020   4.682   6.258
   48SOL     OW 1042   1.106   3.960   0.444
   48SOL    HW1 1043   1.146   3.967   0.536
   48SOL    HW2 1044   1.061   4.047   0.421
   49SOL     OW 1045   3.323   1.077   0.076
   49SOL    HW1 1046   3.379   1.117   0.149
   49SOL    HW2 1047   3.352   1.114   7.016
   50SOL     OW 1048   5.119   1.817   5.659
   50SOL    HW1 1049   5.092   1.816   5.562
   50SOL    HW2 1050   5.145   1.725   5.687
   51SOL     OW 1051   1.603   6.203   2.291
   51SOL    HW1 1052   1.637   6.141   2.362
   51SOL    HW2 1053   1.597   6.296   2.327
   52SOL     OW 1054   5.598   3.253   2.809
   52SOL    HW1 1055   5.644   3.221   2.892
   52SOL    HW2 1056   5.519   3.309   2.834
   53SOL     OW 1057   3.865   6.946   0.783
   53SOL    HW1 1058   3.957   6.952   0.744
   53SOL    HW2 1059   3.830   0.010   0.800
   54SOL     OW 1060   0.825   1.517   6.026
   54SOL    HW1 1061   0.903   1.516   6.088
   54SOL    HW2 1062   0.772   1.433   6.038
   55SOL     OW 1063   2.166   3.568   6.516
   55SOL    HW1 1064   2.249   3.623   6.510
   55SOL    HW2 1065   2.189   3.472   6.500
   56SOL     OW 1066   1.290   2.164   6.888
   56SOL    HW1 1067   1.199   2.141   6.853
   56SOL    HW2 1068   1.330   2.238   6.833
   57SOL     OW 1069   4.115   5.552   1.576
   57SOL    HW1 1070   4.147   5.502   1.656
   57SOL    HW2 1071   4.131   5.497   1.494
   58SOL     OW 1072   0.283   0.704   0.200
   58SOL    HW1 1073   0.374   0.745   0.206
   58SOL    HW2 1074   0.214   0.772   0.225
   59SOL     OW 1075   4.126   2.887   6.999
   59SOL    HW1 1076   4.121   2.934   6.910
   59SOL    HW2 1077   4.079   2.799   6.992
   60SOL     OW 1078   6.311   2.525   2.590
   60SOL    HW1 1079   6.397   2.500   2.547
   60SOL    HW2 1080   6.278   2.450   2.646
   61SOL     OW 1081   1.836   5.495   2.550
   61SOL    HW1 1082   1.756   5.438   2.567
   61SOL    HW2 1083   1.856   5.494   2.452
   62SOL     OW 1084   4.913   3.393   3.061
   62SOL    HW1 1085   4.951   3.316   3.011
   62SOL    HW2 1086   4.926   3.477   3.008
   63SOL     OW 1087   4.257   0.061   6.131
   63SOL    HW1 1088   4.188   0.003   6.088
   63SOL    HW2 1089   4.212   0.137   6.179
   64SOL     OW 1090   1.993   2.069   6.892
   64SOL    HW1 1091   2.055   2.066   6.970
   64SOL    HW2 1092   1.937   1.986   6.890
   65SOL     OW 1093   0.961   5.381   5.244
   65SOL    HW1 1094   0.953   5.282   5.238
   65SOL    HW2 1095   0.873   5.423   5.222
   66SOL     OW 1096   4.563   1.278   1.498
   66SOL    HW1 1097   4.502   1.264   1.420
   66SOL    HW2 1098   4.515   1.257   1.583
   67SOL     OW 1099   0.028   3.279   2.558
   67SOL    HW1 1100   6.970   3.306   2.600
   67SOL    HW2 1101   0.062   3.353   2.501
   68SOL     OW 1102   0.552   0.990   6.270
   68SOL    HW1 1103   0.606   0.972   6.353
   68SOL    HW2 1104   0.608   0.975   6.189
   69SOL     OW 1105   1.140   0.570   6.495
   69SOL    HW1 1106   1.073   0.624   6.443
   69SOL    HW2 1107   1.228   0.572   6.448
   70SOL     OW 1108   4.713   5.160   3.364
   70SOL    HW1 1109   4.742   5.109   3.283
   70SOL    HW2 1110   4.771   5.241   3.375
   71SOL     OW 1111   5.071   0.897   5.272
   71SOL    HW1 1112   5.005   0.895   5.347
   71SOL    HW2 1113   5.086   0.804   5.239
   72SOL     OW 1114   6.532   1.830   2.679
   72SOL    HW1 1115   6.480   1.813   2.595
   72SOL    HW2 1116   6.605   1.763   2.687
   73SOL     OW 1117   2.755   0.853   1.125
   73SOL    HW1 1118   2.730   0.902   1.041
   73SOL    HW2 1119   2.715   0.761   1.123
   74SOL     OW 1120   2.469   0.689   0.281
   74SOL    HW1 1121   2.524   0.638   0.215
   74SOL    HW2 1122   2.442   0.776   0.242
   75SOL     OW 1123   2.446   2.572   1.441
   75SOL    HW1 1124   2.355   2.613   1.443
   75SOL    HW2 1125   2.452   2.500   1.509
   76SOL     OW 1126   2.978   5.326   6.371
   76SOL    HW1 1127   2.890   5.355   6.333
   76SOL    HW2 1128   2.972   5.322   6.471
   77SOL     OW 1129   0.070   4.821   4.725
   77SOL    HW1 1130   0.005   4.864   4.662
   77SOL    HW2 1131   0.024   4.800   4.811
   78SOL     OW 1132   5.054   1.296   1.054
   78SOL    HW1 1133   4.974   1.303   1.114
   78SOL    HW2 1134   5.037   1.227   0.984
   79SOL     OW 1135   1.842   3.863   4.061
   79SOL    HW1 1136   1.836   3.766   4.039
   79SOL    HW2 1137   1.818   3.917   3.980
   80SOL     OW 1138   4.033   2.259   5.334
   80SOL    HW1 1139   4.022   2.179   5.393
   80SOL    HW2 1140   3.974   2.249   5.254
   81SOL     OW 1141   2.506   4.685   3.023
   81SOL    HW1 1142   2.441   4.613   3.045
   81SOL    HW2 1143   2.552   4.664   2.936
   82SOL     OW 1144   2.705   0.600   1.373
   82SOL    HW1 1145   2.615   0.640   1.391
   82SOL    HW2 1146   2.695   0.521   1.312
   83SOL     OW 1147   6.100   2.412   3.514
   83SOL    HW1 1148   6.154   2.438   3.594
   83SOL    HW2 1149   6.153   2.351   3.455
   84SOL     OW 1150   4.999   2.324   2.935
   84SOL    HW1 1151   4.951   2.356   2.854
   84SOL    HW2 1152   4.974   2.380   3.014
   85SOL     OW 1153   2.419   5.360   3.079
   85SOL    HW1 1154   2.321   5.343   3.072
   85SOL    HW2 1155   2.443   5.437   3.019
   86SOL     OW 1156   4.487   1.358   6.528
   86SOL    HW1 1157   4.524   1.276   6.486
   86SOL    HW2 1158   4.560   1.406   6.577
   87SOL     OW 1159   2.945   2.781   6.587
   87SOL    HW1 1160   2.877   2.719   6.547
   87SOL    HW2 1161   2.939   2.778   6.686
   88SOL     OW 1162   1.332   2.195   0.855
   88SOL    HW1 1163   1.293   2.264   0.794
   88SOL    HW2 1164   1.426   2.220   0.878
   89SOL     OW 1165   4.245   3.900   5.653
   89SOL    HW1 1166   4.178   3.876   5.724
   89SOL    HW2 1167   4.319   3.832   5.654
   90SOL     OW 1168   6.631   4.573   1.668
   90SOL    HW1 1169   6.704   4.641   1.666
   90SOL    HW2 1170   6.665   4.489   1.712
   91SOL     OW 1171   5.098   5.257   0.373
   91SOL    HW1 1172   5.138   5.303   0.293
   91SOL    HW2 1173   5.145   5.289   0.456
   92SOL     OW 1174   6.389   6.193   6.638
   92SOL    HW1 1175   6.417   6.216   6.731
   92SOL    HW2 1176   6.317   6.256   6.609
   93SOL     OW 1177   2.853   3.621   2.024
   93SOL    HW1 1178   2.879   3.592   2.116
   93SOL    HW2 1179   2.769   3.574   1.997
   94SOL     OW 1180   3.469   0.748   4.446
   94SOL    HW1 1181   3.549   0.701   4.483
   94SOL    HW2 1182   3.391   0.686   4.445
   95SOL     OW 1183   1.057   6.114   4.482
   95SOL    HW1 1184   1.128   6.102   4.552
   95SOL    HW2 1185   1.088   6.181   4.415
   96SOL     OW 1186   0.134   6.431   0.106
   96SOL    HW1 1187   0.124   6.335   0.129
   96SOL    HW2 1188   0.100   6.488   0.181
   97SOL     OW 1189   3.434   4.928   4.314
   97SOL    HW1 1190   3.453   4.914   4.411
   97SOL    HW2 1191   3.353   4.875   4.287
   98SOL     OW 1192   6.564   2.153   5.078
   98SOL    HW1 1193   6.558   2.252   5.076
   98SOL    HW2 1194   6.586   2.119   4.986
   99SOL     OW 1195   4.632   4.484   4.804
   99SOL    HW1 1196   4.593   4.442   4.885
   99SOL    HW2 1197   4.671   4.573   4.828
  100SOL     OW 1198   2.123   2.056   5.230
  100SOL    HW1 1199   2.105   2.111   5.312
  100SOL    HW2 1200   2.203   1.998   5.245
  101SOL     OW 1201   5.190   2.878   2.547
  101SOL    HW1 1202   5.125   2.873   2.471
  101SOL    HW2 1203   5.200   2.787   2.588
  102SOL     OW 1204   4.326   6.352   0.720
  102SOL    HW1 1205   4.226   6.353   0.711
  102SOL    HW2 1206   4.359   6.445   0.728
  103SOL     OW 1207   1.763   1.897   0.914
  103SOL    HW1 1208   1.850   1.877   0.870
  103SOL    HW2 1209   1.699   1.933   0.846
  104SOL     OW 1210   1.009   3.777   1.525
  104SOL    HW1 1211   0.931   3.727   1.486
  104SOL    HW2 1212   1.000   3.780   1.624
  105SOL     OW 1213   0.160   1.939   4.394
  105SOL    HW1 1214   0.068   1.960   4.361
  105SOL    HW2 1215   0.155   1.900   4.486
  106SOL     OW 1216   5.225   3.696   1.440
  106SOL    HW1 1217   5.314   3.653   1.457
  106SOL    HW2 1218   5.239   3.793   1.417
  107SOL     OW 1219   4.451   0.211   2.368
  107SOL    HW1 1220   4.506   0.294   2.360
  107SOL    HW2 1221   4.380   0.225   2.438
  108SOL     OW 1222   3.361   1.474   5.016
  108SOL    HW1 1223   3.324   1.385   5.044
  108SOL    HW2 1224   3.460   1.474   5.027
  109SOL     OW 1225   2.430   1.768   4.569
  109SOL    HW1 1226   2.402   1.806   4.481
  109SOL    HW2 1227   2.513   1.815   4.601
  110SOL     OW 1228   4.398   4.965   5.633
  110SOL    HW1 1229   4.377   4.868   5.645
  110SOL    HW2 1230   4.484   4.987   5.679
  111SOL     OW 1231   6.954   3.278   0.940
  111SOL    HW1 1232   0.011   3.286   0.992
  111SOL    HW2 1233   6.894   3.355   0.961
  112SOL     OW 1234   3.592   6.558   4.471
  112SOL    HW1 1235   3.647   6.566   4.388
  112SOL    HW2 1236   3.631   6.616   4.543
  113SOL     OW 1237   1.745   5.147   2.747
  113SOL    HW1 1238   1.698   5.149   2.835
  113SOL    HW2 1239   1.690   5.198   2.680
  114SOL     OW 1240   6.844   2.339   1.728
  114SOL    HW1 1241   6.874   2.318   1.821
  114SOL    HW2 1242   6.792   2.424   1.728
  115SOL     OW 1243   4.427   1.482   3.199
  115SOL    HW1 1244   4.377   1.538   3.133
  115SOL    HW2 1245   4.520   1.519   3.210
  116SOL     OW 1246   5.790   5.851   6.611
  116SOL    HW1 1247   5.860   5.906   6.566
  116SOL    HW2 1248   5.803   5.755   6.588
  117SOL     OW 1249   2.196   1.284   0.669
  117SOL    HW1 1250   2.180   1.352   0.598
  117SOL    HW2 1251   2.122   1.286   0.735
  118SOL     OW 1252   1.168   2.150   1.610
  118SOL    HW1 1253   1.237   2.219   1.634
  118SOL    HW2 1254   1.155   2.088   1.688
  119SOL     OW 1255   5.552   5.397   4.802
  119SOL    HW1 1256   5.492   5.469   4.838
  119SOL    HW2 1257   5.561   5.324   4.870
  120SOL     OW 1258   4.547   1.692   4.143
  120SOL    HW1 1259   4.554   1.619   4.211
  120SOL    HW2 1260   4.542   1.653   4.052
  121SOL     OW 1261   0.167   5.270   5.744
  121SOL    HW1 1262   0.251   5.216   5.737
  121SOL    HW2 1263   0.088   5.208   5.745
  122SOL     OW 1264   0.625   4.857   6.101
  122SOL    HW1 1265   0.528   4.855   6.123
  122SOL    HW2 1266   0.669   4.774   6.135
  123SOL     OW 1267   0.550   2.110   0.896
  123SOL    HW1 1268   0.461   2.065   0.904
  123SOL    HW2 1269   0.558   2.181   0.967
  124SOL     OW 1270   1.605   3.341   6.862
  124SOL    HW1 1271   1.617   3.406   6.787
  124SOL    HW2 1272   1.542   3.269   6.833
  125SOL     OW 1273   4.383   3.143   0.879
  125SOL    HW1 1274   4.480   3.166   0.886
  125SOL    HW2 1275   4.361   3.118   0.785
  126SOL     OW 1276   3.604   3.353   5.121
  126SOL    HW1 1277   3.679   3.292   5.094
  126SOL    HW2 1278   3.521   3.328   5.070
  127SOL     OW 1279   0.244   4.631   5.971
  127SOL    HW1 1280   0.296   4.549   5.948
  127SOL    HW2 1281   0.282   4.674   6.053
  128SOL     OW 1282   5.128   4.328   5.843
  128SOL    HW1 1283   5.076   4.243   5.831
  128SOL    HW2 1284   5.218   4.319   5.800
  129SOL     OW 1285   1.230   5.660   2.302
  129SOL    HW1 1286   1.167   5.658   2.379
  129SOL    HW2 1287   1.297   5.733   2.316
  130SOL     OW 1288   6.829   3.720   5.201
  130SOL    HW1 1289   6.765   3.669   5.143
  130SOL    HW2 1290   6.778   3.771   5.270
  131SOL     OW 1291   0.842   3.410   2.359
  131SOL    HW1 1292   0.927   3.433   2.407
  131SOL    HW2 1293   0.862   3.349   2.283
  132SOL     OW 1294   4.156   3.304   2.201
  132SOL    HW1 1295   4.237   3.262   2.162
  132SOL    HW2 1296   4.124   3.378   2.142
  133SOL     OW 1297   4.039   4.359   5.562
  133SOL    HW1 1298   3.944   4.383   5.581
  133SOL    HW2 1299   4.047   4.329   5.467
  134SOL     OW 1300   0.014   2.202   6.962
  134SOL    HW1 1301   6.993   2.140   6.901
  134SOL    HW2 1302   0.105   2.219   6.925
  135SOL     OW 1303   4.677   5.534   4.013
  135SOL    HW1 1304   4.707   5.627   3.992
  135SOL    HW2 1305   4.582   5.522   3.984
  136SOL     OW 1306   4.022   5.908   6.285
  136SOL    HW1 1307   4.014   6.001   6.321
  136SOL    HW2 1308   4.118   5.881   6.285
  137SOL     OW 1309   2.034   4.108   0.371
  137SOL    HW1 1310   1.998   4.085   0.461
  137SOL    HW2 1311   2.133   4.123   0.377
  138SOL     OW 1312   0.759   5.579   1.243
  138SOL    HW1 1313   0.841   5.543   1.200
  138SOL    HW2 1314   0.680   5.562   1.185
  139SOL     OW 1315   0.863   7.024   1.357
  139SOL    HW1 1316   0.797   7.015   1.282
  139SOL    HW2 1317   0.871   6.937   1.405
  140SOL     OW 1318   2.468   0.037   2.411
  140SOL    HW1 1319   2.446   7.013   2.493
  140SOL    HW2 1320   2.526   7.011   2.350
  141SOL     OW 1321   2.125   1.782   0.168
  141SOL    HW1 1322   2.118   1.784   0.268
  141SOL    HW2 1323   2.218   1.754   0.142
  142SOL     OW 1324   1.607   4.577   6.207
  142SOL    HW1 1325   1.684   4.581   6.271
  142SOL    HW2 1326   1.619   4.645   6.136
  143SOL     OW 1327   5.301   6.057   2.064
  143SOL    HW1 1328   5.328   6.138   2.014
  143SOL    HW2 1329   5.208   6.068   2.100
  144SOL     OW 1330   2.175   5.016   3.177
  144SOL    HW1 1331   2.252   4.988   3.120
  144SOL    HW2 1332   2.159   4.949   3.249
  145SOL     OW 1333   6.637   6.354   3.047
  145SOL    HW1 1334   6.712   6.295   3.016
  145SOL    HW2 1335   6.550   6.315   3.019
  146SOL     OW 1336   6.746   1.020   4.522
  146SOL    HW1 1337   6.838   1.030   4.558
  146SOL    HW2 1338   6.682   1.072   4.578
  147SOL     OW 1339   6.537   0.021   5.233
  147SOL    HW1 1340   6.598   0.069   5.171
  147SOL    HW2 1341   6.590   7.009   5.307
  148SOL     OW 1342   1.862   6.627   3.378
  148SOL    HW1 1343   1.790   6.648   3.444
  148SOL    HW2 1344   1.947   6.607   3.428
  149SOL     OW 1345   1.683   2.552   4.605
  149SOL    HW1 1346   1.723   2.465   4.578
  149SOL    HW2 1347   1.730   2.627   4.557
  150SOL     OW 1348   5.338   2.663   4.615
  150SOL    HW1 1349   5.286   2.707   4.542
  150SOL    HW2 1350   5.315   2.707   4.703
  151SOL     OW 1351   5.898   2.816   1.823
  151SOL    HW1 1352   5.957   2.875   1.768
  151SOL    HW2 1353   5.933   2.722   1.820
  152SOL     OW 1354   6.052   2.305   0.585
  152SOL    HW1 1355   6.136   2.251   0.593
  152SOL    HW2 1356   5.996   2.268   0.511
  153SOL     OW 1357   2.202   1.708   3.711
  153SOL    HW1 1358   2.244   1.617   3.717
  153SOL    HW2 1359   2.111   1.705   3.753
  154SOL     OW 1360   0.325   1.471   3.576
  154SOL    HW1 1361   0.246   1.414   3.597
  154SOL    HW2 1362   0.310   1.564   3.610
  155SOL     OW 1363   5.489   5.018   3.326
  155SOL    HW1 1364   5.556   4.945   3.313
  155SOL    HW2 1365   5.443   5.004   3.414
  156SOL     OW 1366   4.140   0.333   1.199
  156SOL    HW1 1367   4.149   0.246   1.150
  156SOL    HW2 1368   4.161   0.409   1.136
  157SOL     OW 1369   4.979   0.586   0.799
  157SOL    HW1 1370   4.974   0.494   0.761
  157SOL    HW2 1371   4.889   0.628   0.796
  158SOL     OW 1372   0.885   2.525   5.876
  158SOL    HW1 1373   0.873   2.482   5.966
  158SOL    HW2 1374   0.799   2.567   5.847
  159SOL     OW 1375   0.338   5.043   6.664
  159SOL    HW1 1376   0.267   4.976   6.687
  159SOL    HW2 1377   0.422   4.995   6.641
  160SOL     OW 1378   3.956   0.274   1.841
  160SOL    HW1 1379   3.921   0.349   1.897
  160SOL    HW2 1380   3.957   0.189   1.894
  161SOL     OW 1381   6.267   6.667   0.809
  161SOL    HW1 1382   6.208   6.700   0.883
  161SOL    HW2 1383   6.326   6.741   0.777
  162SOL     OW 1384   4.392   0.165   4.915
  162SOL    HW1 1385   4.417   0.243   4.858
  162SOL    HW2 1386   4.448   0.165   4.998
  163SOL     OW 1387   1.124   3.843   3.157
  163SOL    HW1 1388   1.189   3.832   3.081
  163SOL    HW2 1389   1.170   3.889   3.233
  164SOL     OW 1390   1.978   2.281   2.519
  164SOL    HW1 1391   2.030   2.325   2.593
  164SOL    HW2 1392   2.035   2.213   2.474
  165SOL     OW 1393   0.349   6.106   4.907
  165SOL    HW1 1394   0.411   6.042   4.859
  165SOL    HW2 1395   0.314   6.061   4.989
  166SOL     OW 1396   0.831   4.783   3.842
  166SOL    HW1 1397   0.763   4.770   3.914
  166SOL    HW2 1398   0.911   4.830   3.880
  167SOL     OW 1399   0.046   1.042   3.258
  167SOL    HW1 1400   0.066   1.133   3.294
  167SOL    HW2 1401   0.074   1.037   3.162
  168SOL     OW 1402   3.221   4.100   4.405
  168SOL    HW1 1403   3.161   4.098   4.485
  168SOL    HW2 1404   3.314   4.124   4.433
  169SOL     OW 1405   5.197   2.792   6.067
  169SOL    HW1 1406   5.099   2.774   6.059
  169SOL    HW2 1407   5.245   2.753   5.989
  170SOL     OW 1408   6.914   5.277   2.672
  170SOL    HW1 1409   6.951   5.364   2.640
  170SOL    HW2 1410   6.815   5.277   2.659
  171SOL     OW 1411   3.640   2.783   0.984
  171SOL    HW1 1412   3.695   2.720   0.931
  171SOL    HW2 1413   3.544   2.777   0.955
  172SOL     OW 1414   1.398   0.849   0.459
  172SOL    HW1 1415   1.398   0.785   0.536
  172SOL    HW2 1416   1.321   0.828   0.399
  173SOL     OW 1417   5.686   1.043   4.984
  173SOL    HW1 1418   5.664   1.023   4.889
  173SOL    HW2 1419   5.607   1.023   5.042
  174SOL     OW 1420   6.700   4.414   4.722
  174SOL    HW1 1421   6.763   4.488   4.697
  174SOL    HW2 1422   6.681   4.359   4.641
  175SOL     OW 1423   0.997   5.609   2.480
  175SOL    HW1 1424   1.023   5.574   2.570
  175SOL    HW2 1425   0.964   5.534   2.423
  176SOL     OW 1426   6.086   4.328   0.822
  176SOL    HW1 1427   6.098   4.301   0.918
  176SOL    HW2 1428   6.046   4.252   0.771
  177SOL     OW 1429   5.683   2.817   3.125
  177SOL    HW1 1430   5.680   2.892   3.059
  177SOL    HW2 1431   5.605   2.757   3.111
  178SOL     OW 1432   1.717   5.163   4.939
  178SOL    HW1 1433   1.722   5.089   4.871
  178SOL    HW2 1434   1.802   5.214   4.939
  179SOL     OW 1435   3.303   3.872   1.875
  179SOL    HW1 1436   3.295   3.821   1.790
  179SOL    HW2 1437   3.256   3.960   1.866
  180SOL     OW 1438   4.313   0.502   6.036
  180SOL    HW1 1439   4.233   0.446   6.016
  180SOL    HW2 1440   4.301   0.593   5.995
  181SOL     OW 1441   3.514   0.045   5.467
  181SOL    HW1 1442   3.451   7.007   5.428
  181SOL    HW2 1443   3.493   0.058   5.564
  182SOL     OW 1444   3.191   3.050   5.558
  182SOL    HW1 1445   3.156   3.141   5.581
  182SOL    HW2 1446   3.117   2.994   5.522
  183SOL     OW 1447   2.151   1.396   3.069
  183SOL    HW1 1448   2.100   1.370   3.151
  183SOL    HW2 1449   2.128   1.333   2.995
  184SOL     OW 1450   5.957   6.860   3.734
  184SOL    HW1 1451   5.946   6.930   3.805
  184SOL    HW2 1452   5.867   6.825   3.708
  185SOL     OW 1453   0.518   5.963   5.906
  185SOL    HW1 1454   0.459   6.044   5.904
  185SOL    HW2 1455   0.475   5.889   5.855
  186SOL     OW 1456   3.291   5.648   0.092
  186SOL    HW1 1457   3.351   5.571   0.117
  186SOL    HW2 1458   3.266   5.641   7.024
  187SOL     OW 1459   3.395   5.403   0.474
  187SOL    HW1 1460   3.410   5.337   0.401
  187SOL    HW2 1461   3.309   5.382   0.521
  188SOL     OW 1462   1.505   4.011   4.326
  188SOL    HW1 1463   1.501   4.034   4.228
  188SOL    HW2 1464   1.545   4.087   4.377
  189SOL     OW 1465   6.282   4.107   5.824
  189SOL    HW1 1466   6.230   4.151   5.897
  189SOL    HW2 1467   6.255   4.010   5.818
  190SOL     OW 1468   5.669   6.304   6.694
  190SOL    HW1 1469   5.726   6.225   6.716
  190SOL    HW2 1470   5.660   6.363   6.775
  191SOL     OW 1471   2.065   3.570   5.968
  191SOL    HW1 1472   2.159   3.561   5.933
  191SOL    HW2 1473   2.059   3.652   6.024
  192SOL     OW 1474   1.103   0.165   1.027
  192SOL    HW1 1475   1.099   0.236   0.957
  192SOL    HW2 1476   1.184   0.109   1.013
  193SOL     OW 1477   2.893   6.251   1.679
  193SOL    HW1 1478   2.806   6.260   1.629
  193SOL    HW2 1479   2.888   6.306   1.763
  194SOL     OW 1480   4.287   6.367   3.467
  194SOL    HW1 1481   4.309   6.465   3.467
  194SOL    HW2 1482   4.365   6.316   3.502
  195SOL     OW 1483   3.289   1.107   1.277
  195SOL    HW1 1484   3.259   1.040   1.345
  195SOL    HW2 1485   3.388   1.117   1.282
  196SOL     OW 1486   4.175   2.991   1.435
  196SOL    HW1 1487   4.241   3.064   1.419
  196SOL    HW2 1488   4.103   3.025   1.497
  197SOL     OW 1489   0.851   6.399   1.078
  197SOL    HW1 1490   0.824   6.332   1.146
  197SOL    HW2 1491   0.777   6.465   1.063
  198SOL     OW 1492   6.070   0.482   5.675
  198SOL    HW1 1493   6.097   0.386   5.664
  198SOL    HW2 1494   6.025   0.493   5.763
  199SOL     OW 1495   1.660   1.373   3.222
  199SOL    HW1 1496   1.644   1.378   3.321
  199SOL    HW2 1497   1.603   1.300   3.184
  200SOL     OW 1498   1.539   3.703   3.590
  200SOL    HW1 1499   1.622   3.664   3.548
  200SOL    HW2 1500   1.544   3.695   3.689
  201SOL     OW 1501   4.949   1.044   6.852
  201SOL    HW1 1502   4.994   1.096   6.925
  201SOL    HW2 1503   4.854   1.074   6.844
  202SOL     OW 1504   4.203   0.667   3.098
  202SOL    HW1 1505   4.104   0.651   3.105
  202SOL    HW2 1506   4.228   0.680   3.003
  203SOL     OW 1507   5.397   3.216   0.693
  203SOL    HW1 1508   5.452   3.197   0.612
  203SOL    HW2 1509   5.321   3.277   0.668
  204SOL     OW 1510   2.490   5.756   0.903
  204SOL    HW1 1511   2.434   5.761   0.986
  204SOL    HW2 1512   2.577   5.802   0.919
  205SOL     OW 1513   5.509   0.477   1.062
  205SOL    HW1 1514   5.436   0.463   0.995
  205SOL    HW2 1515   5.591   0.426   1.033
  206SOL     OW 1516   6.988   5.900   1.782
  206SOL    HW1 1517   7.018   5.981   1.832
  206SOL    HW2 1518   7.007   5.818   1.836
  207SOL     OW 1519   6.759   2.379   5.765
  207SOL    HW1 1520   6.793   2.313   5.832
  207SOL    HW2 1521   6.663   2.358   5.744
  208SOL     OW 1522   4.809   3.591   0.960
  208SOL    HW1 1523   4.751   3.523   1.005
  208SOL    HW2 1524   4.786   3.682   0.992
  209SOL     OW 1525   6.242   0.484   4.602
  209SOL    HW1 1526   6.235   0.430   4.686
  209SOL    HW2 1527   6.315   0.551   4.612
  210SOL     OW 1528   4.728   1.986   6.904
  210SOL    HW1 1529   4.659   2.023   6.966
  210SOL    HW2 1530   4.792   1.929   6.955
  211SOL     OW 1531   0.250   4.120   2.437
  211SOL    HW1 1532   0.238   4.022   2.427
  211SOL    HW2 1533   0.340   4.146   2.401
  212SOL     OW 1534   1.459   5.428   4.842
  212SOL    HW1 1535   1.501   5.506   4.796
  212SOL    HW2 1536   1.523   5.389   4.908
  213SOL     OW 1537   4.516   2.612   1.386
  213SOL    HW1 1538   4.542   2.622   1.290
  213SOL    HW2 1539   4.527   2.517   1.414
  214SOL     OW 1540   0.254   5.840   4.124
  214SOL    HW1 1541   0.185   5.798   4.183
  214SOL    HW2 1542   0.281   5.775   4.053
  215SOL     OW 1543   3.872   3.876   3.987
  215SOL    HW1 1544   3.792   3.934   4.004
  215SOL    HW2 1545   3.845   3.780   3.996
  216SOL     OW 1546   3.621   6.715   5.374
  216SOL    HW1 1547   3.684   6.784   5.410
  216SOL    HW2 1548   3.667   6.661   5.303
  217SOL     OW 1549   6.324   1.997   5.127
  217SOL    HW1 1550   6.403   2.054   5.105
  217SOL    HW2 1551   6.243   2.055   5.137
  218SOL     OW 1552   2.978   4.261   5.910
  218SOL    HW1 1553   3.026   4.300   5.832
  218SOL    HW2 1554   2.888   4.228   5.880
  219SOL     OW 1555   3.285   6.004   6.491
  219SOL    HW1 1556   3.312   6.095   6.522
  219SOL    HW2 1557   3.357   5.967   6.431
  220SOL     OW 1558   1.001   5.043   0.556
  220SOL    HW1 1559   1.096   5.059   0.581
  220SOL    HW2 1560   0.968   5.120   0.501
  221SOL     OW 1561   6.516   4.083   4.666
  221SOL    HW1 1562   6.525   3.998   4.615
  221SOL    HW2 1563   6.440   4.136   4.629
  222SOL     OW 1564   1.786   0.150   4.182
  222SOL    HW1 1565   1.692   0.172   4.157
  222SOL    HW2 1566   1.789   0.063   4.229
  223SOL     OW 1567   5.362   5.507   2.326
  223SOL    HW1 1568   5.392   5.430   2.269
  223SOL    HW2 1569   5.342   5.585   2.267
  224SOL     OW 1570   5.224   4.334   3.167
  224SOL    HW1 1571   5.290   4.379   3.226
  224SOL    HW2 1572   5.190   4.251   3.212
  225SOL     OW 1573   4.510   5.641   2.483
  225SOL    HW1 1574   4.563   5.570   2.530
  225SOL    HW2 1575   4.418   5.645   2.521
  226SOL     OW 1576   1.729   5.714   2.415
  226SOL    HW1 1577   1.790   5.664   2.352
  226SOL    HW2 1578   1.742   5.679   2.508
  227SOL     OW 1579   1.034   4.302   3.318
  227SOL    HW1 1580   1.017   4.251   3.402
  227SOL    HW2 1581   1.087   4.245   3.254
  228SOL     OW 1582   4.013   6.087   3.274
  228SOL    HW1 1583   3.973   6.061   3.362
  228SOL    HW2 1584   4.084   6.020   3.249
  229SOL     OW 1585   5.604   6.101   2.675
  229SOL    HW1 1586   5.603   6.007   2.711
  229SOL    HW2 1587   5.511   6.138   2.676
  230SOL     OW 1588   1.427   4.781   5.650
  230SOL    HW1 1589   1.471   4.871   5.650
  230SOL    HW2 1590   1.406   4.754   5.556
  231SOL     OW 1591   0.106   1.599   6.584
  231SOL    HW1 1592   0.043   1.535   6.629
  231SOL    HW2 1593   0.159   1.552   6.514
  232SOL     OW 1594   1.683   3.163   6.196
  232SOL    HW1 1595   1.684   3.247   6.142
  232SOL    HW2 1596   1.771   3.153   6.242
  233SOL     OW 1597   3.595   6.798   0.194
  233SOL    HW1 1598   3.545   6.728   0.143
  233SOL    HW2 1599   3.692   6.774   0.199
  234SOL     OW 1600   1.383   4.873   0.005
  234SOL    HW1 1601   1.458   4.899   0.066
  234SOL    HW2 1602   1.312   4.826   0.056
  235SOL     OW 1603   3.939   3.218   6.059
  235SOL    HW1 1604   4.038   3.221   6.043
  235SOL    HW2 1605   3.902   3.311   6.055
  236SOL     OW 1606   6.998   0.423   6.635
  236SOL    HW1 1607   0.057   0.377   6.622
  236SOL    HW2 1608   6.952   0.385   6.715
  237SOL     OW 1609   6.266   6.825   2.037
  237SOL    HW1 1610   6.252   6.922   2.056
  237SOL    HW2 1611   6.198   6.793   1.971
  238SOL     OW 1612   0.965   2.042   3.386
  238SOL    HW1 1613   1.048   2.096   3.399
  238SOL    HW2 1614   0.990   1.946   3.374
  239SOL     OW 1615   6.588   4.899   0.015
  239SOL    HW1 1616   6.642   4.879   0.096
  239SOL    HW2 1617   6.583   4.998   7.029
  240SOL     OW 1618   0.199   2.531   3.994
  240SOL    HW1 1619   0.268   2.521   3.922
  240SOL    HW2 1620   0.116   2.482   3.968
  241SOL     OW 1621   6.376   2.316   4.684
  241SOL    HW1 1622   6.282   2.336   4.657
  241SOL    HW2 1623   6.429   2.401   4.686
  242SOL     OW 1624   2.902   2.285   3.287
  242SOL    HW1 1625   2.996   2.250   3.286
  242SOL    HW2 1626   2.864   2.278   3.379
  243SOL     OW 1627   4.709   1.476   6.574
  243SOL    HW1 1628   4.743   1.493   6.482
  243SOL    HW2 1629   4.774   1.417   6.623
  244SOL     OW 1630   1.203   0.794   5.922
  244SOL    HW1 1631   1.206   0.800   5.823
  244SOL    HW2 1632   1.270   0.856   5.962
  245SOL     OW 1633   4.965   2.114   4.483
  245SOL    HW1 1634   4.898   2.123   4.410
  245SOL    HW2 1635   5.013   2.201   4.495
  246SOL     OW 1636   5.894   3.865   4.426
  246SOL    HW1 1637   5.849   3.896   4.510
  246SOL    HW2 1638   5.825   3.832   4.361
  247SOL     OW 1639   1.890   0.568   3.238
  247SOL    HW1 1640   1.909   0.660   3.273
  247SOL    HW2 1641   1.873   0.572   3.140
  248SOL     OW 1642   6.921   2.716   3.168
  248SOL    HW1 1643   6.918   2.618   3.186
  248SOL    HW2 1644   6.839   2.743   3.116
  249SOL     OW 1645   2.329   6.068   5.109
  249SOL    HW1 1646   2.253   6.124   5.076
  249SOL    HW2 1647   2.300   5.973   5.114
  250SOL     OW 1648   5.467   2.748   6.703
  250SOL    HW1 1649   5.430   2.658   6.678
  250SOL    HW2 1650   5.417   2.819   6.653
  251SOL     OW 1651   2.383   0.287   1.630
  251SOL    HW1 1652   2.367   0.192   1.655
  251SOL    HW2 1653   2.481   0.303   1.617
  252SOL     OW 1654   6.872   2.673   6.767
  252SOL    HW1 1655   6.869   2.574   6.758
  252SOL    HW2 1656   6.783   2.707   6.798
  253SOL     OW 1657   2.008   4.769   5.996
  253SOL    HW1 1658   1.952   4.687   5.984
  253SOL    HW2 1659   2.069   4.779   5.917
  254SOL     OW 1660   4.703   3.321   6.482
  254SOL    HW1 1661   4.615   3.330   6.530
  254SOL    HW2 1662   4.722   3.225   6.464
  255SOL     OW 1663   4.184   2.277   2.385
  255SOL    HW1 1664   4.110   2.269   2.318
  255SOL    HW2 1665   4.150   2.255   2.476
  256SOL     OW 1666   0.414   6.207   1.434
  256SOL    HW1 1667   0.343   6.143   1.403
  256SOL    HW2 1668   0.450   6.258   1.356
  257SOL     OW 1669   2.999   6.011   6.514
  257SOL    HW1 1670   3.089   5.980   6.484
  257SOL    HW2 1671   2.943   6.033   6.434
  258SOL     OW 1672   4.850   5.246   4.653
  258SOL    HW1 1673   4.863   5.299   4.569
  258SOL    HW2 1674   4.834   5.150   4.630
  259SOL     OW 1675   0.006   1.293   2.321
  259SOL    HW1 1676   0.082   1.260   2.266
  259SOL    HW2 1677   0.027   1.281   2.418
  260SOL     OW 1678   6.490   6.785   5.832
  260SOL    HW1 1679   6.396   6.755   5.816
  260SOL    HW2 1680   6.551   6.739   5.767
  261SOL     OW 1681   0.538   1.427   3.415
  261SOL    HW1 1682   0.462   1.421   3.478
  261SOL    HW2 1683   0.571   1.521   3.410
  262SOL     OW 1684   1.833   5.298   0.819
  262SOL    HW1 1685   1.897   5.268   0.890
  262SOL    HW2 1686   1.870   5.379   0.773
  263SOL     OW 1687   0.802   5.186   5.075
  263SOL    HW1 1688   0.792   5.146   4.984
  263SOL    HW2 1689   0.723   5.162   5.131
  264SOL     OW 1690   3.439   3.996   0.947
  264SOL    HW1 1691   3.364   3.972   0.886
  264SOL    HW2 1692   3.522   3.949   0.918
  265SOL     OW 1693   4.325   5.583   4.220
  265SOL    HW1 1694   4.318   5.618   4.314
  265SOL    HW2 1695   4.365   5.653   4.161
  266SOL     OW 1696   4.516   3.348   7.012
  266SOL    HW1 1697   4.547   3.416   0.050
  266SOL    HW2 1698   4.443   3.293   0.024
  267SOL     OW 1699   2.513   2.078   6.353
  267SOL    HW1 1700   2.535   1.988   6.315
  267SOL    HW2 1701   2.581   2.144   6.323
  268SOL     OW 1702   1.566   3.995   3.033
  268SOL    HW1 1703   1.498   3.924   3.016
  268SOL    HW2 1704   1.522   4.085   3.027
  269SOL     OW 1705   2.929   1.525   6.027
  269SOL    HW1 1706   2.956   1.456   5.959
  269SOL    HW2 1707   2.864   1.485   6.091
  270SOL     OW 1708   5.736   4.916   4.939
  270SOL    HW1 1709   5.653   4.901   4.992
  270SOL    HW2 1710   5.712   4.925   4.842
  271SOL     OW 1711   2.595   1.377   6.890
  271SOL    HW1 1712   2.546   1.292   6.873
  271SOL    HW2 1713   2.562   1.418   6.975
  272SOL     OW 1714   5.544   4.548   6.957
  272SOL    HW1 1715   5.509   4.457   6.977
  272SOL    HW2 1716   5.574   4.553   6.862
  273SOL     OW 1717   0.399   6.410   4.243
  273SOL    HW1 1718   0.490   6.372   4.260
  273SOL    HW2 1719   0.409   6.499   4.197
  274SOL     OW 1720   5.351   3.135   2.377
  274SOL    HW1 1721   5.433   3.133   2.434
  274SOL    HW2 1722   5.341   3.225   2.335
  275SOL     OW 1723   5.872   5.152   5.504
  275SOL    HW1 1724   5.903   5.065   5.465
  275SOL    HW2 1725   5.858   5.141   5.602
  276SOL     OW 1726   0.897   0.341   4.542
  276SOL    HW1 1727   0.857   0.314   4.455
  276SOL    HW2 1728   0.972   0.405   4.526
  277SOL     OW 1729   4.392   3.536   5.875
  277SOL    HW1 1730   4.337   3.513   5.795
  277SOL    HW2 1731   4.340   3.597   5.934
  278SOL     OW 1732   5.775   4.722   1.947
  278SOL    HW1 1733   5.695   4.679   1.908
  278SOL    HW2 1734   5.753   4.757   2.039
  279SOL     OW 1735   0.371   3.391   4.503
  279SOL    HW1 1736   0.366   3.483   4.543
  279SOL    HW2 1737   0.294   3.378   4.441
  280SOL     OW 1738   4.539   1.237   2.787
  280SOL    HW1 1739   4.466   1.201   2.729
  280SOL    HW2 1740   4.501   1.261   2.876
  281SOL     OW 1741   5.244   5.383   5.437
  281SOL    HW1 1742   5.229   5.284   5.430
  281SOL    HW2 1743   5.155   5.430   5.437
  282SOL     OW 1744   0.143   1.974   0.094
  282SOL    HW1 1745   0.101   2.019   0.015
  282SOL    HW2 1746   0.229   1.932   0.066
  283SOL     OW 1747   5.957   4.115   2.030
  283SOL    HW1 1748   5.894   4.135   2.104
  283SOL    HW2 1749   6.037   4.067   2.066
  284SOL     OW 1750   5.499   6.811   3.071
  284SOL    HW1 1751   5.488   6.793   2.973
  284SOL    HW2 1752   5.409   6.828   3.111
  285SOL     OW 1753   4.761   6.086   6.392
  285SOL    HW1 1754   4.817   6.168   6.406
  285SOL    HW2 1755   4.666   6.106   6.416
  286SOL     OW 1756   3.298   5.505   5.370
  286SOL    HW1 1757   3.306   5.587   5.313
  286SOL    HW2 1758   3.347   5.520   5.456
  287SOL     OW 1759   3.697   6.383   0.758
  287SOL    HW1 1760   3.649   6.332   0.829
  287SOL    HW2 1761   3.746   6.319   0.699
  288SOL     OW 1762   3.725   0.831   0.439
  288SOL    HW1 1763   3.689   0.888   0.513
  288SOL    HW2 1764   3.777   0.889   0.375
  289SOL     OW 1765   5.214   4.769   5.128
  289SOL    HW1 1766   5.237   4.801   5.219
  289SOL    HW2 1767   5.281   4.702   5.098
  290SOL     OW 1768   2.932   0.908   4.982
  290SOL    HW1 1769   3.011   0.944   5.030
  290SOL    HW2 1770   2.944   0.921   4.883
  291SOL     OW 1771   5.941   1.404   4.818
  291SOL    HW1 1772   5.973   1.337   4.750
  291SOL    HW2 1773   5.912   1.487   4.771
  292SOL     OW 1774   2.087   0.678   4.061
  292SOL    HW1 1775   2.112   0.584   4.040
  292SOL    HW2 1776   2.147   0.741   4.010
  293SOL     OW 1777   5.613   1.148   3.612
  293SOL    HW1 1778   5.575   1.235   3.580
  293SOL    HW2 1779   5.690   1.122   3.554
  294SOL     OW 1780   6.414   1.208   6.857
  294SOL    HW1 1781   6.503   1.216   6.902
  294SOL    HW2 1782   6.342   1.200   6.926
  295SOL     OW 1783   0.356   0.580   4.834
  295SOL    HW1 1784   0.369   0.539   4.924
  295SOL    HW2 1785   0.319   0.672   4.844
  296SOL     OW 1786   6.770   1.489   7.005
  296SOL    HW1 1787   6.803   1.524   0.064
  296SOL    HW2 1788   6.818   1.404   6.983
  297SOL     OW 1789   4.924   3.736   3.259
  297SOL    HW1 1790   4.932   3.644   3.221
  297SOL    HW2 1791   4.934   3.803   3.185
  298SOL     OW 1792   3.794   6.792   5.137
  298SOL    HW1 1793   3.774   6.750   5.049
  298SOL    HW2 1794   3.881   6.757   5.172
  299SOL     OW 1795   0.582   1.272   6.395
  299SOL    HW1 1796   0.541   1.181   6.405
  299SOL    HW2 1797   0.681   1.265   6.401
  300SOL     OW 1798   4.236   6.272   4.595
  300SOL    HW1 1799   4.229   6.342   4.524
  300SOL    HW2 1800   4.144   6.239   4.618
  301SOL     OW 1801   6.670   6.539   5.483
  301SOL    HW1 1802   6.699   6.583   5.569
  301SOL    HW2 1803   6.728   6.572   5.409
  302SOL     OW 1804   0.592   0.165   1.629
  302SOL    HW1 1805   0.685   0.129   1.639
  302SOL    HW2 1806   0.539   0.146   1.711
  303SOL     OW 1807   4.932   5.461   2.939
  303SOL    HW1 1808   4.881   5.545   2.960
  303SOL    HW2 1809   4.870   5.383   2.939
  304SOL     OW 1810   1.221   1.361   4.549
  304SOL    HW1 1811   1.174   1.341   4.463
  304SOL    HW2 1812   1.274   1.282   4.578
  305SOL     OW 1813   3.062   1.565   1.307
  305SOL    HW1 1814   3.047   1.528   1.215
  305SOL    HW2 1815   2.987   1.537   1.367
  306SOL     OW 1816   0.413   6.524   3.025
  306SOL    HW1 1817   0.354   6.568   3.092
  306SOL    HW2 1818   0.399   6.565   2.936
  307SOL     OW 1819   4.060   3.863   4.544
  307SOL    HW1 1820   4.141   3.918   4.565
  307SOL    HW2 1821   4.041   3.868   4.446
  308SOL     OW 1822   6.205   3.085   1.475
  308SOL    HW1 1823   6.132   3.125   1.421
  308SOL    HW2 1824   6.250   3.013   1.422
  309SOL     OW 1825   1.798   5.019   0.347
  309SOL    HW1 1826   1.792   5.048   0.442
  309SOL    HW2 1827   1.893   5.003   0.323
  310SOL     OW 1828   4.809   6.351   4.957
  310SOL    HW1 1829   4.890   6.295   4.938
  310SOL    HW2 1830   4.836   6.433   5.007
  311SOL     OW 1831   1.744   6.107   2.061
  311SOL    HW1 1832   1.838   6.118   2.092
  311SOL    HW2 1833   1.681   6.150   2.126
  312SOL     OW 1834   3.341   0.869   4.040
  312SOL    HW1 1835   3.386   0.825   3.962
  312SOL    HW2 1836   3.407   0.881   4.114
  313SOL     OW 1837   3.576   3.253   3.590
  313SOL    HW1 1838   3.654   3.255   3.527
  313SOL    HW2 1839   3.510   3.323   3.563
  314SOL     OW 1840   2.315   4.267   6.363
  314SOL    HW1 1841   2.273   4.345   6.317
  314SOL    HW2 1842   2.309   4.186   6.304
  315SOL     OW 1843   5.850   0.088   5.059
  315SOL    HW1 1844   5.929   0.122   5.008
  315SOL    HW2 1845   5.881   0.050   5.147
  316SOL     OW 1846   3.990   0.907   4.713
  316SOL    HW1 1847   3.995   1.007   4.714
  316SOL    HW2 1848   4.029   0.871   4.798
  317SOL     OW 1849   0.532   1.700   1.728
  317SOL    HW1 1850   0.571   1.789   1.705
  317SOL    HW2 1851   0.481   1.707   1.814
  318SOL     OW 1852   1.026   1.248   3.662
  318SOL    HW1 1853   0.942   1.225   3.613
  318SOL    HW2 1854   1.009   1.242   3.761
  319SOL     OW 1855   0.384   1.954   2.307
  319SOL    HW1 1856   0.387   2.051   2.283
  319SOL    HW2 1857   0.467   1.909   2.276
  320SOL     OW 1858   5.215   1.099   6.516
  320SOL    HW1 1859   5.216   0.999   6.515
  320SOL    HW2 1860   5.126   1.131   6.483
  321SOL     OW 1861   4.372   3.200   1.372
  321SOL    HW1 1862   4.400   3.231   1.281
  321SOL    HW2 1863   4.446   3.215   1.437
  322SOL     OW 1864   2.930   1.686   0.097
  322SOL    HW1 1865   2.871   1.725   0.026
  322SOL    HW2 1866   2.891   1.599   0.129
  323SOL     OW 1867   0.459   4.481   2.200
  323SOL    HW1 1868   0.430   4.496   2.106
  323SOL    HW2 1869   0.469   4.383   2.216
  324SOL     OW 1870   6.115   0.214   3.609
  324SOL    HW1 1871   6.124   0.115   3.594
  324SOL    HW2 1872   6.071   0.230   3.698
  325SOL     OW 1873   6.110   2.951   0.827
  325SOL    HW1 1874   6.125   2.945   0.729
  325SOL    HW2 1875   6.068   2.866   0.859
  326SOL     OW 1876   6.102   5.759   6.324
  326SOL    HW1 1877   6.197   5.772   6.295
  326SOL    HW2 1878   6.041   5.763   6.245
  327SOL     OW 1879   4.266   6.583   6.251
  327SOL    HW1 1880   4.327   6.511   6.217
  327SOL    HW2 1881   4.317   6.643   6.313
  328SOL     OW 1882   2.309   4.197   3.763
  328SOL    HW1 1883   2.334   4.264   3.833
  328SOL    HW2 1884   2.313   4.240   3.672
  329SOL     OW 1885   2.978   3.516   2.809
  329SOL    HW1 1886   2.969   3.616   2.816
  329SOL    HW2 1887   2.947   3.487   2.719
  330SOL     OW 1888   2.286   4.022   6.626
  330SOL    HW1 1889   2.269   3.976   6.713
  330SOL    HW2 1890   2.227   4.102   6.619
  331SOL     OW 1891   5.117   5.523   3.974
  331SOL    HW1 1892   5.064   5.592   3.925
  331SOL    HW2 1893   5.184   5.568   4.034
  332SOL     OW 1894   6.247   2.184   2.915
  332SOL    HW1 1895   6.252   2.284   2.907
  332SOL    HW2 1896   6.196   2.147   2.839
  333SOL     OW 1897   3.309   6.595   3.687
  333SOL    HW1 1898   3.210   6.613   3.684
  333SOL    HW2 1899   3.337   6.578   3.781
  334SOL     OW 1900   3.909   3.516   4.236
  334SOL    HW1 1901   3.864   3.502   4.324
  334SOL    HW2 1902   3.988   3.456   4.229
  335SOL     OW 1903   4.591   1.448   0.257
  335SOL    HW1 1904   4.554   1.505   0.331
  335SOL    HW2 1905   4.686   1.423   0.279
  336SOL     OW 1906   3.755   2.116   4.690
  336SOL    HW1 1907   3.803   2.051   4.748
  336SOL    HW2 1908   3.677   2.154   4.740
  337SOL     OW 1909   0.831   1.849   5.194
  337SOL    HW1 1910   0.774   1.927   5.223
  337SOL    HW2 1911   0.790   1.807   5.113
  338SOL     OW 1912   5.160   1.391   2.021
  338SOL    HW1 1913   5.255   1.364   2.031
  338SOL    HW2 1914   5.127   1.363   1.931
  339SOL     OW 1915   3.314   4.999   5.554
  339SOL    HW1 1916   3.329   5.022   5.650
  339SOL    HW2 1917   3.377   5.051   5.496
  340SOL     OW 1918   5.656   3.856   4.590
  340SOL    HW1 1919   5.669   3.783   4.657
  340SOL    HW2 1920   5.603   3.821   4.512
  341SOL     OW 1921   6.236   0.564   1.517
  341SOL    HW1 1922   6.305   0.631   1.487
  341SOL    HW2 1923   6.272   0.512   1.594
  342SOL     OW 1924   4.934   0.899   2.239
  342SOL    HW1 1925   4.945   0.800   2.232
  342SOL    HW2 1926   4.990   0.943   2.168
  343SOL     OW 1927   5.486   0.682   1.678
  343SOL    HW1 1928   5.544   0.608   1.642
  343SOL    HW2 1929   5.449   0.735   1.602
  344SOL     OW 1930   6.557   2.909   1.353
  344SOL    HW1 1931   6.535   2.899   1.255
  344SOL    HW2 1932   6.606   2.995   1.367
  345SOL     OW 1933   0.125   3.048   3.709
  345SOL    HW1 1934   0.185   3.078   3.783
  345SOL    HW2 1935   0.031   3.040   3.744
  346SOL     OW 1936   1.017   6.877   2.526
  346SOL    HW1 1937   0.931   6.826   2.514
  346SOL    HW2 1938   1.019   6.954   2.463
  347SOL     OW 1939   1.489   4.451   1.566
  347SOL    HW1 1940   1.470   4.410   1.477
  347SOL    HW2 1941   1.457   4.389   1.638
  348SOL     OW 1942   5.655   4.771   0.979
  348SOL    HW1 1943   5.587   4.844   0.975
  348SOL    HW2 1944   5.654   4.730   1.071
  349SOL     OW 1945   5.925   5.653   0.124
  349SOL    HW1 1946   5.867   5.606   0.190
  349SOL    HW2 1947   5.930   5.600   0.039
  350SOL     OW 1948   2.350   0.256   0.870
  350SOL    HW1 1949   2.395   0.228   0.785
  350SOL    HW2 1950   2.256   0.223   0.871
  351SOL     OW 1951   3.465   4.164   1.191
  351SOL    HW1 1952   3.439   4.114   1.108
  351SOL    HW2 1953   3.464   4.102   1.269
  352SOL     OW 1954   3.896   0.735   2.053
  352SOL    HW1 1955   3.871   0.665   1.986
  352SOL    HW2 1956   3.916   0.691   2.141
  353SOL     OW 1957   2.910   6.030   0.572
  353SOL    HW1 1958   2.848   5.958   0.604
  353SOL    HW2 1959   2.861   6.093   0.512
  354SOL     OW 1960   2.358   2.205   0.430
  354SOL    HW1 1961   2.451   2.238   0.448
  354SOL    HW2 1962   2.308   2.274   0.378
  355SOL     OW 1963   0.334   2.705   2.597
  355SOL    HW1 1964   0.350   2.773   2.525
  355SOL    HW2 1965   0.410   2.708   2.663
  356SOL     OW 1966   2.829   0.387   6.069
  356SOL    HW1 1967   2.763   0.344   6.007
  356SOL    HW2 1968   2.921   0.356   6.047
  357SOL     OW 1969   6.177   5.837   4.289
  357SOL    HW1 1970   6.125   5.805   4.210
  357SOL    HW2 1971   6.193   5.935   4.280
  358SOL     OW 1972   3.484   6.196   0.042
  358SOL    HW1 1973   3.525   6.126   0.102
  358SOL    HW2 1974   3.437   6.264   0.098
  359SOL     OW 1975   1.787   2.466   1.221
  359SOL    HW1 1976   1.863   2.403   1.208
  359SOL    HW2 1977   1.789   2.536   1.150
  360SOL     OW 1978   2.212   4.115   3.166
  360SOL    HW1 1979   2.158   4.143   3.087
  360SOL    HW2 1980   2.298   4.075   3.135
  361SOL     OW 1981   6.431   3.464   2.368
  361SOL    HW1 1982   6.411   3.562   2.369
  361SOL    HW2 1983   6.517   3.447   2.416
  362SOL     OW 1984   3.989   3.629   2.917
  362SOL    HW1 1985   3.969   3.706   2.977
  362SOL    HW2 1986   4.049   3.659   2.843
  363SOL     OW 1987   4.847   5.160   0.405
  363SOL    HW1 1988   4.933   5.210   0.400
  363SOL    HW2 1989   4.865   5.063   0.425
  364SOL     OW 1990   0.882   0.474   0.278
  364SOL    HW1 1991   0.970   0.432   0.254
  364SOL    HW2 1992   0.809   0.428   0.226
  365SOL     OW 1993   4.703   0.366   4.149
  365SOL    HW1 1994   4.715   0.456   4.106
  365SOL    HW2 1995   4.608   0.336   4.139
  366SOL     OW 1996   5.255   1.950   0.651
  366SOL    HW1 1997   5.253   2.032   0.593
  366SOL    HW2 1998   5.343   1.904   0.641
  367SOL     OW 1999   6.050   0.486   6.868
  367SOL    HW1 2000   6.069   0.430   6.787
  367SOL    HW2 2001   6.116   0.462   6.940
  368SOL     OW 2002   3.285   1.480   5.773
  368SOL    HW1 2003   3.377   1.457   5.805
  368SOL    HW2 2004   3.286   1.489   5.673
  369SOL     OW 2005   5.045   4.010   0.256
  369SOL    HW1 2006   4.946   4.011   0.271
  369SOL    HW2 2007   5.064   3.985   0.161
  370SOL     OW 2008   2.334   2.388   3.539
  370SOL    HW1 2009   2.260   2.371   3.474
  370SOL    HW2 2010   2.414   2.424   3.491
  371SOL     OW 2011   2.469   4.890   0.708
  371SOL    HW1 2012   2.471   4.921   0.803
  371SOL    HW2 2013   2.382   4.843   0.691
  372SOL     OW 2014   2.895   6.257   6.067
  372SOL    HW1 2015   2.935   6.322   6.003
  372SOL    HW2 2016   2.898   6.165   6.027
  373SOL     OW 2017   5.151   4.711   2.923
  373SOL    HW1 2018   5.163   4.674   3.015
  373SOL    HW2 2019   5.187   4.646   2.856
  374SOL     OW 2020   2.490   2.465   2.202
  374SOL    HW1 2021   2.470   2.417   2.116
  374SOL    HW2 2022   2.483   2.563   2.187
  375SOL     OW 2023   6.865   5.307   3.742
  375SOL    HW1 2024   6.852   5.401   3.712
  375SOL    HW2 2025   6.960   5.280   3.724
  376SOL     OW 2026   4.571   0.739   3.670
  376SOL    HW1 2027   4.602   0.833   3.681
  376SOL    HW2 2028   4.490   0.723   3.728
  377SOL     OW 2029   2.917   3.116   6.159
  377SOL    HW1 2030   2.983   3.126   6.084
  377SOL    HW2 2031   2.848   3.189   6.152
  378SOL     OW 2032   4.433   0.824   1.700
  378SOL    HW1 2033   4.485   0.880   1.764
  378SOL    HW2 2034   4.397   0.882   1.627
  379SOL     OW 2035   3.426   3.332   0.027
  379SOL    HW1 2036   3.396   3.255   6.999
  379SOL    HW2 2037   3.351   3.360   0.087
  380SOL     OW 2038   5.003   1.995   0.408
  380SOL    HW1 2039   4.903   1.986   0.411
  380SOL    HW2 2040   5.045   1.923   0.463
  381SOL     OW 2041   1.004   3.370   2.155
  381SOL    HW1 2042   1.100   3.347   2.170
  381SOL    HW2 2043   0.984   3.365   2.057
  382SOL     OW 2044   6.549   0.327   0.548
  382SOL    HW1 2045   6.459   0.356   0.513
  382SOL    HW2 2046   6.545   0.324   0.648
  383SOL     OW 2047   4.957   3.150   0.701
  383SOL    HW1 2048   5.053   3.127   0.687
  383SOL    HW2 2049   4.935   3.234   0.652
  384SOL     OW 2050   1.072   2.483   5.098
  384SOL    HW1 2051   1.096   2.396   5.141
  384SOL    HW2 2052   1.051   2.551   5.168
  385SOL     OW 2053   5.156   3.014   6.413
  385SOL    HW1 2054   5.075   2.961   6.387
  385SOL    HW2 2055   5.128   3.107   6.438
  386SOL     OW 2056   3.370   6.108   5.093
  386SOL    HW1 2057   3.460   6.088   5.054
  386SOL    HW2 2058   3.356   6.207   5.096
  387SOL     OW 2059   2.511   6.145   4.046
  387SOL    HW1 2060   2.563   6.064   4.016
  387SOL    HW2 2061   2.489   6.202   3.967
  388SOL     OW 2062   1.752   5.629   5.750
  388SOL    HW1 2063   1.653   5.638   5.735
  388SOL    HW2 2064   1.771   5.542   5.794
  389SOL     OW 2065   2.815   2.080   0.039
  389SOL    HW1 2066   2.913   2.097   0.028
  389SOL    HW2 2067   2.797   2.045   0.131
  390SOL     OW 2068   3.115   1.478   4.051
  390SOL    HW1 2069   3.151   1.495   4.143
  390SOL    HW2 2070   3.015   1.469   4.055
  391SOL     OW 2071   0.524   1.927   0.528
  391SOL    HW1 2072   0.462   2.002   0.504
  391SOL    HW2 2073   0.480   1.839   0.507
  392SOL     OW 2074   3.956   5.527   4.417
  392SOL    HW1 2075   3.911   5.445   4.452
  392SOL    HW2 2076   4.055   5.519   4.433
  393SOL     OW 2077   6.274   3.439   5.715
  393SOL    HW1 2078   6.322   3.449   5.801
  393SOL    HW2 2079   6.312   3.502   5.648
  394SOL     OW 2080   1.991   1.074   6.700
  394SOL    HW1 2081   2.045   1.103   6.621
  394SOL    HW2 2082   1.894   1.077   6.676
  395SOL     OW 2083   0.075   3.009   1.203
  395SOL    HW1 2084   0.062   3.102   1.168
  395SOL    HW2 2085   7.014   2.965   1.213
  396SOL     OW 2086   3.753   2.828   5.464
  396SOL    HW1 2087   3.839   2.805   5.510
  396SOL    HW2 2088   3.686   2.856   5.533
  397SOL     OW 2089   4.613   0.049   6.385
  397SOL    HW1 2090   4.557   0.125   6.420
  397SOL    HW2 2091   4.554   7.002   6.357
  398SOL     OW 2092   6.470   4.348   2.766
  398SOL    HW1 2093   6.501   4.423   2.707
  398SOL    HW2 2094   6.381   4.371   2.805
  399SOL     OW 2095   3.858   5.253   1.641
  399SOL    HW1 2096   3.787   5.292   1.583
  399SOL    HW2 2097   3.858   5.300   1.730
  400SOL     OW 2098   2.602   4.669   5.632
  400SOL    HW1 2099   2.701   4.667   5.634
  400SOL    HW2 2100   2.568   4.603   5.565
  401SOL     OW 2101   6.268   1.464   1.510
  401SOL    HW1 2102   6.270   1.390   1.577
  401SOL    HW2 2103   6.209   1.439   1.433
  402SOL     OW 2104   0.520   5.592   0.811
  402SOL    HW1 2105   0.472   5.505   0.795
  402SOL    HW2 2106   0.616   5.582   0.786
  403SOL     OW 2107   4.874   4.546   0.679
  403SOL    HW1 2108   4.775   4.549   0.665
  403SOL    HW2 2109   4.915   4.487   0.610
  404SOL     OW 2110   0.384   5.751   4.925
  404SOL    HW1 2111   0.448   5.801   4.983
  404SOL    HW2 2112   0.401   5.775   4.829
  405SOL     OW 2113   0.993   1.589   1.088
  405SOL    HW1 2114   1.054   1.616   1.163
  405SOL    HW2 2115   0.914   1.651   1.086
  406SOL     OW 2116   0.895   2.907   3.571
  406SOL    HW1 2117   0.955   2.828   3.579
  406SOL    HW2 2118   0.827   2.905   3.644
  407SOL     OW 2119   3.519   2.128   3.884
  407SOL    HW1 2120   3.544   2.202   3.946
  407SOL    HW2 2121   3.430   2.147   3.844
  408SOL     OW 2122   2.444   0.200   4.144
  408SOL    HW1 2123   2.485   0.149   4.069
  408SOL    HW2 2124   2.469   0.297   4.137
  409SOL     OW 2125   6.981   4.278   4.320
  409SOL    HW1 2126   7.011   4.357   4.266
  409SOL    HW2 2127   6.886   4.291   4.348
  410SOL     OW 2128   2.805   6.742   6.048
  410SOL    HW1 2129   2.734   6.672   6.050
  410SOL    HW2 2130   2.895   6.698   6.055
  411SOL     OW 2131   0.646   4.386   5.578
  411SOL    HW1 2132   0.652   4.485   5.589
  411SOL    HW2 2133   0.705   4.358   5.502
  412SOL     OW 2134   3.517   6.274   2.452
  412SOL    HW1 2135   3.528   6.243   2.547
  412SOL    HW2 2136   3.600   6.253   2.400
  413SOL     OW 2137   1.865   0.470   1.956
  413SOL    HW1 2138   1.770   0.489   1.933
  413SOL    HW2 2139   1.913   0.437   1.875
  414SOL     OW 2140   5.004   4.792   0.751
  414SOL    HW1 2141   4.991   4.694   0.735
  414SOL    HW2 2142   5.099   4.816   0.733
  415SOL     OW 2143   3.907   0.347   3.129
  415SOL    HW1 2144   3.972   0.349   3.204
  415SOL    HW2 2145   3.905   0.256   3.088
  416SOL     OW 2146   3.850   5.936   6.955
  416SOL    HW1 2147   3.885   6.008   7.015
  416SOL    HW2 2148   3.809   5.978   6.874
  417SOL     OW 2149   5.349   5.419   1.184
  417SOL    HW1 2150   5.261   5.424   1.230
  417SOL    HW2 2151   5.337   5.439   1.087
  418SOL     OW 2152   6.748   5.232   6.624
  418SOL    HW1 2153   6.823   5.173   6.656
  418SOL    HW2 2154   6.689   5.255   6.701
  419SOL     OW 2155   5.084   5.282   0.086
  419SOL    HW1 2156   5.025   5.293   0.166
  419SOL    HW2 2157   5.057   5.348   0.016
  420SOL     OW 2158   5.613   3.743   6.655
  420SOL    HW1 2159   5.614   3.677   6.730
  420SOL    HW2 2160   5.519   3.777   6.642
  421SOL     OW 2161   1.819   6.343   6.505
  421SOL    HW1 2162   1.758   6.281   6.555
  421SOL    HW2 2163   1.857   6.296   6.426
  422SOL     OW 2164   6.345   3.916   6.723
  422SOL    HW1 2165   6.356   3.860   6.805
  422SOL    HW2 2166   6.312   3.860   6.648
  423SOL     OW 2167   0.945   3.659   5.999
  423SOL    HW1 2168   0.902   3.692   6.082
  423SOL    HW2 2169   0.924   3.721   5.923
  424SOL     OW 2170   1.737   4.674   6.427
  424SOL    HW1 2171   1.694   4.692   6.515
  424SOL    HW2 2172   1.831   4.709   6.427
  425SOL     OW 2173   2.878   0.350   0.512
  425SOL    HW1 2174   2.805   0.323   0.449
  425SOL    HW2 2175   2.870   0.447   0.532
  426SOL     OW 2176   0.900   3.517   0.386
  426SOL    HW1 2177   0.832   3.564   0.444
  426SOL    HW2 2178   0.855   3.443   0.337
  427SOL     OW 2179   3.622   3.528   0.012
  427SOL    HW1 2180   3.537   3.475   0.006
  427SOL    HW2 2181   3.700   3.468   7.023
  428SOL     OW 2182   3.983   1.450   4.793
  428SOL    HW1 2183   3.998   1.504   4.711
  428SOL    HW2 2184   3.907   1.487   4.845
  429SOL     OW 2185   3.487   6.547   0.199
  429SOL    HW1 2186   3.487   6.583   0.292
  429SOL    HW2 2187   3.417   6.475   0.191
  430SOL     OW 2188   2.800   0.605   4.648
  430SOL    HW1 2189   2.844   0.603   4.737
  430SOL    HW2 2190   2.869   0.621   4.577
  431SOL     OW 2191   3.742   0.924   0.065
  431SOL    HW1 2192   3.726   0.825   0.068
  431SOL    HW2 2193   3.708   0.960   7.007
  432SOL     OW 2194   6.286   1.694   0.942
  432SOL    HW1 2195   6.308   1.612   0.996
  432SOL    HW2 2196   6.349   1.768   0.967
  433SOL     OW 2197   3.203   6.315   4.980
  433SOL    HW1 2198   3.207   6.248   4.905
  433SOL    HW2 2199   3.115   6.361   4.979
  434SOL     OW 2200   6.281   3.532   0.804
  434SOL    HW1 2201   6.276   3.623   0.846
  434SOL    HW2 2202   6.315   3.466   0.871
  435SOL     OW 2203   3.714   3.490   0.962
  435SOL    HW1 2204   3.693   3.510   1.058
  435SOL    HW2 2205   3.751   3.398   0.954
  436SOL     OW 2206   2.748   1.215   0.914
  436SOL    HW1 2207   2.694   1.291   0.877
  436SOL    HW2 2208   2.713   1.128   0.879
  437SOL     OW 2209   6.630   6.420   6.326
  437SOL    HW1 2210   6.638   6.520   6.320
  437SOL    HW2 2211   6.595   6.385   6.239
  438SOL     OW 2212   1.081   3.037   0.716
  438SOL    HW1 2213   1.078   3.029   0.816
  438SOL    HW2 2214   1.024   3.113   0.687
  439SOL     OW 2215   6.018   4.960   1.932
  439SOL    HW1 2216   6.104   5.010   1.946
  439SOL    HW2 2217   5.981   4.934   2.021
  440SOL     OW 2218   1.305   2.844   2.709
  440SOL    HW1 2219   1.371   2.878   2.641
  440SOL    HW2 2220   1.237   2.914   2.727
  441SOL     OW 2221   0.154   1.281   3.344
  441SOL    HW1 2222   0.123   1.272   3.439
  441SOL    HW2 2223   0.145   1.376   3.315
  442SOL     OW 2224   1.047   5.006   6.132
  442SOL    HW1 2225   1.011   5.024   6.041
  442SOL    HW2 2226   1.126   5.065   6.148
  443SOL     OW 2227   0.825   4.731   5.510
  443SOL    HW1 2228   0.882   4.739   5.591
  443SOL    HW2 2229   0.867   4.781   5.434
  444SOL     OW 2230   5.367   2.988   6.595
  444SOL    HW1 2231   5.416   3.075   6.599
  444SOL    HW2 2232   5.298   2.991   6.522
  445SOL     OW 2233   0.995   3.556   3.529
  445SOL    HW1 2234   1.085   3.519   3.552
  445SOL    HW2 2235   0.972   3.630   3.593
  446SOL     OW 2236   2.183   4.804   4.185
  446SOL    HW1 2237   2.104   4.859   4.210
  446SOL    HW2 2238   2.263   4.837   4.235
  447SOL     OW 2239   0.318   6.075   0.830
  447SOL    HW1 2240   0.365   5.987   0.831
  447SOL    HW2 2241   0.365   6.137   0.768
  448SOL     OW 2242   4.329   0.419   5.635
  448SOL    HW1 2243   4.295   0.399   5.543
  448SOL    HW2 2244   4.262   0.477   5.683
  449SOL     OW 2245   5.488   0.222   4.956
  449SOL    HW1 2246   5.558   0.184   4.896
  449SOL    HW2 2247   5.531   0.267   5.034
  450SOL     OW 2248   6.712   6.021   2.575
  450SOL    HW1 2249   6.738   6.106   2.529
  450SOL    HW2 2250   6.669   5.960   2.508
  451SOL     OW 2251   6.227   3.236   3.682
  451SOL    HW1 2252   6.247   3.177   3.760
  451SOL    HW2 2253   6.240   3.332   3.708
  452SOL     OW 2254   6.554   5.367   5.685
  452SOL    HW1 2255   6.627   5.333   5.745
  452SOL    HW2 2256   6.588   5.370   5.591
  453SOL     OW 2257   3.317   1.629   6.217
  453SOL    HW1 2258   3.355   1.709   6.264
  453SOL    HW2 2259   3.296   1.653   6.123
  454SOL     OW 2260   0.770   6.155   0.768
  454SOL    HW1 2261   0.836   6.080   0.761
  454SOL    HW2 2262   0.817   6.239   0.796
  455SOL     OW 2263   5.427   1.247   4.822
  455SOL    HW1 2264   5.434   1.176   4.751
  455SOL    HW2 2265   5.518   1.276   4.849
  456SOL     OW 2266   3.784   5.067   0.278
  456SOL    HW1 2267   3.857   5.004   0.302
  456SOL    HW2 2268   3.753   5.049   0.185
  457SOL     OW 2269   0.404   4.552   1.579
  457SOL    HW1 2270   0.394   4.487   1.503
  457SOL    HW2 2271   0.420   4.501   1.664
  458SOL     OW 2272   0.730   6.072   5.393
  458SOL    HW1 2273   0.689   6.032   5.475
  458SOL    HW2 2274   0.686   6.161   5.375
  459SOL     OW 2275   1.335   0.651   3.630
  459SOL    HW1 2276   1.304   0.604   3.712
  459SOL    HW2 2277   1.257   0.688   3.580
  460SOL     OW 2278   6.871   2.166   3.132
  460SOL    HW1 2279   6.927   2.100   3.181
  460SOL    HW2 2280   6.790   2.120   3.095
  461SOL     OW 2281   5.646   4.782   5.651
  461SOL    HW1 2282   5.581   4.706   5.650
  461SOL    HW2 2283   5.725   4.760   5.594
  462SOL     OW 2284   2.713   2.312   6.956
  462SOL    HW1 2285   2.732   2.218   6.986
  462SOL    HW2 2286   2.798   2.354   6.923
  463SOL     OW 2287   6.098   6.023   2.295
  463SOL    HW1 2288   6.115   5.967   2.214
  463SOL    HW2 2289   6.163   5.999   2.367
  464SOL     OW 2290   1.923   1.373   5.710
  464SOL    HW1 2291   1.994   1.327   5.762
  464SOL    HW2 2292   1.957   1.462   5.678
  465SOL     OW 2293   0.451   3.289   6.547
  465SOL    HW1 2294   0.461   3.363   6.614
  465SOL    HW2 2295   0.434   3.328   6.457
  466SOL     OW 2296   1.942   0.351   3.398
  466SOL    HW1 2297   1.933   0.427   3.335
  466SOL    HW2 2298   1.852   0.329   3.437
  467SOL     OW 2299   1.565   1.946   5.337
  467SOL    HW1 2300   1.657   1.971   5.369
  467SOL    HW2 2301   1.573   1.884   5.259
  468SOL     OW 2302   2.893   3.641   3.195
  468SOL    HW1 2303   2.891   3.548   3.159
  468SOL    HW2 2304   2.858   3.641   3.289
  469SOL     OW 2305   3.490   6.755   6.852
  469SOL    HW1 2306   3.467   6.667   6.811
  469SOL    HW2 2307   3.590   6.763   6.860
  470SOL     OW 2308   4.651   6.996   3.390
  470SOL    HW1 2309   4.634   0.057   3.431
  470SOL    HW2 2310   4.734   7.000   3.334
  471SOL     OW 2311   2.756   2.307   4.116
  471SOL    HW1 2312   2.851   2.295   4.088
  471SOL    HW2 2313   2.695   2.287   4.039
  472SOL     OW 2314   3.677   4.577   5.361
  472SOL    HW1 2315   3.701   4.480   5.365
  472SOL    HW2 2316   3.581   4.587   5.334
  473SOL     OW 2317   0.627   4.446   3.776
  473SOL    HW1 2318   0.584   4.519   3.830
  473SOL    HW2 2319   0.570   4.427   3.696
  474SOL     OW 2320   5.058   4.525   5.426
  474SOL    HW1 2321   5.020   4.519   5.333
  474SOL    HW2 2322   5.030   4.446   5.479
  475SOL     OW 2323   2.556   6.124   0.275
  475SOL    HW1 2324   2.533   6.189   0.203
  475SOL    HW2 2325   2.491   6.048   0.274
  476SOL     OW 2326   6.237   6.086   3.109
  476SOL    HW1 2327   6.286   5.998   3.108
  476SOL    HW2 2328   6.139   6.069   3.116
  477SOL     OW 2329   2.227   4.404   4.011
  477SOL    HW1 2330   2.252   4.497   3.985
  477SOL    HW2 2331   2.292   4.369   4.079
  478SOL     OW 2332   1.538   5.005   3.445
  478SOL    HW1 2333   1.444   4.977   3.464
  478SOL    HW2 2334   1.579   5.041   3.528
  479SOL     OW 2335   4.346   2.022   1.867
  479SOL    HW1 2336   4.353   1.941   1.925
  479SOL    HW2 2337   4.269   2.011   1.804
  480SOL     OW 2338   1.633   6.526   4.006
  480SOL    HW1 2339   1.594   6.435   4.014
  480SOL    HW2 2340   1.691   6.545   4.086
  481SOL     OW 2341   2.088   6.909   1.090
  481SOL    HW1 2342   2.119   6.912   0.995
  481SOL    HW2 2343   2.155   6.858   1.145
  482SOL     OW 2344   5.364   5.610   0.722
  482SOL    HW1 2345   5.460   5.594   0.698
  482SOL    HW2 2346   5.340   5.705   0.704
  483SOL     OW 2347   5.602   2.099   2.812
  483SOL    HW1 2348   5.542   2.098   2.733
  483SOL    HW2 2349   5.586   2.018   2.868
  484SOL     OW 2350   6.412   2.059   3.987
  484SOL    HW1 2351   6.473   1.982   3.971
  484SOL    HW2 2352   6.417   2.123   3.909
  485SOL     OW 2353   3.260   5.960   1.344
  485SOL    HW1 2354   3.231   6.052   1.319
  485SOL    HW2 2355   3.309   5.918   1.268
  486SOL     OW 2356   0.417   0.833   5.696
  486SOL    HW1 2357   0.395   0.767   5.768
  486SOL    HW2 2358   0.347   0.905   5.694
  487SOL     OW 2359   6.604   2.926   6.635
  487SOL    HW1 2360   6.615   2.959   6.728
  487SOL    HW2 2361   6.528   2.861   6.632
  488SOL     OW 2362   0.818   4.925   2.341
  488SOL    HW1 2363   0.810   4.952   2.437
  488SOL    HW2 2364   0.760   4.984   2.285
  489SOL     OW 2365   3.141   5.725   6.310
  489SOL    HW1 2366   3.188   5.812   6.296
  489SOL    HW2 2367   3.208   5.651   6.313
  490SOL     OW 2368   5.100   0.303   4.402
  490SOL    HW1 2369   5.096   0.226   4.338
  490SOL    HW2 2370   5.134   0.270   4.490
  491SOL     OW 2371   0.689   2.350   3.521
  491SOL    HW1 2372   0.770   2.344   3.463
  491SOL    HW2 2373   0.613   2.388   3.469
  492SOL     OW 2374   1.754   1.407   4.693
  492SOL    HW1 2375   1.804   1.472   4.751
  492SOL    HW2 2376   1.715   1.456   4.614
  493SOL     OW 2377   6.371   4.036   4.367
  493SOL    HW1 2378   6.404   3.967   4.430
  493SOL    HW2 2379   6.330   4.112   4.419
  494SOL     OW 2380   5.821   1.230   6.501
  494SOL    HW1 2381   5.769   1.269   6.425
  494SOL    HW2 2382   5.764   1.230   6.584
  495SOL     OW 2383   4.978   4.449   0.438
  495SOL    HW1 2384   4.972   4.538   0.393
  495SOL    HW2 2385   5.074   4.425   0.453
  496SOL     OW 2386   5.619   3.727   2.606
  496SOL    HW1 2387   5.656   3.634   2.618
  496SOL    HW2 2388   5.520   3.726   2.621
  497SOL     OW 2389   3.992   6.567   3.986
  497SOL    HW1 2390   3.966   6.560   4.083
  497SOL    HW2 2391   4.091   6.580   3.980
  498SOL     OW 2392   1.147   2.765   1.125
  498SOL    HW1 2393   1.223   2.729   1.071
  498SOL    HW2 2394   1.160   2.738   1.221
  499SOL     OW 2395   3.766   1.208   4.781
  499SOL    HW1 2396   3.738   1.302   4.803
  499SOL    HW2 2397   3.866   1.204   4.777
  500SOL     OW 2398   1.328   4.576   2.737
  500SOL    HW1 2399   1.273   4.493   2.731
  500SOL    HW2 2400   1.368   4.597   2.648
  501SOL     OW 2401   0.520   5.506   6.287
  501SOL    HW1 2402   0.497   5.409   6.276
  501SOL    HW2 2403   0.559   5.541   6.202
  502SOL     OW 2404   2.449   5.068   6.251
  502SOL    HW1 2405   2.464   5.056   6.153
  502SOL    HW2 2406   2.524   5.121   6.290
  503SOL     OW 2407   6.529   5.158   4.666
  503SOL    HW1 2408   6.451   5.096   4.678
  503SOL    HW2 2409   6.538   5.182   4.570
  504SOL     OW 2410   1.455   5.488   4.500
  504SOL    HW1 2411   1.387   5.418   4.519
  504SOL    HW2 2412   1.414   5.579   4.513
  505SOL     OW 2413   3.332   6.583   4.875
  505SOL    HW1 2414   3.351   6.506   4.937
  505SOL    HW2 2415   3.361   6.559   4.783
  506SOL     OW 2416   1.958   2.969   0.737
  506SOL    HW1 2417   1.893   2.921   0.796
  506SOL    HW2 2418   1.918   3.056   0.708
  507SOL     OW 2419   3.969   2.180   4.326
  507SOL    HW1 2420   3.925   2.148   4.409
  507SOL    HW2 2421   4.032   2.110   4.292
  508SOL     OW 2422   6.503   5.010   4.139
  508SOL    HW1 2423   6.578   5.025   4.075
  508SOL    HW2 2424   6.458   4.923   4.118
  509SOL     OW 2425   4.541   3.241   1.589
  509SOL    HW1 2426   4.477   3.182   1.639
  509SOL    HW2 2427   4.616   3.186   1.552
  510SOL     OW 2428   1.032   4.511   4.363
  510SOL    HW1 2429   1.034   4.412   4.356
  510SOL    HW2 2430   1.113   4.543   4.412
  511SOL     OW 2431   0.234   6.167   1.173
  511SOL    HW1 2432   0.228   6.094   1.104
  511SOL    HW2 2433   0.183   6.247   1.142
  512SOL     OW 2434   1.416   3.779   5.991
  512SOL    HW1 2435   1.433   3.681   6.002
  512SOL    HW2 2436   1.484   3.830   6.043
  513SOL     OW 2437   0.840   5.062   4.096
  513SOL    HW1 2438   0.753   5.096   4.061
  513SOL    HW2 2439   0.824   4.988   4.162
  514SOL     OW 2440   5.262   2.013   3.561
  514SOL    HW1 2441   5.330   2.084   3.575
  514SOL    HW2 2442   5.263   1.950   3.639
  515SOL     OW 2443   3.057   5.767   0.100
  515SOL    HW1 2444   3.063   5.867   0.105
  515SOL    HW2 2445   3.149   5.728   0.099
  516SOL     OW 2446   1.291   4.625   3.690
  516SOL    HW1 2447   1.259   4.578   3.609
  516SOL    HW2 2448   1.269   4.570   3.771
  517SOL     OW 2449   4.574   0.413   6.108
  517SOL    HW1 2450   4.484   0.447   6.081
  517SOL    HW2 2451   4.576   0.313   6.098
  518SOL     OW 2452   2.016   1.438   0.245
  518SOL    HW1 2453   1.932   1.487   0.219
  518SOL    HW2 2454   2.000   1.340   0.242
  519SOL     OW 2455   0.726   6.514   0.388
  519SOL    HW1 2456   0.690   6.465   0.308
  519SOL    HW2 2457   0.743   6.610   0.363
  520SOL     OW 2458   6.112   4.613   4.254
  520SOL    HW1 2459   6.132   4.585   4.161
  520SOL    HW2 2460   6.013   4.625   4.265
  521SOL     OW 2461   6.253   0.760   0.442
  521SOL    HW1 2462   6.352   0.775   0.438
  521SOL    HW2 2463   6.208   0.840   0.481
  522SOL     OW 2464   3.358   3.789   5.605
  522SOL    HW1 2465   3.339   3.881   5.572
  522SOL    HW2 2466   3.425   3.793   5.680
  523SOL     OW 2467   6.361   6.687   3.593
  523SOL    HW1 2468   6.455   6.667   3.623
  523SOL    HW2 2469   6.356   6.780   3.558
  524SOL     OW 2470   3.996   0.266   5.215
  524SOL    HW1 2471   3.897   0.256   5.228
  524SOL    HW2 2472   4.033   0.325   5.287
  525SOL     OW 2473   3.179   2.853   6.886
  525SOL    HW1 2474   3.179   2.947   6.851
  525SOL    HW2 2475   3.219   2.792   6.818
  526SOL     OW 2476   4.506   5.736   4.601
  526SOL    HW1 2477   4.449   5.659   4.572
  526SOL    HW2 2478   4.469   5.821   4.565
  527SOL     OW 2479   0.387   1.860   0.055
  527SOL    HW1 2480   0.409   1.858   6.987
  527SOL    HW2 2481   0.363   1.768   0.087
  528SOL     OW 2482   1.753   1.804   5.991
  528SOL    HW1 2483   1.676   1.751   5.956
  528SOL    HW2 2484   1.793   1.857   5.916
  529SOL     OW 2485   6.999   5.252   4.199
  529SOL    HW1 2486   7.012   5.196   4.281
  529SOL    HW2 2487   6.993   5.349   4.225
  530SOL     OW 2488   6.830   2.725   5.075
  530SOL    HW1 2489   6.779   2.735   5.161
  530SOL    HW2 2490   6.837   2.813   5.029
  531SOL     OW 2491   6.791   0.691   0.002
  531SOL    HW1 2492   6.761   0.680   6.936
  531SOL    HW2 2493   6.717   0.728   0.057
  532SOL     OW 2494   2.005   0.999   5.881
  532SOL    HW1 2495   2.025   0.943   5.961
  532SOL    HW2 2496   2.037   1.092   5.896
  533SOL     OW 2497   4.420   0.479   5.073
  533SOL    HW1 2498   4.457   0.537   5.145
  533SOL    HW2 2499   4.477   0.398   5.063
  534SOL     OW 2500   3.140   5.557   3.261
  534SOL    HW1 2501   3.220   5.584   3.314
  534SOL    HW2 2502   3.133   5.457   3.260
  535SOL     OW 2503   6.006   3.854   1.570
  535SOL    HW1 2504   6.010   3.805   1.657
  535SOL    HW2 2505   5.914   3.846   1.531
  536SOL     OW 2506   1.671   6.109   1.120
  536SOL    HW1 2507   1.659   6.159   1.206
  536SOL    HW2 2508   1.758   6.060   1.122
  537SOL     OW 2509   2.239   6.684   3.117
  537SOL    HW1 2510   2.274   6.692   3.211
  537SOL    HW2 2511   2.243   6.773   3.072
  538SOL     OW 2512   1.737   5.090   4.158
  538SOL    HW1 2513   1.660   5.147   4.188
  538SOL    HW2 2514   1.705   4.998   4.137
  539SOL     OW 2515   1.062   5.496   1.700
  539SOL    HW1 2516   1.058   5.574   1.638
  539SOL    HW2 2517   1.146   5.500   1.753
  540SOL     OW 2518   1.874   3.154   1.063
  540SOL    HW1 2519   1.968   3.185   1.053
  540SOL    HW2 2520   1.812   3.225   1.031
  541SOL     OW 2521   4.516   5.488   5.028
  541SOL    HW1 2522   4.507   5.417   5.097
  541SOL    HW2 2523   4.574   5.454   4.953
  542SOL     OW 2524   5.585   6.936   6.083
  542SOL    HW1 2525   5.655   6.997   6.046
  542SOL    HW2 2526   5.542   6.885   6.009
  543SOL     OW 2527   5.940   0.147   1.397
  543SOL    HW1 2528   5.928   0.051   1.424
  543SOL    HW2 2529   5.920   0.206   1.475
  544SOL     OW 2530   0.838   5.747   0.596
  544SOL    HW1 2531   0.902   5.823   0.599
  544SOL    HW2 2532   0.745   5.780   0.615
  545SOL     OW 2533   3.060   1.756   3.585
  545SOL    HW1 2534   2.961   1.759   3.590
  545SOL    HW2 2535   3.093   1.676   3.636
  546SOL     OW 2536   1.806   2.238   7.006
  546SOL    HW1 2537   1.855   2.158   6.970
  546SOL    HW2 2538   1.866   2.318   7.002
  547SOL     OW 2539   2.780   1.880   0.251
  547SOL    HW1 2540   2.832   1.813   0.198
  547SOL    HW2 2541   2.812   1.880   0.346
  548SOL     OW 2542   3.309   3.508   5.559
  548SOL    HW1 2543   3.286   3.606   5.557
  548SOL    HW2 2544   3.225   3.454   5.558
  549SOL     OW 2545   0.601   4.297   0.907
  549SOL    HW1 2546   0.637   4.205   0.922
  549SOL    HW2 2547   0.678   4.362   0.903
  550SOL     OW 2548   6.987   4.311   0.731
  550SOL    HW1 2549   6.909   4.309   0.668
  550SOL    HW2 2550   7.004   4.405   0.760
  551SOL     OW 2551   7.007   0.829   0.405
  551SOL    HW1 2552   0.005   0.762   0.474
  551SOL    HW2 2553   6.926   0.878   0.435
  552SOL     OW 2554   4.868   4.899   0.479
  552SOL    HW1 2555   4.805   4.822   0.474
  552SOL    HW2 2556   4.962   4.866   0.467
  553SOL     OW 2557   1.108   2.067   1.357
  553SOL    HW1 2558   1.123   2.111   1.445
  553SOL    HW2 2559   1.026   2.105   1.314
  554SOL     OW 2560   4.645   4.914   4.659
  554SOL    HW1 2561   4.559   4.864   4.645
  554SOL    HW2 2562   4.663   4.971   4.579
  555SOL     OW 2563   1.714   4.600   5.225
  555SOL    HW1 2564   1.805   4.625   5.258
  555SOL    HW2 2565   1.664   4.552   5.298
  556SOL     OW 2566   6.213   4.197   2.895
  556SOL    HW1 2567   6.200   4.102   2.867
  556SOL    HW2 2568   6.280   4.201   2.969
  557SOL     OW 2569   6.424   5.990   5.579
  557SOL    HW1 2570   6.387   6.044   5.503
  557SOL    HW2 2571   6.494   6.044   5.626
  558SOL     OW 2572   4.019   3.801   5.819
  558SOL    HW1 2573   3.976   3.820   5.908
  558SOL    HW2 2574   4.023   3.702   5.804
  559SOL     OW 2575   5.980   4.958   6.407
  559SOL    HW1 2576   6.024   4.946   6.496
  559SOL    HW2 2577   6.049   4.948   6.335
  560SOL     OW 2578   4.381   6.616   0.730
  560SOL    HW1 2579   4.451   6.577   0.670
  560SOL    HW2 2580   4.411   6.705   0.764
  561SOL     OW 2581   5.336   0.150   2.112
  561SOL    HW1 2582   5.267   0.149   2.040
  561SOL    HW2 2583   5.410   0.213   2.087
  562SOL     OW 2584   6.523   0.323   0.816
  562SOL    HW1 2585   6.594   0.331   0.885
  562SOL    HW2 2586   6.444   0.276   0.854
  563SOL     OW 2587   2.752   0.719   5.118
  563SOL    HW1 2588   2.801   0.766   5.044
  563SOL    HW2 2589   2.746   0.779   5.198
  564SOL     OW 2590   1.011   1.233   5.471
  564SOL    HW1 2591   0.970   1.218   5.561
  564SOL    HW2 2592   1.045   1.326   5.464
  565SOL     OW 2593   4.500   3.799   5.705
  565SOL    HW1 2594   4.565   3.728   5.733
  565SOL    HW2 2595   4.488   3.865   5.780
  566SOL     OW 2596   6.562   4.778   2.118
  566SOL    HW1 2597   6.650   4.816   2.088
  566SOL    HW2 2598   6.573   4.680   2.135
  567SOL     OW 2599   3.864   3.675   5.546
  567SOL    HW1 2600   3.892   3.614   5.620
  567SOL    HW2 2601   3.924   3.756   5.545
  568SOL     OW 2602   2.374   1.061   6.527
  568SOL    HW1 2603   2.287   1.012   6.536
  568SOL    HW2 2604   2.440   1.002   6.479
  569SOL     OW 2605   1.828   4.067   6.702
  569SOL    HW1 2606   1.790   3.975   6.717
  569SOL    HW2 2607   1.834   4.084   6.603
  570SOL     OW 2608   0.126   5.507   0.268
  570SOL    HW1 2609   0.197   5.439   0.288
  570SOL    HW2 2610   0.047   5.462   0.226
  571SOL     OW 2611   3.787   6.424   2.479
  571SOL    HW1 2612   3.755   6.446   2.386
  571SOL    HW2 2613   3.736   6.480   2.545
  572SOL     OW 2614   1.403   4.087   3.784
  572SOL    HW1 2615   1.344   4.151   3.834
  572SOL    HW2 2616   1.468   4.138   3.728
  573SOL     OW 2617   3.553   2.325   6.837
  573SOL    HW1 2618   3.610   2.242   6.838
  573SOL    HW2 2619   3.460   2.301   6.865
  574SOL     OW 2620   2.777   2.231   3.527
  574SOL    HW1 2621   2.678   2.227   3.536
  574SOL    HW2 2622   2.819   2.234   3.617
  575SOL     OW 2623   4.409   2.468   6.365
  575SOL    HW1 2624   4.319   2.446   6.402
  575SOL    HW2 2625   4.431   2.404   6.290
  576SOL     OW 2626   1.008   3.314   3.212
  576SOL    HW1 2627   1.077   3.387   3.212
  576SOL    HW2 2628   0.917   3.355   3.221
  577SOL     OW 2629   4.330   2.035   3.868
  577SOL    HW1 2630   4.363   1.997   3.954
  577SOL    HW2 2631   4.368   1.983   3.791
  578SOL     OW 2632   0.117   4.115   4.463
  578SOL    HW1 2633   0.209   4.150   4.478
  578SOL    HW2 2634   0.076   4.162   4.385
  579SOL     OW 2635   3.792   3.606   0.451
  579SOL    HW1 2636   3.761   3.688   0.499
  579SOL    HW2 2637   3.769   3.525   0.505
  580SOL     OW 2638   0.429   0.198   0.276
  580SOL    HW1 2639   0.371   0.162   0.350
  580SOL    HW2 2640   0.392   0.286   0.245
  581SOL     OW 2641   4.080   3.551   3.428
  581SOL    HW1 2642   4.044   3.638   3.461
  581SOL    HW2 2643   4.088   3.487   3.505
  582SOL     OW 2644   6.870   4.184   0.230
  582SOL    HW1 2645   6.912   4.100   0.265
  582SOL    HW2 2646   6.927   4.222   0.158
  583SOL     OW 2647   2.478   6.726   6.351
  583SOL    HW1 2648   2.393   6.686   6.384
  583SOL    HW2 2649   2.471   6.743   6.252
  584SOL     OW 2650   1.354   4.780   4.285
  584SOL    HW1 2651   1.298   4.713   4.334
  584SOL    HW2 2652   1.426   4.814   4.346
  585SOL     OW 2653   5.703   1.259   5.212
  585SOL    HW1 2654   5.728   1.172   5.169
  585SOL    HW2 2655   5.678   1.243   5.307
  586SOL     OW 2656   3.043   5.392   0.975
  586SOL    HW1 2657   3.041   5.314   0.913
  586SOL    HW2 2658   2.994   5.469   0.933
  587SOL     OW 2659   2.222   2.534   6.038
  587SOL    HW1 2660   2.316   2.553   6.011
  587SOL    HW2 2661   2.191   2.602   6.104
  588SOL     OW 2662   2.306   0.027   1.765
  588SOL    HW1 2663   2.375   7.020   1.828
  588SOL    HW2 2664   2.291   6.989   1.692
  589SOL     OW 2665   4.743   4.707   1.464
  589SOL    HW1 2666   4.718   4.803   1.464
  589SOL    HW2 2667   4.666   4.652   1.496
  590SOL     OW 2668   0.012   3.868   1.972
  590SOL    HW1 2669   0.098   3.866   2.022
  590SOL    HW2 2670   0.027   3.833   1.879
  591SOL     OW 2671   2.371   0.044   3.045
  591SOL    HW1 2672   2.285   7.022   3.051
  591SOL    HW2 2673   2.353   0.137   3.011
  592SOL     OW 2674   5.286   6.906   6.011
  592SOL    HW1 2675   5.356   6.968   5.976
  592SOL    HW2 2676   5.325   6.851   6.085
  593SOL     OW 2677   0.206   0.799   4.870
  593SOL    HW1 2678   0.123   0.832   4.916
  593SOL    HW2 2679   0.258   0.877   4.836
  594SOL     OW 2680   5.373   2.204   1.459
  594SOL    HW1 2681   5.440   2.254   1.514
  594SOL    HW2 2682   5.380   2.106   1.479
  595SOL     OW 2683   3.023   0.270   3.813
  595SOL    HW1 2684   2.927   0.247   3.795
  595SOL    HW2 2685   3.030   0.315   3.902
  596SOL     OW 2686   0.656   4.662   2.005
  596SOL    HW1 2687   0.562   4.693   1.987
  596SOL    HW2 2688   0.653   4.583   2.067
  597SOL     OW 2689   4.761   1.942   5.582
  597SOL    HW1 2690   4.751   2.040   5.597
  597SOL    HW2 2691   4.792   1.925   5.489
  598SOL     OW 2692   3.432   3.054   1.888
  598SOL    HW1 2693   3.499   2.980   1.887
  598SOL    HW2 2694   3.453   3.117   1.963
  599SOL     OW 2695   5.660   6.306   3.591
  599SOL    HW1 2696   5.617   6.368   3.658
  599SOL    HW2 2697   5.754   6.335   3.575
  600SOL     OW 2698   2.611   1.955   0.664
  600SOL    HW1 2699   2.630   2.036   0.609
  600SOL    HW2 2700   2.657   1.962   0.752
  601SOL     OW 2701   2.042   4.819   2.498
  601SOL    HW1 2702   2.068   4.765   2.578
  601SOL    HW2 2703   2.101   4.899   2.491
  602SOL     OW 2704   0.181   0.569   2.347
  602SOL    HW1 2705   0.091   0.532   2.324
  602SOL    HW2 2706   0.182   0.599   2.442
  603SOL     OW 2707   4.334   1.583   2.931
  603SOL    HW1 2708   4.295   1.674   2.915
  603SOL    HW2 2709   4.259   1.517   2.940
  604SOL     OW 2710   1.196   3.585   5.914
  604SOL    HW1 2711   1.110   3.616   5.955
  604SOL    HW2 2712   1.184   3.493   5.878
  605SOL     OW 2713   5.570   0.431   4.416
  605SOL    HW1 2714   5.590   0.524   4.447
  605SOL    HW2 2715   5.521   0.381   4.488
  606SOL     OW 2716   2.682   6.761   2.015
  606SOL    HW1 2717   2.746   6.719   2.079
  606SOL    HW2 2718   2.692   6.719   1.926
  607SOL     OW 2719   3.694   0.603   4.519
  607SOL    HW1 2720   3.747   0.540   4.462
  607SOL    HW2 2721   3.732   0.604   4.612
  608SOL     OW 2722   5.687   2.766   0.977
  608SOL    HW1 2723   5.682   2.855   0.933
  608SOL    HW2 2724   5.725   2.699   0.913
  609SOL     OW 2725   3.496   4.067   4.955
  609SOL    HW1 2726   3.564   4.119   4.904
  609SOL    HW2 2727   3.517   4.072   5.053
  610SOL     OW 2728   6.193   1.873   4.574
  610SOL    HW1 2729   6.279   1.914   4.546
  610SOL    HW2 2730   6.211   1.791   4.628
  611SOL     OW 2731   6.196   0.023   0.410
  611SOL    HW1 2732   6.263   0.003   0.481
  611SOL    HW2 2733   6.133   6.975   0.400
  612SOL     OW 2734   1.505   4.503   6.662
  612SOL    HW1 2735   1.526   4.590   6.706
  612SOL    HW2 2736   1.429   4.459   6.710
  613SOL     OW 2737   3.585   1.466   6.684
  613SOL    HW1 2738   3.499   1.450   6.637
  613SOL    HW2 2739   3.618   1.558   6.661
  614SOL     OW 2740   5.221   2.998   0.745
  614SOL    HW1 2741   5.269   2.993   0.657
  614SOL    HW2 2742   5.280   3.040   0.813
  615SOL     OW 2743   5.885   6.239   0.188
  615SOL    HW1 2744   5.868   6.333   0.218
  615SOL    HW2 2745   5.945   6.239   0.108
  616SOL     OW 2746   4.417   1.888   4.783
  616SOL    HW1 2747   4.508   1.887   4.740
  616SOL    HW2 2748   4.379   1.980   4.777
  617SOL     OW 2749   6.519   6.725   5.185
  617SOL    HW1 2750   6.613   6.690   5.177
  617SOL    HW2 2751   6.490   6.763   5.097
  618SOL     OW 2752   5.450   5.058   0.642
  618SOL    HW1 2753   5.540   5.015   0.645
  618SOL    HW2 2754   5.439   5.104   0.554
  619SOL     OW 2755   1.829   0.501   6.814
  619SOL    HW1 2756   1.767   0.425   6.833
  619SOL    HW2 2757   1.806   0.578   6.873
  620SOL     OW 2758   4.640   1.931   1.576
  620SOL    HW1 2759   4.586   1.883   1.645
  620SOL    HW2 2760   4.735   1.900   1.581
  621SOL     OW 2761   2.215   6.999   6.337
  621SOL    HW1 2762   2.243   7.022   6.430
  621SOL    HW2 2763   2.138   6.935   6.339
  622SOL     OW 2764   0.741   3.464   6.305
  622SOL    HW1 2765   0.724   3.521   6.385
  622SOL    HW2 2766   0.661   3.466   6.246
  623SOL     OW 2767   6.745   1.639   2.747
  623SOL    HW1 2768   6.674   1.570   2.765
  623SOL    HW2 2769   6.799   1.654   2.830
  624SOL     OW 2770   6.507   0.911   5.877
  624SOL    HW1 2771   6.545   0.901   5.785
  624SOL    HW2 2772   6.581   0.926   5.942
  625SOL     OW 2773   3.202   0.924   1.460
  625SOL    HW1 2774   3.202   0.855   1.533
  625SOL    HW2 2775   3.108   0.946   1.435
  626SOL     OW 2776   0.348   6.107   3.740
  626SOL    HW1 2777   0.400   6.190   3.717
  626SOL    HW2 2778   0.402   6.026   3.715
  627SOL     OW 2779   6.552   5.004   6.365
  627SOL    HW1 2780   6.471   4.946   6.381
  627SOL    HW2 2781   6.525   5.100   6.370
  628SOL     OW 2782   3.848   4.394   6.752
  628SOL    HW1 2783   3.808   4.429   6.837
  628SOL    HW2 2784   3.881   4.301   6.766
  629SOL     OW 2785   1.864   0.001   6.897
  629SOL    HW1 2786   1.847   6.953   6.835
  629SOL    HW2 2787   1.809   0.079   6.869
  630SOL     OW 2788   5.932   2.087   0.844
  630SOL    HW1 2789   5.903   2.172   0.888
  630SOL    HW2 2790   6.032   2.084   0.842
  631SOL     OW 2791   1.846   3.486   2.433
  631SOL    HW1 2792   1.941   3.508   2.410
  631SOL    HW2 2793   1.785   3.527   2.366
  632SOL     OW 2794   3.549   4.589   1.403
  632SOL    HW1 2795   3.476   4.558   1.463
  632SOL    HW2 2796   3.600   4.663   1.447
  633SOL     OW 2797   0.939   5.813   6.705
  633SOL    HW1 2798   0.913   5.738   6.765
  633SOL    HW2 2799   0.903   5.899   6.742
  634SOL     OW 2800   2.878   3.367   5.377
  634SOL    HW1 2801   2.781   3.388   5.374
  634SOL    HW2 2802   2.908   3.337   5.286
  635SOL     OW 2803   6.582   6.971   6.817
  635SOL    HW1 2804   6.516   6.905   6.853
  635SOL    HW2 2805   6.673   6.949   6.853
  636SOL     OW 2806   1.942   2.152   4.740
  636SOL    HW1 2807   1.887   2.076   4.776
  636SOL    HW2 2808   1.995   2.120   4.662
  637SOL     OW 2809   6.899   1.966   2.149
  637SOL    HW1 2810   6.924   1.998   2.058
  637SOL    HW2 2811   6.888   1.866   2.148
  638SOL     OW 2812   0.042   3.604   5.185
  638SOL    HW1 2813   0.095   3.677   5.143
  638SOL    HW2 2814   6.976   3.634   5.197
  639SOL     OW 2815   6.061   3.436   1.575
  639SOL    HW1 2816   6.003   3.357   1.594
  639SOL    HW2 2817   6.005   3.511   1.540
  640SOL     OW 2818   6.273   3.608   2.741
  640SOL    HW1 2819   6.342   3.651   2.799
  640SOL    HW2 2820   6.302   3.515   2.718
  641SOL     OW 2821   2.586   5.406   4.353
  641SOL    HW1 2822   2.567   5.413   4.255
  641SOL    HW2 2823   2.662   5.344   4.368
  642SOL     OW 2824   0.695   4.871   4.638
  642SOL    HW1 2825   0.659   4.941   4.576
  642SOL    HW2 2826   0.621   4.811   4.667
  643SOL     OW 2827   4.517   4.797   0.681
  643SOL    HW1 2828   4.576   4.798   0.600
  643SOL    HW2 2829   4.465   4.883   0.685
  644SOL     OW 2830   6.019   0.706   4.639
  644SOL    HW1 2831   6.013   0.606   4.642
  644SOL    HW2 2832   6.044   0.741   4.730
  645SOL     OW 2833   4.373   6.487   1.973
  645SOL    HW1 2834   4.311   6.563   1.992
  645SOL    HW2 2835   4.326   6.417   1.920
  646SOL     OW 2836   3.776   2.126   5.081
  646SOL    HW1 2837   3.734   2.163   5.164
  646SOL    HW2 2838   3.712   2.133   5.005
  647SOL     OW 2839   2.535   2.423   6.778
  647SOL    HW1 2840   2.567   2.364   6.853
  647SOL    HW2 2841   2.458   2.379   6.732
  648SOL     OW 2842   5.285   2.215   4.158
  648SOL    HW1 2843   5.253   2.305   4.187
  648SOL    HW2 2844   5.207   2.156   4.139
  649SOL     OW 2845   3.556   5.692   0.253
  649SOL    HW1 2846   3.563   5.601   0.213
  649SOL    HW2 2847   3.472   5.698   0.308
  650SOL     OW 2848   2.544   3.508   1.341
  650SOL    HW1 2849   2.540   3.545   1.248
  650SOL    HW2 2850   2.569   3.580   1.405
  651SOL     OW 2851   6.937   1.399   2.942
  651SOL    HW1 2852   6.931   1.497   2.928
  651SOL    HW2 2853   6.867   1.370   3.008
  652SOL     OW 2854   3.998   6.578   0.659
  652SOL    HW1 2855   4.025   6.504   0.720
  652SOL    HW2 2856   3.989   6.663   0.711
  653SOL     OW 2857   1.377   0.079   3.171
  653SOL    HW1 2858   1.466   0.048   3.203
  653SOL    HW2 2859   1.364   0.175   3.198
  654SOL     OW 2860   1.239   0.406   5.838
  654SOL    HW1 2861   1.279   0.398   5.747
  654SOL    HW2 2862   1.311   0.425   5.904
  655SOL     OW 2863   1.431   4.292   1.363
  655SOL    HW1 2864   1.409   4.364   1.297
  655SOL    HW2 2865   1.477   4.217   1.317
  656SOL     OW 2866   2.214   0.148   0.063
  656SOL    HW1 2867   2.293   0.183   0.114
  656SOL    HW2 2868   2.180   0.219   0.001
  657SOL     OW 2869   3.862   3.289   4.538
  657SOL    HW1 2870   3.796   3.335   4.478
  657SOL    HW2 2871   3.832   3.194   4.553
  658SOL     OW 2872   2.222   0.280   4.977
  658SOL    HW1 2873   2.259   0.304   4.887
  658SOL    HW2 2874   2.132   0.323   4.988
  659SOL     OW 2875   2.019   5.504   6.847
  659SOL    HW1 2876   2.084   5.435   6.877
  659SOL    HW2 2877   2.061   5.562   6.778
  660SOL     OW 2878   5.556   4.393   2.133
  660SOL    HW1 2879   5.563   4.460   2.207
  660SOL    HW2 2880   5.557   4.440   2.045
  661SOL     OW 2881   4.424   5.840   4.121
  661SOL    HW1 2882   4.516   5.844   4.160
  661SOL    HW2 2883   4.366   5.909   4.164
  662SOL     OW 2884   6.597   3.445   6.521
  662SOL    HW1 2885   6.559   3.408   6.605
  662SOL    HW2 2886   6.524   3.481   6.464
  663SOL     OW 2887   1.345   4.508   5.842
  663SOL    HW1 2888   1.283   4.476   5.771
  663SOL    HW2 2889   1.292   4.539   5.921
  664SOL     OW 2890   1.572   0.173   5.823
  664SOL    HW1 2891   1.667   0.143   5.824
  664SOL    HW2 2892   1.513   0.096   5.797
  665SOL     OW 2893   2.321   4.491   3.108
  665SOL    HW1 2894   2.353   4.407   3.062
  665SOL    HW2 2895   2.222   4.485   3.121
  666SOL     OW 2896   3.142   0.319   0.164
  666SOL    HW1 2897   3.193   0.380   0.224
  666SOL    HW2 2898   3.074   0.372   0.113
  667SOL     OW 2899   1.485   2.924   2.502
  667SOL    HW1 2900   1.501   2.847   2.441
  667SOL    HW2 2901   1.407   2.977   2.470
  668SOL     OW 2902   5.489   6.951   0.323
  668SOL    HW1 2903   5.525   6.931   0.414
  668SOL    HW2 2904   5.417   7.020   0.330
  669SOL     OW 2905   6.635   5.779   3.110
  669SOL    HW1 2906   6.681   5.841   3.173
  669SOL    HW2 2907   6.632   5.687   3.150
  670SOL     OW 2908   3.695   4.072   3.429
  670SOL    HW1 2909   3.751   4.016   3.367
  670SOL    HW2 2910   3.627   4.122   3.376
  671SOL     OW 2911   1.491   0.004   6.519
  671SOL    HW1 2912   1.457   0.097   6.535
  671SOL    HW2 2913   1.508   6.988   6.607
  672SOL     OW 2914   1.148   2.348   2.981
  672SOL    HW1 2915   1.211   2.324   2.908
  672SOL    HW2 2916   1.061   2.379   2.942
  673SOL     OW 2917   5.032   0.795   6.894
  673SOL    HW1 2918   5.006   0.760   6.984
  673SOL    HW2 2919   4.978   0.877   6.873
  674SOL     OW 2920   6.914   2.479   4.148
  674SOL    HW1 2921   6.957   2.568   4.133
  674SOL    HW2 2922   6.815   2.491   4.161
  675SOL     OW 2923   5.807   6.902   3.458
  675SOL    HW1 2924   5.803   7.002   3.462
  675SOL    HW2 2925   5.754   6.863   3.533
  676SOL     OW 2926   3.061   4.854   4.610
  676SOL    HW1 2927   3.141   4.909   4.633
  676SOL    HW2 2928   3.062   4.770   4.663
  677SOL     OW 2929   4.826   6.748   0.913
  677SOL    HW1 2930   4.883   6.726   0.992
  677SOL    HW2 2931   4.884   6.769   0.834
  678SOL     OW 2932   2.581   0.915   6.395
  678SOL    HW1 2933   2.550   0.820   6.393
  678SOL    HW2 2934   2.664   0.921   6.450
  679SOL     OW 2935   6.552   0.110   2.775
  679SOL    HW1 2936   6.532   0.012   2.778
  679SOL    HW2 2937   6.629   0.126   2.714
  680SOL     OW 2938   6.326   3.641   4.195
  680SOL    HW1 2939   6.297   3.564   4.252
  680SOL    HW2 2940   6.248   3.700   4.176
  681SOL     OW 2941   1.372   5.474   2.552
  681SOL    HW1 2942   1.445   5.526   2.597
  681SOL    HW2 2943   1.312   5.537   2.503
  682SOL     OW 2944   0.608   0.117   5.948
  682SOL    HW1 2945   0.606   0.112   6.047
  682SOL    HW2 2946   0.523   0.159   5.915
  683SOL     OW 2947   5.441   1.414   1.664
  683SOL    HW1 2948   5.361   1.356   1.645
  683SOL    HW2 2949   5.419   1.477   1.738
  684SOL     OW 2950   6.992   5.785   6.974
  684SOL    HW1 2951   6.937   5.745   6.901
  684SOL    HW2 2952   0.059   5.758   6.961
  685SOL     OW 2953   5.927   0.496   5.066
  685SOL    HW1 2954   5.945   0.584   5.109
  685SOL    HW2 2955   6.004   0.434   5.083
  686SOL     OW 2956   5.346   4.959   1.405
  686SOL    HW1 2957   5.365   4.865   1.434
  686SOL    HW2 2958   5.333   5.017   1.485
  687SOL     OW 2959   5.546   2.383   6.783
  687SOL    HW1 2960   5.494   2.298   6.785
  687SOL    HW2 2961   5.523   2.434   6.700
  688SOL     OW 2962   6.396   3.349   5.160
  688SOL    HW1 2963   6.337   3.430   5.156
  688SOL    HW2 2964   6.491   3.378   5.170
  689SOL     OW 2965   5.439   4.124   4.485
  689SOL    HW1 2966   5.513   4.096   4.546
  689SOL    HW2 2967   5.477   4.162   4.401
  690SOL     OW 2968   6.756   2.194   4.633
  690SOL    HW1 2969   6.794   2.119   4.579
  690SOL    HW2 2970   6.743   2.274   4.574
  691SOL     OW 2971   0.656   3.064   6.951
  691SOL    HW1 2972   0.660   3.162   6.971
  691SOL    HW2 2973   0.720   3.015   7.011
  692SOL     OW 2974   2.725   6.977   3.596
  692SOL    HW1 2975   2.632   6.964   3.560
  692SOL    HW2 2976   2.788   6.918   3.546
  693SOL     OW 2977   5.853   1.857   3.467
  693SOL    HW1 2978   5.788   1.824   3.535
  693SOL    HW2 2979   5.812   1.931   3.415
  694SOL     OW 2980   1.239   0.567   3.055
  694SOL    HW1 2981   1.272   0.508   2.982
  694SOL    HW2 2982   1.188   0.643   3.016
  695SOL     OW 2983   5.005   5.384   6.414
  695SOL    HW1 2984   4.958   5.422   6.494
  695SOL    HW2 2985   5.006   5.450   6.340
  696SOL     OW 2986   4.943   5.582   2.247
  696SOL    HW1 2987   4.985   5.564   2.158
  696SOL    HW2 2988   4.966   5.508   2.310
  697SOL     OW 2989   1.249   3.997   3.529
  697SOL    HW1 2990   1.238   3.900   3.509
  697SOL    HW2 2991   1.293   4.008   3.619
  698SOL     OW 2992   4.943   6.647   4.029
  698SOL    HW1 2993   5.036   6.611   4.020
  698SOL    HW2 2994   4.947   6.745   4.046
  699SOL     OW 2995   1.802   5.277   6.075
  699SOL    HW1 2996   1.787   5.308   6.169
  699SOL    HW2 2997   1.853   5.191   6.075
  700SOL     OW 2998   1.862   2.230   4.986
  700SOL    HW1 2999   1.920   2.205   4.909
  700SOL    HW2 3000   1.778   2.176   4.983
  701SOL     OW 3001   0.940   4.819   5.280
  701SOL    HW1 3002   1.040   4.828   5.276
  701SOL    HW2 3003   0.904   4.804   5.188
  702SOL     OW 3004   6.002   6.237   5.151
  702SOL    HW1 3005   6.010   6.137   5.162
  702SOL    HW2 3006   6.000   6.260   5.054
  703SOL     OW 3007   6.206   3.780   6.090
  703SOL    HW1 3008   6.228   3.717   6.164
  703SOL    HW2 3009   6.277   3.849   6.082
  704SOL     OW 3010   2.082   6.609   1.823
  704SOL    HW1 3011   2.037   6.695   1.799
  704SOL    HW2 3012   2.173   6.627   1.861
  705SOL     OW 3013   0.998   1.604   3.651
  705SOL    HW1 3014   0.909   1.572   3.686
  705SOL    HW2 3015   1.071   1.549   3.691
  706SOL     OW 3016   5.978   3.542   3.886
  706SOL    HW1 3017   5.910   3.581   3.948
  706SOL    HW2 3018   5.992   3.604   3.809
  707SOL     OW 3019   5.008   3.085   2.660
  707SOL    HW1 3020   4.941   3.062   2.589
  707SOL    HW2 3021   5.097   3.046   2.636
  708SOL     OW 3022   5.121   1.686   2.052
  708SOL    HW1 3023   5.109   1.591   2.022
  708SOL    HW2 3024   5.093   1.747   1.978
  709SOL     OW 3025   1.218   4.790   6.681
  709SOL    HW1 3026   1.231   4.699   6.643
  709SOL    HW2 3027   1.304   4.842   6.673
  710SOL     OW 3028   2.909   3.764   2.933
  710SOL    HW1 3029   2.868   3.709   3.006
  710SOL    HW2 3030   2.994   3.805   2.966
  711SOL     OW 3031   0.728   1.225   4.344
  711SOL    HW1 3032   0.767   1.193   4.257
  711SOL    HW2 3033   0.790   1.201   4.419
  712SOL     OW 3034   0.130   3.867   3.498
  712SOL    HW1 3035   0.077   3.828   3.573
  712SOL    HW2 3036   0.071   3.883   3.420
  713SOL     OW 3037   2.724   3.896   5.335
  713SOL    HW1 3038   2.642   3.905   5.278
  713SOL    HW2 3039   2.731   3.976   5.394
  714SOL     OW 3040   4.751   4.730   4.858
  714SOL    HW1 3041   4.729   4.724   4.956
  714SOL    HW2 3042   4.737   4.824   4.827
  715SOL     OW 3043   6.858   0.312   6.413
  715SOL    HW1 3044   6.902   0.224   6.398
  715SOL    HW2 3045   6.912   0.365   6.480
  716SOL     OW 3046   6.218   5.394   0.124
  716SOL    HW1 3047   6.225   5.464   0.053
  716SOL    HW2 3048   6.126   5.392   0.161
  717SOL     OW 3049   6.201   2.661   5.957
  717SOL    HW1 3050   6.138   2.597   5.914
  717SOL    HW2 3051   6.276   2.610   6.000
  718SOL     OW 3052   3.410   2.705   0.351
  718SOL    HW1 3053   3.403   2.752   0.263
  718SOL    HW2 3054   3.430   2.608   0.335
  719SOL     OW 3055   6.000   4.619   6.590
  719SOL    HW1 3056   6.034   4.622   6.496
  719SOL    HW2 3057   5.996   4.711   6.628
  720SOL     OW 3058   4.014   1.201   5.822
  720SOL    HW1 3059   4.037   1.200   5.919
  720SOL    HW2 3060   3.923   1.240   5.809
  721SOL     OW 3061   1.306   0.090   5.228
  721SOL    HW1 3062   1.403   0.097   5.252
  721SOL    HW2 3063   1.296   0.037   5.144
  722SOL     OW 3064   4.532   0.755   4.981
  722SOL    HW1 3065   4.617   0.726   4.939
  722SOL    HW2 3066   4.464   0.682   4.975
  723SOL     OW 3067   0.327   3.387   1.868
  723SOL    HW1 3068   0.228   3.400   1.868
  723SOL    HW2 3069   0.350   3.302   1.821
  724SOL     OW 3070   0.453   2.494   4.253
  724SOL    HW1 3071   0.532   2.513   4.311
  724SOL    HW2 3072   0.483   2.450   4.168
  725SOL     OW 3073   2.474   5.068   2.612
  725SOL    HW1 3074   2.543   5.095   2.679
  725SOL    HW2 3075   2.514   5.071   2.520
  726SOL     OW 3076   5.657   5.947   5.938
  726SOL    HW1 3077   5.700   5.961   6.027
  726SOL    HW2 3078   5.722   5.902   5.876
  727SOL     OW 3079   2.025   4.694   4.463
  727SOL    HW1 3080   2.017   4.787   4.500
  727SOL    HW2 3081   2.078   4.637   4.527
  728SOL     OW 3082   6.388   2.357   5.900
  728SOL    HW1 3083   6.313   2.290   5.898
  728SOL    HW2 3084   6.379   2.416   5.980
  729SOL     OW 3085   3.859   1.681   0.721
  729SOL    HW1 3086   3.864   1.582   0.706
  729SOL    HW2 3087   3.795   1.721   0.655
  730SOL     OW 3088   6.137   1.308   4.166
  730SOL    HW1 3089   6.128   1.301   4.066
  730SOL    HW2 3090   6.105   1.223   4.208
  731SOL     OW 3091   0.257   1.669   3.927
  731SOL    HW1 3092   0.206   1.734   3.983
  731SOL    HW2 3093   0.221   1.670   3.834
  732SOL     OW 3094   0.685   3.429   3.178
  732SOL    HW1 3095   0.648   3.445   3.087
  732SOL    HW2 3096   0.704   3.516   3.223
  733SOL     OW 3097   4.718   4.285   4.348
  733SOL    HW1 3098   4.763   4.215   4.294
  733SOL    HW2 3099   4.657   4.338   4.289
  734SOL     OW 3100   0.854   6.057   6.553
  734SOL    HW1 3101   0.799   6.117   6.495
  734SOL    HW2 3102   0.796   6.019   6.625
  735SOL     OW 3103   3.255   4.294   6.618
  735SOL    HW1 3104   3.168   4.307   6.570
  735SOL    HW2 3105   3.261   4.199   6.650
  736SOL     OW 3106   6.307   0.902   2.454
  736SOL    HW1 3107   6.220   0.897   2.502
  736SOL    HW2 3108   6.326   0.997   2.429
  737SOL     OW 3109   5.471   3.732   0.539
  737SOL    HW1 3110   5.380   3.772   0.552
  737SOL    HW2 3111   5.461   3.638   0.507
  738SOL     OW 3112   0.314   4.170   3.815
  738SOL    HW1 3113   0.322   4.133   3.907
  738SOL    HW2 3114   0.239   4.236   3.811
  739SOL     OW 3115   4.663   6.333   6.227
  739SOL    HW1 3116   4.674   6.285   6.141
  739SOL    HW2 3117   4.581   6.390   6.224
  740SOL     OW 3118   5.718   6.976   0.183
  740SOL    HW1 3119   5.626   6.983   0.223
  740SOL    HW2 3120   5.785   6.966   0.256
  741SOL     OW 3121   2.179   0.405   4.035
  741SOL    HW1 3122   2.101   0.343   4.032
  741SOL    HW2 3123   2.228   0.401   3.947
  742SOL     OW 3124   1.487   6.279   2.932
  742SOL    HW1 3125   1.561   6.304   2.995
  742SOL    HW2 3126   1.453   6.362   2.886
  743SOL     OW 3127   1.788   3.597   2.960
  743SOL    HW1 3128   1.760   3.584   2.865
  743SOL    HW2 3129   1.870   3.543   2.978
  744SOL     OW 3130   6.523   5.164   0.850
  744SOL    HW1 3131   6.564   5.074   0.835
  744SOL    HW2 3132   6.424   5.159   0.839
  745SOL     OW 3133   1.344   6.132   2.225
  745SOL    HW1 3134   1.437   6.166   2.236
  745SOL    HW2 3135   1.313   6.091   2.311
  746SOL     OW 3136   3.301   6.786   3.226
  746SOL    HW1 3137   3.310   6.711   3.291
  746SOL    HW2 3138   3.251   6.754   3.145
  747SOL     OW 3139   0.083   4.079   0.669
  747SOL    HW1 3140   0.070   4.014   0.743
  747SOL    HW2 3141   0.045   4.168   0.695
  748SOL     OW 3142   3.292   2.913   3.401
  748SOL    HW1 3143   3.265   2.917   3.305
  748SOL    HW2 3144   3.221   2.955   3.457
  749SOL     OW 3145   5.463   2.510   5.401
  749SOL    HW1 3146   5.444   2.603   5.369
  749SOL    HW2 3147   5.461   2.447   5.324
  750SOL     OW 3148   3.483   3.692   1.967
  750SOL    HW1 3149   3.466   3.648   2.055
  750SOL    HW2 3150   3.419   3.767   1.953
  751SOL     OW 3151   5.646   1.829   0.192
  751SOL    HW1 3152   5.703   1.812   0.272
  751SOL    HW2 3153   5.554   1.792   0.208
  752SOL     OW 3154   4.806   0.545   2.459
  752SOL    HW1 3155   4.715   0.529   2.423
  752SOL    HW2 3156   4.871   0.555   2.383
  753SOL     OW 3157   3.813   1.495   2.087
  753SOL    HW1 3158   3.861   1.452   2.010
  753SOL    HW2 3159   3.735   1.546   2.054
  754SOL     OW 3160   5.348   5.216   6.727
  754SOL    HW1 3161   5.317   5.125   6.754
  754SOL    HW2 3162   5.290   5.285   6.769
  755SOL     OW 3163   5.908   5.233   2.175
  755SOL    HW1 3164   5.958   5.304   2.224
  755SOL    HW2 3165   5.811   5.258   2.171
  756SOL     OW 3166   2.532   6.663   3.742
  756SOL    HW1 3167   2.496   6.681   3.833
  756SOL    HW2 3168   2.518   6.743   3.684
  757SOL     OW 3169   6.930   0.582   4.258
  757SOL    HW1 3170   6.893   0.662   4.306
  757SOL    HW2 3171   6.900   0.582   4.163
  758SOL     OW 3172   4.111   1.715   0.809
  758SOL    HW1 3173   4.027   1.703   0.757
  758SOL    HW2 3174   4.148   1.625   0.835
  759SOL     OW 3175   2.192   0.487   1.905
  759SOL    HW1 3176   2.264   0.494   1.837
  759SOL    HW2 3177   2.136   0.406   1.886
  760SOL     OW 3178   4.563   1.581   6.126
  760SOL    HW1 3179   4.501   1.651   6.162
  760SOL    HW2 3180   4.558   1.499   6.183
  761SOL     OW 3181   5.305   0.456   6.828
  761SOL    HW1 3182   5.249   0.499   6.757
  761SOL    HW2 3183   5.389   0.509   6.840
  762SOL     OW 3184   2.405   4.543   5.000
  762SOL    HW1 3185   2.327   4.606   4.996
  762SOL    HW2 3186   2.435   4.521   4.907
  763SOL     OW 3187   0.016   5.137   0.589
  763SOL    HW1 3188   6.974   5.204   0.613
  763SOL    HW2 3189   0.079   5.126   0.665
  764SOL     OW 3190   5.758   1.486   2.740
  764SOL    HW1 3191   5.685   1.419   2.724
  764SOL    HW2 3192   5.829   1.444   2.796
  765SOL     OW 3193   0.964   6.790   2.978
  765SOL    HW1 3194   0.935   6.771   3.072
  765SOL    HW2 3195   0.929   6.719   2.918
  766SOL     OW 3196   0.214   6.277   0.385
  766SOL    HW1 3197   0.284   6.210   0.411
  766SOL    HW2 3198   0.131   6.230   0.355
  767SOL     OW 3199   5.611   6.148   1.244
  767SOL    HW1 3200   5.521   6.113   1.271
  767SOL    HW2 3201   5.679   6.122   1.313
  768SOL     OW 3202   2.880   6.792   4.100
  768SOL    HW1 3203   2.963   6.837   4.067
  768SOL    HW2 3204   2.902   6.698   4.127
  769SOL     OW 3205   3.949   0.627   6.907
  769SOL    HW1 3206   3.879   0.640   6.976
  769SOL    HW2 3207   4.022   0.570   6.944
  770SOL     OW 3208   3.291   5.048   4.982
  770SOL    HW1 3209   3.325   5.108   5.054
  770SOL    HW2 3210   3.191   5.053   4.980
  771SOL     OW 3211   0.429   6.718   4.463
  771SOL    HW1 3212   0.365   6.792   4.485
  771SOL    HW2 3213   0.386   6.630   4.484
  772SOL     OW 3214   0.647   3.081   6.650
  772SOL    HW1 3215   0.608   3.167   6.615
  772SOL    HW2 3216   0.633   3.076   6.748
  773SOL     OW 3217   6.433   3.531   2.014
  773SOL    HW1 3218   6.416   3.571   2.104
  773SOL    HW2 3219   6.528   3.500   2.009
  774SOL     OW 3220   0.894   1.384   1.704
  774SOL    HW1 3221   0.952   1.364   1.783
  774SOL    HW2 3222   0.921   1.327   1.627
  775SOL     OW 3223   1.910   2.910   3.981
  775SOL    HW1 3224   1.894   2.981   3.912
  775SOL    HW2 3225   1.832   2.847   3.983
  776SOL     OW 3226   2.002   0.540   5.411
  776SOL    HW1 3227   2.027   0.448   5.439
  776SOL    HW2 3228   2.058   0.567   5.332
  777SOL     OW 3229   4.210   6.825   6.922
  777SOL    HW1 3230   4.304   6.857   6.917
  777SOL    HW2 3231   4.150   6.902   6.947
  778SOL     OW 3232   4.858   5.655   4.827
  778SOL    HW1 3233   4.760   5.676   4.826
  778SOL    HW2 3234   4.904   5.714   4.894
  779SOL     OW 3235   0.622   0.243   2.065
  779SOL    HW1 3236   0.697   0.208   2.009
  779SOL    HW2 3237   0.626   0.343   2.068
  780SOL     OW 3238   5.662   2.410   5.044
  780SOL    HW1 3239   5.699   2.318   5.024
  780SOL    HW2 3240   5.579   2.401   5.098
  781SOL     OW 3241   1.351   3.802   6.992
  781SOL    HW1 3242   1.329   3.762   6.903
  781SOL    HW2 3243   1.439   3.851   6.985
  782SOL     OW 3244   6.944   5.214   1.035
  782SOL    HW1 3245   7.004   5.225   0.955
  782SOL    HW2 3246   6.887   5.132   1.023
  783SOL     OW 3247   2.028   5.595   0.127
  783SOL    HW1 3248   1.931   5.601   0.150
  783SOL    HW2 3249   2.063   5.687   0.105
  784SOL     OW 3250   5.468   5.629   3.398
  784SOL    HW1 3251   5.524   5.711   3.391
  784SOL    HW2 3252   5.431   5.622   3.490
  785SOL     OW 3253   6.542   2.563   3.460
  785SOL    HW1 3254   6.527   2.541   3.556
  785SOL    HW2 3255   6.468   2.622   3.428
  786SOL     OW 3256   5.865   6.716   1.151
  786SOL    HW1 3257   5.888   6.787   1.217
  786SOL    HW2 3258   5.778   6.736   1.108
  787SOL     OW 3259   4.408   0.986   0.298
  787SOL    HW1 3260   4.409   1.085   0.309
  787SOL    HW2 3261   4.500   0.954   0.274
  788SOL     OW 3262   0.379   4.169   3.438
  788SOL    HW1 3263   0.438   4.113   3.380
  788SOL    HW2 3264   0.432   4.244   3.478
  789SOL     OW 3265   5.708   2.996   1.176
  789SOL    HW1 3266   5.609   3.004   1.178
  789SOL    HW2 3267   5.741   3.014   1.083
  790SOL     OW 3268   2.937   0.586   4.014
  790SOL    HW1 3269   2.926   0.672   3.966
  790SOL    HW2 3270   2.878   0.516   3.973
  791SOL     OW 3271   3.692   1.078   4.553
  791SOL    HW1 3272   3.717   1.116   4.641
  791SOL    HW2 3273   3.595   1.051   4.554
  792SOL     OW 3274   5.830   0.895   3.842
  792SOL    HW1 3275   5.779   0.815   3.875
  792SOL    HW2 3276   5.812   0.909   3.745
  793SOL     OW 3277   0.115   0.007   6.640
  793SOL    HW1 3278   0.188   0.025   6.574
  793SOL    HW2 3279   0.090   6.939   6.636
  794SOL     OW 3280   3.285   4.799   5.166
  794SOL    HW1 3281   3.197   4.809   5.211
  794SOL    HW2 3282   3.288   4.857   5.085
  795SOL     OW 3283   4.823   4.974   0.061
  795SOL    HW1 3284   4.910   4.991   0.107
  795SOL    HW2 3285   4.836   4.905   7.018
  796SOL     OW 3286   1.008   1.586   5.844
  796SOL    HW1 3287   0.971   1.636   5.766
  796SOL    HW2 3288   0.934   1.561   5.907
  797SOL     OW 3289   6.190   3.012   5.511
  797SOL    HW1 3290   6.228   3.059   5.432
  797SOL    HW2 3291   6.263   2.996   5.578
  798SOL     OW 3292   6.466   1.122   4.511
  798SOL    HW1 3293   6.442   1.051   4.577
  798SOL    HW2 3294   6.414   1.108   4.426
  799SOL     OW 3295   0.345   3.922   3.664
  799SOL    HW1 3296   0.345   4.015   3.701
  799SOL    HW2 3297   0.278   3.915   3.590
  800SOL     OW 3298   6.813   2.557   2.738
  800SOL    HW1 3299   6.826   2.644   2.787
  800SOL    HW2 3300   6.716   2.534   2.736
  801SOL     OW 3301   0.524   2.836   3.531
  801SOL    HW1 3302   0.568   2.922   3.505
  801SOL    HW2 3303   0.564   2.761   3.478
  802SOL     OW 3304   6.658   1.496   0.507
  802SOL    HW1 3305   6.625   1.524   0.598
  802SOL    HW2 3306   6.657   1.575   0.446
  803SOL     OW 3307   2.232   0.350   4.299
  803SOL    HW1 3308   2.205   0.354   4.202
  803SOL    HW2 3309   2.240   0.255   4.327
  804SOL     OW 3310   5.976   6.040   0.612
  804SOL    HW1 3311   6.046   5.982   0.571
  804SOL    HW2 3312   5.991   6.047   0.710
  805SOL     OW 3313   2.040   2.904   6.241
  805SOL    HW1 3314   1.980   2.914   6.161
  805SOL    HW2 3315   2.108   2.977   6.242
  806SOL     OW 3316   4.248   6.589   0.444
  806SOL    HW1 3317   4.306   6.536   0.382
  806SOL    HW2 3318   4.256   6.552   0.537
  807SOL     OW 3319   0.819   6.817   3.214
  807SOL    HW1 3320   0.720   6.832   3.211
  807SOL    HW2 3321   0.865   6.902   3.241
  808SOL     OW 3322   5.544   3.794   4.338
  808SOL    HW1 3323   5.553   3.791   4.238
  808SOL    HW2 3324   5.449   3.816   4.361
  809SOL     OW 3325   0.391   6.211   5.873
  809SOL    HW1 3326   0.373   6.245   5.781
  809SOL    HW2 3327   0.455   6.274   5.920
  810SOL     OW 3328   6.068   5.388   6.020
  810SOL    HW1 3329   6.134   5.445   6.068
  810SOL    HW2 3330   5.988   5.373   6.078
  811SOL     OW 3331   3.086   4.978   2.858
  811SOL    HW1 3332   3.080   5.009   2.763
  811SOL    HW2 3333   3.026   4.899   2.871
  812SOL     OW 3334   0.089   0.287   2.720
  812SOL    HW1 3335   0.043   0.233   2.790
  812SOL    HW2 3336   0.160   0.343   2.762
  813SOL     OW 3337   4.769   4.990   1.748
  813SOL    HW1 3338   4.738   5.033   1.832
  813SOL    HW2 3339   4.834   4.917   1.769
  814SOL     OW 3340   4.923   5.564   1.383
  814SOL    HW1 3341   4.881   5.655   1.387
  814SOL    HW2 3342   4.892   5.509   1.460
  815SOL     OW 3343   1.141   0.834   1.046
  815SOL    HW1 3344   1.061   0.795   1.092
  815SOL    HW2 3345   1.129   0.933   1.039
  816SOL     OW 3346   5.962   0.552   1.607
  816SOL    HW1 3347   6.058   0.562   1.579
  816SOL    HW2 3348   5.914   0.638   1.592
  817SOL     OW 3349   0.811   2.335   1.975
  817SOL    HW1 3350   0.855   2.272   2.039
  817SOL    HW2 3351   0.719   2.301   1.954
  818SOL     OW 3352   5.929   1.273   2.865
  818SOL    HW1 3353   6.011   1.331   2.868
  818SOL    HW2 3354   5.954   1.182   2.833
  819SOL     OW 3355   0.365   5.362   2.406
  819SOL    HW1 3356   0.286   5.417   2.378
  819SOL    HW2 3357   0.434   5.421   2.448
  820SOL     OW 3358   2.554   2.956   5.850
  820SOL    HW1 3359   2.562   2.966   5.751
  820SOL    HW2 3360   2.624   2.892   5.882
  821SOL     OW 3361   1.130   4.570   0.803
  821SOL    HW1 3362   1.088   4.568   0.712
  821SOL    HW2 3363   1.144   4.666   0.830
  822SOL     OW 3364   0.555   2.927   5.171
  822SOL    HW1 3365   0.637   2.931   5.114
  822SOL    HW2 3366   0.554   2.840   5.221
  823SOL     OW 3367   3.894   3.684   1.473
  823SOL    HW1 3368   3.924   3.739   1.395
  823SOL    HW2 3369   3.964   3.616   1.495
  824SOL     OW 3370   6.175   3.167   6.424
  824SOL    HW1 3371   6.256   3.159   6.366
  824SOL    HW2 3372   6.095   3.136   6.373
  825SOL     OW 3373   1.676   2.896   1.481
  825SOL    HW1 3374   1.639   2.803   1.486
  825SOL    HW2 3375   1.700   2.917   1.386
  826SOL     OW 3376   0.844   2.035   6.586
  826SOL    HW1 3377   0.864   2.088   6.503
  826SOL    HW2 3378   0.817   1.943   6.560
  827SOL     OW 3379   3.525   4.488   1.095
  827SOL    HW1 3380   3.426   4.487   1.110
  827SOL    HW2 3381   3.553   4.579   1.064
  828SOL     OW 3382   5.808   0.778   5.044
  828SOL    HW1 3383   5.787   0.876   5.037
  828SOL    HW2 3384   5.739   0.734   5.101
  829SOL     OW 3385   3.859   4.080   5.671
  829SOL    HW1 3386   3.802   4.005   5.704
  829SOL    HW2 3387   3.912   4.050   5.592
  830SOL     OW 3388   4.594   3.480   6.286
  830SOL    HW1 3389   4.638   3.422   6.355
  830SOL    HW2 3390   4.653   3.557   6.264
  831SOL     OW 3391   5.360   0.662   5.498
  831SOL    HW1 3392   5.282   0.695   5.552
  831SOL    HW2 3393   5.326   0.611   5.420
  832SOL     OW 3394   2.419   1.266   6.340
  832SOL    HW1 3395   2.516   1.288   6.336
  832SOL    HW2 3396   2.404   1.190   6.404
  833SOL     OW 3397   1.375   0.392   4.703
  833SOL    HW1 3398   1.383   0.470   4.642
  833SOL    HW2 3399   1.378   0.423   4.798
  834SOL     OW 3400   3.097   4.411   5.700
  834SOL    HW1 3401   3.108   4.473   5.778
  834SOL    HW2 3402   3.012   4.433   5.652
  835SOL     OW 3403   3.987   1.840   2.364
  835SOL    HW1 3404   3.916   1.892   2.316
  835SOL    HW2 3405   3.999   1.877   2.456
  836SOL     OW 3406   2.339   0.690   5.969
  836SOL    HW1 3407   2.249   0.686   5.925
  836SOL    HW2 3408   2.340   0.627   6.047
  837SOL     OW 3409   4.172   2.011   4.216
  837SOL    HW1 3410   4.108   2.005   4.138
  837SOL    HW2 3411   4.266   2.016   4.181
  838SOL     OW 3412   1.098   6.773   2.226
  838SOL    HW1 3413   1.116   6.696   2.287
  838SOL    HW2 3414   1.055   6.847   2.278
  839SOL     OW 3415   1.949   1.723   2.049
  839SOL    HW1 3416   1.986   1.639   2.010
  839SOL    HW2 3417   1.874   1.757   1.992
  840SOL     OW 3418   1.501   0.935   5.715
  840SOL    HW1 3419   1.590   0.947   5.758
  840SOL    HW2 3420   1.479   0.837   5.712
  841SOL     OW 3421   6.938   3.524   0.710
  841SOL    HW1 3422   6.857   3.491   0.758
  841SOL    HW2 3423   6.947   3.476   0.623
  842SOL     OW 3424   4.081   4.857   4.155
  842SOL    HW1 3425   3.988   4.875   4.187
  842SOL    HW2 3426   4.078   4.819   4.063
  843SOL     OW 3427   0.101   3.447   1.614
  843SOL    HW1 3428   0.040   3.371   1.639
  843SOL    HW2 3429   0.102   3.514   1.688
  844SOL     OW 3430   5.763   4.497   6.124
  844SOL    HW1 3431   5.808   4.449   6.048
  844SOL    HW2 3432   5.784   4.595   6.118
  845SOL     OW 3433   2.227   4.814   5.468
  845SOL    HW1 3434   2.198   4.729   5.425
  845SOL    HW2 3435   2.155   4.883   5.459
  846SOL     OW 3436   4.296   2.064   0.192
  846SOL    HW1 3437   4.284   2.163   0.191
  846SOL    HW2 3438   4.223   2.022   0.137
  847SOL     OW 3439   5.057   4.531   1.823
  847SOL    HW1 3440   5.063   4.431   1.830
  847SOL    HW2 3441   5.047   4.570   1.915
  848SOL     OW 3442   5.425   6.958   5.603
  848SOL    HW1 3443   5.428   0.021   5.563
  848SOL    HW2 3444   5.350   6.906   5.562
  849SOL     OW 3445   0.594   6.132   4.092
  849SOL    HW1 3446   0.508   6.087   4.116
  849SOL    HW2 3447   0.664   6.108   4.160
  850SOL     OW 3448   2.685   0.681   3.447
  850SOL    HW1 3449   2.733   0.723   3.525
  850SOL    HW2 3450   2.640   0.596   3.478
  851SOL     OW 3451   6.722   1.099   5.784
  851SOL    HW1 3452   6.737   1.078   5.880
  851SOL    HW2 3453   6.631   1.138   5.771
  852SOL     OW 3454   2.993   5.248   5.200
  852SOL    HW1 3455   3.031   5.220   5.112
  852SOL    HW2 3456   2.916   5.189   5.223
  853SOL     OW 3457   0.805   4.382   0.662
  853SOL    HW1 3458   0.738   4.331   0.609
  853SOL    HW2 3459   0.797   4.480   0.640
  854SOL     OW 3460   6.036   5.152   0.974
  854SOL    HW1 3461   5.966   5.083   0.952
  854SOL    HW2 3462   5.991   5.237   1.003
  855SOL     OW 3463   4.694   0.290   0.692
  855SOL    HW1 3464   4.706   0.337   0.780
  855SOL    HW2 3465   4.627   0.217   0.702
  856SOL     OW 3466   1.687   0.653   4.957
  856SOL    HW1 3467   1.723   0.658   4.864
  856SOL    HW2 3468   1.761   0.667   5.022
  857SOL     OW 3469   5.757   4.362   1.769
  857SOL    HW1 3470   5.856   4.352   1.779
  857SOL    HW2 3471   5.732   4.350   1.673
  858SOL     OW 3472   3.433   4.153   1.979
  858SOL    HW1 3473   3.475   4.105   2.055
  858SOL    HW2 3474   3.461   4.249   1.981
  859SOL     OW 3475   0.147   4.847   0.890
  859SOL    HW1 3476   0.243   4.830   0.866
  859SOL    HW2 3477   0.100   4.891   0.814
  860SOL     OW 3478   1.476   4.277   5.868
  860SOL    HW1 3479   1.516   4.274   5.960
  860SOL    HW2 3480   1.429   4.364   5.855
  861SOL     OW 3481   4.464   4.445   6.527
  861SOL    HW1 3482   4.419   4.366   6.571
  861SOL    HW2 3483   4.505   4.503   6.597
  862SOL     OW 3484   4.575   4.453   3.586
  862SOL    HW1 3485   4.598   4.416   3.496
  862SOL    HW2 3486   4.602   4.388   3.657
  863SOL     OW 3487   6.355   2.795   1.747
  863SOL    HW1 3488   6.330   2.725   1.814
  863SOL    HW2 3489   6.395   2.874   1.794
  864SOL     OW 3490   0.361   5.774   2.291
  864SOL    HW1 3491   0.300   5.848   2.261
  864SOL    HW2 3492   0.378   5.784   2.389
  865SOL     OW 3493   1.832   1.263   4.016
  865SOL    HW1 3494   1.896   1.310   4.076
  865SOL    HW2 3495   1.880   1.227   3.937
  866SOL     OW 3496   4.357   1.019   1.515
  866SOL    HW1 3497   4.366   1.110   1.554
  866SOL    HW2 3498   4.317   1.025   1.424
  867SOL     OW 3499   2.469   1.960   5.961
  867SOL    HW1 3500   2.426   2.026   6.023
  867SOL    HW2 3501   2.412   1.878   5.955
  868SOL     OW 3502   5.161   2.391   3.745
  868SOL    HW1 3503   5.123   2.391   3.653
  868SOL    HW2 3504   5.114   2.322   3.800
  869SOL     OW 3505   6.756   3.997   0.585
  869SOL    HW1 3506   6.844   3.979   0.542
  869SOL    HW2 3507   6.763   4.079   0.642
  870SOL     OW 3508   6.096   1.546   0.443
  870SOL    HW1 3509   6.126   1.580   0.532
  870SOL    HW2 3510   6.173   1.506   0.395
  871SOL     OW 3511   6.990   4.893   0.665
  871SOL    HW1 3512   6.962   4.813   0.611
  871SOL    HW2 3513   6.989   4.974   0.606
  872SOL     OW 3514   7.015   1.780   1.650
  872SOL    HW1 3515   0.078   1.751   1.623
  872SOL    HW2 3516   7.023   1.850   1.721
  873SOL     OW 3517   4.041   6.851   4.158
  873SOL    HW1 3518   3.959   6.814   4.113
  873SOL    HW2 3519   4.018   6.876   4.252
  874SOL     OW 3520   0.875   3.993   6.508
  874SOL    HW1 3521   0.801   4.026   6.449
  874SOL    HW2 3522   0.851   4.009   6.604
  875SOL     OW 3523   6.625   6.244   6.508
  875SOL    HW1 3524   6.625   6.320   6.443
  875SOL    HW2 3525   6.533   6.230   6.544
  876SOL     OW 3526   2.760   1.975   1.382
  876SOL    HW1 3527   2.846   1.924   1.393
  876SOL    HW2 3528   2.754   2.010   1.289
  877SOL     OW 3529   5.706   5.776   6.204
  877SOL    HW1 3530   5.743   5.735   6.287
  877SOL    HW2 3531   5.757   5.744   6.124
  878SOL     OW 3532   3.988   3.513   0.892
  878SOL    HW1 3533   4.034   3.426   0.877
  878SOL    HW2 3534   3.889   3.499   0.897
  879SOL     OW 3535   5.201   3.375   3.421
  879SOL    HW1 3536   5.104   3.354   3.411
  879SOL    HW2 3537   5.250   3.291   3.447
  880SOL     OW 3538   4.076   6.600   1.763
  880SOL    HW1 3539   4.102   6.509   1.795
  880SOL    HW2 3540   4.130   6.624   1.683
  881SOL     OW 3541   5.334   5.330   3.106
  881SOL    HW1 3542   5.314   5.241   3.066
  881SOL    HW2 3543   5.315   5.328   3.204
  882SOL     OW 3544   0.738   2.093   5.347
  882SOL    HW1 3545   0.688   2.071   5.431
  882SOL    HW2 3546   0.816   2.151   5.368
  883SOL     OW 3547   2.912   4.970   0.193
  883SOL    HW1 3548   2.854   5.036   0.145
  883SOL    HW2 3549   2.884   4.965   0.289
  884SOL     OW 3550   3.898   4.556   1.361
  884SOL    HW1 3551   3.851   4.470   1.380
  884SOL    HW2 3552   3.982   4.560   1.414
  885SOL     OW 3553   4.433   6.438   6.105
  885SOL    HW1 3554   4.395   6.348   6.123
  885SOL    HW2 3555   4.456   6.445   6.008
  886SOL     OW 3556   4.467   2.237   6.658
  886SOL    HW1 3557   4.486   2.285   6.572
  886SOL    HW2 3558   4.506   2.145   6.654
  887SOL     OW 3559   6.194   6.350   4.520
  887SOL    HW1 3560   6.132   6.337   4.443
  887SOL    HW2 3561   6.243   6.265   4.538
  888SOL     OW 3562   6.284   1.136   3.369
  888SOL    HW1 3563   6.312   1.232   3.368
  888SOL    HW2 3564   6.230   1.117   3.286
  889SOL     OW 3565   0.743   0.691   4.752
  889SOL    HW1 3566   0.727   0.593   4.737
  889SOL    HW2 3567   0.718   0.742   4.669
  890SOL     OW 3568   2.157   3.216   1.021
  890SOL    HW1 3569   2.207   3.283   1.076
  890SOL    HW2 3570   2.213   3.135   1.007
  891SOL     OW 3571   6.070   3.277   5.562
  891SOL    HW1 3572   6.111   3.189   5.537
  891SOL    HW2 3573   6.135   3.329   5.619
  892SOL     OW 3574   1.915   4.546   1.950
  892SOL    HW1 3575   1.838   4.525   1.890
  892SOL    HW2 3576   1.967   4.623   1.912
  893SOL     OW 3577   1.948   6.814   2.333
  893SOL    HW1 3578   2.011   6.867   2.277
  893SOL    HW2 3579   1.867   6.790   2.279
  894SOL     OW 3580   1.001   5.126   4.441
  894SOL    HW1 3581   1.033   5.161   4.353
  894SOL    HW2 3582   0.909   5.161   4.458
  895SOL     OW 3583   2.523   1.189   4.229
  895SOL    HW1 3584   2.495   1.162   4.321
  895SOL    HW2 3585   2.533   1.108   4.171
  896SOL     OW 3586   4.559   0.185   3.572
  896SOL    HW1 3587   4.569   0.275   3.615
  896SOL    HW2 3588   4.518   0.122   3.638
  897SOL     OW 3589   5.940   1.113   6.075
  897SOL    HW1 3590   6.013   1.051   6.102
  897SOL    HW2 3591   5.953   1.141   5.980
  898SOL     OW 3592   4.950   6.388   3.662
  898SOL    HW1 3593   5.025   6.326   3.683
  898SOL    HW2 3594   4.889   6.395   3.741
  899SOL     OW 3595   0.886   5.222   0.361
  899SOL    HW1 3596   0.887   5.321   0.371
  899SOL    HW2 3597   0.807   5.195   0.305
  900SOL     OW 3598   0.641   5.515   3.339
  900SOL    HW1 3599   0.556   5.567   3.353
  900SOL    HW2 3600   0.620   5.429   3.293
  901SOL     OW 3601   6.325   1.877   3.201
  901SOL    HW1 3602   6.348   1.820   3.122
  901SOL    HW2 3603   6.270   1.955   3.171
  902SOL     OW 3604   1.513   5.917   6.982
  902SOL    HW1 3605   1.414   5.907   6.992
  902SOL    HW2 3606   1.548   5.846   6.921
  903SOL     OW 3607   1.171   4.896   6.402
  903SOL    HW1 3608   1.167   4.859   6.495
  903SOL    HW2 3609   1.086   4.944   6.381
  904SOL     OW 3610   1.587   1.961   4.048
  904SOL    HW1 3611   1.583   2.060   4.054
  904SOL    HW2 3612   1.674   1.933   4.008
  905SOL     OW 3613   5.996   3.407   3.353
  905SOL    HW1 3614   5.991   3.359   3.265
  905SOL    HW2 3615   6.011   3.341   3.426
  906SOL     OW 3616   6.791   3.229   5.392
  906SOL    HW1 3617   6.721   3.181   5.445
  906SOL    HW2 3618   6.826   3.306   5.446
  907SOL     OW 3619   6.796   3.823   2.449
  907SOL    HW1 3620   6.752   3.788   2.532
  907SOL    HW2 3621   6.836   3.912   2.469
  908SOL     OW 3622   2.875   1.515   3.635
  908SOL    HW1 3623   2.837   1.437   3.684
  908SOL    HW2 3624   2.952   1.552   3.686
  909SOL     OW 3625   3.225   6.731   2.439
  909SOL    HW1 3626   3.261   6.754   2.529
  909SOL    HW2 3627   3.145   6.788   2.419
  910SOL     OW 3628   1.137   0.770   1.871
  910SOL    HW1 3629   1.111   0.825   1.791
  910SOL    HW2 3630   1.184   0.828   1.938
  911SOL     OW 3631   0.799   2.501   0.918
  911SOL    HW1 3632   0.836   2.554   0.842
  911SOL    HW2 3633   0.851   2.520   1.001
  912SOL     OW 3634   1.859   0.988   0.450
  912SOL    HW1 3635   1.852   0.989   0.550
  912SOL    HW2 3636   1.767   0.997   0.410
  913SOL     OW 3637   2.071   0.971   1.997
  913SOL    HW1 3638   2.088   0.914   1.916
  913SOL    HW2 3639   1.973   0.970   2.017
  914SOL     OW 3640   2.939   4.807   2.321
  914SOL    HW1 3641   2.853   4.828   2.275
  914SOL    HW2 3642   2.920   4.775   2.414
  915SOL     OW 3643   2.805   2.324   0.916
  915SOL    HW1 3644   2.899   2.316   0.951
  915SOL    HW2 3645   2.777   2.420   0.919
  916SOL     OW 3646   0.598   3.542   2.356
  916SOL    HW1 3647   0.546   3.498   2.430
  916SOL    HW2 3648   0.692   3.508   2.357
  917SOL     OW 3649   3.770   0.685   6.060
  917SOL    HW1 3650   3.823   0.603   6.080
  917SOL    HW2 3651   3.679   0.677   6.102
  918SOL     OW 3652   0.012   2.217   4.691
  918SOL    HW1 3653   0.073   2.160   4.747
  918SOL    HW2 3654   6.948   2.180   4.695
  919SOL     OW 3655   0.268   0.882   1.072
  919SOL    HW1 3656   0.244   0.900   1.167
  919SOL    HW2 3657   0.351   0.933   1.048
  920SOL     OW 3658   1.353   2.078   2.190
  920SOL    HW1 3659   1.403   2.030   2.118
  920SOL    HW2 3660   1.324   2.167   2.155
  921SOL     OW 3661   4.118   4.615   0.379
  921SOL    HW1 3662   4.086   4.573   0.464
  921SOL    HW2 3663   4.044   4.616   0.312
  922SOL     OW 3664   2.333   5.943   6.649
  922SOL    HW1 3665   2.234   5.936   6.639
  922SOL    HW2 3666   2.376   5.857   6.620
  923SOL     OW 3667   3.905   1.332   0.064
  923SOL    HW1 3668   3.880   1.330   6.996
  923SOL    HW2 3669   4.004   1.344   0.073
  924SOL     OW 3670   5.768   5.028   1.769
  924SOL    HW1 3671   5.813   4.974   1.840
  924SOL    HW2 3672   5.684   5.068   1.805
  925SOL     OW 3673   5.953   2.548   1.747
  925SOL    HW1 3674   5.956   2.471   1.811
  925SOL    HW2 3675   5.879   2.534   1.681
  926SOL     OW 3676   3.882   5.960   1.787
  926SOL    HW1 3677   3.895   5.883   1.725
  926SOL    HW2 3678   3.865   6.043   1.734
  927SOL     OW 3679   5.033   5.456   5.097
  927SOL    HW1 3680   5.008   5.454   5.000
  927SOL    HW2 3681   5.056   5.363   5.127
  928SOL     OW 3682   0.237   1.539   1.527
  928SOL    HW1 3683   0.153   1.508   1.483
  928SOL    HW2 3684   0.283   1.461   1.570
  929SOL     OW 3685   0.292   2.894   1.947
  929SOL    HW1 3686   0.373   2.927   1.995
  929SOL    HW2 3687   0.210   2.919   1.997
  930SOL     OW 3688   6.172   5.168   2.686
  930SOL    HW1 3689   6.255   5.161   2.741
  930SOL    HW2 3690   6.190   5.133   2.594
  931SOL     OW 3691   0.894   2.774   1.677
  931SOL    HW1 3692   0.941   2.829   1.609
  931SOL    HW2 3693   0.958   2.709   1.718
  932SOL     OW 3694   4.015   6.537   1.407
  932SOL    HW1 3695   4.040   6.582   1.321
  932SOL    HW2 3696   4.076   6.569   1.479
  933SOL     OW 3697   0.920   6.439   3.595
  933SOL    HW1 3698   0.915   6.440   3.695
  933SOL    HW2 3699   0.933   6.531   3.560
  934SOL     OW 3700   3.991   1.496   5.113
  934SOL    HW1 3701   3.934   1.439   5.173
  934SOL    HW2 3702   4.063   1.440   5.072
  935SOL     OW 3703   1.130   3.856   4.184
  935SOL    HW1 3704   1.064   3.843   4.110
  935SOL    HW2 3705   1.139   3.771   4.235
  936SOL     OW 3706   0.750   1.032   2.016
  936SOL    HW1 3707   0.833   1.059   2.064
  936SOL    HW2 3708   0.759   1.054   1.919
  937SOL     OW 3709   4.869   2.437   3.303
  937SOL    HW1 3710   4.880   2.494   3.222
  937SOL    HW2 3711   4.870   2.341   3.277
  938SOL     OW 3712   0.699   0.883   6.486
  938SOL    HW1 3713   0.796   0.897   6.503
  938SOL    HW2 3714   0.684   0.789   6.455
  939SOL     OW 3715   6.473   0.626   4.694
  939SOL    HW1 3716   6.565   0.601   4.727
  939SOL    HW2 3717   6.411   0.635   4.772
  940SOL     OW 3718   6.139   0.108   3.118
  940SOL    HW1 3719   6.204   0.153   3.178
  940SOL    HW2 3720   6.075   0.054   3.173
  941SOL     OW 3721   5.728   3.096   4.871
  941SOL    HW1 3722   5.698   3.003   4.850
  941SOL    HW2 3723   5.687   3.160   4.806
  942SOL     OW 3724   4.734   6.398   5.426
  942SOL    HW1 3725   4.713   6.490   5.459
  942SOL    HW2 3726   4.831   6.392   5.405
  943SOL     OW 3727   5.316   2.304   0.691
  943SOL    HW1 3728   5.353   2.249   0.616
  943SOL    HW2 3729   5.363   2.279   0.776
  944SOL     OW 3730   5.013   4.840   4.375
  944SOL    HW1 3731   5.014   4.887   4.463
  944SOL    HW2 3732   4.919   4.814   4.352
  945SOL     OW 3733   5.673   2.879   6.839
  945SOL    HW1 3734   5.756   2.846   6.794
  945SOL    HW2 3735   5.595   2.865   6.779
  946SOL     OW 3736   6.508   2.914   5.887
  946SOL    HW1 3737   6.444   2.974   5.935
  946SOL    HW2 3738   6.515   2.827   5.935
  947SOL     OW 3739   0.823   2.465   6.380
  947SOL    HW1 3740   0.910   2.513   6.396
  947SOL    HW2 3741   0.761   2.482   6.456
  948SOL     OW 3742   3.152   1.940   0.245
  948SOL    HW1 3743   3.053   1.930   0.254
  948SOL    HW2 3744   3.193   1.951   0.335
  949SOL     OW 3745   5.673   5.577   5.854
  949SOL    HW1 3746   5.726   5.513   5.799
  949SOL    HW2 3747   5.686   5.670   5.819
  950SOL     OW 3748   3.725   5.095   1.031
  950SOL    HW1 3749   3.816   5.138   1.029
  950SOL    HW2 3750   3.735   4.996   1.024
  951SOL     OW 3751   1.019   2.648   3.587
  951SOL    HW1 3752   1.094   2.586   3.566
  951SOL    HW2 3753   0.937   2.619   3.537
  952SOL     OW 3754   4.782   1.263   1.170
  952SOL    HW1 3755   4.709   1.327   1.193
  952SOL    HW2 3756   4.800   1.202   1.247
  953SOL     OW 3757   3.770   6.504   5.616
  953SOL    HW1 3758   3.836   6.548   5.677
  953SOL    HW2 3759   3.806   6.503   5.523
  954SOL     OW 3760   6.245   6.585   1.266
  954SOL    HW1 3761   6.184   6.509   1.243
  954SOL    HW2 3762   6.291   6.567   1.353
  955SOL     OW 3763   1.550   6.357   3.586
  955SOL    HW1 3764   1.472   6.418   3.582
  955SOL    HW2 3765   1.526   6.275   3.637
  956SOL     OW 3766   1.789   2.883   0.947
  956SOL    HW1 3767   1.695   2.879   0.913
  956SOL    HW2 3768   1.810   2.977   0.974
  957SOL     OW 3769   1.780   5.900   4.831
  957SOL    HW1 3770   1.795   5.991   4.793
  957SOL    HW2 3771   1.701   5.858   4.786
  958SOL     OW 3772   4.289   2.756   6.530
  958SOL    HW1 3773   4.349   2.740   6.609
  958SOL    HW2 3774   4.321   2.703   6.452
  959SOL     OW 3775   1.619   4.331   0.584
  959SOL    HW1 3776   1.655   4.273   0.657
  959SOL    HW2 3777   1.689   4.342   0.513
  960SOL     OW 3778   1.697   3.973   5.942
  960SOL    HW1 3779   1.761   4.049   5.950
  960SOL    HW2 3780   1.747   3.888   5.924
  961SOL     OW 3781   3.297   6.505   6.793
  961SOL    HW1 3782   3.309   6.525   6.696
  961SOL    HW2 3783   3.330   6.413   6.813
  962SOL     OW 3784   0.912   0.047   3.273
  962SOL    HW1 3785   0.943   0.021   3.364
  962SOL    HW2 3786   0.988   0.088   3.222
  963SOL     OW 3787   5.500   0.211   2.419
  963SOL    HW1 3788   5.560   0.229   2.497
  963SOL    HW2 3789   5.555   0.207   2.335
  964SOL     OW 3790   5.874   4.503   1.468
  964SOL    HW1 3791   5.885   4.481   1.371
  964SOL    HW2 3792   5.868   4.603   1.478
  965SOL     OW 3793   2.025   1.615   0.696
  965SOL    HW1 3794   2.086   1.596   0.619
  965SOL    HW2 3795   1.941   1.561   0.686
  966SOL     OW 3796   6.228   2.657   1.960
  966SOL    HW1 3797   6.163   2.598   1.911
  966SOL    HW2 3798   6.180   2.736   1.997
  967SOL     OW 3799   1.022   5.170   2.721
  967SOL    HW1 3800   1.032   5.111   2.802
  967SOL    HW2 3801   1.109   5.216   2.703
  968SOL     OW 3802   0.450   4.489   0.400
  968SOL    HW1 3803   0.516   4.529   0.463
  968SOL    HW2 3804   0.365   4.541   0.404
  969SOL     OW 3805   3.661   6.889   6.546
  969SOL    HW1 3806   3.713   6.899   6.631
  969SOL    HW2 3807   3.607   6.805   6.550
  970SOL     OW 3808   5.515   3.661   6.232
  970SOL    HW1 3809   5.484   3.592   6.168
  970SOL    HW2 3810   5.444   3.677   6.301
  971SOL     OW 3811   0.182   2.518   7.026
  971SOL    HW1 3812   0.112   2.481   0.058
  971SOL    HW2 3813   0.251   2.567   0.051
  972SOL     OW 3814   4.442   6.720   6.424
  972SOL    HW1 3815   4.386   6.751   6.501
  972SOL    HW2 3816   4.463   6.797   6.364
  973SOL     OW 3817   6.739   3.088   6.004
  973SOL    HW1 3818   6.717   3.180   6.037
  973SOL    HW2 3819   6.654   3.037   5.987
  974SOL     OW 3820   2.250   0.061   4.239
  974SOL    HW1 3821   2.323   0.119   4.201
  974SOL    HW2 3822   2.285   0.013   4.320
  975SOL     OW 3823   3.040   6.783   4.621
  975SOL    HW1 3824   2.953   6.773   4.572
  975SOL    HW2 3825   3.105   6.715   4.586
  976SOL     OW 3826   0.328   4.760   3.756
  976SOL    HW1 3827   0.390   4.822   3.708
  976SOL    HW2 3828   0.374   4.725   3.838
  977SOL     OW 3829   1.142   2.002   1.846
  977SOL    HW1 3830   1.226   1.997   1.901
  977SOL    HW2 3831   1.119   1.910   1.814
  978SOL     OW 3832   5.988   3.140   3.895
  978SOL    HW1 3833   5.934   3.199   3.835
  978SOL    HW2 3834   6.064   3.193   3.934
  979SOL     OW 3835   6.189   1.403   2.849
  979SOL    HW1 3836   6.229   1.419   2.758
  979SOL    HW2 3837   6.239   1.329   2.895
  980SOL     OW 3838   6.180   6.983   5.460
  980SOL    HW1 3839   6.147   6.960   5.551
  980SOL    HW2 3840   6.245   6.913   5.430
  981SOL     OW 3841   6.534   3.494   0.176
  981SOL    HW1 3842   6.563   3.590   0.178
  981SOL    HW2 3843   6.451   3.486   0.121
  982SOL     OW 3844   1.484   4.552   0.594
  982SOL    HW1 3845   1.417   4.532   0.665
  982SOL    HW2 3846   1.536   4.469   0.573
  983SOL     OW 3847   5.320   1.408   3.291
  983SOL    HW1 3848   5.335   1.475   3.219
  983SOL    HW2 3849   5.402   1.399   3.348
  984SOL     OW 3850   5.354   2.958   5.382
  984SOL    HW1 3851   5.270   2.903   5.380
  984SOL    HW2 3852   5.356   3.019   5.303
  985SOL     OW 3853   1.839   4.346   0.403
  985SOL    HW1 3854   1.886   4.420   0.451
  985SOL    HW2 3855   1.902   4.270   0.389
  986SOL     OW 3856   5.154   3.850   4.999
  986SOL    HW1 3857   5.078   3.796   4.962
  986SOL    HW2 3858   5.201   3.896   4.924
  987SOL     OW 3859   2.879   0.774   3.027
  987SOL    HW1 3860   2.884   0.873   3.019
  987SOL    HW2 3861   2.913   0.745   3.116
  988SOL     OW 3862   3.787   3.197   1.199
  988SOL    HW1 3863   3.752   3.144   1.276
  988SOL    HW2 3864   3.847   3.269   1.233
  989SOL     OW 3865   0.658   1.500   4.624
  989SOL    HW1 3866   0.753   1.523   4.642
  989SOL    HW2 3867   0.644   1.488   4.525
  990SOL     OW 3868   4.439   6.390   2.398
  990SOL    HW1 3869   4.504   6.451   2.352
  990SOL    HW2 3870   4.349   6.401   2.357
  991SOL     OW 3871   6.031   1.911   5.653
  991SOL    HW1 3872   6.081   1.841   5.602
  991SOL    HW2 3873   6.081   1.934   5.736
  992SOL     OW 3874   0.101   2.469   0.782
  992SOL    HW1 3875   0.048   2.542   0.825
  992SOL    HW2 3876   0.198   2.495   0.781
  993SOL     OW 3877   4.535   6.959   4.272
  993SOL    HW1 3878   4.539   6.946   4.371
  993SOL    HW2 3879   4.465   6.898   4.234
  994SOL     OW 3880   2.962   3.508   3.745
  994SOL    HW1 3881   2.930   3.537   3.655
  994SOL    HW2 3882   2.990   3.588   3.798
  995SOL     OW 3883   1.120   1.780   5.185
  995SOL    HW1 3884   1.022   1.790   5.198
  995SOL    HW2 3885   1.137   1.726   5.102
  996SOL     OW 3886   1.391   3.323   6.650
  996SOL    HW1 3887   1.478   3.335   6.602
  996SOL    HW2 3888   1.316   3.346   6.589
  997SOL     OW 3889   6.935   1.475   0.482
  997SOL    HW1 3890   6.998   1.412   0.527
  997SOL    HW2 3891   6.846   1.470   0.526
  998SOL     OW 3892   4.854   0.456   3.131
  998SOL    HW1 3893   4.904   0.465   3.217
  998SOL    HW2 3894   4.914   0.479   3.055
  999SOL     OW 3895   6.642   5.409   0.253
  999SOL    HW1 3896   6.658   5.458   0.339
  999SOL    HW2 3897   6.553   5.365   0.256
 1000SOL     OW 3898   3.933   1.915   4.813
 1000SOL    HW1 3899   3.963   1.880   4.902
 1000SOL    HW2 3900   4.009   1.961   4.768
 1001SOL     OW 3901   4.806   1.288   4.807
 1001SOL    HW1 3902   4.726   1.293   4.748
 1001SOL    HW2 3903   4.777   1.285   4.903
 1002SOL     OW 3904   0.413   1.176   0.345
 1002SOL    HW1 3905   0.319   1.157   0.375
 1002SOL    HW2 3906   0.445   1.261   0.386
 1003SOL     OW 3907   4.202   5.069   2.677
 1003SOL    HW1 3908   4.263   5.134   2.632
 1003SOL    HW2 3909   4.128   5.118   2.722
 1004SOL     OW 3910   5.878   6.039   0.015
 1004SOL    HW1 3911   5.810   5.966   0.012
 1004SOL    HW2 3912   5.843   6.116   0.070
 1005SOL     OW 3913   5.984   6.535   2.908
 1005SOL    HW1 3914   5.898   6.585   2.901
 1005SOL    HW2 3915   5.969   6.439   2.882
 1006SOL     OW 3916   1.580   5.294   0.274
 1006SOL    HW1 3917   1.585   5.206   0.227
 1006SOL    HW2 3918   1.491   5.302   0.320
 1007SOL     OW 3919   6.238   1.878   2.894
 1007SOL    HW1 3920   6.229   1.948   2.965
 1007SOL    HW2 3921   6.334   1.856   2.880
 1008SOL     OW 3922   3.426   1.806   5.087
 1008SOL    HW1 3923   3.333   1.791   5.054
 1008SOL    HW2 3924   3.448   1.903   5.082
 1009SOL     OW 3925   3.124   6.327   5.644
 1009SOL    HW1 3926   3.107   6.396   5.574
 1009SOL    HW2 3927   3.212   6.282   5.625
 1010SOL     OW 3928   5.168   6.524   5.549
 1010SOL    HW1 3929   5.189   6.466   5.628
 1010SOL    HW2 3930   5.128   6.467   5.477
 1011SOL     OW 3931   2.897   5.161   4.500
 1011SOL    HW1 3932   2.897   5.200   4.407
 1011SOL    HW2 3933   2.848   5.073   4.499
 1012SOL     OW 3934   3.585   6.515   1.301
 1012SOL    HW1 3935   3.588   6.579   1.377
 1012SOL    HW2 3936   3.611   6.562   1.217
 1013SOL     OW 3937   0.660   0.335   0.157
 1013SOL    HW1 3938   0.594   0.394   0.204
 1013SOL    HW2 3939   0.612   0.258   0.115
 1014SOL     OW 3940   6.082   6.911   6.233
 1014SOL    HW1 3941   6.172   6.869   6.228
 1014SOL    HW2 3942   6.061   6.934   6.328
 1015SOL     OW 3943   2.521   0.518   4.916
 1015SOL    HW1 3944   2.422   0.518   4.929
 1015SOL    HW2 3945   2.542   0.485   4.824
 1016SOL     OW 3946   4.145   3.263   0.849
 1016SOL    HW1 3947   4.094   3.191   0.802
 1016SOL    HW2 3948   4.235   3.228   0.876
 1017SOL     OW 3949   4.591   6.710   6.035
 1017SOL    HW1 3950   4.665   6.645   6.048
 1017SOL    HW2 3951   4.515   6.666   5.987
 1018SOL     OW 3952   1.207   1.768   1.718
 1018SOL    HW1 3953   1.292   1.752   1.769
 1018SOL    HW2 3954   1.226   1.827   1.639
 1019SOL     OW 3955   5.430   1.174   0.702
 1019SOL    HW1 3956   5.471   1.085   0.723
 1019SOL    HW2 3957   5.492   1.247   0.733
 1020SOL     OW 3958   3.747   2.056   1.754
 1020SOL    HW1 3959   3.724   2.143   1.797
 1020SOL    HW2 3960   3.839   2.062   1.716
 1021SOL     OW 3961   6.738   1.636   1.116
 1021SOL    HW1 3962   6.655   1.605   1.162
 1021SOL    HW2 3963   6.714   1.697   1.040
 1022SOL     OW 3964   3.416   3.047   0.273
 1022SOL    HW1 3965   3.375   2.991   0.200
 1022SOL    HW2 3966   3.401   3.002   0.361
 1023SOL     OW 3967   6.419   0.898   4.702
 1023SOL    HW1 3968   6.430   0.938   4.792
 1023SOL    HW2 3969   6.469   0.811   4.698
 1024SOL     OW 3970   6.518   2.388   3.228
 1024SOL    HW1 3971   6.552   2.378   3.322
 1024SOL    HW2 3972   6.549   2.311   3.173
 1025SOL     OW 3973   2.444   4.582   1.677
 1025SOL    HW1 3974   2.430   4.640   1.757
 1025SOL    HW2 3975   2.528   4.528   1.690
 1026SOL     OW 3976   0.659   2.528   6.588
 1026SOL    HW1 3977   0.652   2.626   6.570
 1026SOL    HW2 3978   0.613   2.506   6.674
 1027SOL     OW 3979   2.008   4.936   0.965
 1027SOL    HW1 3980   2.032   4.863   1.029
 1027SOL    HW2 3981   2.011   4.901   0.871
 1028SOL     OW 3982   0.374   5.316   0.102
 1028SOL    HW1 3983   0.453   5.377   0.105
 1028SOL    HW2 3984   0.381   5.256   0.023
 1029SOL     OW 3985   3.835   0.539   4.746
 1029SOL    HW1 3986   3.913   0.574   4.694
 1029SOL    HW2 3987   3.868   0.487   4.824
 1030SOL     OW 3988   4.396   5.084   4.997
 1030SOL    HW1 3989   4.360   5.160   5.051
 1030SOL    HW2 3990   4.439   5.018   5.059
 1031SOL     OW 3991   2.618   6.369   1.251
 1031SOL    HW1 3992   2.654   6.455   1.215
 1031SOL    HW2 3993   2.693   6.302   1.255
 1032SOL     OW 3994   1.102   1.906   5.573
 1032SOL    HW1 3995   1.084   1.981   5.508
 1032SOL    HW2 3996   1.200   1.886   5.575
 1033SOL     OW 3997   3.182   6.820   1.716
 1033SOL    HW1 3998   3.155   6.910   1.680
 1033SOL    HW2 3999   3.199   6.758   1.640
 1034SOL     OW 4000   6.842   5.726   2.474
 1034SOL    HW1 4001   6.895   5.810   2.484
 1034SOL    HW2 4002   6.746   5.749   2.458
 1035SOL     OW 4003   3.480   2.134   3.056
 1035SOL    HW1 4004   3.417   2.153   2.981
 1035SOL    HW2 4005   3.547   2.208   3.063
 1036SOL     OW 4006   4.832   0.119   6.552
 1036SOL    HW1 4007   4.763   0.067   6.503
 1036SOL    HW2 4008   4.918   0.117   6.502
 1037SOL     OW 4009   4.075   1.157   6.075
 1037SOL    HW1 4010   4.166   1.124   6.052
 1037SOL    HW2 4011   4.076   1.195   6.168
 1038SOL     OW 4012   2.754   1.931   5.183
 1038SOL    HW1 4013   2.827   1.975   5.132
 1038SOL    HW2 4014   2.716   1.856   5.128
 1039SOL     OW 4015   5.318   1.692   2.697
 1039SOL    HW1 4016   5.247   1.623   2.684
 1039SOL    HW2 4017   5.299   1.772   2.640
 1040SOL     OW 4018   6.073   4.471   4.527
 1040SOL    HW1 4019   5.975   4.479   4.509
 1040SOL    HW2 4020   6.124   4.503   4.447
 1041SOL     OW 4021   1.712   6.660   4.524
 1041SOL    HW1 4022   1.699   6.754   4.554
 1041SOL    HW2 4023   1.806   6.648   4.490
 1042SOL     OW 4024   4.479   4.116   0.766
 1042SOL    HW1 4025   4.415   4.109   0.842
 1042SOL    HW2 4026   4.438   4.075   0.684
 1043SOL     OW 4027   3.920   0.347   6.396
 1043SOL    HW1 4028   3.868   0.295   6.463
 1043SOL    HW2 4029   3.935   0.440   6.430
 1044SOL     OW 4030   3.409   4.119   3.853
 1044SOL    HW1 4031   3.338   4.106   3.783
 1044SOL    HW2 4032   3.372   4.175   3.928
 1045SOL     OW 4033   2.326   1.155   2.455
 1045SOL    HW1 4034   2.228   1.146   2.441
 1045SOL    HW2 4035   2.346   1.156   2.553
 1046SOL     OW 4036   2.815   0.880   1.908
 1046SOL    HW1 4037   2.726   0.839   1.927
 1046SOL    HW2 4038   2.803   0.967   1.860
 1047SOL     OW 4039   0.132   6.577   2.151
 1047SOL    HW1 4040   0.165   6.507   2.214
 1047SOL    HW2 4041   0.143   6.545   2.057
 1048SOL     OW 4042   6.634   3.868   4.978
 1048SOL    HW1 4043   6.704   3.932   4.948
 1048SOL    HW2 4044   6.583   3.909   5.054
 1049SOL     OW 4045   0.490   3.590   5.507
 1049SOL    HW1 4046   0.413   3.531   5.530
 1049SOL    HW2 4047   0.575   3.549   5.538
 1050SOL     OW 4048   2.990   0.380   1.570
 1050SOL    HW1 4049   2.911   0.433   1.600
 1050SOL    HW2 4050   3.073   0.434   1.579
 1051SOL     OW 4051   4.735   4.413   1.871
 1051SOL    HW1 4052   4.656   4.354   1.886
 1051SOL    HW2 4053   4.740   4.439   1.774
 1052SOL     OW 4054   2.786   0.046   4.046
 1052SOL    HW1 4055   2.788   0.080   4.140
 1052SOL    HW2 4056   2.802   6.975   4.047
 1053SOL     OW 4057   3.833   5.466   3.477
 1053SOL    HW1 4058   3.867   5.388   3.529
 1053SOL    HW2 4059   3.790   5.434   3.393
 1054SOL     OW 4060   4.001   5.983   5.207
 1054SOL    HW1 4061   3.970   5.941   5.292
 1054SOL    HW2 4062   4.041   5.913   5.148
 1055SOL     OW 4063   4.057   4.804   4.424
 1055SOL    HW1 4064   3.985   4.738   4.439
 1055SOL    HW2 4065   4.070   4.820   4.326
 1056SOL     OW 4066   3.112   5.475   0.566
 1056SOL    HW1 4067   3.026   5.511   0.602
 1056SOL    HW2 4068   3.094   5.392   0.514
 1057SOL     OW 4069   3.413   3.987   1.409
 1057SOL    HW1 4070   3.319   3.973   1.439
 1057SOL    HW2 4071   3.469   3.910   1.439
 1058SOL     OW 4072   2.866   0.315   2.040
 1058SOL    HW1 4073   2.865   0.398   2.096
 1058SOL    HW2 4074   2.835   0.237   2.095
 1059SOL     OW 4075   4.522   0.068   0.703
 1059SOL    HW1 4076   4.576   0.010   0.765
 1059SOL    HW2 4077   4.501   0.017   0.620
 1060SOL     OW 4078   3.756   1.862   3.960
 1060SOL    HW1 4079   3.783   1.821   3.873
 1060SOL    HW2 4080   3.656   1.857   3.970
 1061SOL     OW 4081   2.317   5.752   1.116
 1061SOL    HW1 4082   2.380   5.720   1.187
 1061SOL    HW2 4083   2.246   5.808   1.158
 1062SOL     OW 4084   5.259   4.038   4.809
 1062SOL    HW1 4085   5.239   4.020   4.712
 1062SOL    HW2 4086   5.211   4.122   4.837
 1063SOL     OW 4087   3.762   2.314   5.822
 1063SOL    HW1 4088   3.760   2.393   5.761
 1063SOL    HW2 4089   3.670   2.277   5.832
 1064SOL     OW 4090   0.563   3.483   2.946
 1064SOL    HW1 4091   0.482   3.537   2.972
 1064SOL    HW2 4092   0.562   3.467   2.848
 1065SOL     OW 4093   4.004   5.321   6.887
 1065SOL    HW1 4094   3.935   5.338   6.817
 1065SOL    HW2 4095   4.056   5.240   6.863
 1066SOL     OW 4096   5.231   0.483   3.571
 1066SOL    HW1 4097   5.218   0.384   3.565
 1066SOL    HW2 4098   5.222   0.512   3.666
 1067SOL     OW 4099   3.082   3.980   0.446
 1067SOL    HW1 4100   3.020   3.959   0.521
 1067SOL    HW2 4101   3.124   4.070   0.461
 1068SOL     OW 4102   1.279   5.460   1.859
 1068SOL    HW1 4103   1.346   5.504   1.919
 1068SOL    HW2 4104   1.325   5.429   1.775
 1069SOL     OW 4105   3.730   3.465   2.852
 1069SOL    HW1 4106   3.636   3.433   2.846
 1069SOL    HW2 4107   3.734   3.551   2.903
 1070SOL     OW 4108   1.792   6.557   0.385
 1070SOL    HW1 4109   1.800   6.562   0.285
 1070SOL    HW2 4110   1.846   6.480   0.419
 1071SOL     OW 4111   5.079   5.813   3.528
 1071SOL    HW1 4112   5.176   5.834   3.525
 1071SOL    HW2 4113   5.033   5.875   3.591
 1072SOL     OW 4114   4.269   5.751   3.810
 1072SOL    HW1 4115   4.252   5.828   3.872
 1072SOL    HW2 4116   4.312   5.786   3.726
 1073SOL     OW 4117   2.861   5.763   3.114
 1073SOL    HW1 4118   2.887   5.853   3.149
 1073SOL    HW2 4119   2.762   5.761   3.099
 1074SOL     OW 4120   2.232   4.905   3.722
 1074SOL    HW1 4121   2.314   4.945   3.680
 1074SOL    HW2 4122   2.171   4.977   3.752
 1075SOL     OW 4123   0.754   4.412   2.551
 1075SOL    HW1 4124   0.830   4.410   2.486
 1075SOL    HW2 4125   0.699   4.494   2.535
 1076SOL     OW 4126   5.933   3.760   3.059
 1076SOL    HW1 4127   5.854   3.719   3.105
 1076SOL    HW2 4128   6.011   3.763   3.121
 1077SOL     OW 4129   4.333   0.774   2.143
 1077SOL    HW1 4130   4.291   0.696   2.190
 1077SOL    HW2 4131   4.413   0.743   2.092
 1078SOL     OW 4132   6.740   2.679   2.226
 1078SOL    HW1 4133   6.808   2.607   2.209
 1078SOL    HW2 4134   6.648   2.643   2.210
 1079SOL     OW 4135   2.027   4.492   3.401
 1079SOL    HW1 4136   2.101   4.482   3.468
 1079SOL    HW2 4137   1.942   4.456   3.441
 1080SOL     OW 4138   2.143   5.409   4.354
 1080SOL    HW1 4139   2.070   5.408   4.286
 1080SOL    HW2 4140   2.203   5.487   4.339
 1081SOL     OW 4141   1.594   0.496   0.212
 1081SOL    HW1 4142   1.666   0.428   0.197
 1081SOL    HW2 4143   1.633   0.575   0.260
 1082SOL     OW 4144   2.064   0.142   1.201
 1082SOL    HW1 4145   2.068   0.055   1.151
 1082SOL    HW2 4146   2.141   0.146   1.266
 1083SOL     OW 4147   3.851   2.915   1.998
 1083SOL    HW1 4148   3.831   3.013   1.999
 1083SOL    HW2 4149   3.924   2.896   1.933
 1084SOL     OW 4150   5.830   3.994   1.287
 1084SOL    HW1 4151   5.904   4.061   1.278
 1084SOL    HW2 4152   5.798   3.991   1.381
 1085SOL     OW 4153   1.343   5.603   4.061
 1085SOL    HW1 4154   1.324   5.575   3.967
 1085SOL    HW2 4155   1.259   5.639   4.102
 1086SOL     OW 4156   2.860   5.528   2.591
 1086SOL    HW1 4157   2.856   5.592   2.667
 1086SOL    HW2 4158   2.768   5.496   2.568
 1087SOL     OW 4159   3.856   3.081   5.030
 1087SOL    HW1 4160   3.811   3.074   5.119
 1087SOL    HW2 4161   3.814   3.018   4.965
 1088SOL     OW 4162   0.135   4.619   2.328
 1088SOL    HW1 4163   0.195   4.627   2.249
 1088SOL    HW2 4164   0.144   4.528   2.369
 1089SOL     OW 4165   6.586   0.462   3.288
 1089SOL    HW1 4166   6.668   0.436   3.338
 1089SOL    HW2 4167   6.603   0.453   3.190
 1090SOL     OW 4168   2.767   2.323   6.613
 1090SOL    HW1 4169   2.725   2.371   6.690
 1090SOL    HW2 4170   2.722   2.234   6.601
 1091SOL     OW 4171   1.565   2.092   6.067
 1091SOL    HW1 4172   1.481   2.048   6.035
 1091SOL    HW2 4173   1.563   2.189   6.044
 1092SOL     OW 4174   3.144   4.628   1.413
 1092SOL    HW1 4175   3.142   4.626   1.513
 1092SOL    HW2 4176   3.051   4.624   1.377
 1093SOL     OW 4177   0.343   2.292   1.470
 1093SOL    HW1 4178   0.422   2.349   1.494
 1093SOL    HW2 4179   0.345   2.207   1.522
 1094SOL     OW 4180   1.154   6.159   2.875
 1094SOL    HW1 4181   1.124   6.254   2.862
 1094SOL    HW2 4182   1.077   6.104   2.905
 1095SOL     OW 4183   1.391   3.110   5.954
 1095SOL    HW1 4184   1.392   3.118   6.053
 1095SOL    HW2 4185   1.358   3.196   5.914
 1096SOL     OW 4186   3.724   3.005   2.639
 1096SOL    HW1 4187   3.684   2.919   2.608
 1096SOL    HW2 4188   3.666   3.081   2.608
 1097SOL     OW 4189   2.822   5.407   5.576
 1097SOL    HW1 4190   2.909   5.372   5.610
 1097SOL    HW2 4191   2.794   5.486   5.631
 1098SOL     OW 4192   3.009   0.729   2.769
 1098SOL    HW1 4193   2.966   0.747   2.857
 1098SOL    HW2 4194   3.016   0.630   2.755
 1099SOL     OW 4195   3.015   0.465   2.237
 1099SOL    HW1 4196   3.023   0.413   2.323
 1099SOL    HW2 4197   3.073   0.423   2.167
 1100SOL     OW 4198   6.421   0.959   0.244
 1100SOL    HW1 4199   6.463   0.972   0.155
 1100SOL    HW2 4200   6.465   0.881   0.290
 1101SOL     OW 4201   5.681   4.192   1.039
 1101SOL    HW1 4202   5.660   4.114   1.098
 1101SOL    HW2 4203   5.756   4.168   0.978
 1102SOL     OW 4204   6.938   3.971   4.309
 1102SOL    HW1 4205   6.983   4.031   4.376
 1102SOL    HW2 4206   6.981   3.881   4.310
 1103SOL     OW 4207   0.599   2.576   0.053
 1103SOL    HW1 4208   0.558   2.508   0.113
 1103SOL    HW2 4209   0.576   2.668   0.085
 1104SOL     OW 4210   2.703   5.574   5.744
 1104SOL    HW1 4211   2.686   5.671   5.758
 1104SOL    HW2 4212   2.616   5.525   5.740
 1105SOL     OW 4213   3.981   5.925   0.691
 1105SOL    HW1 4214   3.949   6.014   0.658
 1105SOL    HW2 4215   4.073   5.907   0.657
 1106SOL     OW 4216   0.648   1.741   6.741
 1106SOL    HW1 4217   0.694   1.753   6.654
 1106SOL    HW2 4218   0.677   1.654   6.782
 1107SOL     OW 4219   6.755   0.160   1.274
 1107SOL    HW1 4220   6.769   0.255   1.299
 1107SOL    HW2 4221   6.664   0.130   1.305
 1108SOL     OW 4222   1.487   1.228   0.438
 1108SOL    HW1 4223   1.409   1.243   0.377
 1108SOL    HW2 4224   1.472   1.276   0.524
 1109SOL     OW 4225   4.105   1.337   3.483
 1109SOL    HW1 4226   4.134   1.428   3.452
 1109SOL    HW2 4227   4.142   1.319   3.574
 1110SOL     OW 4228   3.938   3.476   3.179
 1110SOL    HW1 4229   4.011   3.458   3.245
 1110SOL    HW2 4230   3.851   3.485   3.228
 1111SOL     OW 4231   3.931   6.624   6.585
 1111SOL    HW1 4232   4.001   6.624   6.657
 1111SOL    HW2 4233   3.966   6.671   6.504
 1112SOL     OW 4234   0.750   1.289   2.690
 1112SOL    HW1 4235   0.813   1.344   2.745
 1112SOL    HW2 4236   0.685   1.243   2.750
 1113SOL     OW 4237   6.729   4.381   1.828
 1113SOL    HW1 4238   6.653   4.321   1.855
 1113SOL    HW2 4239   6.815   4.344   1.864
 1114SOL     OW 4240   5.929   1.155   5.812
 1114SOL    HW1 4241   5.862   1.103   5.760
 1114SOL    HW2 4242   5.991   1.203   5.749
 1115SOL     OW 4243   2.064   4.947   0.431
 1115SOL    HW1 4244   2.121   4.877   0.389
 1115SOL    HW2 4245   2.123   5.015   0.476
 1116SOL     OW 4246   3.586   6.413   6.351
 1116SOL    HW1 4247   3.537   6.326   6.344
 1116SOL    HW2 4248   3.550   6.477   6.283
 1117SOL     OW 4249   2.493   2.985   0.361
 1117SOL    HW1 4250   2.412   3.006   0.418
 1117SOL    HW2 4251   2.495   2.888   0.341
 1118SOL     OW 4252   1.538   2.362   1.259
 1118SOL    HW1 4253   1.546   2.262   1.264
 1118SOL    HW2 4254   1.627   2.401   1.236
 1119SOL     OW 4255   3.069   3.200   3.641
 1119SOL    HW1 4256   2.990   3.246   3.682
 1119SOL    HW2 4257   3.075   3.223   3.544
 1120SOL     OW 4258   3.467   1.042   3.601
 1120SOL    HW1 4259   3.450   0.949   3.569
 1120SOL    HW2 4260   3.400   1.065   3.672
 1121SOL     OW 4261   4.777   4.157   3.029
 1121SOL    HW1 4262   4.743   4.142   3.122
 1121SOL    HW2 4263   4.856   4.218   3.033
 1122SOL     OW 4264   4.471   4.939   6.690
 1122SOL    HW1 4265   4.503   4.846   6.709
 1122SOL    HW2 4266   4.546   5.004   6.701
 1123SOL     OW 4267   3.611   0.475   2.055
 1123SOL    HW1 4268   3.553   0.551   2.025
 1123SOL    HW2 4269   3.616   0.475   2.155
 1124SOL     OW 4270   2.371   5.057   3.424
 1124SOL    HW1 4271   2.321   5.136   3.389
 1124SOL    HW2 4272   2.378   4.987   3.352
 1125SOL     OW 4273   3.402   4.324   5.290
 1125SOL    HW1 4274   3.321   4.299   5.343
 1125SOL    HW2 4275   3.409   4.424   5.286
 1126SOL     OW 4276   6.189   0.342   1.855
 1126SOL    HW1 4277   6.221   0.430   1.823
 1126SOL    HW2 4278   6.175   0.346   1.954
 1127SOL     OW 4279   2.356   5.374   5.929
 1127SOL    HW1 4280   2.375   5.281   5.961
 1127SOL    HW2 4281   2.257   5.390   5.930
 1128SOL     OW 4282   2.224   2.550   4.834
 1128SOL    HW1 4283   2.241   2.643   4.865
 1128SOL    HW2 4284   2.142   2.514   4.879
 1129SOL     OW 4285   4.475   5.322   6.263
 1129SOL    HW1 4286   4.549   5.388   6.248
 1129SOL    HW2 4287   4.424   5.349   6.345
 1130SOL     OW 4288   1.443   5.456   5.443
 1130SOL    HW1 4289   1.384   5.378   5.424
 1130SOL    HW2 4290   1.431   5.483   5.539
 1131SOL     OW 4291   0.144   4.381   6.251
 1131SOL    HW1 4292   0.057   4.331   6.251
 1131SOL    HW2 4293   0.220   4.317   6.238
 1132SOL     OW 4294   5.338   6.773   5.239
 1132SOL    HW1 4295   5.305   6.868   5.239
 1132SOL    HW2 4296   5.386   6.755   5.153
 1133SOL     OW 4297   6.469   1.741   6.669
 1133SOL    HW1 4298   6.476   1.660   6.727
 1133SOL    HW2 4299   6.422   1.717   6.584
 1134SOL     OW 4300   0.147   3.343   5.085
 1134SOL    HW1 4301   0.113   3.429   5.122
 1134SOL    HW2 4302   0.244   3.333   5.107
 1135SOL     OW 4303   6.966   1.952   4.229
 1135SOL    HW1 4304   7.027   1.941   4.151
 1135SOL    HW2 4305   6.873   1.929   4.203
 1136SOL     OW 4306   3.863   5.329   3.961
 1136SOL    HW1 4307   3.883   5.408   3.903
 1136SOL    HW2 4308   3.787   5.277   3.922
 1137SOL     OW 4309   0.844   0.290   6.948
 1137SOL    HW1 4310   0.794   0.302   0.006
 1137SOL    HW2 4311   0.918   0.224   6.962
 1138SOL     OW 4312   0.924   2.886   5.903
 1138SOL    HW1 4313   1.019   2.864   5.884
 1138SOL    HW2 4314   0.868   2.863   5.823
 1139SOL     OW 4315   0.491   0.309   2.675
 1139SOL    HW1 4316   0.539   0.221   2.675
 1139SOL    HW2 4317   0.402   0.299   2.720
 1140SOL     OW 4318   4.171   2.008   3.232
 1140SOL    HW1 4319   4.129   1.938   3.288
 1140SOL    HW2 4320   4.201   1.968   3.145
 1141SOL     OW 4321   0.464   6.588   6.003
 1141SOL    HW1 4322   0.544   6.647   6.000
 1141SOL    HW2 4323   0.382   6.644   6.011
 1142SOL     OW 4324   6.030   6.994   5.225
 1142SOL    HW1 4325   6.058   6.989   5.321
 1142SOL    HW2 4326   6.108   7.022   5.169
 1143SOL     OW 4327   5.327   2.864   1.423
 1143SOL    HW1 4328   5.252   2.875   1.487
 1143SOL    HW2 4329   5.302   2.903   1.334
 1144SOL     OW 4330   1.132   6.462   4.653
 1144SOL    HW1 4331   1.126   6.406   4.736
 1144SOL    HW2 4332   1.042   6.499   4.631
 1145SOL     OW 4333   2.714   5.174   4.916
 1145SOL    HW1 4334   2.804   5.215   4.930
 1145SOL    HW2 4335   2.721   5.075   4.925
 1146SOL     OW 4336   5.720   2.001   1.995
 1146SOL    HW1 4337   5.709   1.941   2.074
 1146SOL    HW2 4338   5.759   1.948   1.919
 1147SOL     OW 4339   6.568   4.165   1.894
 1147SOL    HW1 4340   6.586   4.085   1.951
 1147SOL    HW2 4341   6.478   4.202   1.917
 1148SOL     OW 4342   6.315   6.781   6.276
 1148SOL    HW1 4343   6.374   6.839   6.219
 1148SOL    HW2 4344   6.371   6.734   6.345
 1149SOL     OW 4345   4.933   3.639   2.941
 1149SOL    HW1 4346   4.903   3.679   2.854
 1149SOL    HW2 4347   4.916   3.704   3.015
 1150SOL     OW 4348   2.040   6.236   5.445
 1150SOL    HW1 4349   2.036   6.307   5.375
 1150SOL    HW2 4350   1.947   6.216   5.478
 1151SOL     OW 4351   2.387   5.478   0.067
 1151SOL    HW1 4352   2.462   5.417   0.095
 1151SOL    HW2 4353   2.311   5.423   0.032
 1152SOL     OW 4354   6.321   0.748   3.551
 1152SOL    HW1 4355   6.260   0.747   3.630
 1152SOL    HW2 4356   6.365   0.838   3.545
 1153SOL     OW 4357   2.373   4.422   2.693
 1153SOL    HW1 4358   2.304   4.481   2.735
 1153SOL    HW2 4359   2.339   4.386   2.606
 1154SOL     OW 4360   1.610   4.255   2.152
 1154SOL    HW1 4361   1.674   4.247   2.229
 1154SOL    HW2 4362   1.532   4.312   2.179
 1155SOL     OW 4363   5.061   0.373   2.316
 1155SOL    HW1 4364   5.031   0.322   2.396
 1155SOL    HW2 4365   5.160   0.390   2.322
 1156SOL     OW 4366   2.545   0.671   4.612
 1156SOL    HW1 4367   2.640   0.645   4.630
 1156SOL    HW2 4368   2.494   0.591   4.581
 1157SOL     OW 4369   1.458   3.388   3.596
 1157SOL    HW1 4370   1.469   3.393   3.696
 1157SOL    HW2 4371   1.454   3.292   3.568
 1158SOL     OW 4372   4.827   5.415   5.681
 1158SOL    HW1 4373   4.769   5.474   5.624
 1158SOL    HW2 4374   4.806   5.431   5.777
 1159SOL     OW 4375   6.260   4.475   2.919
 1159SOL    HW1 4376   6.226   4.386   2.886
 1159SOL    HW2 4377   6.231   4.488   3.014
 1160SOL     OW 4378   2.780   2.481   1.576
 1160SOL    HW1 4379   2.856   2.538   1.609
 1160SOL    HW2 4380   2.716   2.465   1.651
 1161SOL     OW 4381   4.066   1.066   3.503
 1161SOL    HW1 4382   3.993   1.081   3.569
 1161SOL    HW2 4383   4.078   1.149   3.447
 1162SOL     OW 4384   3.632   5.356   1.823
 1162SOL    HW1 4385   3.572   5.388   1.897
 1162SOL    HW2 4386   3.647   5.431   1.758
 1163SOL     OW 4387   4.733   6.639   2.514
 1163SOL    HW1 4388   4.782   6.573   2.572
 1163SOL    HW2 4389   4.787   6.722   2.506
 1164SOL     OW 4390   6.687   4.308   4.475
 1164SOL    HW1 4391   6.676   4.402   4.443
 1164SOL    HW2 4392   6.661   4.245   4.402
 1165SOL     OW 4393   0.442   5.216   1.972
 1165SOL    HW1 4394   0.358   5.260   1.942
 1165SOL    HW2 4395   0.520   5.255   1.923
 1166SOL     OW 4396   3.754   0.568   6.473
 1166SOL    HW1 4397   3.751   0.519   6.560
 1166SOL    HW2 4398   3.691   0.525   6.408
 1167SOL     OW 4399   4.807   1.608   5.247
 1167SOL    HW1 4400   4.730   1.617   5.185
 1167SOL    HW2 4401   4.889   1.582   5.195
 1168SOL     OW 4402   5.819   1.096   3.996
 1168SOL    HW1 4403   5.829   1.019   3.933
 1168SOL    HW2 4404   5.830   1.182   3.947
 1169SOL     OW 4405   1.854   2.424   0.769
 1169SOL    HW1 4406   1.854   2.513   0.722
 1169SOL    HW2 4407   1.947   2.403   0.800
 1170SOL     OW 4408   2.331   1.018   1.636
 1170SOL    HW1 4409   2.269   1.073   1.693
 1170SOL    HW2 4410   2.417   1.068   1.624
 1171SOL     OW 4411   4.469   0.703   0.827
 1171SOL    HW1 4412   4.393   0.707   0.892
 1171SOL    HW2 4413   4.436   0.666   0.740
 1172SOL     OW 4414   3.566   3.305   5.796
 1172SOL    HW1 4415   3.504   3.238   5.755
 1172SOL    HW2 4416   3.659   3.267   5.797
 1173SOL     OW 4417   5.832   6.041   6.201
 1173SOL    HW1 4418   5.815   6.101   6.278
 1173SOL    HW2 4419   5.823   5.945   6.230
 1174SOL     OW 4420   3.754   6.026   6.688
 1174SOL    HW1 4421   3.767   5.933   6.653
 1174SOL    HW2 4422   3.692   6.076   6.629
 1175SOL     OW 4423   0.360   5.362   4.662
 1175SOL    HW1 4424   0.278   5.403   4.701
 1175SOL    HW2 4425   0.415   5.321   4.735
 1176SOL     OW 4426   6.265   3.576   1.777
 1176SOL    HW1 4427   6.193   3.508   1.760
 1176SOL    HW2 4428   6.286   3.578   1.875
 1177SOL     OW 4429   6.529   2.954   5.621
 1177SOL    HW1 4430   6.519   2.956   5.721
 1177SOL    HW2 4431   6.538   3.048   5.587
 1178SOL     OW 4432   4.322   5.286   2.533
 1178SOL    HW1 4433   4.238   5.340   2.525
 1178SOL    HW2 4434   4.359   5.267   2.442
 1179SOL     OW 4435   1.373   5.062   6.035
 1179SOL    HW1 4436   1.309   4.997   6.076
 1179SOL    HW2 4437   1.462   5.055   6.080
 1180SOL     OW 4438   2.168   1.100   4.185
 1180SOL    HW1 4439   2.134   1.192   4.162
 1180SOL    HW2 4440   2.184   1.049   4.100
 1181SOL     OW 4441   1.475   4.368   2.485
 1181SOL    HW1 4442   1.478   4.463   2.516
 1181SOL    HW2 4443   1.452   4.365   2.387
 1182SOL     OW 4444   0.547   3.641   4.228
 1182SOL    HW1 4445   0.591   3.555   4.202
 1182SOL    HW2 4446   0.578   3.714   4.167
 1183SOL     OW 4447   3.968   6.057   0.942
 1183SOL    HW1 4448   3.983   5.999   0.862
 1183SOL    HW2 4449   3.908   6.009   1.007
 1184SOL     OW 4450   3.558   2.923   6.606
 1184SOL    HW1 4451   3.494   2.902   6.532
 1184SOL    HW2 4452   3.551   3.020   6.629
 1185SOL     OW 4453   3.080   1.401   6.484
 1185SOL    HW1 4454   3.095   1.385   6.386
 1185SOL    HW2 4455   3.044   1.493   6.498
 1186SOL     OW 4456   3.841   0.107   4.806
 1186SOL    HW1 4457   3.888   0.101   4.894
 1186SOL    HW2 4458   3.756   0.159   4.817
 1187SOL     OW 4459   0.434   2.463   4.592
 1187SOL    HW1 4460   0.472   2.424   4.508
 1187SOL    HW2 4461   0.362   2.529   4.568
 1188SOL     OW 4462   1.924   1.284   5.438
 1188SOL    HW1 4463   2.008   1.231   5.440
 1188SOL    HW2 4464   1.919   1.343   5.519
 1189SOL     OW 4465   0.918   1.108   1.144
 1189SOL    HW1 4466   0.889   1.203   1.145
 1189SOL    HW2 4467   0.894   1.065   1.231
 1190SOL     OW 4468   3.664   6.173   2.211
 1190SOL    HW1 4469   3.641   6.130   2.124
 1190SOL    HW2 4470   3.735   6.120   2.258
 1191SOL     OW 4471   2.009   4.195   1.804
 1191SOL    HW1 4472   1.986   4.260   1.731
 1191SOL    HW2 4473   1.944   4.119   1.803
 1192SOL     OW 4474   3.792   5.697   2.724
 1192SOL    HW1 4475   3.698   5.703   2.758
 1192SOL    HW2 4476   3.849   5.762   2.773
 1193SOL     OW 4477   3.133   1.553   3.765
 1193SOL    HW1 4478   3.107   1.504   3.848
 1193SOL    HW2 4479   3.217   1.605   3.782
 1194SOL     OW 4480   6.521   2.041   2.854
 1194SOL    HW1 4481   6.527   1.967   2.787
 1194SOL    HW2 4482   6.475   2.120   2.813
 1195SOL     OW 4483   3.667   0.240   0.051
 1195SOL    HW1 4484   3.593   0.175   0.069
 1195SOL    HW2 4485   3.754   0.201   0.082
 1196SOL     OW 4486   1.659   5.261   3.396
 1196SOL    HW1 4487   1.623   5.184   3.343
 1196SOL    HW2 4488   1.702   5.327   3.334
 1197SOL     OW 4489   3.287   5.189   6.815
 1197SOL    HW1 4490   3.368   5.247   6.827
 1197SOL    HW2 4491   3.207   5.235   6.853
 1198SOL     OW 4492   3.132   1.058   3.376
 1198SOL    HW1 4493   3.043   1.088   3.340
 1198SOL    HW2 4494   3.200   1.062   3.303
 1199SOL     OW 4495   3.297   3.870   3.942
 1199SOL    HW1 4496   3.381   3.879   3.888
 1199SOL    HW2 4497   3.231   3.939   3.914
 1200SOL     OW 4498   4.776   3.958   1.381
 1200SOL    HW1 4499   4.683   3.987   1.403
 1200SOL    HW2 4500   4.809   3.894   1.451
 1201SOL     OW 4501   1.934   2.270   5.280
 1201SOL    HW1 4502   1.944   2.201   5.209
 1201SOL    HW2 4503   1.838   2.299   5.285
 1202SOL     OW 4504   5.984   6.390   4.331
 1202SOL    HW1 4505   5.956   6.479   4.366
 1202SOL    HW2 4506   6.013   6.399   4.236
 1203SOL     OW 4507   5.975   6.940   2.128
 1203SOL    HW1 4508   5.979   0.005   2.164
 1203SOL    HW2 4509   6.000   6.941   2.031
 1204SOL     OW 4510   2.409   6.845   0.399
 1204SOL    HW1 4511   2.443   6.884   0.314
 1204SOL    HW2 4512   2.480   6.851   0.469
 1205SOL     OW 4513   0.990   3.402   5.911
 1205SOL    HW1 4514   0.948   3.489   5.935
 1205SOL    HW2 4515   1.020   3.354   5.994
 1206SOL     OW 4516   6.339   1.353   5.439
 1206SOL    HW1 4517   6.322   1.364   5.537
 1206SOL    HW2 4518   6.404   1.422   5.408
 1207SOL     OW 4519   6.449   5.982   6.424
 1207SOL    HW1 4520   6.405   6.031   6.500
 1207SOL    HW2 4521   6.548   5.991   6.431
 1208SOL     OW 4522   3.648   3.788   2.581
 1208SOL    HW1 4523   3.592   3.784   2.664
 1208SOL    HW2 4524   3.730   3.732   2.592
 1209SOL     OW 4525   6.872   3.488   4.861
 1209SOL    HW1 4526   6.868   3.392   4.835
 1209SOL    HW2 4527   6.808   3.505   4.936
 1210SOL     OW 4528   2.389   0.145   3.465
 1210SOL    HW1 4529   2.319   0.213   3.444
 1210SOL    HW2 4530   2.459   0.145   3.393
 1211SOL     OW 4531   6.905   3.588   3.459
 1211SOL    HW1 4532   6.916   3.633   3.547
 1211SOL    HW2 4533   6.989   3.539   3.435
 1212SOL     OW 4534   1.103   4.659   3.172
 1212SOL    HW1 4535   1.158   4.726   3.122
 1212SOL    HW2 4536   1.019   4.701   3.204
 1213SOL     OW 4537   5.876   3.773   5.137
 1213SOL    HW1 4538   5.910   3.861   5.106
 1213SOL    HW2 4539   5.941   3.701   5.112
 1214SOL     OW 4540   0.830   1.841   1.180
 1214SOL    HW1 4541   0.805   1.750   1.213
 1214SOL    HW2 4542   0.927   1.858   1.198
 1215SOL     OW 4543   0.886   5.895   2.159
 1215SOL    HW1 4544   0.930   5.831   2.096
 1215SOL    HW2 4545   0.827   5.957   2.107
 1216SOL     OW 4546   2.124   6.530   1.259
 1216SOL    HW1 4547   2.039   6.482   1.239
 1216SOL    HW2 4548   2.198   6.489   1.206
 1217SOL     OW 4549   1.667   2.897   3.263
 1217SOL    HW1 4550   1.672   2.825   3.193
 1217SOL    HW2 4551   1.709   2.980   3.228
 1218SOL     OW 4552   0.329   4.007   3.052
 1218SOL    HW1 4553   0.238   3.979   3.082
 1218SOL    HW2 4554   0.398   3.951   3.097
 1219SOL     OW 4555   2.093   6.019   3.290
 1219SOL    HW1 4556   2.187   6.011   3.322
 1219SOL    HW2 4557   2.031   6.025   3.368
 1220SOL     OW 4558   6.615   4.965   2.743
 1220SOL    HW1 4559   6.612   4.935   2.647
 1220SOL    HW2 4560   6.569   4.897   2.800
 1221SOL     OW 4561   4.879   4.702   6.627
 1221SOL    HW1 4562   4.960   4.657   6.591
 1221SOL    HW2 4563   4.806   4.699   6.559
 1222SOL     OW 4564   6.800   4.681   1.304
 1222SOL    HW1 4565   6.726   4.622   1.271
 1222SOL    HW2 4566   6.886   4.630   1.302
 1223SOL     OW 4567   0.472   4.714   4.561
 1223SOL    HW1 4568   0.433   4.626   4.585
 1223SOL    HW2 4569   0.555   4.701   4.508
 1224SOL     OW 4570   4.249   4.238   1.423
 1224SOL    HW1 4571   4.194   4.178   1.481
 1224SOL    HW2 4572   4.197   4.322   1.404
 1225SOL     OW 4573   5.226   1.391   6.549
 1225SOL    HW1 4574   5.173   1.411   6.631
 1225SOL    HW2 4575   5.300   1.327   6.571
 1226SOL     OW 4576   5.882   5.532   0.529
 1226SOL    HW1 4577   5.835   5.510   0.443
 1226SOL    HW2 4578   5.976   5.500   0.524
 1227SOL     OW 4579   5.663   4.169   0.130
 1227SOL    HW1 4580   5.728   4.232   0.172
 1227SOL    HW2 4581   5.700   4.136   0.043
 1228SOL     OW 4582   3.920   3.978   4.953
 1228SOL    HW1 4583   3.997   3.916   4.945
 1228SOL    HW2 4584   3.885   4.001   4.862
 1229SOL     OW 4585   2.216   5.257   1.976
 1229SOL    HW1 4586   2.130   5.258   2.027
 1229SOL    HW2 4587   2.251   5.163   1.972
 1230SOL     OW 4588   5.009   4.705   0.057
 1230SOL    HW1 4589   5.040   4.797   0.080
 1230SOL    HW2 4590   5.086   4.641   0.061
 1231SOL     OW 4591   1.917   0.222   0.569
 1231SOL    HW1 4592   1.982   0.256   0.500
 1231SOL    HW2 4593   1.848   0.165   0.525
 1232SOL     OW 4594   2.478   1.670   5.745
 1232SOL    HW1 4595   2.556   1.623   5.705
 1232SOL    HW2 4596   2.481   1.661   5.845
 1233SOL     OW 4597   0.324   5.735   4.601
 1233SOL    HW1 4598   0.277   5.815   4.565
 1233SOL    HW2 4599   0.258   5.674   4.645
 1234SOL     OW 4600   6.887   4.484   5.297
 1234SOL    HW1 4601   6.982   4.454   5.293
 1234SOL    HW2 4602   6.828   4.406   5.318
 1235SOL     OW 4603   6.357   5.521   0.806
 1235SOL    HW1 4604   6.270   5.569   0.808
 1235SOL    HW2 4605   6.343   5.425   0.829
 1236SOL     OW 4606   0.247   0.702   2.679
 1236SOL    HW1 4607   0.204   0.631   2.734
 1236SOL    HW2 4608   0.333   0.667   2.640
 1237SOL     OW 4609   0.640   0.512   4.530
 1237SOL    HW1 4610   0.597   0.443   4.471
 1237SOL    HW2 4611   0.721   0.473   4.574
 1238SOL     OW 4612   0.433   1.180   4.393
 1238SOL    HW1 4613   0.409   1.139   4.305
 1238SOL    HW2 4614   0.531   1.201   4.393
 1239SOL     OW 4615   5.057   4.932   3.530
 1239SOL    HW1 4616   4.970   4.914   3.576
 1239SOL    HW2 4617   5.104   5.008   3.575
 1240SOL     OW 4618   0.875   4.318   1.542
 1240SOL    HW1 4619   0.846   4.407   1.506
 1240SOL    HW2 4620   0.800   4.277   1.593
 1241SOL     OW 4621   3.821   5.347   6.436
 1241SOL    HW1 4622   3.747   5.310   6.381
 1241SOL    HW2 4623   3.902   5.288   6.427
 1242SOL     OW 4624   2.085   5.622   1.023
 1242SOL    HW1 4625   2.096   5.591   0.929
 1242SOL    HW2 4626   2.171   5.662   1.055
 1243SOL     OW 4627   0.566   3.723   3.857
 1243SOL    HW1 4628   0.615   3.794   3.806
 1243SOL    HW2 4629   0.502   3.766   3.921
 1244SOL     OW 4630   6.812   7.025   4.802
 1244SOL    HW1 4631   6.745   6.989   4.867
 1244SOL    HW2 4632   6.848   0.083   4.837
 1245SOL     OW 4633   4.528   0.637   1.515
 1245SOL    HW1 4634   4.461   0.565   1.496
 1245SOL    HW2 4635   4.504   0.683   1.600
 1246SOL     OW 4636   5.034   2.615   2.310
 1246SOL    HW1 4637   5.108   2.606   2.378
 1246SOL    HW2 4638   4.996   2.524   2.291
 1247SOL     OW 4639   4.990   6.914   2.372
 1247SOL    HW1 4640   4.936   6.993   2.404
 1247SOL    HW2 4641   5.046   6.880   2.447
 1248SOL     OW 4642   0.222   0.295   4.862
 1248SOL    HW1 4643   0.313   0.255   4.855
 1248SOL    HW2 4644   0.220   0.362   4.937
 1249SOL     OW 4645   6.396   0.087   7.009
 1249SOL    HW1 4646   6.469   0.042   6.958
 1249SOL    HW2 4647   6.349   0.020   0.039
 1250SOL     OW 4648   0.532   4.313   5.149
 1250SOL    HW1 4649   0.593   4.284   5.075
 1250SOL    HW2 4650   0.540   4.412   5.162
 1251SOL     OW 4651   2.200   0.932   3.406
 1251SOL    HW1 4652   2.222   1.001   3.337
 1251SOL    HW2 4653   2.172   0.977   3.491
 1252SOL     OW 4654   2.325   4.938   6.461
 1252SOL    HW1 4655   2.373   4.982   6.537
 1252SOL    HW2 4656   2.320   5.000   6.383
 1253SOL     OW 4657   2.933   5.729   0.879
 1253SOL    HW1 4658   3.032   5.740   0.874
 1253SOL    HW2 4659   2.898   5.696   0.792
 1254SOL     OW 4660   6.593   0.933   3.905
 1254SOL    HW1 4661   6.510   0.972   3.865
 1254SOL    HW2 4662   6.590   0.943   4.004
 1255SOL     OW 4663   6.163   2.163   6.191
 1255SOL    HW1 4664   6.163   2.068   6.159
 1255SOL    HW2 4665   6.246   2.180   6.245
 1256SOL     OW 4666   0.096   5.970   6.252
 1256SOL    HW1 4667   0.151   6.051   6.232
 1256SOL    HW2 4668   0.154   5.901   6.296
 1257SOL     OW 4669   0.128   6.246   3.011
 1257SOL    HW1 4670   0.133   6.151   2.980
 1257SOL    HW2 4671   0.173   6.305   2.944
 1258SOL     OW 4672   5.336   5.505   6.259
 1258SOL    HW1 4673   5.274   5.581   6.279
 1258SOL    HW2 4674   5.337   5.441   6.336
 1259SOL     OW 4675   6.091   6.481   4.752
 1259SOL    HW1 4676   6.106   6.426   4.669
 1259SOL    HW2 4677   6.014   6.544   4.736
 1260SOL     OW 4678   3.353   1.100   0.686
 1260SOL    HW1 4679   3.392   1.129   0.774
 1260SOL    HW2 4680   3.349   1.000   0.683
 1261SOL     OW 4681   0.602   4.409   4.760
 1261SOL    HW1 4682   0.625   4.499   4.798
 1261SOL    HW2 4683   0.620   4.339   4.829
 1262SOL     OW 4684   4.158   6.919   1.311
 1262SOL    HW1 4685   4.059   6.918   1.323
 1262SOL    HW2 4686   4.202   6.934   1.399
 1263SOL     OW 4687   7.007   1.547   1.235
 1263SOL    HW1 4688   6.949   1.606   1.178
 1263SOL    HW2 4689   0.048   1.603   1.279
 1264SOL     OW 4690   5.889   2.799   4.793
 1264SOL    HW1 4691   5.793   2.824   4.808
 1264SOL    HW2 4692   5.946   2.845   4.862
 1265SOL     OW 4693   5.676   4.907   4.667
 1265SOL    HW1 4694   5.578   4.910   4.646
 1265SOL    HW2 4695   5.720   4.989   4.631
 1266SOL     OW 4696   2.535   0.469   4.019
 1266SOL    HW1 4697   2.547   0.556   4.067
 1266SOL    HW2 4698   2.480   0.484   3.937
 1267SOL     OW 4699   0.393   4.662   1.960
 1267SOL    HW1 4700   0.386   4.708   2.049
 1267SOL    HW2 4701   0.323   4.697   1.899
 1268SOL     OW 4702   6.485   4.656   6.933
 1268SOL    HW1 4703   6.498   4.751   6.962
 1268SOL    HW2 4704   6.452   4.602   7.010
 1269SOL     OW 4705   1.097   4.239   6.122
 1269SOL    HW1 4706   1.092   4.266   6.026
 1269SOL    HW2 4707   1.144   4.151   6.130
 1270SOL     OW 4708   1.642   2.527   3.786
 1270SOL    HW1 4709   1.730   2.531   3.833
 1270SOL    HW2 4710   1.592   2.445   3.814
 1271SOL     OW 4711   5.641   3.616   2.946
 1271SOL    HW1 4712   5.603   3.702   2.979
 1271SOL    HW2 4713   5.576   3.542   2.960
 1272SOL     OW 4714   5.939   6.759   0.119
 1272SOL    HW1 4715   5.906   6.842   0.074
 1272SOL    HW2 4716   6.000   6.710   0.057
 1273SOL     OW 4717   3.091   6.712   4.888
 1273SOL    HW1 4718   3.077   6.764   4.803
 1273SOL    HW2 4719   3.176   6.661   4.881
 1274SOL     OW 4720   5.153   2.765   2.118
 1274SOL    HW1 4721   5.098   2.702   2.173
 1274SOL    HW2 4722   5.135   2.748   2.021
 1275SOL     OW 4723   3.298   1.076   3.810
 1275SOL    HW1 4724   3.295   0.999   3.874
 1275SOL    HW2 4725   3.205   1.107   3.792
 1276SOL     OW 4726   5.264   6.814   3.169
 1276SOL    HW1 4727   5.263   6.722   3.207
 1276SOL    HW2 4728   5.181   6.863   3.197
 1277SOL     OW 4729   0.741   1.889   4.662
 1277SOL    HW1 4730   0.708   1.971   4.710
 1277SOL    HW2 4731   0.739   1.905   4.564
 1278SOL     OW 4732   3.055   1.596   4.613
 1278SOL    HW1 4733   3.113   1.543   4.674
 1278SOL    HW2 4734   3.067   1.693   4.632
 1279SOL     OW 4735   1.791   5.120   0.602
 1279SOL    HW1 4736   1.691   5.119   0.597
 1279SOL    HW2 4737   1.820   5.151   0.693
 1280SOL     OW 4738   1.408   6.070   3.335
 1280SOL    HW1 4739   1.460   6.012   3.273
 1280SOL    HW2 4740   1.401   6.025   3.425
 1281SOL     OW 4741   0.448   6.616   4.067
 1281SOL    HW1 4742   0.498   6.563   3.998
 1281SOL    HW2 4743   0.512   6.668   4.122
 1282SOL     OW 4744   1.743   6.814   2.666
 1282SOL    HW1 4745   1.694   6.763   2.596
 1282SOL    HW2 4746   1.756   6.908   2.637
 1283SOL     OW 4747   5.215   4.231   5.470
 1283SOL    HW1 4748   5.116   4.240   5.482
 1283SOL    HW2 4749   5.235   4.195   5.379
 1284SOL     OW 4750   2.953   1.882   3.040
 1284SOL    HW1 4751   2.948   1.825   3.121
 1284SOL    HW2 4752   3.047   1.910   3.024
 1285SOL     OW 4753   6.027   2.458   5.823
 1285SOL    HW1 4754   6.089   2.431   5.749
 1285SOL    HW2 4755   5.969   2.533   5.792
 1286SOL     OW 4756   5.418   5.886   0.977
 1286SOL    HW1 4757   5.483   5.931   0.914
 1286SOL    HW2 4758   5.330   5.875   0.931
 1287SOL     OW 4759   6.115   3.306   5.939
 1287SOL    HW1 4760   6.187   3.348   5.884
 1287SOL    HW2 4761   6.040   3.371   5.950
 1288SOL     OW 4762   0.071   3.417   3.724
 1288SOL    HW1 4763   0.131   3.361   3.667
 1288SOL    HW2 4764   0.081   3.513   3.698
 1289SOL     OW 4765   0.366   5.404   2.815
 1289SOL    HW1 4766   0.444   5.348   2.784
 1289SOL    HW2 4767   0.281   5.356   2.794
 1290SOL     OW 4768   6.506   6.755   1.920
 1290SOL    HW1 4769   6.475   6.663   1.898
 1290SOL    HW2 4770   6.426   6.814   1.936
 1291SOL     OW 4771   1.534   6.041   1.702
 1291SOL    HW1 4772   1.456   6.059   1.762
 1291SOL    HW2 4773   1.563   5.945   1.713
 1292SOL     OW 4774   1.821   6.416   0.746
 1292SOL    HW1 4775   1.796   6.439   0.840
 1292SOL    HW2 4776   1.860   6.496   0.701
 1293SOL     OW 4777   6.093   1.487   6.534
 1293SOL    HW1 4778   6.032   1.565   6.549
 1293SOL    HW2 4779   6.040   1.406   6.511
 1294SOL     OW 4780   0.526   1.680   3.876
 1294SOL    HW1 4781   0.432   1.697   3.907
 1294SOL    HW2 4782   0.558   1.760   3.825
 1295SOL     OW 4783   4.876   4.390   0.931
 1295SOL    HW1 4784   4.976   4.402   0.929
 1295SOL    HW2 4785   4.838   4.416   0.842
 1296SOL     OW 4786   3.538   1.489   0.508
 1296SOL    HW1 4787   3.510   1.478   0.603
 1296SOL    HW2 4788   3.581   1.578   0.495
 1297SOL     OW 4789   6.233   1.057   6.202
 1297SOL    HW1 4790   6.241   0.960   6.180
 1297SOL    HW2 4791   6.217   1.109   6.118
 1298SOL     OW 4792   6.311   2.764   3.382
 1298SOL    HW1 4793   6.348   2.809   3.301
 1298SOL    HW2 4794   6.237   2.703   3.355
 1299SOL     OW 4795   1.571   3.340   4.743
 1299SOL    HW1 4796   1.596   3.335   4.840
 1299SOL    HW2 4797   1.584   3.433   4.710
 1300SOL     OW 4798   3.778   2.969   3.459
 1300SOL    HW1 4799   3.848   2.977   3.529
 1300SOL    HW2 4800   3.692   2.939   3.500
 1301SOL     OW 4801   1.230   1.406   1.517
 1301SOL    HW1 4802   1.182   1.487   1.484
 1301SOL    HW2 4803   1.307   1.385   1.456
 1302SOL     OW 4804   2.696   6.062   5.509
 1302SOL    HW1 4805   2.761   6.090   5.438
 1302SOL    HW2 4806   2.682   6.137   5.573
 1303SOL     OW 4807   3.322   0.326   1.285
 1303SOL    HW1 4808   3.223   0.335   1.293
 1303SOL    HW2 4809   3.351   0.237   1.318
 1304SOL     OW 4810   3.309   0.731   6.035
 1304SOL    HW1 4811   3.361   0.684   6.106
 1304SOL    HW2 4812   3.300   0.672   5.956
 1305SOL     OW 4813   5.989   6.981   4.027
 1305SOL    HW1 4814   5.890   6.989   4.040
 1305SOL    HW2 4815   6.018   6.888   4.048
 1306SOL     OW 4816   1.451   5.290   3.767
 1306SOL    HW1 4817   1.461   5.322   3.862
 1306SOL    HW2 4818   1.530   5.234   3.743
 1307SOL     OW 4819   1.259   1.205   4.989
 1307SOL    HW1 4820   1.246   1.178   5.084
 1307SOL    HW2 4821   1.188   1.163   4.932
 1308SOL     OW 4822   4.710   6.205   3.261
 1308SOL    HW1 4823   4.735   6.183   3.167
 1308SOL    HW2 4824   4.745   6.296   3.285
 1309SOL     OW 4825   6.359   3.074   4.343
 1309SOL    HW1 4826   6.304   3.124   4.277
 1309SOL    HW2 4827   6.312   2.989   4.368
 1310SOL     OW 4828   5.513   3.556   5.756
 1310SOL    HW1 4829   5.509   3.636   5.816
 1310SOL    HW2 4830   5.461   3.481   5.797
 1311SOL     OW 4831   4.669   4.677   0.417
 1311SOL    HW1 4832   4.633   4.592   0.454
 1311SOL    HW2 4833   4.688   4.666   0.320
 1312SOL     OW 4834   6.917   0.717   1.900
 1312SOL    HW1 4835   6.984   0.651   1.932
 1312SOL    HW2 4836   6.855   0.741   1.975
 1313SOL     OW 4837   3.523   5.000   4.587
 1313SOL    HW1 4838   3.546   5.097   4.595
 1313SOL    HW2 4839   3.607   4.947   4.579
 1314SOL     OW 4840   0.138   1.113   5.810
 1314SOL    HW1 4841   0.192   1.166   5.875
 1314SOL    HW2 4842   0.065   1.171   5.774
 1315SOL     OW 4843   1.755   6.857   4.028
 1315SOL    HW1 4844   1.688   6.884   4.097
 1315SOL    HW2 4845   1.846   6.857   4.069
 1316SOL     OW 4846   3.010   6.359   3.765
 1316SOL    HW1 4847   2.951   6.357   3.846
 1316SOL    HW2 4848   2.987   6.282   3.705
 1317SOL     OW 4849   6.999   3.197   4.116
 1317SOL    HW1 4850   6.985   3.183   4.215
 1317SOL    HW2 4851   7.017   3.108   4.073
 1318SOL     OW 4852   0.713   6.741   1.883
 1318SOL    HW1 4853   0.737   6.724   1.978
 1318SOL    HW2 4854   0.712   6.655   1.833
 1319SOL     OW 4855   0.422   6.497   0.847
 1319SOL    HW1 4856   0.339   6.442   0.837
 1319SOL    HW2 4857   0.475   6.493   0.762
 1320SOL     OW 4858   5.268   5.267   5.013
 1320SOL    HW1 4859   5.196   5.218   5.062
 1320SOL    HW2 4860   5.327   5.313   5.079
 1321SOL     OW 4861   3.525   1.264   0.935
 1321SOL    HW1 4862   3.452   1.283   1.001
 1321SOL    HW2 4863   3.514   1.323   0.855
 1322SOL     OW 4864   4.969   1.162   6.406
 1322SOL    HW1 4865   4.990   1.252   6.367
 1322SOL    HW2 4866   4.932   1.102   6.336
 1323SOL     OW 4867   6.642   1.001   4.173
 1323SOL    HW1 4868   6.572   1.053   4.222
 1323SOL    HW2 4869   6.692   0.943   4.238
 1324SOL     OW 4870   1.324   2.577   0.272
 1324SOL    HW1 4871   1.358   2.561   0.179
 1324SOL    HW2 4872   1.290   2.492   0.310
 1325SOL     OW 4873   4.594   5.263   4.158
 1325SOL    HW1 4874   4.535   5.189   4.125
 1325SOL    HW2 4875   4.607   5.330   4.086
 1326SOL     OW 4876   5.562   4.156   4.245
 1326SOL    HW1 4877   5.650   4.111   4.228
 1326SOL    HW2 4878   5.497   4.131   4.173
 1327SOL     OW 4879   2.830   6.280   3.959
 1327SOL    HW1 4880   2.808   6.344   4.033
 1327SOL    HW2 4881   2.806   6.187   3.987
 1328SOL     OW 4882   2.752   1.626   1.438
 1328SOL    HW1 4883   2.720   1.668   1.353
 1328SOL    HW2 4884   2.692   1.652   1.513
 1329SOL     OW 4885   1.145   6.022   1.592
 1329SOL    HW1 4886   1.050   6.000   1.613
 1329SOL    HW2 4887   1.205   5.965   1.649
 1330SOL     OW 4888   5.501   6.653   1.688
 1330SOL    HW1 4889   5.573   6.721   1.671
 1330SOL    HW2 4890   5.422   6.698   1.728
 1331SOL     OW 4891   0.635   2.169   1.764
 1331SOL    HW1 4892   0.543   2.129   1.759
 1331SOL    HW2 4893   0.681   2.159   1.676
 1332SOL     OW 4894   4.867   2.161   0.667
 1332SOL    HW1 4895   4.936   2.227   0.636
 1332SOL    HW2 4896   4.844   2.100   0.591
 1333SOL     OW 4897   4.252   3.414   5.670
 1333SOL    HW1 4898   4.307   3.443   5.591
 1333SOL    HW2 4899   4.156   3.408   5.643
 1334SOL     OW 4900   1.593   3.438   4.240
 1334SOL    HW1 4901   1.544   3.525   4.241
 1334SOL    HW2 4902   1.669   3.443   4.306
 1335SOL     OW 4903   2.060   5.111   3.752
 1335SOL    HW1 4904   2.127   5.176   3.717
 1335SOL    HW2 4905   2.011   5.152   3.829
 1336SOL     OW 4906   0.401   6.388   5.040
 1336SOL    HW1 4907   0.386   6.321   5.113
 1336SOL    HW2 4908   0.480   6.360   4.984
 1337SOL     OW 4909   3.725   6.896   6.289
 1337SOL    HW1 4910   3.746   6.988   6.255
 1337SOL    HW2 4911   3.731   6.895   6.389
 1338SOL     OW 4912   4.091   4.804   0.650
 1338SOL    HW1 4913   3.995   4.776   0.650
 1338SOL    HW2 4914   4.127   4.800   0.743
 1339SOL     OW 4915   0.159   3.774   6.769
 1339SOL    HW1 4916   0.231   3.743   6.831
 1339SOL    HW2 4917   0.124   3.863   6.799
 1340SOL     OW 4918   2.775   1.725   6.142
 1340SOL    HW1 4919   2.728   1.706   6.056
 1340SOL    HW2 4920   2.846   1.793   6.126
 1341SOL     OW 4921   5.677   1.960   4.386
 1341SOL    HW1 4922   5.699   1.948   4.483
 1341SOL    HW2 4923   5.647   1.873   4.347
 1342SOL     OW 4924   0.518   6.906   0.951
 1342SOL    HW1 4925   0.454   6.834   0.976
 1342SOL    HW2 4926   0.482   6.995   0.981
 1343SOL     OW 4927   3.169   5.912   3.506
 1343SOL    HW1 4928   3.100   5.857   3.458
 1343SOL    HW2 4929   3.187   5.995   3.453
 1344SOL     OW 4930   5.128   1.936   2.349
 1344SOL    HW1 4931   5.195   1.930   2.274
 1344SOL    HW2 4932   5.086   1.846   2.362
 1345SOL     OW 4933   6.371   6.124   2.382
 1345SOL    HW1 4934   6.422   6.204   2.414
 1345SOL    HW2 4935   6.402   6.099   2.290
 1346SOL     OW 4936   6.693   1.933   3.047
 1346SOL    HW1 4937   6.627   1.972   2.984
 1346SOL    HW2 4938   6.770   1.895   2.995
 1347SOL     OW 4939   4.503   1.348   3.609
 1347SOL    HW1 4940   4.573   1.331   3.678
 1347SOL    HW2 4941   4.487   1.265   3.556
 1348SOL     OW 4942   5.005   6.135   4.920
 1348SOL    HW1 4943   5.038   6.161   4.829
 1348SOL    HW2 4944   5.004   6.035   4.927
 1349SOL     OW 4945   5.102   2.118   0.201
 1349SOL    HW1 4946   5.195   2.092   0.174
 1349SOL    HW2 4947   5.073   2.062   0.279
 1350SOL     OW 4948   3.257   1.207   4.383
 1350SOL    HW1 4949   3.233   1.279   4.449
 1350SOL    HW2 4950   3.349   1.223   4.349
 1351SOL     OW 4951   1.198   1.531   3.848
 1351SOL    HW1 4952   1.248   1.463   3.903
 1351SOL    HW2 4953   1.190   1.616   3.900
 1352SOL     OW 4954   1.266   5.990   4.651
 1352SOL    HW1 4955   1.203   5.987   4.729
 1352SOL    HW2 4956   1.332   6.064   4.665
 1353SOL     OW 4957   2.647   3.045   5.612
 1353SOL    HW1 4958   2.686   2.990   5.538
 1353SOL    HW2 4959   2.594   3.120   5.573
 1354SOL     OW 4960   0.137   6.721   6.703
 1354SOL    HW1 4961   0.079   6.656   6.654
 1354SOL    HW2 4962   0.166   6.681   6.790
 1355SOL     OW 4963   4.280   3.160   7.001
 1355SOL    HW1 4964   4.276   3.061   6.998
 1355SOL    HW2 4965   4.229   3.193   0.052
 1356SOL     OW 4966   3.451   2.823   2.172
 1356SOL    HW1 4967   3.363   2.862   2.145
 1356SOL    HW2 4968   3.458   2.730   2.135
 1357SOL     OW 4969   3.419   2.006   5.457
 1357SOL    HW1 4970   3.346   2.031   5.394
 1357SOL    HW2 4971   3.388   2.022   5.551
 1358SOL     OW 4972   1.867   3.241   5.819
 1358SOL    HW1 4973   1.831   3.250   5.912
 1358SOL    HW2 4974   1.834   3.156   5.778
 1359SOL     OW 4975   0.296   1.712   6.770
 1359SOL    HW1 4976   0.333   1.804   6.764
 1359SOL    HW2 4977   0.245   1.690   6.686
 1360SOL     OW 4978   3.339   3.380   4.321
 1360SOL    HW1 4979   3.253   3.391   4.271
 1360SOL    HW2 4980   3.332   3.302   4.383
 1361SOL     OW 4981   0.981   6.615   0.954
 1361SOL    HW1 4982   0.961   6.545   1.022
 1361SOL    HW2 4983   0.969   6.578   0.862
 1362SOL     OW 4984   3.589   1.185   6.626
 1362SOL    HW1 4985   3.549   1.143   6.544
 1362SOL    HW2 4986   3.555   1.279   6.635
 1363SOL     OW 4987   6.475   6.424   0.855
 1363SOL    HW1 4988   6.515   6.473   0.778
 1363SOL    HW2 4989   6.412   6.484   0.905
 1364SOL     OW 4990   1.086   3.098   1.214
 1364SOL    HW1 4991   1.032   3.046   1.149
 1364SOL    HW2 4992   1.183   3.086   1.194
 1365SOL     OW 4993   1.400   3.489   6.304
 1365SOL    HW1 4994   1.463   3.558   6.339
 1365SOL    HW2 4995   1.308   3.509   6.337
 1366SOL     OW 4996   3.830   0.871   1.313
 1366SOL    HW1 4997   3.775   0.815   1.251
 1366SOL    HW2 4998   3.806   0.851   1.408
 1367SOL     OW 4999   0.944   6.791   4.325
 1367SOL    HW1 5000   1.023   6.838   4.286
 1367SOL    HW2 5001   0.860   6.838   4.298
 1368SOL     OW 5002   1.332   6.248   4.954
 1368SOL    HW1 5003   1.372   6.326   4.907
 1368SOL    HW2 5004   1.311   6.274   5.049
 1369SOL     OW 5005   2.300   5.700   3.598
 1369SOL    HW1 5006   2.297   5.784   3.543
 1369SOL    HW2 5007   2.220   5.644   3.578
 1370SOL     OW 5008   0.184   2.901   2.839
 1370SOL    HW1 5009   0.260   2.941   2.789
 1370SOL    HW2 5010   0.217   2.824   2.894
 1371SOL     OW 5011   5.939   1.715   6.483
 1371SOL    HW1 5012   5.936   1.812   6.459
 1371SOL    HW2 5013   5.882   1.698   6.564
 1372SOL     OW 5014   5.081   2.691   1.777
 1372SOL    HW1 5015   5.021   2.678   1.698
 1372SOL    HW2 5016   5.036   2.658   1.860
 1373SOL     OW 5017   4.830   2.429   1.416
 1373SOL    HW1 5018   4.866   2.460   1.328
 1373SOL    HW2 5019   4.730   2.427   1.412
 1374SOL     OW 5020   3.902   3.919   2.813
 1374SOL    HW1 5021   3.907   3.938   2.911
 1374SOL    HW2 5022   3.976   3.856   2.788
 1375SOL     OW 5023   5.161   4.146   5.169
 1375SOL    HW1 5024   5.106   4.062   5.173
 1375SOL    HW2 5025   5.126   4.206   5.097
 1376SOL     OW 5026   3.115   4.594   5.931
 1376SOL    HW1 5027   3.168   4.614   6.014
 1376SOL    HW2 5028   3.025   4.636   5.938
 1377SOL     OW 5029   1.349   1.742   3.461
 1377SOL    HW1 5030   1.252   1.735   3.439
 1377SOL    HW2 5031   1.361   1.730   3.560
 1378SOL     OW 5032   4.367   2.272   4.220
 1378SOL    HW1 5033   4.450   2.216   4.213
 1378SOL    HW2 5034   4.326   2.283   4.130
 1379SOL     OW 5035   4.942   5.747   6.619
 1379SOL    HW1 5036   4.937   5.770   6.522
 1379SOL    HW2 5037   4.920   5.650   6.632
 1380SOL     OW 5038   6.885   6.306   3.921
 1380SOL    HW1 5039   6.823   6.234   3.951
 1380SOL    HW2 5040   6.961   6.265   3.870
 1381SOL     OW 5041   6.842   2.851   6.062
 1381SOL    HW1 5042   6.926   2.851   6.116
 1381SOL    HW2 5043   6.788   2.933   6.083
 1382SOL     OW 5044   4.322   1.864   5.997
 1382SOL    HW1 5045   4.229   1.901   6.003
 1382SOL    HW2 5046   4.350   1.831   6.088
 1383SOL     OW 5047   6.151   0.385   0.825
 1383SOL    HW1 5048   6.178   0.472   0.783
 1383SOL    HW2 5049   6.161   0.391   0.924
 1384SOL     OW 5050   5.831   2.338   2.467
 1384SOL    HW1 5051   5.782   2.352   2.381
 1384SOL    HW2 5052   5.917   2.290   2.448
 1385SOL     OW 5053   6.636   6.409   1.754
 1385SOL    HW1 5054   6.711   6.446   1.699
 1385SOL    HW2 5055   6.551   6.417   1.701
 1386SOL     OW 5056   2.000   0.168   4.030
 1386SOL    HW1 5057   1.929   0.149   4.098
 1386SOL    HW2 5058   2.075   0.103   4.042
 1387SOL     OW 5059   1.073   5.722   2.062
 1387SOL    HW1 5060   1.131   5.662   2.116
 1387SOL    HW2 5061   1.114   5.734   1.971
 1388SOL     OW 5062   6.450   0.848   1.907
 1388SOL    HW1 5063   6.520   0.901   1.859
 1388SOL    HW2 5064   6.417   0.774   1.848
 1389SOL     OW 5065   6.164   1.217   1.661
 1389SOL    HW1 5066   6.086   1.217   1.723
 1389SOL    HW2 5067   6.246   1.246   1.710
 1390SOL     OW 5068   1.107   1.644   4.295
 1390SOL    HW1 5069   1.172   1.570   4.279
 1390SOL    HW2 5070   1.127   1.687   4.383
 1391SOL     OW 5071   0.819   2.662   3.392
 1391SOL    HW1 5072   0.731   2.698   3.359
 1391SOL    HW2 5073   0.894   2.708   3.345
 1392SOL     OW 5074   5.542   4.920   4.354
 1392SOL    HW1 5075   5.509   4.889   4.443
 1392SOL    HW2 5076   5.525   4.849   4.286
 1393SOL     OW 5077   3.643   4.954   0.036
 1393SOL    HW1 5078   3.643   4.855   0.045
 1393SOL    HW2 5079   3.551   4.986   0.013
 1394SOL     OW 5080   1.238   6.327   0.094
 1394SOL    HW1 5081   1.247   6.407   0.035
 1394SOL    HW2 5082   1.215   6.356   0.187
 1395SOL     OW 5083   4.098   4.814   6.486
 1395SOL    HW1 5084   4.101   4.891   6.549
 1395SOL    HW2 5085   4.133   4.732   6.532
 1396SOL     OW 5086   5.327   5.908   3.608
 1396SOL    HW1 5087   5.357   5.892   3.514
 1396SOL    HW2 5088   5.341   6.004   3.632
 1397SOL     OW 5089   5.635   6.278   5.213
 1397SOL    HW1 5090   5.714   6.256   5.271
 1397SOL    HW2 5091   5.567   6.205   5.220
 1398SOL     OW 5092   1.572   0.289   5.003
 1398SOL    HW1 5093   1.544   0.382   4.976
 1398SOL    HW2 5094   1.659   0.267   4.958
 1399SOL     OW 5095   3.762   5.203   2.622
 1399SOL    HW1 5096   3.753   5.175   2.527
 1399SOL    HW2 5097   3.673   5.234   2.656
 1400SOL     OW 5098   1.041   0.177   3.002
 1400SOL    HW1 5099   1.118   0.211   2.947
 1400SOL    HW2 5100   0.976   0.129   2.944
 1401SOL     OW 5101   6.412   2.348   4.320
 1401SOL    HW1 5102   6.462   2.262   4.331
 1401SOL    HW2 5103   6.314   2.331   4.331
 1402SOL     OW 5104   5.696   2.476   0.137
 1402SOL    HW1 5105   5.745   2.519   0.213
 1402SOL    HW2 5106   5.707   2.530   0.054
 1403SOL     OW 5107   3.501   0.706   1.980
 1403SOL    HW1 5108   3.529   0.801   1.982
 1403SOL    HW2 5109   3.415   0.695   2.031
 1404SOL     OW 5110   4.963   1.478   0.106
 1404SOL    HW1 5111   4.900   1.527   0.046
 1404SOL    HW2 5112   5.053   1.474   0.064
 1405SOL     OW 5113   3.712   2.891   1.230
 1405SOL    HW1 5114   3.669   2.859   1.145
 1405SOL    HW2 5115   3.805   2.854   1.236
 1406SOL     OW 5116   0.828   3.766   2.423
 1406SOL    HW1 5117   0.855   3.861   2.439
 1406SOL    HW2 5118   0.854   3.710   2.503
 1407SOL     OW 5119   0.046   2.999   2.531
 1407SOL    HW1 5120   0.070   3.096   2.537
 1407SOL    HW2 5121   0.001   2.971   2.616
 1408SOL     OW 5122   6.623   5.663   6.422
 1408SOL    HW1 5123   6.585   5.627   6.507
 1408SOL    HW2 5124   6.659   5.755   6.437
 1409SOL     OW 5125   0.201   1.335   4.055
 1409SOL    HW1 5126   0.181   1.239   4.078
 1409SOL    HW2 5127   0.192   1.392   4.136
 1410SOL     OW 5128   6.304   1.573   6.963
 1410SOL    HW1 5129   6.401   1.553   6.950
 1410SOL    HW2 5130   6.250   1.526   6.893
 1411SOL     OW 5131   1.923   0.645   1.302
 1411SOL    HW1 5132   2.001   0.608   1.251
 1411SOL    HW2 5133   1.847   0.662   1.239
 1412SOL     OW 5134   1.717   2.554   0.016
 1412SOL    HW1 5135   1.671   2.533   0.103
 1412SOL    HW2 5136   1.663   2.519   6.969
 1413SOL     OW 5137   3.127   6.991   3.319
 1413SOL    HW1 5138   3.097   6.951   3.406
 1413SOL    HW2 5139   3.195   6.933   3.276
 1414SOL     OW 5140   1.277   1.310   2.673
 1414SOL    HW1 5141   1.217   1.230   2.682
 1414SOL    HW2 5142   1.222   1.391   2.654
 1415SOL     OW 5143   5.728   6.709   5.158
 1415SOL    HW1 5144   5.708   6.644   5.232
 1415SOL    HW2 5145   5.747   6.658   5.074
 1416SOL     OW 5146   4.929   5.583   3.558
 1416SOL    HW1 5147   4.989   5.659   3.534
 1416SOL    HW2 5148   4.835   5.616   3.566
 1417SOL     OW 5149   3.518   2.893   5.913
 1417SOL    HW1 5150   3.536   2.839   5.995
 1417SOL    HW2 5151   3.590   2.962   5.901
 1418SOL     OW 5152   3.227   4.071   3.400
 1418SOL    HW1 5153   3.179   4.017   3.331
 1418SOL    HW2 5154   3.314   4.103   3.363
 1419SOL     OW 5155   3.409   6.411   3.910
 1419SOL    HW1 5156   3.473   6.485   3.892
 1419SOL    HW2 5157   3.322   6.450   3.943
 1420SOL     OW 5158   0.741   6.133   2.758
 1420SOL    HW1 5159   0.643   6.145   2.748
 1420SOL    HW2 5160   0.761   6.079   2.840
 1421SOL     OW 5161   3.898   0.925   2.905
 1421SOL    HW1 5162   3.996   0.915   2.889
 1421SOL    HW2 5163   3.857   0.834   2.917
 1422SOL     OW 5164   2.578   6.241   0.850
 1422SOL    HW1 5165   2.539   6.211   0.763
 1422SOL    HW2 5166   2.546   6.333   0.872
 1423SOL     OW 5167   5.305   0.900   2.407
 1423SOL    HW1 5168   5.275   0.986   2.446
 1423SOL    HW2 5169   5.280   0.896   2.310
 1424SOL     OW 5170   6.630   5.324   2.524
 1424SOL    HW1 5171   6.644   5.403   2.583
 1424SOL    HW2 5172   6.545   5.278   2.549
 1425SOL     OW 5173   2.118   0.603   4.636
 1425SOL    HW1 5174   2.157   0.687   4.674
 1425SOL    HW2 5175   2.133   0.602   4.537
 1426SOL     OW 5176   1.653   1.270   5.765
 1426SOL    HW1 5177   1.593   1.310   5.696
 1426SOL    HW2 5178   1.746   1.305   5.753
 1427SOL     OW 5179   5.303   2.007   6.126
 1427SOL    HW1 5180   5.259   2.094   6.148
 1427SOL    HW2 5181   5.249   1.959   6.057
 1428SOL     OW 5182   5.397   0.820   0.390
 1428SOL    HW1 5183   5.477   0.771   0.357
 1428SOL    HW2 5184   5.410   0.918   0.376
 1429SOL     OW 5185   5.538   6.315   0.139
 1429SOL    HW1 5186   5.544   6.298   0.237
 1429SOL    HW2 5187   5.537   6.228   0.090
 1430SOL     OW 5188   2.880   4.787   2.587
 1430SOL    HW1 5189   2.895   4.778   2.686
 1430SOL    HW2 5190   2.782   4.778   2.568
 1431SOL     OW 5191   1.680   6.938   0.910
 1431SOL    HW1 5192   1.717   7.026   0.942
 1431SOL    HW2 5193   1.731   6.863   0.952
 1432SOL     OW 5194   3.180   0.078   1.685
 1432SOL    HW1 5195   3.272   0.063   1.722
 1432SOL    HW2 5196   3.135   0.152   1.735
 1433SOL     OW 5197   5.387   7.018   3.738
 1433SOL    HW1 5198   5.350   6.966   3.815
 1433SOL    HW2 5199   5.369   0.087   3.751
 1434SOL     OW 5200   1.243   1.162   5.251
 1434SOL    HW1 5201   1.265   1.075   5.294
 1434SOL    HW2 5202   1.157   1.197   5.287
 1435SOL     OW 5203   6.956   2.327   3.419
 1435SOL    HW1 5204   7.010   2.331   3.335
 1435SOL    HW2 5205   6.891   2.403   3.420
 1436SOL     OW 5206   5.085   3.656   1.011
 1436SOL    HW1 5207   5.001   3.617   0.972
 1436SOL    HW2 5208   5.164   3.623   0.959
 1437SOL     OW 5209   4.514   0.965   2.357
 1437SOL    HW1 5210   4.442   1.001   2.298
 1437SOL    HW2 5211   4.479   0.890   2.411
 1438SOL     OW 5212   2.543   0.238   2.025
 1438SOL    HW1 5213   2.509   0.267   2.115
 1438SOL    HW2 5214   2.500   0.151   2.000
 1439SOL     OW 5215   0.441   5.666   1.703
 1439SOL    HW1 5216   0.526   5.645   1.655
 1439SOL    HW2 5217   0.460   5.730   1.778
 1440SOL     OW 5218   2.323   2.787   1.627
 1440SOL    HW1 5219   2.311   2.852   1.551
 1440SOL    HW2 5220   2.418   2.758   1.632
 1441SOL     OW 5221   5.206   5.785   6.640
 1441SOL    HW1 5222   5.106   5.781   6.645
 1441SOL    HW2 5223   5.241   5.847   6.710
 1442SOL     OW 5224   5.082   5.417   1.246
 1442SOL    HW1 5225   5.044   5.402   1.155
 1442SOL    HW2 5226   5.019   5.471   1.301
 1443SOL     OW 5227   6.847   2.906   2.113
 1443SOL    HW1 5228   6.826   2.813   2.142
 1443SOL    HW2 5229   6.772   2.967   2.139
 1444SOL     OW 5230   0.702   6.171   5.808
 1444SOL    HW1 5231   0.759   6.098   5.844
 1444SOL    HW2 5232   0.672   6.229   5.884
 1445SOL     OW 5233   0.551   2.434   1.288
 1445SOL    HW1 5234   0.479   2.438   1.219
 1445SOL    HW2 5235   0.593   2.525   1.298
 1446SOL     OW 5236   6.658   5.360   1.284
 1446SOL    HW1 5237   6.607   5.311   1.213
 1446SOL    HW2 5238   6.754   5.329   1.283
 1447SOL     OW 5239   6.801   6.509   4.105
 1447SOL    HW1 5240   6.807   6.438   4.035
 1447SOL    HW2 5241   6.805   6.599   4.062
 1448SOL     OW 5242   1.316   1.146   5.808
 1448SOL    HW1 5243   1.339   1.233   5.766
 1448SOL    HW2 5244   1.368   1.073   5.763
 1449SOL     OW 5245   1.705   2.960   2.838
 1449SOL    HW1 5246   1.769   2.911   2.779
 1449SOL    HW2 5247   1.622   2.905   2.850
 1450SOL     OW 5248   3.342   1.859   3.238
 1450SOL    HW1 5249   3.425   1.805   3.223
 1450SOL    HW2 5250   3.336   1.930   3.168
 1451SOL     OW 5251   3.899   1.265   2.330
 1451SOL    HW1 5252   3.879   1.349   2.379
 1451SOL    HW2 5253   3.815   1.212   2.318
 1452SOL     OW 5254   4.373   2.603   5.990
 1452SOL    HW1 5255   4.342   2.671   5.924
 1452SOL    HW2 5256   4.463   2.569   5.963
 1453SOL     OW 5257   1.356   3.762   5.193
 1453SOL    HW1 5258   1.257   3.750   5.193
 1453SOL    HW2 5259   1.388   3.777   5.287
 1454SOL     OW 5260   3.055   2.195   2.753
 1454SOL    HW1 5261   3.038   2.102   2.722
 1454SOL    HW2 5262   3.147   2.223   2.726
 1455SOL     OW 5263   0.215   5.384   1.987
 1455SOL    HW1 5264   0.273   5.462   2.010
 1455SOL    HW2 5265   0.165   5.355   2.068
 1456SOL     OW 5266   6.930   5.491   4.318
 1456SOL    HW1 5267   6.850   5.540   4.283
 1456SOL    HW2 5268   6.908   5.451   4.407
 1457SOL     OW 5269   1.282   5.468   5.728
 1457SOL    HW1 5270   1.351   5.539   5.720
 1457SOL    HW2 5271   1.321   5.388   5.775
 1458SOL     OW 5272   6.660   5.177   5.082
 1458SOL    HW1 5273   6.645   5.114   5.006
 1458SOL    HW2 5274   6.572   5.207   5.119
 1459SOL     OW 5275   6.434   6.188   5.006
 1459SOL    HW1 5276   6.398   6.272   5.047
 1459SOL    HW2 5277   6.498   6.145   5.069
 1460SOL     OW 5278   1.763   5.847   5.104
 1460SOL    HW1 5279   1.699   5.882   5.172
 1460SOL    HW2 5280   1.762   5.906   5.023
 1461SOL     OW 5281   6.063   3.599   3.538
 1461SOL    HW1 5282   6.037   3.540   3.462
 1461SOL    HW2 5283   6.162   3.617   3.534
 1462SOL     OW 5284   0.177   1.837   2.149
 1462SOL    HW1 5285   0.249   1.875   2.207
 1462SOL    HW2 5286   0.089   1.879   2.174
 1463SOL     OW 5287   1.452   4.937   6.780
 1463SOL    HW1 5288   1.413   4.886   6.858
 1463SOL    HW2 5289   1.455   5.034   6.802
 1464SOL     OW 5290   1.435   4.763   4.855
 1464SOL    HW1 5291   1.386   4.678   4.833
 1464SOL    HW2 5292   1.492   4.748   4.936
 1465SOL     OW 5293   1.372   2.492   5.717
 1465SOL    HW1 5294   1.324   2.411   5.684
 1465SOL    HW2 5295   1.308   2.550   5.768
 1466SOL     OW 5296   5.717   1.046   2.698
 1466SOL    HW1 5297   5.746   1.038   2.793
 1466SOL    HW2 5298   5.754   0.969   2.646
 1467SOL     OW 5299   0.178   0.162   3.599
 1467SOL    HW1 5300   0.251   0.231   3.595
 1467SOL    HW2 5301   0.158   0.140   3.694
 1468SOL     OW 5302   3.498   6.379   3.273
 1468SOL    HW1 5303   3.423   6.403   3.334
 1468SOL    HW2 5304   3.475   6.409   3.180
 1469SOL     OW 5305   5.954   4.037   3.514
 1469SOL    HW1 5306   5.988   4.084   3.596
 1469SOL    HW2 5307   5.856   4.051   3.506
 1470SOL     OW 5308   6.490   2.322   2.416
 1470SOL    HW1 5309   6.414   2.299   2.355
 1470SOL    HW2 5310   6.577   2.300   2.370
 1471SOL     OW 5311   4.922   0.397   6.678
 1471SOL    HW1 5312   4.897   0.329   6.608
 1471SOL    HW2 5313   4.931   0.352   6.767
 1472SOL     OW 5314   2.261   0.363   6.528
 1472SOL    HW1 5315   2.238   0.454   6.494
 1472SOL    HW2 5316   2.293   0.307   6.452
 1473SOL     OW 5317   1.848   5.676   3.399
 1473SOL    HW1 5318   1.885   5.765   3.426
 1473SOL    HW2 5319   1.918   5.606   3.408
 1474SOL     OW 5320   1.802   4.000   2.180
 1474SOL    HW1 5321   1.804   3.933   2.106
 1474SOL    HW2 5322   1.788   4.092   2.142
 1475SOL     OW 5323   6.284   0.033   6.605
 1475SOL    HW1 5324   6.374   0.067   6.579
 1475SOL    HW2 5325   6.230   0.108   6.645
 1476SOL     OW 5326   5.625   0.469   6.696
 1476SOL    HW1 5327   5.606   0.537   6.767
 1476SOL    HW2 5328   5.601   0.508   6.607
 1477SOL     OW 5329   3.204   4.127   1.841
 1477SOL    HW1 5330   3.233   4.168   1.755
 1477SOL    HW2 5331   3.278   4.136   1.909
 1478SOL     OW 5332   5.228   4.166   6.255
 1478SOL    HW1 5333   5.249   4.241   6.192
 1478SOL    HW2 5334   5.282   4.086   6.231
 1479SOL     OW 5335   4.671   4.701   1.168
 1479SOL    HW1 5336   4.708   4.664   1.254
 1479SOL    HW2 5337   4.741   4.754   1.122
 1480SOL     OW 5338   2.682   1.490   4.018
 1480SOL    HW1 5339   2.745   1.500   4.094
 1480SOL    HW2 5340   2.677   1.576   3.967
 1481SOL     OW 5341   4.190   1.613   5.978
 1481SOL    HW1 5342   4.245   1.693   5.951
 1481SOL    HW2 5343   4.111   1.606   5.917
 1482SOL     OW 5344   6.651   1.227   1.768
 1482SOL    HW1 5345   6.728   1.287   1.744
 1482SOL    HW2 5346   6.675   1.133   1.747
 1483SOL     OW 5347   6.553   0.105   0.265
 1483SOL    HW1 5348   6.563   0.173   0.192
 1483SOL    HW2 5349   6.529   0.017   0.225
 1484SOL     OW 5350   2.974   5.982   4.685
 1484SOL    HW1 5351   2.891   5.948   4.730
 1484SOL    HW2 5352   3.015   5.908   4.631
 1485SOL     OW 5353   5.247   3.855   3.214
 1485SOL    HW1 5354   5.239   3.865   3.314
 1485SOL    HW2 5355   5.219   3.941   3.170
 1486SOL     OW 5356   5.589   6.079   4.327
 1486SOL    HW1 5357   5.656   6.015   4.291
 1486SOL    HW2 5358   5.585   6.073   4.426
 1487SOL     OW 5359   6.167   0.905   0.021
 1487SOL    HW1 5360   6.134   0.887   6.957
 1487SOL    HW2 5361   6.231   0.981   0.020
 1488SOL     OW 5362   6.972   2.843   2.745
 1488SOL    HW1 5363   7.006   2.800   2.661
 1488SOL    HW2 5364   0.021   2.875   2.800
 1489SOL     OW 5365   3.107   5.445   6.646
 1489SOL    HW1 5366   3.043   5.515   6.613
 1489SOL    HW2 5367   3.058   5.359   6.658
 1490SOL     OW 5368   6.096   2.907   2.093
 1490SOL    HW1 5369   5.996   2.915   2.085
 1490SOL    HW2 5370   6.139   2.989   2.057
 1491SOL     OW 5371   5.381   3.184   4.320
 1491SOL    HW1 5372   5.302   3.179   4.381
 1491SOL    HW2 5373   5.419   3.092   4.308
 1492SOL     OW 5374   0.824   2.590   1.938
 1492SOL    HW1 5375   0.727   2.598   1.913
 1492SOL    HW2 5376   0.849   2.494   1.945
 1493SOL     OW 5377   5.960   2.228   6.736
 1493SOL    HW1 5378   5.896   2.239   6.659
 1493SOL    HW2 5379   6.042   2.180   6.704
 1494SOL     OW 5380   1.129   4.200   6.555
 1494SOL    HW1 5381   1.033   4.212   6.529
 1494SOL    HW2 5382   1.187   4.238   6.484
 1495SOL     OW 5383   6.597   4.051   3.833
 1495SOL    HW1 5384   6.613   3.953   3.843
 1495SOL    HW2 5385   6.590   4.093   3.924
 1496SOL     OW 5386   6.568   6.319   5.397
 1496SOL    HW1 5387   6.614   6.398   5.438
 1496SOL    HW2 5388   6.493   6.290   5.457
 1497SOL     OW 5389   4.842   2.407   2.724
 1497SOL    HW1 5390   4.796   2.495   2.712
 1497SOL    HW2 5391   4.804   2.340   2.661
 1498SOL     OW 5392   3.511   4.157   0.610
 1498SOL    HW1 5393   3.428   4.101   0.607
 1498SOL    HW2 5394   3.582   4.108   0.660
 1499SOL     OW 5395   0.773   4.339   4.229
 1499SOL    HW1 5396   0.866   4.301   4.227
 1499SOL    HW2 5397   0.750   4.366   4.322
 1500SOL     OW 5398   2.536   5.370   1.816
 1500SOL    HW1 5399   2.447   5.412   1.832
 1500SOL    HW2 5400   2.589   5.424   1.751
 1501SOL     OW 5401   5.760   1.271   0.900
 1501SOL    HW1 5402   5.700   1.333   0.849
 1501SOL    HW2 5403   5.816   1.323   0.963
 1502SOL     OW 5404   0.593   6.102   6.432
 1502SOL    HW1 5405   0.591   6.073   6.337
 1502SOL    HW2 5406   0.532   6.045   6.486
 1503SOL     OW 5407   6.783   5.575   1.647
 1503SOL    HW1 5408   6.699   5.609   1.603
 1503SOL    HW2 5409   6.862   5.597   1.589
 1504SOL     OW 5410   1.885   0.085   3.228
 1504SOL    HW1 5411   1.932   0.003   3.260
 1504SOL    HW2 5412   1.935   0.166   3.257
 1505SOL     OW 5413   0.014   4.813   5.007
 1505SOL    HW1 5414   0.101   4.830   5.053
 1505SOL    HW2 5415   6.971   4.867   5.051
 1506SOL     OW 5416   1.383   0.732   1.166
 1506SOL    HW1 5417   1.456   0.796   1.140
 1506SOL    HW2 5418   1.300   0.755   1.116
 1507SOL     OW 5419   2.487   2.249   3.178
 1507SOL    HW1 5420   2.541   2.202   3.108
 1507SOL    HW2 5421   2.394   2.212   3.179
 1508SOL     OW 5422   1.672   0.715   2.316
 1508SOL    HW1 5423   1.654   0.676   2.225
 1508SOL    HW2 5424   1.670   0.815   2.309
 1509SOL     OW 5425   4.534   1.488   4.321
 1509SOL    HW1 5426   4.630   1.485   4.348
 1509SOL    HW2 5427   4.493   1.397   4.331
 1510SOL     OW 5428   3.006   6.850   5.111
 1510SOL    HW1 5429   3.065   6.811   5.040
 1510SOL    HW2 5430   2.958   6.777   5.159
 1511SOL     OW 5431   3.747   4.311   5.475
 1511SOL    HW1 5432   3.654   4.321   5.509
 1511SOL    HW2 5433   3.781   4.219   5.497
 1512SOL     OW 5434   5.094   6.454   0.873
 1512SOL    HW1 5435   5.077   6.534   0.931
 1512SOL    HW2 5436   5.134   6.381   0.928
 1513SOL     OW 5437   3.056   0.308   5.476
 1513SOL    HW1 5438   3.128   0.245   5.445
 1513SOL    HW2 5439   3.092   0.365   5.550
 1514SOL     OW 5440   3.048   1.867   6.745
 1514SOL    HW1 5441   2.971   1.926   6.720
 1514SOL    HW2 5442   3.045   1.847   6.843
 1515SOL     OW 5443   3.497   1.015   2.564
 1515SOL    HW1 5444   3.528   0.994   2.657
 1515SOL    HW2 5445   3.434   0.944   2.533
 1516SOL     OW 5446   6.573   0.040   6.549
 1516SOL    HW1 5447   6.565   0.010   6.644
 1516SOL    HW2 5448   6.591   6.989   6.491
 1517SOL     OW 5449   2.509   6.288   3.238
 1517SOL    HW1 5450   2.433   6.298   3.174
 1517SOL    HW2 5451   2.573   6.364   3.225
 1518SOL     OW 5452   1.330   2.750   6.869
 1518SOL    HW1 5453   1.340   2.671   6.930
 1518SOL    HW2 5454   1.297   2.828   6.920
 1519SOL     OW 5455   0.569   4.329   6.790
 1519SOL    HW1 5456   0.481   4.375   6.800
 1519SOL    HW2 5457   0.642   4.396   6.780
 1520SOL     OW 5458   6.810   6.756   3.227
 1520SOL    HW1 5459   6.902   6.735   3.195
 1520SOL    HW2 5460   6.777   6.683   3.287
 1521SOL     OW 5461   1.876   4.863   6.978
 1521SOL    HW1 5462   1.963   4.860   6.927
 1521SOL    HW2 5463   1.826   4.946   6.953
 1522SOL     OW 5464   5.796   6.454   3.966
 1522SOL    HW1 5465   5.731   6.384   3.995
 1522SOL    HW2 5466   5.745   6.534   3.934
 1523SOL     OW 5467   2.466   6.003   0.535
 1523SOL    HW1 5468   2.525   6.021   0.456
 1523SOL    HW2 5469   2.444   5.905   0.538
 1524SOL     OW 5470   1.823   2.743   4.437
 1524SOL    HW1 5471   1.890   2.673   4.414
 1524SOL    HW2 5472   1.870   2.824   4.472
 1525SOL     OW 5473   5.781   4.141   6.541
 1525SOL    HW1 5474   5.798   4.190   6.455
 1525SOL    HW2 5475   5.800   4.044   6.527
 1526SOL     OW 5476   0.554   1.514   0.932
 1526SOL    HW1 5477   0.526   1.430   0.978
 1526SOL    HW2 5478   0.549   1.591   0.996
 1527SOL     OW 5479   5.125   1.249   4.292
 1527SOL    HW1 5480   5.090   1.248   4.386
 1527SOL    HW2 5481   5.048   1.243   4.228
 1528SOL     OW 5482   3.969   3.114   2.637
 1528SOL    HW1 5483   4.014   3.122   2.548
 1528SOL    HW2 5484   3.885   3.061   2.626
 1529SOL     OW 5485   4.031   0.877   5.433
 1529SOL    HW1 5486   4.016   0.938   5.356
 1529SOL    HW2 5487   3.961   0.893   5.503
 1530SOL     OW 5488   2.878   6.973   1.894
 1530SOL    HW1 5489   2.850   6.974   1.990
 1530SOL    HW2 5490   2.866   0.035   1.854
 1531SOL     OW 5491   5.319   6.332   4.668
 1531SOL    HW1 5492   5.285   6.379   4.587
 1531SOL    HW2 5493   5.419   6.326   4.663
 1532SOL     OW 5494   2.562   5.225   2.052
 1532SOL    HW1 5495   2.570   5.292   1.977
 1532SOL    HW2 5496   2.646   5.172   2.057
 1533SOL     OW 5497   5.521   6.411   1.272
 1533SOL    HW1 5498   5.438   6.443   1.226
 1533SOL    HW2 5499   5.548   6.323   1.234
 1534SOL     OW 5500   2.427   4.707   6.766
 1534SOL    HW1 5501   2.435   4.608   6.752
 1534SOL    HW2 5502   2.366   4.746   6.696
 1535SOL     OW 5503   5.011   4.486   3.572
 1535SOL    HW1 5504   4.984   4.567   3.520
 1535SOL    HW2 5505   4.988   4.499   3.669
 1536SOL     OW 5506   4.266   3.862   6.493
 1536SOL    HW1 5507   4.311   3.928   6.432
 1536SOL    HW2 5508   4.179   3.833   6.452
 1537SOL     OW 5509   3.449   5.539   2.616
 1537SOL    HW1 5510   3.357   5.508   2.636
 1537SOL    HW2 5511   3.457   5.637   2.638
 1538SOL     OW 5512   2.326   1.133   0.311
 1538SOL    HW1 5513   2.279   1.221   0.320
 1538SOL    HW2 5514   2.423   1.149   0.295
 1539SOL     OW 5515   6.990   3.126   0.702
 1539SOL    HW1 5516   0.002   3.048   0.750
 1539SOL    HW2 5517   6.967   3.198   0.768
 1540SOL     OW 5518   3.468   5.977   3.829
 1540SOL    HW1 5519   3.513   5.977   3.918
 1540SOL    HW2 5520   3.400   6.050   3.826
 1541SOL     OW 5521   4.636   2.510   5.436
 1541SOL    HW1 5522   4.546   2.525   5.396
 1541SOL    HW2 5523   4.693   2.460   5.370
 1542SOL     OW 5524   0.111   4.802   2.534
 1542SOL    HW1 5525   0.127   4.727   2.469
 1542SOL    HW2 5526   0.072   4.765   2.618
 1543SOL     OW 5527   3.225   5.223   0.662
 1543SOL    HW1 5528   3.142   5.232   0.608
 1543SOL    HW2 5529   3.236   5.128   0.690
 1544SOL     OW 5530   4.113   3.333   4.198
 1544SOL    HW1 5531   4.059   3.249   4.202
 1544SOL    HW2 5532   4.147   3.346   4.105
 1545SOL     OW 5533   6.063   5.415   1.070
 1545SOL    HW1 5534   6.163   5.408   1.069
 1545SOL    HW2 5535   6.031   5.422   1.164
 1546SOL     OW 5536   6.341   6.775   5.406
 1546SOL    HW1 5537   6.427   6.822   5.387
 1546SOL    HW2 5538   6.322   6.709   5.334
 1547SOL     OW 5539   1.423   3.214   6.251
 1547SOL    HW1 5540   1.519   3.200   6.228
 1547SOL    HW2 5541   1.410   3.308   6.283
 1548SOL     OW 5542   6.486   2.110   0.319
 1548SOL    HW1 5543   6.486   2.127   0.220
 1548SOL    HW2 5544   6.403   2.148   0.359
 1549SOL     OW 5545   4.916   0.886   4.651
 1549SOL    HW1 5546   4.970   0.851   4.574
 1549SOL    HW2 5547   4.943   0.981   4.669
 1550SOL     OW 5548   3.118   3.716   4.424
 1550SOL    HW1 5549   3.091   3.772   4.502
 1550SOL    HW2 5550   3.191   3.762   4.373
 1551SOL     OW 5551   6.883   5.571   5.836
 1551SOL    HW1 5552   6.871   5.637   5.910
 1551SOL    HW2 5553   6.839   5.485   5.860
 1552SOL     OW 5554   1.792   4.116   1.475
 1552SOL    HW1 5555   1.850   4.174   1.419
 1552SOL    HW2 5556   1.799   4.145   1.571
 1553SOL     OW 5557   1.824   1.999   5.420
 1553SOL    HW1 5558   1.860   1.920   5.370
 1553SOL    HW2 5559   1.897   2.065   5.435
 1554SOL     OW 5560   4.468   1.774   3.113
 1554SOL    HW1 5561   4.393   1.802   3.052
 1554SOL    HW2 5562   4.551   1.761   3.059
 1555SOL     OW 5563   6.070   5.444   5.559
 1555SOL    HW1 5564   6.143   5.401   5.507
 1555SOL    HW2 5565   6.106   5.478   5.646
 1556SOL     OW 5566   1.768   1.015   5.754
 1556SOL    HW1 5567   1.730   1.108   5.757
 1556SOL    HW2 5568   1.859   1.014   5.795
 1557SOL     OW 5569   1.116   1.907   5.854
 1557SOL    HW1 5570   1.050   1.859   5.911
 1557SOL    HW2 5571   1.090   1.898   5.758
 1558SOL     OW 5572   6.667   6.607   4.830
 1558SOL    HW1 5573   6.732   6.666   4.780
 1558SOL    HW2 5574   6.612   6.664   4.891
 1559SOL     OW 5575   1.847   1.260   6.287
 1559SOL    HW1 5576   1.783   1.283   6.361
 1559SOL    HW2 5577   1.801   1.201   6.221
 1560SOL     OW 5578   0.097   0.633   0.550
 1560SOL    HW1 5579   0.076   0.593   0.639
 1560SOL    HW2 5580   0.183   0.595   0.515
 1561SOL     OW 5581   5.571   6.004   1.733
 1561SOL    HW1 5582   5.526   5.935   1.676
 1561SOL    HW2 5583   5.579   5.970   1.827
 1562SOL     OW 5584   5.451   0.393   4.181
 1562SOL    HW1 5585   5.499   0.423   4.263
 1562SOL    HW2 5586   5.396   0.312   4.202
 1563SOL     OW 5587   3.099   0.019   6.119
 1563SOL    HW1 5588   3.157   6.981   6.165
 1563SOL    HW2 5589   3.009   0.021   6.163
 1564SOL     OW 5590   1.539   2.553   2.726
 1564SOL    HW1 5591   1.497   2.494   2.796
 1564SOL    HW2 5592   1.638   2.539   2.725
 1565SOL     OW 5593   6.227   4.956   1.085
 1565SOL    HW1 5594   6.149   5.013   1.059
 1565SOL    HW2 5595   6.255   4.980   1.178
 1566SOL     OW 5596   6.054   4.867   2.500
 1566SOL    HW1 5597   5.978   4.814   2.537
 1566SOL    HW2 5598   6.036   4.965   2.511
 1567SOL     OW 5599   6.917   5.902   5.416
 1567SOL    HW1 5600   6.901   5.998   5.439
 1567SOL    HW2 5601   6.829   5.857   5.399
 1568SOL     OW 5602   0.224   7.016   0.746
 1568SOL    HW1 5603   0.145   6.966   0.711
 1568SOL    HW2 5604   0.264   6.965   0.823
 1569SOL     OW 5605   3.077   6.040   5.140
 1569SOL    HW1 5606   3.144   6.108   5.110
 1569SOL    HW2 5607   3.093   5.954   5.092
 1570SOL     OW 5608   2.958   2.083   2.026
 1570SOL    HW1 5609   2.912   2.171   2.035
 1570SOL    HW2 5610   2.891   2.009   2.035
 1571SOL     OW 5611   0.169   3.181   0.523
 1571SOL    HW1 5612   0.084   3.179   0.575
 1571SOL    HW2 5613   0.182   3.092   0.479
 1572SOL     OW 5614   0.426   5.583   3.640
 1572SOL    HW1 5615   0.503   5.596   3.702
 1572SOL    HW2 5616   0.400   5.486   3.639
 1573SOL     OW 5617   4.728   6.755   6.936
 1573SOL    HW1 5618   4.711   6.844   6.978
 1573SOL    HW2 5619   4.804   6.762   6.871
 1574SOL     OW 5620   5.465   3.692   1.846
 1574SOL    HW1 5621   5.430   3.609   1.890
 1574SOL    HW2 5622   5.389   3.740   1.801
 1575SOL     OW 5623   3.655   2.315   0.420
 1575SOL    HW1 5624   3.674   2.275   0.510
 1575SOL    HW2 5625   3.712   2.270   0.351
 1576SOL     OW 5626   6.432   5.283   3.043
 1576SOL    HW1 5627   6.415   5.199   3.094
 1576SOL    HW2 5628   6.361   5.351   3.066
 1577SOL     OW 5629   1.527   0.559   0.539
 1577SOL    HW1 5630   1.621   0.535   0.518
 1577SOL    HW2 5631   1.524   0.610   0.625
 1578SOL     OW 5632   5.888   5.984   4.522
 1578SOL    HW1 5633   5.853   5.891   4.535
 1578SOL    HW2 5634   5.909   5.999   4.426
 1579SOL     OW 5635   6.837   0.970   3.333
 1579SOL    HW1 5636   6.915   1.015   3.290
 1579SOL    HW2 5637   6.824   0.879   3.293
 1580SOL     OW 5638   3.503   4.289   5.585
 1580SOL    HW1 5639   3.445   4.208   5.570
 1580SOL    HW2 5640   3.454   4.371   5.555
 1581SOL     OW 5641   6.030   3.349   4.462
 1581SOL    HW1 5642   5.987   3.312   4.379
 1581SOL    HW2 5643   6.042   3.448   4.452
 1582SOL     OW 5644   5.909   6.691   4.079
 1582SOL    HW1 5645   5.874   6.598   4.070
 1582SOL    HW2 5646   5.833   6.754   4.096
 1583SOL     OW 5647   1.943   2.825   1.568
 1583SOL    HW1 5648   1.847   2.840   1.542
 1583SOL    HW2 5649   2.001   2.893   1.523
 1584SOL     OW 5650   2.572   6.973   6.491
 1584SOL    HW1 5651   2.627   6.918   6.554
 1584SOL    HW2 5652   2.531   6.914   6.422
 1585SOL     OW 5653   5.569   1.156   6.298
 1585SOL    HW1 5654   5.645   1.189   6.242
 1585SOL    HW2 5655   5.562   1.057   6.292
 1586SOL     OW 5656   4.032   3.165   2.979
 1586SOL    HW1 5657   4.073   3.110   2.906
 1586SOL    HW2 5658   3.960   3.113   3.024
 1587SOL     OW 5659   1.768   6.818   5.888
 1587SOL    HW1 5660   1.756   6.743   5.953
 1587SOL    HW2 5661   1.709   6.803   5.809
 1588SOL     OW 5662   6.008   4.172   0.257
 1588SOL    HW1 5663   5.960   4.205   0.338
 1588SOL    HW2 5664   6.039   4.250   0.203
 1589SOL     OW 5665   5.139   4.604   3.169
 1589SOL    HW1 5666   5.133   4.504   3.177
 1589SOL    HW2 5667   5.187   4.641   3.248
 1590SOL     OW 5668   2.316   5.899   4.665
 1590SOL    HW1 5669   2.270   5.853   4.588
 1590SOL    HW2 5670   2.390   5.841   4.698
 1591SOL     OW 5671   2.219   3.220   0.272
 1591SOL    HW1 5672   2.189   3.179   0.358
 1591SOL    HW2 5673   2.184   3.165   0.195
 1592SOL     OW 5674   3.768   3.649   4.028
 1592SOL    HW1 5675   3.679   3.668   4.069
 1592SOL    HW2 5676   3.813   3.575   4.078
 1593SOL     OW 5677   1.723   4.169   4.155
 1593SOL    HW1 5678   1.822   4.167   4.167
 1593SOL    HW2 5679   1.701   4.171   4.058
 1594SOL     OW 5680   0.279   5.606   2.631
 1594SOL    HW1 5681   0.361   5.662   2.618
 1594SOL    HW2 5682   0.299   5.532   2.695
 1595SOL     OW 5683   6.623   3.603   4.608
 1595SOL    HW1 5684   6.695   3.637   4.546
 1595SOL    HW2 5685   6.624   3.503   4.608
 1596SOL     OW 5686   3.081   4.938   6.764
 1596SOL    HW1 5687   2.988   4.914   6.790
 1596SOL    HW2 5688   3.141   4.859   6.776
 1597SOL     OW 5689   2.746   6.796   0.956
 1597SOL    HW1 5690   2.772   6.709   0.914
 1597SOL    HW2 5691   2.649   6.813   0.939
 1598SOL     OW 5692   6.722   5.904   1.678
 1598SOL    HW1 5693   6.695   5.993   1.716
 1598SOL    HW2 5694   6.809   5.876   1.719
 1599SOL     OW 5695   2.614   5.487   0.412
 1599SOL    HW1 5696   2.563   5.571   0.427
 1599SOL    HW2 5697   2.632   5.442   0.499
 1600SOL     OW 5698   3.475   1.863   4.824
 1600SOL    HW1 5699   3.442   1.821   4.908
 1600SOL    HW2 5700   3.440   1.813   4.745
 1601SOL     OW 5701   1.966   5.295   4.951
 1601SOL    HW1 5702   2.043   5.263   4.895
 1601SOL    HW2 5703   1.928   5.378   4.912
 1602SOL     OW 5704   0.009   3.382   1.932
 1602SOL    HW1 5705   6.982   3.326   1.870
 1602SOL    HW2 5706   0.032   3.328   2.014
 1603SOL     OW 5707   5.955   6.909   0.355
 1603SOL    HW1 5708   5.915   6.841   0.294
 1603SOL    HW2 5709   5.919   6.895   0.448
 1604SOL     OW 5710   0.758   5.325   4.502
 1604SOL    HW1 5711   0.804   5.354   4.418
 1604SOL    HW2 5712   0.678   5.382   4.517
 1605SOL     OW 5713   4.729   5.217   2.350
 1605SOL    HW1 5714   4.750   5.304   2.394
 1605SOL    HW2 5715   4.705   5.149   2.419
 1606SOL     OW 5716   5.904   5.576   4.547
 1606SOL    HW1 5717   5.879   5.579   4.644
 1606SOL    HW2 5718   5.854   5.647   4.498
 1607SOL     OW 5719   5.087   3.629   1.695
 1607SOL    HW1 5720   5.144   3.650   1.616
 1607SOL    HW2 5721   5.091   3.531   1.714
 1608SOL     OW 5722   2.715   6.985   1.144
 1608SOL    HW1 5723   2.746   6.911   1.086
 1608SOL    HW2 5724   2.632   7.026   1.106
 1609SOL     OW 5725   5.679   1.365   4.898
 1609SOL    HW1 5726   5.772   1.375   4.861
 1609SOL    HW2 5727   5.667   1.431   4.973
 1610SOL     OW 5728   4.765   6.518   3.166
 1610SOL    HW1 5729   4.700   6.579   3.212
 1610SOL    HW2 5730   4.730   6.494   3.075
 1611SOL     OW 5731   4.039   4.071   1.557
 1611SOL    HW1 5732   3.998   4.018   1.483
 1611SOL    HW2 5733   3.966   4.119   1.607
 1612SOL     OW 5734   3.243   0.577   4.451
 1612SOL    HW1 5735   3.167   0.641   4.464
 1612SOL    HW2 5736   3.218   0.509   4.383
 1613SOL     OW 5737   2.164   0.482   1.562
 1613SOL    HW1 5738   2.238   0.416   1.554
 1613SOL    HW2 5739   2.179   0.557   1.497
 1614SOL     OW 5740   6.915   2.081   5.196
 1614SOL    HW1 5741   6.876   1.996   5.162
 1614SOL    HW2 5742   7.013   2.084   5.176
 1615SOL     OW 5743   6.648   5.829   5.378
 1615SOL    HW1 5744   6.609   5.790   5.461
 1615SOL    HW2 5745   6.626   5.771   5.300
 1616SOL     OW 5746   2.271   2.139   6.442
 1616SOL    HW1 5747   2.364   2.119   6.412
 1616SOL    HW2 5748   2.240   2.225   6.399
 1617SOL     OW 5749   3.087   1.296   3.516
 1617SOL    HW1 5750   3.015   1.364   3.504
 1617SOL    HW2 5751   3.084   1.231   3.440
 1618SOL     OW 5752   5.134   3.000   2.276
 1618SOL    HW1 5753   5.150   2.923   2.214
 1618SOL    HW2 5754   5.216   3.014   2.332
 1619SOL     OW 5755   1.537   2.911   4.914
 1619SOL    HW1 5756   1.598   2.939   4.840
 1619SOL    HW2 5757   1.529   2.986   4.980
 1620SOL     OW 5758   3.585   5.876   1.681
 1620SOL    HW1 5759   3.670   5.909   1.722
 1620SOL    HW2 5760   3.527   5.954   1.657
 1621SOL     OW 5761   2.093   2.644   1.712
 1621SOL    HW1 5762   2.187   2.676   1.708
 1621SOL    HW2 5763   2.036   2.698   1.651
 1622SOL     OW 5764   2.186   2.366   5.262
 1622SOL    HW1 5765   2.255   2.318   5.316
 1622SOL    HW2 5766   2.096   2.329   5.284
 1623SOL     OW 5767   2.274   2.157   4.678
 1623SOL    HW1 5768   2.341   2.153   4.604
 1623SOL    HW2 5769   2.190   2.112   4.650
 1624SOL     OW 5770   2.036   0.654   0.569
 1624SOL    HW1 5771   2.004   0.744   0.601
 1624SOL    HW2 5772   2.133   0.643   0.592
 1625SOL     OW 5773   1.124   6.870   1.273
 1625SOL    HW1 5774   1.040   6.924   1.270
 1625SOL    HW2 5775   1.171   6.886   1.360
 1626SOL     OW 5776   2.487   3.105   6.094
 1626SOL    HW1 5777   2.470   3.100   5.996
 1626SOL    HW2 5778   2.553   3.035   6.121
 1627SOL     OW 5779   4.860   4.276   3.431
 1627SOL    HW1 5780   4.795   4.334   3.382
 1627SOL    HW2 5781   4.914   4.331   3.494
 1628SOL     OW 5782   3.371   3.588   0.382
 1628SOL    HW1 5783   3.326   3.546   0.304
 1628SOL    HW2 5784   3.400   3.517   0.447
 1629SOL     OW 5785   2.826   2.276   2.832
 1629SOL    HW1 5786   2.791   2.237   2.917
 1629SOL    HW2 5787   2.916   2.236   2.812
 1630SOL     OW 5788   5.910   4.875   4.121
 1630SOL    HW1 5789   5.996   4.923   4.137
 1630SOL    HW2 5790   5.838   4.942   4.103
 1631SOL     OW 5791   1.110   0.332   6.115
 1631SOL    HW1 5792   1.159   0.419   6.108
 1631SOL    HW2 5793   1.104   0.290   6.025
 1632SOL     OW 5794   4.136   6.608   6.755
 1632SOL    HW1 5795   4.178   6.678   6.812
 1632SOL    HW2 5796   4.135   6.521   6.803
 1633SOL     OW 5797   6.590   4.193   2.934
 1633SOL    HW1 5798   6.549   4.265   2.879
 1633SOL    HW2 5799   6.548   4.192   3.024
 1634SOL     OW 5800   3.631   1.022   0.926
 1634SOL    HW1 5801   3.548   0.969   0.947
 1634SOL    HW2 5802   3.610   1.120   0.934
 1635SOL     OW 5803   1.791   4.261   3.310
 1635SOL    HW1 5804   1.742   4.174   3.308
 1635SOL    HW2 5805   1.727   4.335   3.289
 1636SOL     OW 5806   2.976   6.280   0.717
 1636SOL    HW1 5807   3.041   6.340   0.670
 1636SOL    HW2 5808   2.966   6.195   0.666
 1637SOL     OW 5809   1.043   3.028   2.629
 1637SOL    HW1 5810   1.104   3.076   2.692
 1637SOL    HW2 5811   0.995   2.956   2.677
 1638SOL     OW 5812   1.192   2.358   6.006
 1638SOL    HW1 5813   1.112   2.322   6.055
 1638SOL    HW2 5814   1.164   2.439   5.954
 1639SOL     OW 5815   4.208   4.796   2.600
 1639SOL    HW1 5816   4.222   4.895   2.610
 1639SOL    HW2 5817   4.109   4.777   2.601
 1640SOL     OW 5818   5.944   0.002   0.891
 1640SOL    HW1 5819   5.966   0.024   0.986
 1640SOL    HW2 5820   6.008   0.048   0.830
 1641SOL     OW 5821   6.568   2.534   4.688
 1641SOL    HW1 5822   6.634   2.569   4.754
 1641SOL    HW2 5823   6.615   2.478   4.619
 1642SOL     OW 5824   0.883   2.375   1.646
 1642SOL    HW1 5825   0.836   2.461   1.662
 1642SOL    HW2 5826   0.968   2.373   1.698
 1643SOL     OW 5827   3.649   0.329   5.936
 1643SOL    HW1 5828   3.707   0.334   5.855
 1643SOL    HW2 5829   3.609   0.238   5.942
 1644SOL     OW 5830   4.016   1.278   1.107
 1644SOL    HW1 5831   3.964   1.356   1.072
 1644SOL    HW2 5832   4.084   1.249   1.039
 1645SOL     OW 5833   2.282   5.978   6.116
 1645SOL    HW1 5834   2.320   5.991   6.208
 1645SOL    HW2 5835   2.272   5.880   6.097
 1646SOL     OW 5836   2.375   3.438   0.166
 1646SOL    HW1 5837   2.355   3.527   0.125
 1646SOL    HW2 5838   2.294   3.380   0.161
 1647SOL     OW 5839   5.673   3.795   2.327
 1647SOL    HW1 5840   5.706   3.788   2.421
 1647SOL    HW2 5841   5.573   3.798   2.327
 1648SOL     OW 5842   2.935   0.694   3.301
 1648SOL    HW1 5843   2.864   0.726   3.364
 1648SOL    HW2 5844   2.954   0.597   3.319
 1649SOL     OW 5845   2.675   0.346   4.261
 1649SOL    HW1 5846   2.687   0.248   4.243
 1649SOL    HW2 5847   2.634   0.390   4.181
 1650SOL     OW 5848   2.927   0.142   4.550
 1650SOL    HW1 5849   2.859   0.144   4.623
 1650SOL    HW2 5850   3.016   0.117   4.589
 1651SOL     OW 5851   1.508   6.835   2.488
 1651SOL    HW1 5852   1.468   6.920   2.525
 1651SOL    HW2 5853   1.437   6.765   2.482
 1652SOL     OW 5854   3.647   3.366   1.705
 1652SOL    HW1 5855   3.705   3.443   1.731
 1652SOL    HW2 5856   3.600   3.387   1.620
 1653SOL     OW 5857   1.090   4.530   1.194
 1653SOL    HW1 5858   1.051   4.475   1.121
 1653SOL    HW2 5859   1.017   4.581   1.241
 1654SOL     OW 5860   0.742   2.146   4.018
 1654SOL    HW1 5861   0.752   2.170   3.922
 1654SOL    HW2 5862   0.771   2.051   4.032
 1655SOL     OW 5863   4.403   4.396   5.383
 1655SOL    HW1 5864   4.369   4.302   5.392
 1655SOL    HW2 5865   4.348   4.445   5.315
 1656SOL     OW 5866   0.342   3.151   2.488
 1656SOL    HW1 5867   0.272   3.080   2.494
 1656SOL    HW2 5868   0.303   3.240   2.513
 1657SOL     OW 5869   1.227   0.907   5.451
 1657SOL    HW1 5870   1.315   0.955   5.448
 1657SOL    HW2 5871   1.158   0.965   5.494
 1658SOL     OW 5872   5.769   6.819   2.571
 1658SOL    HW1 5873   5.755   6.824   2.473
 1658SOL    HW2 5874   5.866   6.828   2.592
 1659SOL     OW 5875   5.333   2.499   6.565
 1659SOL    HW1 5876   5.298   2.564   6.498
 1659SOL    HW2 5877   5.263   2.479   6.633
 1660SOL     OW 5878   2.280   5.737   3.875
 1660SOL    HW1 5879   2.269   5.836   3.864
 1660SOL    HW2 5880   2.274   5.693   3.786
 1661SOL     OW 5881   2.258   0.677   3.397
 1661SOL    HW1 5882   2.332   0.663   3.331
 1661SOL    HW2 5883   2.232   0.774   3.397
 1662SOL     OW 5884   6.811   0.728   3.186
 1662SOL    HW1 5885   6.813   0.633   3.157
 1662SOL    HW2 5886   6.724   0.747   3.232
 1663SOL     OW 5887   1.687   0.273   3.439
 1663SOL    HW1 5888   1.613   0.333   3.472
 1663SOL    HW2 5889   1.670   0.179   3.468
 1664SOL     OW 5890   2.028   5.629   4.647
 1664SOL    HW1 5891   2.086   5.551   4.670
 1664SOL    HW2 5892   1.973   5.654   4.727
 1665SOL     OW 5893   6.846   1.186   4.044
 1665SOL    HW1 5894   6.821   1.222   4.134
 1665SOL    HW2 5895   6.790   1.106   4.023
 1666SOL     OW 5896   5.582   2.412   6.443
 1666SOL    HW1 5897   5.497   2.392   6.491
 1666SOL    HW2 5898   5.607   2.508   6.457
 1667SOL     OW 5899   0.153   0.494   1.302
 1667SOL    HW1 5900   0.094   0.413   1.312
 1667SOL    HW2 5901   0.104   0.564   1.250
 1668SOL     OW 5902   2.241   0.357   4.719
 1668SOL    HW1 5903   2.215   0.437   4.666
 1668SOL    HW2 5904   2.339   0.340   4.709
 1669SOL     OW 5905   5.209   5.848   6.035
 1669SOL    HW1 5906   5.292   5.856   6.091
 1669SOL    HW2 5907   5.196   5.754   6.006
 1670SOL     OW 5908   6.929   3.043   6.361
 1670SOL    HW1 5909   6.978   2.957   6.349
 1670SOL    HW2 5910   6.992   3.119   6.343
 1671SOL     OW 5911   5.411   5.452   0.339
 1671SOL    HW1 5912   5.321   5.495   0.325
 1671SOL    HW2 5913   5.424   5.430   0.435
 1672SOL     OW 5914   1.978   4.501   2.579
 1672SOL    HW1 5915   2.060   4.518   2.632
 1672SOL    HW2 5916   2.003   4.462   2.490
 1673SOL     OW 5917   6.385   3.119   3.459
 1673SOL    HW1 5918   6.315   3.108   3.529
 1673SOL    HW2 5919   6.343   3.151   3.374
 1674SOL     OW 5920   2.380   5.512   0.622
 1674SOL    HW1 5921   2.321   5.478   0.549
 1674SOL    HW2 5922   2.449   5.443   0.643
 1675SOL     OW 5923   4.971   1.742   6.360
 1675SOL    HW1 5924   5.015   1.657   6.329
 1675SOL    HW2 5925   4.968   1.744   6.460
 1676SOL     OW 5926   2.757   2.001   3.800
 1676SOL    HW1 5927   2.731   2.093   3.828
 1676SOL    HW2 5928   2.857   1.992   3.806
 1677SOL     OW 5929   5.415   0.119   5.857
 1677SOL    HW1 5930   5.434   0.076   5.768
 1677SOL    HW2 5931   5.501   0.138   5.904
 1678SOL     OW 5932   4.872   6.516   2.178
 1678SOL    HW1 5933   4.890   6.441   2.113
 1678SOL    HW2 5934   4.864   6.602   2.128
 1679SOL     OW 5935   6.681   4.763   0.317
 1679SOL    HW1 5936   6.640   4.689   0.264
 1679SOL    HW2 5937   6.610   4.810   0.369
 1680SOL     OW 5938   0.368   2.228   5.602
 1680SOL    HW1 5939   0.324   2.267   5.683
 1680SOL    HW2 5940   0.309   2.242   5.522
 1681SOL     OW 5941   4.282   5.571   6.806
 1681SOL    HW1 5942   4.229   5.568   6.890
 1681SOL    HW2 5943   4.275   5.663   6.765
 1682SOL     OW 5944   0.294   2.943   5.972
 1682SOL    HW1 5945   0.340   2.865   5.929
 1682SOL    HW2 5946   0.197   2.942   5.949
 1683SOL     OW 5947   5.779   5.179   5.777
 1683SOL    HW1 5948   5.682   5.186   5.798
 1683SOL    HW2 5949   5.821   5.109   5.836
 1684SOL     OW 5950   0.173   6.878   4.333
 1684SOL    HW1 5951   0.202   6.857   4.239
 1684SOL    HW2 5952   0.099   6.816   4.359
 1685SOL     OW 5953   1.010   1.815   0.172
 1685SOL    HW1 5954   1.055   1.898   0.204
 1685SOL    HW2 5955   1.024   1.742   0.239
 1686SOL     OW 5956   1.618   6.636   6.021
 1686SOL    HW1 5957   1.605   6.544   6.058
 1686SOL    HW2 5958   1.530   6.673   5.992
 1687SOL     OW 5959   3.019   6.544   2.085
 1687SOL    HW1 5960   3.105   6.576   2.046
 1687SOL    HW2 5961   3.025   6.446   2.104
 1688SOL     OW 5962   0.467   1.408   3.894
 1688SOL    HW1 5963   0.378   1.394   3.936
 1688SOL    HW2 5964   0.500   1.500   3.914
 1689SOL     OW 5965   2.889   1.290   1.498
 1689SOL    HW1 5966   2.831   1.214   1.525
 1689SOL    HW2 5967   2.883   1.304   1.399
 1690SOL     OW 5968   1.008   2.383   0.601
 1690SOL    HW1 5969   0.910   2.374   0.583
 1690SOL    HW2 5970   1.022   2.428   0.689
 1691SOL     OW 5971   4.670   4.239   3.760
 1691SOL    HW1 5972   4.750   4.216   3.815
 1691SOL    HW2 5973   4.587   4.208   3.806
 1692SOL     OW 5974   1.169   0.149   3.777
 1692SOL    HW1 5975   1.248   0.176   3.723
 1692SOL    HW2 5976   1.085   0.182   3.733
 1693SOL     OW 5977   3.714   2.151   4.082
 1693SOL    HW1 5978   3.738   2.079   4.017
 1693SOL    HW2 5979   3.796   2.202   4.107
 1694SOL     OW 5980   6.225   5.988   4.883
 1694SOL    HW1 5981   6.273   5.925   4.823
 1694SOL    HW2 5982   6.275   6.075   4.887
 1695SOL     OW 5983   3.780   1.533   6.423
 1695SOL    HW1 5984   3.874   1.558   6.445
 1695SOL    HW2 5985   3.742   1.598   6.357
 1696SOL     OW 5986   3.663   5.599   1.708
 1696SOL    HW1 5987   3.709   5.616   1.795
 1696SOL    HW2 5988   3.600   5.675   1.688
 1697SOL     OW 5989   1.533   1.634   2.164
 1697SOL    HW1 5990   1.493   1.679   2.244
 1697SOL    HW2 5991   1.563   1.542   2.189
 1698SOL     OW 5992   4.893   1.782   0.099
 1698SOL    HW1 5993   4.965   1.798   0.167
 1698SOL    HW2 5994   4.803   1.798   0.141
 1699SOL     OW 5995   2.313   4.676   1.206
 1699SOL    HW1 5996   2.395   4.619   1.208
 1699SOL    HW2 5997   2.317   4.742   1.281
 1700SOL     OW 5998   6.237   2.890   4.507
 1700SOL    HW1 5999   6.233   2.812   4.568
 1700SOL    HW2 6000   6.159   2.951   4.524
 1701SOL     OW 6001   6.143   3.055   4.817
 1701SOL    HW1 6002   6.122   3.060   4.719
 1701SOL    HW2 6003   6.095   3.128   4.865
 1702SOL     OW 6004   5.442   2.618   1.463
 1702SOL    HW1 6005   5.432   2.718   1.463
 1702SOL    HW2 6006   5.461   2.587   1.370
 1703SOL     OW 6007   1.886   3.499   0.921
 1703SOL    HW1 6008   1.976   3.524   0.887
 1703SOL    HW2 6009   1.858   3.412   0.881
 1704SOL     OW 6010   7.006   1.798   2.648
 1704SOL    HW1 6011   0.033   1.779   2.567
 1704SOL    HW2 6012   6.931   1.733   2.653
 1705SOL     OW 6013   4.043   3.336   2.761
 1705SOL    HW1 6014   4.067   3.399   2.687
 1705SOL    HW2 6015   4.018   3.247   2.722
 1706SOL     OW 6016   2.360   0.911   6.195
 1706SOL    HW1 6017   2.445   0.906   6.247
 1706SOL    HW2 6018   2.353   0.832   6.135
 1707SOL     OW 6019   5.030   1.665   2.416
 1707SOL    HW1 6020   5.015   1.601   2.492
 1707SOL    HW2 6021   5.114   1.641   2.368
 1708SOL     OW 6022   0.613   4.199   1.590
 1708SOL    HW1 6023   0.632   4.129   1.658
 1708SOL    HW2 6024   0.523   4.239   1.608
 1709SOL     OW 6025   3.531   5.414   3.351
 1709SOL    HW1 6026   3.541   5.366   3.438
 1709SOL    HW2 6027   3.483   5.500   3.366
 1710SOL     OW 6028   6.731   4.804   4.692
 1710SOL    HW1 6029   6.777   4.716   4.702
 1710SOL    HW2 6030   6.779   4.860   4.624
 1711SOL     OW 6031   1.155   4.696   5.452
 1711SOL    HW1 6032   1.147   4.666   5.547
 1711SOL    HW2 6033   1.098   4.638   5.394
 1712SOL     OW 6034   1.670   4.572   2.325
 1712SOL    HW1 6035   1.699   4.478   2.342
 1712SOL    HW2 6036   1.744   4.622   2.281
 1713SOL     OW 6037   2.707   3.201   0.772
 1713SOL    HW1 6038   2.664   3.206   0.862
 1713SOL    HW2 6039   2.740   3.292   0.745
 1714SOL     OW 6040   4.340   1.249   1.684
 1714SOL    HW1 6041   4.241   1.237   1.695
 1714SOL    HW2 6042   4.377   1.292   1.766
 1715SOL     OW 6043   1.058   3.143   3.405
 1715SOL    HW1 6044   0.982   3.128   3.467
 1715SOL    HW2 6045   1.027   3.197   3.326
 1716SOL     OW 6046   0.331   0.047   6.479
 1716SOL    HW1 6047   0.286   0.069   6.392
 1716SOL    HW2 6048   0.406   7.012   6.463
 1717SOL     OW 6049   3.042   0.440   6.633
 1717SOL    HW1 6050   3.073   0.492   6.553
 1717SOL    HW2 6051   3.057   0.342   6.616
 1718SOL     OW 6052   2.219   4.017   5.606
 1718SOL    HW1 6053   2.306   3.984   5.568
 1718SOL    HW2 6054   2.195   3.962   5.686
 1719SOL     OW 6055   1.963   3.471   1.213
 1719SOL    HW1 6056   1.888   3.455   1.149
 1719SOL    HW2 6057   1.961   3.402   1.285
 1720SOL     OW 6058   6.917   2.429   2.465
 1720SOL    HW1 6059   6.879   2.462   2.551
 1720SOL    HW2 6060   6.987   2.360   2.484
 1721SOL     OW 6061   1.222   6.534   4.233
 1721SOL    HW1 6062   1.240   6.541   4.331
 1721SOL    HW2 6063   1.291   6.587   4.183
 1722SOL     OW 6064   5.744   7.014   1.775
 1722SOL    HW1 6065   5.793   0.061   1.818
 1722SOL    HW2 6066   5.659   0.019   1.734
 1723SOL     OW 6067   5.624   1.657   3.319
 1723SOL    HW1 6068   5.604   1.600   3.240
 1723SOL    HW2 6069   5.722   1.656   3.338
 1724SOL     OW 6070   4.941   0.741   0.170
 1724SOL    HW1 6071   5.039   0.744   0.190
 1724SOL    HW2 6072   4.893   0.805   0.230
 1725SOL     OW 6073   3.745   5.841   2.227
 1725SOL    HW1 6074   3.773   5.923   2.277
 1725SOL    HW2 6075   3.826   5.796   2.189
 1726SOL     OW 6076   6.554   3.840   4.511
 1726SOL    HW1 6077   6.553   3.757   4.567
 1726SOL    HW2 6078   6.648   3.863   4.487
 1727SOL     OW 6079   2.770   4.106   5.681
 1727SOL    HW1 6080   2.856   4.056   5.680
 1727SOL    HW2 6081   2.702   4.054   5.733
 1728SOL     OW 6082   4.960   5.743   3.880
 1728SOL    HW1 6083   4.868   5.769   3.848
 1728SOL    HW2 6084   5.023   5.819   3.864
 1729SOL     OW 6085   0.562   3.112   2.305
 1729SOL    HW1 6086   0.492   3.133   2.373
 1729SOL    HW2 6087   0.645   3.080   2.350
 1730SOL     OW 6088   4.941   2.011   4.732
 1730SOL    HW1 6089   5.023   2.001   4.788
 1730SOL    HW2 6090   4.967   2.022   4.636
 1731SOL     OW 6091   0.659   6.821   6.839
 1731SOL    HW1 6092   0.719   6.766   6.780
 1731SOL    HW2 6093   0.714   6.869   6.907
 1732SOL     OW 6094   0.955   4.471   0.235
 1732SOL    HW1 6095   1.011   4.471   0.152
 1732SOL    HW2 6096   0.961   4.381   0.279
 1733SOL     OW 6097   1.197   4.548   6.553
 1733SOL    HW1 6098   1.274   4.529   6.491
 1733SOL    HW2 6099   1.180   4.468   6.610
 1734SOL     OW 6100   5.269   4.534   0.516
 1734SOL    HW1 6101   5.262   4.434   0.509
 1734SOL    HW2 6102   5.278   4.560   0.612
 1735SOL     OW 6103   4.845   5.356   6.952
 1735SOL    HW1 6104   4.826   5.390   0.016
 1735SOL    HW2 6105   4.772   5.384   6.891
 1736SOL     OW 6106   3.416   2.925   0.508
 1736SOL    HW1 6107   3.419   2.834   0.468
 1736SOL    HW2 6108   3.345   2.929   0.579
 1737SOL     OW 6109   1.233   5.833   3.130
 1737SOL    HW1 6110   1.154   5.821   3.190
 1737SOL    HW2 6111   1.258   5.930   3.126
 1738SOL     OW 6112   0.572   1.533   2.263
 1738SOL    HW1 6113   0.651   1.590   2.240
 1738SOL    HW2 6114   0.584   1.494   2.354
 1739SOL     OW 6115   4.119   1.818   6.474
 1739SOL    HW1 6116   4.132   1.722   6.498
 1739SOL    HW2 6117   4.028   1.848   6.503
 1740SOL     OW 6118   0.577   2.156   6.972
 1740SOL    HW1 6119   0.654   2.148   6.909
 1740SOL    HW2 6120   0.607   2.135   0.036
 1741SOL     OW 6121   0.913   0.609   2.549
 1741SOL    HW1 6122   0.935   0.622   2.645
 1741SOL    HW2 6123   0.992   0.635   2.493
 1742SOL     OW 6124   5.930   6.161   4.097
 1742SOL    HW1 6125   5.866   6.158   4.021
 1742SOL    HW2 6126   5.981   6.247   4.095
 1743SOL     OW 6127   4.426   1.182   0.604
 1743SOL    HW1 6128   4.383   1.092   0.614
 1743SOL    HW2 6129   4.515   1.182   0.651
 1744SOL     OW 6130   3.975   6.094   1.470
 1744SOL    HW1 6131   4.057   6.040   1.452
 1744SOL    HW2 6132   3.965   6.165   1.400
 1745SOL     OW 6133   6.970   2.502   5.224
 1745SOL    HW1 6134   6.962   2.598   5.197
 1745SOL    HW2 6135   6.886   2.454   5.200
 1746SOL     OW 6136   2.788   1.115   6.245
 1746SOL    HW1 6137   2.721   1.044   6.263
 1746SOL    HW2 6138   2.839   1.092   6.161
 1747SOL     OW 6139   4.260   6.974   4.984
 1747SOL    HW1 6140   4.299   0.037   4.972
 1747SOL    HW2 6141   4.302   6.911   4.919
 1748SOL     OW 6142   5.907   1.033   2.049
 1748SOL    HW1 6143   5.808   1.045   2.046
 1748SOL    HW2 6144   5.930   0.952   2.102
 1749SOL     OW 6145   4.956   0.358   6.165
 1749SOL    HW1 6146   5.030   0.296   6.190
 1749SOL    HW2 6147   4.902   0.380   6.247
 1750SOL     OW 6148   3.522   0.668   3.341
 1750SOL    HW1 6149   3.616   0.653   3.372
 1750SOL    HW2 6150   3.517   0.654   3.242
 1751SOL     OW 6151   1.867   5.771   4.479
 1751SOL    HW1 6152   1.786   5.744   4.531
 1751SOL    HW2 6153   1.949   5.749   4.532
 1752SOL     OW 6154   6.872   1.730   6.505
 1752SOL    HW1 6155   6.961   1.766   6.478
 1752SOL    HW2 6156   6.884   1.647   6.560
 1753SOL     OW 6157   1.953   6.269   2.428
 1753SOL    HW1 6158   1.888   6.283   2.503
 1753SOL    HW2 6159   1.979   6.358   2.390
 1754SOL     OW 6160   3.184   3.225   3.020
 1754SOL    HW1 6161   3.118   3.189   2.953
 1754SOL    HW2 6162   3.251   3.154   3.042
 1755SOL     OW 6163   6.609   4.220   0.177
 1755SOL    HW1 6164   6.700   4.184   0.200
 1755SOL    HW2 6165   6.582   4.186   0.087
 1756SOL     OW 6166   6.141   4.305   5.271
 1756SOL    HW1 6167   6.051   4.335   5.241
 1756SOL    HW2 6168   6.208   4.376   5.251
 1757SOL     OW 6169   3.814   0.567   5.118
 1757SOL    HW1 6170   3.794   0.571   5.216
 1757SOL    HW2 6171   3.772   0.646   5.072
 1758SOL     OW 6172   2.735   1.434   3.208
 1758SOL    HW1 6173   2.819   1.462   3.253
 1758SOL    HW2 6174   2.663   1.502   3.224
 1759SOL     OW 6175   6.887   6.117   6.225
 1759SOL    HW1 6176   6.887   6.208   6.268
 1759SOL    HW2 6177   6.972   6.070   6.249
 1760SOL     OW 6178   4.478   6.573   2.654
 1760SOL    HW1 6179   4.415   6.522   2.595
 1760SOL    HW2 6180   4.565   6.587   2.606
 1761SOL     OW 6181   5.405   3.140   1.512
 1761SOL    HW1 6182   5.489   3.098   1.477
 1761SOL    HW2 6183   5.336   3.069   1.528
 1762SOL     OW 6184   5.785   3.188   0.294
 1762SOL    HW1 6185   5.758   3.282   0.314
 1762SOL    HW2 6186   5.882   3.176   0.314
 1763SOL     OW 6187   2.289   2.580   4.548
 1763SOL    HW1 6188   2.329   2.516   4.615
 1763SOL    HW2 6189   2.232   2.647   4.597
 1764SOL     OW 6190   6.738   3.767   3.105
 1764SOL    HW1 6191   6.713   3.811   3.018
 1764SOL    HW2 6192   6.794   3.686   3.086
 1765SOL     OW 6193   1.707   3.531   5.756
 1765SOL    HW1 6194   1.732   3.473   5.678
 1765SOL    HW2 6195   1.618   3.573   5.738
 1766SOL     OW 6196   6.036   3.980   5.534
 1766SOL    HW1 6197   5.969   3.908   5.553
 1766SOL    HW2 6198   6.048   3.989   5.435
 1767SOL     OW 6199   6.455   5.129   1.405
 1767SOL    HW1 6200   6.453   5.146   1.307
 1767SOL    HW2 6201   6.535   5.072   1.428
 1768SOL     OW 6202   6.011   6.873   2.814
 1768SOL    HW1 6203   6.045   6.811   2.743
 1768SOL    HW2 6204   6.069   6.866   2.895
 1769SOL     OW 6205   4.522   1.047   3.869
 1769SOL    HW1 6206   4.450   1.045   3.799
 1769SOL    HW2 6207   4.601   1.097   3.834
 1770SOL     OW 6208   3.358   5.966   5.354
 1770SOL    HW1 6209   3.290   5.987   5.424
 1770SOL    HW2 6210   3.341   6.023   5.273
 1771SOL     OW 6211   4.611   5.966   6.768
 1771SOL    HW1 6212   4.625   6.065   6.774
 1771SOL    HW2 6213   4.539   5.940   6.833
 1772SOL     OW 6214   2.282   5.758   2.659
 1772SOL    HW1 6215   2.221   5.821   2.610
 1772SOL    HW2 6216   2.308   5.799   2.747
 1773SOL     OW 6217   1.130   6.875   6.994
 1773SOL    HW1 6218   1.155   6.849   0.058
 1773SOL    HW2 6219   1.089   6.797   6.947
 1774SOL     OW 6220   2.602   5.099   1.722
 1774SOL    HW1 6221   2.693   5.086   1.762
 1774SOL    HW2 6222   2.571   5.193   1.738
 1775SOL     OW 6223   0.737   5.241   0.674
 1775SOL    HW1 6224   0.813   5.259   0.612
 1775SOL    HW2 6225   0.771   5.239   0.768
 1776SOL     OW 6226   3.151   5.469   5.044
 1776SOL    HW1 6227   3.104   5.544   5.090
 1776SOL    HW2 6228   3.138   5.385   5.098
 1777SOL     OW 6229   4.134   6.284   0.424
 1777SOL    HW1 6230   4.151   6.186   0.413
 1777SOL    HW2 6231   4.205   6.335   0.375
 1778SOL     OW 6232   0.390   3.361   5.642
 1778SOL    HW1 6233   0.326   3.309   5.585
 1778SOL    HW2 6234   0.397   3.318   5.732
 1779SOL     OW 6235   3.803   6.874   5.467
 1779SOL    HW1 6236   3.891   6.829   5.479
 1779SOL    HW2 6237   3.814   6.972   5.476
 1780SOL     OW 6238   4.269   2.335   0.111
 1780SOL    HW1 6239   4.332   2.378   0.046
 1780SOL    HW2 6240   4.278   2.379   0.201
 1781SOL     OW 6241   2.050   5.572   3.576
 1781SOL    HW1 6242   2.090   5.481   3.574
 1781SOL    HW2 6243   2.023   5.595   3.669
 1782SOL     OW 6244   3.010   1.646   4.336
 1782SOL    HW1 6245   2.937   1.592   4.293
 1782SOL    HW2 6246   3.025   1.612   4.429
 1783SOL     OW 6247   1.897   5.796   0.508
 1783SOL    HW1 6248   1.875   5.813   0.412
 1783SOL    HW2 6249   1.996   5.806   0.521
 1784SOL     OW 6250   1.975   6.828   6.341
 1784SOL    HW1 6251   1.960   6.729   6.335
 1784SOL    HW2 6252   1.896   6.872   6.383
 1785SOL     OW 6253   6.645   5.373   2.232
 1785SOL    HW1 6254   6.590   5.427   2.296
 1785SOL    HW2 6255   6.717   5.325   2.283
 1786SOL     OW 6256   3.847   2.652   1.300
 1786SOL    HW1 6257   3.836   2.650   1.400
 1786SOL    HW2 6258   3.940   2.680   1.278
 1787SOL     OW 6259   3.361   0.207   5.295
 1787SOL    HW1 6260   3.376   0.283   5.358
 1787SOL    HW2 6261   3.441   0.148   5.295
 1788SOL     OW 6262   1.505   5.071   5.122
 1788SOL    HW1 6263   1.576   5.113   5.066
 1788SOL    HW2 6264   1.522   4.973   5.129
 1789SOL     OW 6265   5.615   6.462   6.911
 1789SOL    HW1 6266   5.634   6.448   7.008
 1789SOL    HW2 6267   5.626   6.559   6.888
 1790SOL     OW 6268   2.280   6.801   2.488
 1790SOL    HW1 6269   2.218   6.789   2.566
 1790SOL    HW2 6270   2.259   6.887   2.442
 1791SOL     OW 6271   0.454   6.673   3.428
 1791SOL    HW1 6272   0.411   6.674   3.518
 1791SOL    HW2 6273   0.396   6.623   3.364
 1792SOL     OW 6274   0.833   3.321   4.776
 1792SOL    HW1 6275   0.768   3.394   4.757
 1792SOL    HW2 6276   0.837   3.258   4.698
 1793SOL     OW 6277   0.124   0.552   3.666
 1793SOL    HW1 6278   0.037   0.506   3.682
 1793SOL    HW2 6279   0.114   0.650   3.684
 1794SOL     OW 6280   4.969   5.890   6.357
 1794SOL    HW1 6281   5.036   5.931   6.295
 1794SOL    HW2 6282   4.893   5.953   6.369
 1795SOL     OW 6283   1.327   3.525   6.830
 1795SOL    HW1 6284   1.355   3.499   6.922
 1795SOL    HW2 6285   1.366   3.462   6.764
 1796SOL     OW 6286   4.030   0.330   5.582
 1796SOL    HW1 6287   4.054   0.234   5.601
 1796SOL    HW2 6288   3.934   0.344   5.602
 1797SOL     OW 6289   0.315   1.371   1.715
 1797SOL    HW1 6290   0.334   1.273   1.727
 1797SOL    HW2 6291   0.273   1.407   1.798
 1798SOL     OW 6292   6.226   1.567   3.073
 1798SOL    HW1 6293   6.184   1.516   2.997
 1798SOL    HW2 6294   6.305   1.618   3.038
 1799SOL     OW 6295   2.598   0.610   0.058
 1799SOL    HW1 6296   2.585   0.524   0.008
 1799SOL    HW2 6297   2.588   0.687   7.024
 1800SOL     OW 6298   3.001   5.076   2.255
 1800SOL    HW1 6299   2.999   4.977   2.268
 1800SOL    HW2 6300   2.943   5.120   2.324
 1801SOL     OW 6301   5.626   6.923   0.570
 1801SOL    HW1 6302   5.643   6.829   0.601
 1801SOL    HW2 6303   5.675   6.987   0.628
 1802SOL     OW 6304   6.129   4.996   4.194
 1802SOL    HW1 6305   6.125   5.009   4.294
 1802SOL    HW2 6306   6.188   5.067   4.154
 1803SOL     OW 6307   6.369   4.765   0.394
 1803SOL    HW1 6308   6.336   4.673   0.370
 1803SOL    HW2 6309   6.379   4.772   0.493
 1804SOL     OW 6310   3.034   3.504   6.204
 1804SOL    HW1 6311   3.031   3.435   6.276
 1804SOL    HW2 6312   3.044   3.459   6.115
 1805SOL     OW 6313   6.238   2.946   0.021
 1805SOL    HW1 6314   6.214   3.035   7.011
 1805SOL    HW2 6315   6.165   2.916   0.083
 1806SOL     OW 6316   6.573   6.883   0.205
 1806SOL    HW1 6317   6.665   6.863   0.240
 1806SOL    HW2 6318   6.550   6.817   0.134
 1807SOL     OW 6319   6.792   1.868   5.692
 1807SOL    HW1 6320   6.708   1.852   5.640
 1807SOL    HW2 6321   6.866   1.814   5.653
 1808SOL     OW 6322   2.521   4.689   4.282
 1808SOL    HW1 6323   2.455   4.696   4.357
 1808SOL    HW2 6324   2.614   4.700   4.318
 1809SOL     OW 6325   3.781   0.186   6.598
 1809SOL    HW1 6326   3.717   0.118   6.633
 1809SOL    HW2 6327   3.761   0.275   6.638
 1810SOL     OW 6328   2.616   6.516   2.852
 1810SOL    HW1 6329   2.625   6.575   2.772
 1810SOL    HW2 6330   2.598   6.573   2.933
 1811SOL     OW 6331   5.756   5.712   3.060
 1811SOL    HW1 6332   5.838   5.749   3.015
 1811SOL    HW2 6333   5.764   5.725   3.158
 1812SOL     OW 6334   4.380   5.004   5.360
 1812SOL    HW1 6335   4.378   5.020   5.459
 1812SOL    HW2 6336   4.356   4.909   5.341
 1813SOL     OW 6337   6.714   6.129   5.662
 1813SOL    HW1 6338   6.797   6.133   5.607
 1813SOL    HW2 6339   6.728   6.177   5.749
 1814SOL     OW 6340   4.992   0.199   3.041
 1814SOL    HW1 6341   4.902   0.240   3.059
 1814SOL    HW2 6342   5.060   0.243   3.099
 1815SOL     OW 6343   0.138   1.282   2.873
 1815SOL    HW1 6344   0.054   1.336   2.883
 1815SOL    HW2 6345   0.140   1.211   2.943
 1816SOL     OW 6346   1.081   5.484   0.659
 1816SOL    HW1 6347   1.161   5.458   0.712
 1816SOL    HW2 6348   1.097   5.571   0.612
 1817SOL     OW 6349   1.787   4.873   2.059
 1817SOL    HW1 6350   1.879   4.880   2.021
 1817SOL    HW2 6351   1.788   4.812   2.138
 1818SOL     OW 6352   0.737   1.382   3.134
 1818SOL    HW1 6353   0.810   1.424   3.188
 1818SOL    HW2 6354   0.732   1.426   3.044
 1819SOL     OW 6355   1.379   4.267   2.719
 1819SOL    HW1 6356   1.287   4.284   2.684
 1819SOL    HW2 6357   1.446   4.279   2.646
 1820SOL     OW 6358   5.750   6.720   2.860
 1820SOL    HW1 6359   5.701   6.735   2.774
 1820SOL    HW2 6360   5.792   6.805   2.890
 1821SOL     OW 6361   1.532   2.010   3.143
 1821SOL    HW1 6362   1.454   2.005   3.081
 1821SOL    HW2 6363   1.565   2.104   3.147
 1822SOL     OW 6364   3.151   3.374   2.288
 1822SOL    HW1 6365   3.198   3.355   2.202
 1822SOL    HW2 6366   3.067   3.425   2.269
 1823SOL     OW 6367   4.202   0.004   2.372
 1823SOL    HW1 6368   4.235   0.045   2.287
 1823SOL    HW2 6369   4.280   7.003   2.428
 1824SOL     OW 6370   5.241   1.689   1.714
 1824SOL    HW1 6371   5.276   1.775   1.752
 1824SOL    HW2 6372   5.250   1.691   1.614
 1825SOL     OW 6373   0.731   6.965   1.696
 1825SOL    HW1 6374   0.797   6.912   1.642
 1825SOL    HW2 6375   0.690   6.905   1.766
 1826SOL     OW 6376   2.755   5.541   5.996
 1826SOL    HW1 6377   2.752   5.558   5.898
 1826SOL    HW2 6378   2.846   5.565   6.030
 1827SOL     OW 6379   5.437   0.317   0.529
 1827SOL    HW1 6380   5.532   0.346   0.527
 1827SOL    HW2 6381   5.387   0.372   0.596
 1828SOL     OW 6382   2.275   3.027   0.539
 1828SOL    HW1 6383   2.191   3.001   0.491
 1828SOL    HW2 6384   2.256   3.105   0.599
 1829SOL     OW 6385   5.477   4.988   2.490
 1829SOL    HW1 6386   5.534   5.061   2.528
 1829SOL    HW2 6387   5.395   4.978   2.546
 1830SOL     OW 6388   5.165   6.835   4.346
 1830SOL    HW1 6389   5.178   6.800   4.439
 1830SOL    HW2 6390   5.068   6.847   4.327
 1831SOL     OW 6391   5.093   1.325   3.158
 1831SOL    HW1 6392   5.120   1.405   3.105
 1831SOL    HW2 6393   5.148   1.321   3.242
 1832SOL     OW 6394   5.336   2.879   6.924
 1832SOL    HW1 6395   5.393   2.832   6.857
 1832SOL    HW2 6396   5.392   2.908   7.002
 1833SOL     OW 6397   5.787   1.985   5.780
 1833SOL    HW1 6398   5.803   2.076   5.818
 1833SOL    HW2 6399   5.873   1.949   5.742
 1834SOL     OW 6400   2.406   4.142   0.225
 1834SOL    HW1 6401   2.375   4.047   0.234
 1834SOL    HW2 6402   2.440   4.156   0.132
 1835SOL     OW 6403   1.612   5.000   0.124
 1835SOL    HW1 6404   1.683   5.011   0.194
 1835SOL    HW2 6405   1.650   5.023   0.035
 1836SOL     OW 6406   0.850   6.837   0.506
 1836SOL    HW1 6407   0.822   6.851   0.600
 1836SOL    HW2 6408   0.774   6.859   0.445
 1837SOL     OW 6409   0.417   2.825   4.614
 1837SOL    HW1 6410   0.318   2.823   4.630
 1837SOL    HW2 6411   0.436   2.809   4.517
 1838SOL     OW 6412   0.602   2.811   4.812
 1838SOL    HW1 6413   0.519   2.813   4.757
 1838SOL    HW2 6414   0.666   2.744   4.774
 1839SOL     OW 6415   1.273   1.403   6.852
 1839SOL    HW1 6416   1.284   1.363   6.761
 1839SOL    HW2 6417   1.184   1.450   6.857
 1840SOL     OW 6418   1.074   5.233   1.602
 1840SOL    HW1 6419   1.001   5.228   1.533
 1840SOL    HW2 6420   1.064   5.316   1.656
 1841SOL     OW 6421   1.646   2.934   3.733
 1841SOL    HW1 6422   1.591   2.880   3.796
 1841SOL    HW2 6423   1.587   2.986   3.672
 1842SOL     OW 6424   1.545   6.151   6.243
 1842SOL    HW1 6425   1.497   6.083   6.299
 1842SOL    HW2 6426   1.641   6.125   6.235
 1843SOL     OW 6427   4.406   2.061   5.453
 1843SOL    HW1 6428   4.447   2.077   5.363
 1843SOL    HW2 6429   4.477   2.067   5.523
 1844SOL     OW 6430   5.731   4.543   3.797
 1844SOL    HW1 6431   5.723   4.538   3.698
 1844SOL    HW2 6432   5.702   4.633   3.829
 1845SOL     OW 6433   4.727   6.500   0.926
 1845SOL    HW1 6434   4.630   6.476   0.938
 1845SOL    HW2 6435   4.736   6.599   0.918
 1846SOL     OW 6436   3.760   1.360   5.556
 1846SOL    HW1 6437   3.852   1.398   5.565
 1846SOL    HW2 6438   3.733   1.317   5.643
 1847SOL     OW 6439   1.712   5.914   6.439
 1847SOL    HW1 6440   1.788   5.904   6.374
 1847SOL    HW2 6441   1.733   5.986   6.504
 1848SOL     OW 6442   2.131   0.869   3.715
 1848SOL    HW1 6443   2.088   0.783   3.687
 1848SOL    HW2 6444   2.231   0.857   3.719
 1849SOL     OW 6445   2.424   0.681   6.400
 1849SOL    HW1 6446   2.324   0.686   6.397
 1849SOL    HW2 6447   2.452   0.642   6.487
 1850SOL     OW 6448   5.432   1.876   1.803
 1850SOL    HW1 6449   5.451   1.937   1.879
 1850SOL    HW2 6450   5.422   1.929   1.719
 1851SOL     OW 6451   6.637   4.389   2.365
 1851SOL    HW1 6452   6.705   4.440   2.312
 1851SOL    HW2 6453   6.546   4.405   2.327
 1852SOL     OW 6454   5.119   1.525   5.764
 1852SOL    HW1 6455   5.144   1.533   5.860
 1852SOL    HW2 6456   5.200   1.504   5.710
 1853SOL     OW 6457   0.984   4.894   1.008
 1853SOL    HW1 6458   0.982   4.992   1.024
 1853SOL    HW2 6459   1.068   4.870   0.958
 1854SOL     OW 6460   2.572   4.943   4.152
 1854SOL    HW1 6461   2.558   4.976   4.245
 1854SOL    HW2 6462   2.553   4.845   4.148
 1855SOL     OW 6463   6.152   4.734   1.527
 1855SOL    HW1 6464   6.231   4.680   1.556
 1855SOL    HW2 6465   6.082   4.730   1.598
 1856SOL     OW 6466   5.594   3.009   0.043
 1856SOL    HW1 6467   5.540   2.955   0.108
 1856SOL    HW2 6468   5.622   2.951   6.995
 1857SOL     OW 6469   5.503   1.536   3.061
 1857SOL    HW1 6470   5.493   1.577   2.970
 1857SOL    HW2 6471   5.555   1.450   3.053
 1858SOL     OW 6472   5.247   4.699   2.532
 1858SOL    HW1 6473   5.286   4.662   2.616
 1858SOL    HW2 6474   5.316   4.696   2.459
 1859SOL     OW 6475   5.894   1.631   3.303
 1859SOL    HW1 6476   5.912   1.722   3.341
 1859SOL    HW2 6477   5.973   1.602   3.249
 1860SOL     OW 6478   4.177   2.053   4.678
 1860SOL    HW1 6479   4.168   1.990   4.600
 1860SOL    HW2 6480   4.184   2.147   4.644
 1861SOL     OW 6481   4.866   5.825   2.343
 1861SOL    HW1 6482   4.901   5.746   2.292
 1861SOL    HW2 6483   4.811   5.882   2.282
 1862SOL     OW 6484   2.463   1.767   0.549
 1862SOL    HW1 6485   2.545   1.815   0.583
 1862SOL    HW2 6486   2.446   1.687   0.606
 1863SOL     OW 6487   2.136   1.828   1.348
 1863SOL    HW1 6488   2.229   1.864   1.356
 1863SOL    HW2 6489   2.094   1.863   1.264
 1864SOL     OW 6490   0.203   6.499   3.428
 1864SOL    HW1 6491   0.228   6.478   3.523
 1864SOL    HW2 6492   0.183   6.414   3.379
 1865SOL     OW 6493   5.273   3.484   6.522
 1865SOL    HW1 6494   5.355   3.436   6.491
 1865SOL    HW2 6495   5.193   3.429   6.500
 1866SOL     OW 6496   5.594   5.387   1.632
 1866SOL    HW1 6497   5.662   5.372   1.704
 1866SOL    HW2 6498   5.613   5.473   1.585
 1867SOL     OW 6499   1.155   4.581   5.995
 1867SOL    HW1 6500   1.110   4.492   5.994
 1867SOL    HW2 6501   1.119   4.636   6.070
 1868SOL     OW 6502   0.200   4.399   5.456
 1868SOL    HW1 6503   0.169   4.338   5.383
 1868SOL    HW2 6504   0.130   4.402   5.528
 1869SOL     OW 6505   5.866   1.269   4.418
 1869SOL    HW1 6506   5.845   1.187   4.364
 1869SOL    HW2 6507   5.902   1.242   4.507
 1870SOL     OW 6508   2.161   4.070   4.865
 1870SOL    HW1 6509   2.212   4.061   4.951
 1870SOL    HW2 6510   2.117   3.983   4.843
 1871SOL     OW 6511   1.751   0.549   0.892
 1871SOL    HW1 6512   1.665   0.581   0.854
 1871SOL    HW2 6513   1.769   0.456   0.858
 1872SOL     OW 6514   1.869   5.545   6.481
 1872SOL    HW1 6515   1.861   5.468   6.545
 1872SOL    HW2 6516   1.954   5.594   6.498
 1873SOL     OW 6517   5.242   6.924   6.723
 1873SOL    HW1 6518   5.332   6.924   6.680
 1873SOL    HW2 6519   5.252   6.950   6.820
 1874SOL     OW 6520   0.617   3.747   2.639
 1874SOL    HW1 6521   0.651   3.783   2.552
 1874SOL    HW2 6522   0.534   3.796   2.666
 1875SOL     OW 6523   0.448   6.851   2.295
 1875SOL    HW1 6524   0.351   6.830   2.297
 1875SOL    HW2 6525   0.472   6.891   2.206
 1876SOL     OW 6526   1.838   6.285   4.268
 1876SOL    HW1 6527   1.781   6.349   4.217
 1876SOL    HW2 6528   1.817   6.192   4.238
 1877SOL     OW 6529   0.367   6.994   3.884
 1877SOL    HW1 6530   0.352   6.906   3.929
 1877SOL    HW2 6531   0.282   0.019   3.885
 1878SOL     OW 6532   6.579   2.859   6.187
 1878SOL    HW1 6533   6.625   2.902   6.264
 1878SOL    HW2 6534   6.498   2.809   6.219
 1879SOL     OW 6535   2.119   5.177   6.137
 1879SOL    HW1 6536   2.204   5.144   6.095
 1879SOL    HW2 6537   2.045   5.113   6.117
 1880SOL     OW 6538   6.680   0.369   4.464
 1880SOL    HW1 6539   6.671   0.469   4.459
 1880SOL    HW2 6540   6.591   0.327   4.450
 1881SOL     OW 6541   7.023   2.391   6.654
 1881SOL    HW1 6542   0.066   2.445   6.699
 1881SOL    HW2 6543   0.024   2.296   6.646
 1882SOL     OW 6544   1.086   6.701   0.526
 1882SOL    HW1 6545   1.090   6.659   0.616
 1882SOL    HW2 6546   0.994   6.735   0.509
 1883SOL     OW 6547   0.487   1.966   3.860
 1883SOL    HW1 6548   0.507   1.955   3.957
 1883SOL    HW2 6549   0.397   2.008   3.850
 1884SOL     OW 6550   5.803   2.163   1.618
 1884SOL    HW1 6551   5.819   2.100   1.542
 1884SOL    HW2 6552   5.706   2.163   1.642
 1885SOL     OW 6553   3.252   1.303   4.647
 1885SOL    HW1 6554   3.268   1.400   4.664
 1885SOL    HW2 6555   3.312   1.248   4.706
 1886SOL     OW 6556   0.487   6.174   3.320
 1886SOL    HW1 6557   0.530   6.256   3.356
 1886SOL    HW2 6558   0.468   6.186   3.222
 1887SOL     OW 6559   2.719   5.575   6.410
 1887SOL    HW1 6560   2.649   5.645   6.394
 1887SOL    HW2 6561   2.700   5.495   6.352
 1888SOL     OW 6562   1.957   7.006   2.848
 1888SOL    HW1 6563   1.880   0.001   2.908
 1888SOL    HW2 6564   1.972   0.051   2.782
 1889SOL     OW 6565   0.179   3.765   2.679
 1889SOL    HW1 6566   0.206   3.796   2.588
 1889SOL    HW2 6567   0.080   3.750   2.681
 1890SOL     OW 6568   1.450   6.009   5.002
 1890SOL    HW1 6569   1.405   6.097   4.984
 1890SOL    HW2 6570   1.396   5.935   4.963
 1891SOL     OW 6571   4.074   3.171   3.397
 1891SOL    HW1 6572   4.017   3.112   3.340
 1891SOL    HW2 6573   4.170   3.163   3.369
 1892SOL     OW 6574   0.272   0.404   2.883
 1892SOL    HW1 6575   0.349   0.364   2.932
 1892SOL    HW2 6576   0.229   0.474   2.941
 1893SOL     OW 6577   3.964   3.098   4.230
 1893SOL    HW1 6578   3.922   3.041   4.160
 1893SOL    HW2 6579   3.930   3.071   4.320
 1894SOL     OW 6580   3.181   2.942   4.227
 1894SOL    HW1 6581   3.107   2.950   4.293
 1894SOL    HW2 6582   3.155   2.990   4.143
 1895SOL     OW 6583   1.016   6.255   1.434
 1895SOL    HW1 6584   1.085   6.293   1.372
 1895SOL    HW2 6585   1.053   6.174   1.480
 1896SOL     OW 6586   5.977   2.772   1.356
 1896SOL    HW1 6587   5.920   2.827   1.417
 1896SOL    HW2 6588   6.071   2.768   1.392
 1897SOL     OW 6589   1.831   4.429   3.585
 1897SOL    HW1 6590   1.842   4.333   3.609
 1897SOL    HW2 6591   1.734   4.452   3.585
 1898SOL     OW 6592   1.676   6.028   2.499
 1898SOL    HW1 6593   1.735   5.950   2.479
 1898SOL    HW2 6594   1.675   6.045   2.597
 1899SOL     OW 6595   6.927   0.787   2.288
 1899SOL    HW1 6596   6.875   0.756   2.208
 1899SOL    HW2 6597   6.899   0.880   2.312
 1900SOL     OW 6598   2.838   6.373   6.598
 1900SOL    HW1 6599   2.932   6.350   6.623
 1900SOL    HW2 6600   2.774   6.316   6.651
 1901SOL     OW 6601   3.340   2.911   2.825
 1901SOL    HW1 6602   3.361   2.946   2.733
 1901SOL    HW2 6603   3.248   2.871   2.825
 1902SOL     OW 6604   1.444   6.646   5.280
 1902SOL    HW1 6605   1.358   6.656   5.329
 1902SOL    HW2 6606   1.428   6.602   5.191
 1903SOL     OW 6607   1.205   1.716   4.046
 1903SOL    HW1 6608   1.147   1.702   4.127
 1903SOL    HW2 6609   1.223   1.814   4.034
 1904SOL     OW 6610   5.922   5.525   1.642
 1904SOL    HW1 6611   6.008   5.477   1.626
 1904SOL    HW2 6612   5.870   5.479   1.714
 1905SOL     OW 6613   0.533   3.060   4.055
 1905SOL    HW1 6614   0.477   2.978   4.048
 1905SOL    HW2 6615   0.475   3.139   4.076
 1906SOL     OW 6616   0.278   6.077   4.000
 1906SOL    HW1 6617   0.324   6.092   3.913
 1906SOL    HW2 6618   0.266   5.979   4.015
 1907SOL     OW 6619   5.843   3.078   0.940
 1907SOL    HW1 6620   5.915   3.014   0.967
 1907SOL    HW2 6621   5.869   3.124   0.855
 1908SOL     OW 6622   3.816   0.818   1.622
 1908SOL    HW1 6623   3.764   0.818   1.707
 1908SOL    HW2 6624   3.881   0.894   1.622
 1909SOL     OW 6625   6.258   5.683   5.336
 1909SOL    HW1 6626   6.179   5.724   5.381
 1909SOL    HW2 6627   6.343   5.717   5.377
 1910SOL     OW 6628   0.384   6.208   5.238
 1910SOL    HW1 6629   0.295   6.210   5.284
 1910SOL    HW2 6630   0.451   6.258   5.292
 1911SOL     OW 6631   5.606   6.250   4.078
 1911SOL    HW1 6632   5.602   6.208   4.169
 1911SOL    HW2 6633   5.657   6.190   4.016
 1912SOL     OW 6634   3.270   4.922   2.055
 1912SOL    HW1 6635   3.232   4.909   2.146
 1912SOL    HW2 6636   3.370   4.928   2.061
 1913SOL     OW 6637   3.143   4.175   6.368
 1913SOL    HW1 6638   3.243   4.179   6.371
 1913SOL    HW2 6639   3.109   4.238   6.298
 1914SOL     OW 6640   3.897   4.277   0.376
 1914SOL    HW1 6641   3.948   4.307   0.295
 1914SOL    HW2 6642   3.804   4.252   0.349
 1915SOL     OW 6643   3.907   2.441   0.121
 1915SOL    HW1 6644   3.820   2.439   0.071
 1915SOL    HW2 6645   3.917   2.356   0.173
 1916SOL     OW 6646   3.895   1.153   2.621
 1916SOL    HW1 6647   3.965   1.132   2.553
 1916SOL    HW2 6648   3.938   1.183   2.705
 1917SOL     OW 6649   2.222   3.752   1.411
 1917SOL    HW1 6650   2.136   3.770   1.458
 1917SOL    HW2 6651   2.279   3.694   1.468
 1918SOL     OW 6652   5.102   2.803   4.064
 1918SOL    HW1 6653   5.093   2.789   3.966
 1918SOL    HW2 6654   5.107   2.901   4.083
 1919SOL     OW 6655   6.432   1.650   6.256
 1919SOL    HW1 6656   6.524   1.636   6.292
 1919SOL    HW2 6657   6.372   1.682   6.329
 1920SOL     OW 6658   4.597   3.809   0.560
 1920SOL    HW1 6659   4.564   3.768   0.645
 1920SOL    HW2 6660   4.634   3.737   0.500
 1921SOL     OW 6661   2.931   2.430   6.899
 1921SOL    HW1 6662   2.963   2.524   6.891
 1921SOL    HW2 6663   3.000   2.368   6.862
 1922SOL     OW 6664   3.541   3.609   4.676
 1922SOL    HW1 6665   3.587   3.524   4.703
 1922SOL    HW2 6666   3.448   3.588   4.646
 1923SOL     OW 6667   3.285   0.563   3.761
 1923SOL    HW1 6668   3.363   0.624   3.782
 1923SOL    HW2 6669   3.222   0.610   3.700
 1924SOL     OW 6670   5.496   0.880   0.764
 1924SOL    HW1 6671   5.409   0.832   0.774
 1924SOL    HW2 6672   5.563   0.819   0.721
 1925SOL     OW 6673   1.197   4.167   0.866
 1925SOL    HW1 6674   1.231   4.129   0.952
 1925SOL    HW2 6675   1.273   4.206   0.815
 1926SOL     OW 6676   3.197   6.640   1.514
 1926SOL    HW1 6677   3.123   6.599   1.567
 1926SOL    HW2 6678   3.198   6.601   1.422
 1927SOL     OW 6679   2.121   5.528   0.750
 1927SOL    HW1 6680   2.050   5.515   0.680
 1927SOL    HW2 6681   2.172   5.443   0.761
 1928SOL     OW 6682   0.281   4.531   2.673
 1928SOL    HW1 6683   0.188   4.546   2.707
 1928SOL    HW2 6684   0.319   4.449   2.715
 1929SOL     OW 6685   3.807   0.721   3.401
 1929SOL    HW1 6686   3.862   0.657   3.455
 1929SOL    HW2 6687   3.841   0.814   3.413
 1930SOL     OW 6688   3.719   3.709   0.206
 1930SOL    HW1 6689   3.760   3.663   0.285
 1930SOL    HW2 6690   3.692   3.640   0.139
 1931SOL     OW 6691   6.558   3.718   3.303
 1931SOL    HW1 6692   6.582   3.634   3.351
 1931SOL    HW2 6693   6.621   3.733   3.227
 1932SOL     OW 6694   4.895   0.529   2.139
 1932SOL    HW1 6695   4.965   0.478   2.189
 1932SOL    HW2 6696   4.902   0.509   2.041
 1933SOL     OW 6697   1.825   1.177   1.179
 1933SOL    HW1 6698   1.754   1.194   1.112
 1933SOL    HW2 6699   1.867   1.263   1.207
 1934SOL     OW 6700   6.375   0.761   6.872
 1934SOL    HW1 6701   6.421   0.823   6.936
 1934SOL    HW2 6702   6.406   0.668   6.888
 1935SOL     OW 6703   6.043   5.140   3.836
 1935SOL    HW1 6704   5.950   5.104   3.831
 1935SOL    HW2 6705   6.085   5.111   3.923
 1936SOL     OW 6706   5.564   3.364   6.365
 1936SOL    HW1 6707   5.570   3.305   6.284
 1936SOL    HW2 6708   5.603   3.454   6.344
 1937SOL     OW 6709   0.711   4.995   6.708
 1937SOL    HW1 6710   0.724   4.983   6.806
 1937SOL    HW2 6711   0.658   5.079   6.691
 1938SOL     OW 6712   6.538   2.121   6.650
 1938SOL    HW1 6713   6.461   2.060   6.670
 1938SOL    HW2 6714   6.601   2.076   6.588
 1939SOL     OW 6715   0.007   0.326   4.271
 1939SOL    HW1 6716   7.006   0.279   4.355
 1939SOL    HW2 6717   6.993   0.416   4.266
 1940SOL     OW 6718   0.793   5.506   1.698
 1940SOL    HW1 6719   0.759   5.476   1.788
 1940SOL    HW2 6720   0.893   5.500   1.696
 1941SOL     OW 6721   6.079   0.480   4.379
 1941SOL    HW1 6722   6.136   0.483   4.461
 1941SOL    HW2 6723   6.004   0.546   4.389
 1942SOL     OW 6724   0.625   5.743   1.976
 1942SOL    HW1 6725   0.657   5.707   2.063
 1942SOL    HW2 6726   0.530   5.773   1.985
 1943SOL     OW 6727   1.255   3.454   4.072
 1943SOL    HW1 6728   1.259   3.380   4.140
 1943SOL    HW2 6729   1.218   3.418   3.987
 1944SOL     OW 6730   0.333   3.542   4.004
 1944SOL    HW1 6731   0.336   3.637   4.035
 1944SOL    HW2 6732   0.247   3.500   4.033
 1945SOL     OW 6733   5.222   1.500   2.306
 1945SOL    HW1 6734   5.310   1.458   2.330
 1945SOL    HW2 6735   5.173   1.440   2.242
 1946SOL     OW 6736   5.912   5.537   6.876
 1946SOL    HW1 6737   5.907   5.446   6.834
 1946SOL    HW2 6738   6.000   5.579   6.856
 1947SOL     OW 6739   5.603   5.498   2.471
 1947SOL    HW1 6740   5.600   5.518   2.568
 1947SOL    HW2 6741   5.510   5.495   2.434
 1948SOL     OW 6742   5.494   3.397   3.331
 1948SOL    HW1 6743   5.449   3.369   3.416
 1948SOL    HW2 6744   5.479   3.328   3.260
 1949SOL     OW 6745   3.417   4.115   6.405
 1949SOL    HW1 6746   3.421   4.135   6.503
 1949SOL    HW2 6747   3.506   4.134   6.363
 1950SOL     OW 6748   3.793   4.094   3.678
 1950SOL    HW1 6749   3.731   4.093   3.600
 1950SOL    HW2 6750   3.888   4.089   3.645
 1951SOL     OW 6751   0.074   5.562   6.045
 1951SOL    HW1 6752   0.022   5.621   6.107
 1951SOL    HW2 6753   0.115   5.618   5.973
 1952SOL     OW 6754   5.909   3.904   0.122
 1952SOL    HW1 6755   5.938   3.979   0.062
 1952SOL    HW2 6756   5.904   3.936   0.216
 1953SOL     OW 6757   0.431   0.729   6.860
 1953SOL    HW1 6758   0.336   0.698   6.857
 1953SOL    HW2 6759   0.476   0.707   6.773
 1954SOL     OW 6760   3.650   6.610   2.638
 1954SOL    HW1 6761   3.594   6.629   2.719
 1954SOL    HW2 6762   3.591   6.587   2.561
 1955SOL     OW 6763   6.521   3.334   4.201
 1955SOL    HW1 6764   6.587   3.273   4.246
 1955SOL    HW2 6765   6.530   3.325   4.102
 1956SOL     OW 6766   4.291   1.846   1.478
 1956SOL    HW1 6767   4.334   1.792   1.550
 1956SOL    HW2 6768   4.344   1.930   1.462
 1957SOL     OW 6769   6.623   2.883   4.517
 1957SOL    HW1 6770   6.615   2.906   4.615
 1957SOL    HW2 6771   6.634   2.967   4.464
 1958SOL     OW 6772   5.002   2.606   6.967
 1958SOL    HW1 6773   5.038   2.693   6.933
 1958SOL    HW2 6774   5.001   2.606   0.038
 1959SOL     OW 6775   1.688   1.502   6.145
 1959SOL    HW1 6776   1.648   1.552   6.068
 1959SOL    HW2 6777   1.684   1.404   6.126
 1960SOL     OW 6778   5.066   4.655   2.082
 1960SOL    HW1 6779   5.142   4.590   2.092
 1960SOL    HW2 6780   5.051   4.701   2.169
 1961SOL     OW 6781   0.593   3.916   4.210
 1961SOL    HW1 6782   0.689   3.889   4.215
 1961SOL    HW2 6783   0.587   4.016   4.211
 1962SOL     OW 6784   0.731   0.078   2.273
 1962SOL    HW1 6785   0.705   0.140   2.198
 1962SOL    HW2 6786   0.710   0.122   2.360
 1963SOL     OW 6787   0.993   1.518   6.873
 1963SOL    HW1 6788   0.983   1.615   6.895
 1963SOL    HW2 6789   0.947   1.463   6.942
 1964SOL     OW 6790   5.183   3.323   0.509
 1964SOL    HW1 6791   5.218   3.293   0.420
 1964SOL    HW2 6792   5.083   3.326   0.506
 1965SOL     OW 6793   5.395   4.599   4.987
 1965SOL    HW1 6794   5.374   4.512   4.942
 1965SOL    HW2 6795   5.390   4.673   4.921
 1966SOL     OW 6796   1.293   5.151   6.478
 1966SOL    HW1 6797   1.276   5.057   6.448
 1966SOL    HW2 6798   1.228   5.213   6.434
 1967SOL     OW 6799   6.772   2.438   4.475
 1967SOL    HW1 6800   6.837   2.509   4.499
 1967SOL    HW2 6801   6.774   2.422   4.377
 1968SOL     OW 6802   2.654   1.335   6.132
 1968SOL    HW1 6803   2.727   1.270   6.155
 1968SOL    HW2 6804   2.606   1.303   6.050
 1969SOL     OW 6805   0.054   6.074   1.972
 1969SOL    HW1 6806   0.120   6.128   1.920
 1969SOL    HW2 6807   7.015   6.136   2.013
 1970SOL     OW 6808   5.376   4.459   2.983
 1970SOL    HW1 6809   5.343   4.387   3.045
 1970SOL    HW2 6810   5.475   4.452   2.974
 1971SOL     OW 6811   1.572   5.273   4.300
 1971SOL    HW1 6812   1.511   5.195   4.294
 1971SOL    HW2 6813   1.530   5.345   4.356
 1972SOL     OW 6814   5.275   2.025   3.036
 1972SOL    HW1 6815   5.292   1.928   3.019
 1972SOL    HW2 6816   5.362   2.073   3.048
 1973SOL     OW 6817   4.651   2.267   0.295
 1973SOL    HW1 6818   4.614   2.354   0.261
 1973SOL    HW2 6819   4.750   2.275   0.308
 1974SOL     OW 6820   2.304   6.182   4.639
 1974SOL    HW1 6821   2.218   6.179   4.690
 1974SOL    HW2 6822   2.312   6.099   4.584
 1975SOL     OW 6823   2.305   2.575   2.448
 1975SOL    HW1 6824   2.310   2.675   2.446
 1975SOL    HW2 6825   2.396   2.537   2.465
 1976SOL     OW 6826   2.304   0.793   4.738
 1976SOL    HW1 6827   2.384   0.785   4.679
 1976SOL    HW2 6828   2.320   0.744   4.824
 1977SOL     OW 6829   0.983   4.422   6.969
 1977SOL    HW1 6830   1.050   4.480   6.921
 1977SOL    HW2 6831   0.897   4.422   6.919
 1978SOL     OW 6832   2.614   0.461   2.513
 1978SOL    HW1 6833   2.593   0.533   2.579
 1978SOL    HW2 6834   2.670   0.498   2.439
 1979SOL     OW 6835   5.647   3.329   6.752
 1979SOL    HW1 6836   5.601   3.412   6.783
 1979SOL    HW2 6837   5.684   3.279   6.831
 1980SOL     OW 6838   4.183   0.443   1.831
 1980SOL    HW1 6839   4.098   0.391   1.838
 1980SOL    HW2 6840   4.171   0.519   1.767
 1981SOL     OW 6841   4.395   2.455   1.964
 1981SOL    HW1 6842   4.315   2.396   1.961
 1981SOL    HW2 6843   4.425   2.476   1.871
 1982SOL     OW 6844   1.942   2.461   6.734
 1982SOL    HW1 6845   2.001   2.514   6.674
 1982SOL    HW2 6846   1.977   2.466   6.828
 1983SOL     OW 6847   7.028   2.245   1.520
 1983SOL    HW1 6848   7.008   2.159   1.473
 1983SOL    HW2 6849   6.958   2.263   1.589
 1984SOL     OW 6850   4.807   3.318   5.701
 1984SOL    HW1 6851   4.760   3.248   5.648
 1984SOL    HW2 6852   4.750   3.399   5.708
 1985SOL     OW 6853   5.509   5.375   4.515
 1985SOL    HW1 6854   5.609   5.372   4.512
 1985SOL    HW2 6855   5.480   5.387   4.610
 1986SOL     OW 6856   2.979   3.140   2.806
 1986SOL    HW1 6857   2.900   3.199   2.791
 1986SOL    HW2 6858   2.980   3.068   2.737
 1987SOL     OW 6859   1.943   1.547   2.289
 1987SOL    HW1 6860   2.038   1.516   2.299
 1987SOL    HW2 6861   1.940   1.622   2.222
 1988SOL     OW 6862   0.793   1.778   3.245
 1988SOL    HW1 6863   0.732   1.763   3.167
 1988SOL    HW2 6864   0.874   1.827   3.215
 1989SOL     OW 6865   3.314   5.579   3.695
 1989SOL    HW1 6866   3.383   5.633   3.646
 1989SOL    HW2 6867   3.355   5.493   3.726
 1990SOL     OW 6868   4.285   6.851   0.554
 1990SOL    HW1 6869   4.353   6.909   0.509
 1990SOL    HW2 6870   4.284   6.761   0.511
 1991SOL     OW 6871   2.893   5.389   2.072
 1991SOL    HW1 6872   2.879   5.292   2.054
 1991SOL    HW2 6873   2.990   5.412   2.063
 1992SOL     OW 6874   1.326   7.008   3.536
 1992SOL    HW1 6875   1.324   0.079   3.529
 1992SOL    HW2 6876   1.420   6.977   3.555
 1993SOL     OW 6877   1.561   1.044   1.839
 1993SOL    HW1 6878   1.592   1.056   1.744
 1993SOL    HW2 6879   1.506   1.124   1.866
 1994SOL     OW 6880   2.712   3.098   1.759
 1994SOL    HW1 6881   2.624   3.144   1.744
 1994SOL    HW2 6882   2.768   3.108   1.677
 1995SOL     OW 6883   6.407   0.888   4.338
 1995SOL    HW1 6884   6.344   0.887   4.416
 1995SOL    HW2 6885   6.404   0.978   4.294
 1996SOL     OW 6886   4.982   0.213   1.237
 1996SOL    HW1 6887   4.978   0.146   1.162
 1996SOL    HW2 6888   4.889   0.244   1.258
 1997SOL     OW 6889   3.307   1.527   2.873
 1997SOL    HW1 6890   3.333   1.496   2.964
 1997SOL    HW2 6891   3.230   1.471   2.840
 1998SOL     OW 6892   2.381   3.289   1.448
 1998SOL    HW1 6893   2.447   3.357   1.417
 1998SOL    HW2 6894   2.406   3.257   1.539
 1999SOL     OW 6895   0.869   0.230   5.863
 1999SOL    HW1 6896   0.783   0.189   5.893
 1999SOL    HW2 6897   0.945   0.188   5.912
 2000SOL     OW 6898   4.606   4.216   6.684
 2000SOL    HW1 6899   4.608   4.142   6.750
 2000SOL    HW2 6900   4.671   4.287   6.711
 2001SOL     OW 6901   1.610   2.039   0.746
 2001SOL    HW1 6902   1.676   2.075   0.680
 2001SOL    HW2 6903   1.593   2.107   0.817
 2002SOL     OW 6904   6.320   5.007   0.001
 2002SOL    HW1 6905   6.326   5.103   0.029
 2002SOL    HW2 6906   6.395   4.985   6.967
 2003SOL     OW 6907   6.359   5.455   1.108
 2003SOL    HW1 6908   6.401   5.526   1.051
 2003SOL    HW2 6909   6.350   5.489   1.202
 2004SOL     OW 6910   3.636   0.704   2.600
 2004SOL    HW1 6911   3.539   0.721   2.619
 2004SOL    HW2 6912   3.658   0.736   2.508
 2005SOL     OW 6913   1.862   6.130   0.151
 2005SOL    HW1 6914   1.905   6.207   0.197
 2005SOL    HW2 6915   1.771   6.157   0.118
 2006SOL     OW 6916   6.036   0.008   1.860
 2006SOL    HW1 6917   6.041   6.942   1.829
 2006SOL    HW2 6918   6.125   0.052   1.847
 2007SOL     OW 6919   5.832   5.430   5.707
 2007SOL    HW1 6920   5.904   5.429   5.637
 2007SOL    HW2 6921   5.823   5.338   5.745
 2008SOL     OW 6922   1.703   3.237   2.709
 2008SOL    HW1 6923   1.706   3.225   2.610
 2008SOL    HW2 6924   1.725   3.151   2.754
 2009SOL     OW 6925   5.914   0.388   3.535
 2009SOL    HW1 6926   5.971   0.469   3.546
 2009SOL    HW2 6927   5.961   0.308   3.574
 2010SOL     OW 6928   0.007   1.367   1.479
 2010SOL    HW1 6929   0.026   1.334   1.386
 2010SOL    HW2 6930   7.023   1.289   1.540
 2011SOL     OW 6931   0.800   0.466   5.010
 2011SOL    HW1 6932   0.871   0.396   5.018
 2011SOL    HW2 6933   0.746   0.450   4.928
 2012SOL     OW 6934   6.953   2.249   0.330
 2012SOL    HW1 6935   6.884   2.251   0.402
 2012SOL    HW2 6936   6.910   2.221   0.244
 2013SOL     OW 6937   0.743   2.834   2.045
 2013SOL    HW1 6938   0.781   2.754   1.999
 2013SOL    HW2 6939   0.811   2.871   2.108
 2014SOL     OW 6940   4.055   1.894   3.695
 2014SOL    HW1 6941   4.089   1.818   3.751
 2014SOL    HW2 6942   4.105   1.977   3.718
 2015SOL     OW 6943   3.801   6.202   1.678
 2015SOL    HW1 6944   3.773   6.298   1.681
 2015SOL    HW2 6945   3.844   6.183   1.589
 2016SOL     OW 6946   2.271   1.080   4.695
 2016SOL    HW1 6947   2.175   1.097   4.717
 2016SOL    HW2 6948   2.292   0.983   4.711
 2017SOL     OW 6949   1.661   6.951   4.579
 2017SOL    HW1 6950   1.632   0.008   4.622
 2017SOL    HW2 6951   1.753   6.962   4.542
 2018SOL     OW 6952   0.371   0.921   4.516
 2018SOL    HW1 6953   0.371   0.933   4.616
 2018SOL    HW2 6954   0.362   1.010   4.472
 2019SOL     OW 6955   0.750   4.995   6.975
 2019SOL    HW1 6956   0.771   4.909   7.020
 2019SOL    HW2 6957   0.784   5.071   0.002
 2020SOL     OW 6958   1.574   6.793   1.638
 2020SOL    HW1 6959   1.612   6.865   1.581
 2020SOL    HW2 6960   1.506   6.741   1.586
 2021SOL     OW 6961   0.094   5.223   3.708
 2021SOL    HW1 6962   0.118   5.130   3.735
 2021SOL    HW2 6963   0.177   5.276   3.691
 2022SOL     OW 6964   2.203   3.061   3.975
 2022SOL    HW1 6965   2.130   3.121   4.008
 2022SOL    HW2 6966   2.243   3.012   4.053
 2023SOL     OW 6967   0.676   5.607   6.691
 2023SOL    HW1 6968   0.660   5.676   6.621
 2023SOL    HW2 6969   0.604   5.537   6.685
 2024SOL     OW 6970   6.442   6.095   3.583
 2024SOL    HW1 6971   6.384   6.048   3.649
 2024SOL    HW2 6972   6.522   6.039   3.562
 2025SOL     OW 6973   1.816   0.423   4.338
 2025SOL    HW1 6974   1.803   0.358   4.263
 2025SOL    HW2 6975   1.897   0.479   4.320
 2026SOL     OW 6976   1.487   6.986   5.527
 2026SOL    HW1 6977   1.393   6.955   5.523
 2026SOL    HW2 6978   1.506   0.017   5.448
 2027SOL     OW 6979   6.275   6.604   2.651
 2027SOL    HW1 6980   6.178   6.598   2.627
 2027SOL    HW2 6981   6.291   6.557   2.738
 2028SOL     OW 6982   2.081   6.200   4.996
 2028SOL    HW1 6983   2.000   6.250   4.966
 2028SOL    HW2 6984   2.092   6.119   4.939
 2029SOL     OW 6985   6.851   2.171   0.110
 2029SOL    HW1 6986   6.940   2.190   0.070
 2029SOL    HW2 6987   6.815   2.086   0.071
 2030SOL     OW 6988   1.615   6.071   2.791
 2030SOL    HW1 6989   1.579   6.162   2.811
 2030SOL    HW2 6990   1.701   6.058   2.841
 2031SOL     OW 6991   6.943   0.105   5.215
 2031SOL    HW1 6992   6.953   0.012   5.179
 2031SOL    HW2 6993   7.016   0.163   5.180
 2032SOL     OW 6994   2.682   2.934   6.227
 2032SOL    HW1 6995   2.774   2.972   6.230
 2032SOL    HW2 6996   2.687   2.836   6.209
 2033SOL     OW 6997   2.782   6.550   1.467
 2033SOL    HW1 6998   2.865   6.566   1.520
 2033SOL    HW2 6999   2.800   6.571   1.371
 2034SOL     OW 7000   0.858   3.748   4.743
 2034SOL    HW1 7001   0.806   3.665   4.764
 2034SOL    HW2 7002   0.912   3.775   4.822
 2035SOL     OW 7003   5.284   6.008   3.334
 2035SOL    HW1 7004   5.278   6.104   3.360
 2035SOL    HW2 7005   5.267   6.000   3.235
 2036SOL     OW 7006   0.093   3.266   6.273
 2036SOL    HW1 7007   0.155   3.191   6.250
 2036SOL    HW2 7008   0.143   3.337   6.322
 2037SOL     OW 7009   1.364   2.529   7.018
 2037SOL    HW1 7010   1.273   2.489   0.002
 2037SOL    HW2 7011   1.433   2.457   7.027
 2038SOL     OW 7012   1.715   0.759   5.943
 2038SOL    HW1 7013   1.683   0.691   5.878
 2038SOL    HW2 7014   1.796   0.806   5.906
 2039SOL     OW 7015   5.324   6.133   4.309
 2039SOL    HW1 7016   5.274   6.055   4.347
 2039SOL    HW2 7017   5.422   6.117   4.319
 2040SOL     OW 7018   2.663   1.537   0.981
 2040SOL    HW1 7019   2.723   1.616   0.974
 2040SOL    HW2 7020   2.599   1.538   0.904
 2041SOL     OW 7021   3.200   0.081   0.282
 2041SOL    HW1 7022   3.133   0.008   0.269
 2041SOL    HW2 7023   3.163   0.167   0.249
 2042SOL     OW 7024   0.100   0.128   5.031
 2042SOL    HW1 7025   0.153   0.053   5.070
 2042SOL    HW2 7026   0.158   0.184   4.972
 2043SOL     OW 7027   1.246   3.484   0.339
 2043SOL    HW1 7028   1.178   3.554   0.359
 2043SOL    HW2 7029   1.335   3.513   0.371
 2044SOL     OW 7030   3.779   0.718   2.313
 2044SOL    HW1 7031   3.786   0.810   2.275
 2044SOL    HW2 7032   3.864   0.694   2.360
 2045SOL     OW 7033   1.732   5.497   3.244
 2045SOL    HW1 7034   1.756   5.514   3.148
 2045SOL    HW2 7035   1.755   5.578   3.298
 2046SOL     OW 7036   0.400   2.484   6.085
 2046SOL    HW1 7037   0.484   2.521   6.126
 2046SOL    HW2 7038   0.327   2.486   6.153
 2047SOL     OW 7039   6.994   0.159   2.088
 2047SOL    HW1 7040   0.029   0.106   2.145
 2047SOL    HW2 7041   6.977   0.248   2.130
 2048SOL     OW 7042   1.645   1.177   3.620
 2048SOL    HW1 7043   1.592   1.097   3.646
 2048SOL    HW2 7044   1.644   1.244   3.694
 2049SOL     OW 7045   4.148   1.983   5.457
 2049SOL    HW1 7046   4.116   1.969   5.364
 2049SOL    HW2 7047   4.248   1.995   5.457
 2050SOL     OW 7048   0.208   1.117   2.342
 2050SOL    HW1 7049   0.263   1.193   2.377
 2050SOL    HW2 7050   0.268   1.040   2.322
 2051SOL     OW 7051   3.425   0.015   6.469
 2051SOL    HW1 7052   3.515   7.019   6.505
 2051SOL    HW2 7053   3.358   6.975   6.497
 2052SOL     OW 7054   0.279   4.530   0.713
 2052SOL    HW1 7055   0.246   4.521   0.807
 2052SOL    HW2 7056   0.207   4.570   0.656
 2053SOL     OW 7057   4.391   5.157   1.698
 2053SOL    HW1 7058   4.295   5.171   1.675
 2053SOL    HW2 7059   4.399   5.087   1.768
 2054SOL     OW 7060   3.038   3.814   3.467
 2054SOL    HW1 7061   2.996   3.867   3.540
 2054SOL    HW2 7062   3.018   3.857   3.379
 2055SOL     OW 7063   3.563   3.128   5.576
 2055SOL    HW1 7064   3.520   3.072   5.505
 2055SOL    HW2 7065   3.560   3.224   5.549
 2056SOL     OW 7066   2.618   5.405   2.273
 2056SOL    HW1 7067   2.591   5.350   2.194
 2056SOL    HW2 7068   2.695   5.463   2.248
 2057SOL     OW 7069   6.576   3.268   3.631
 2057SOL    HW1 7070   6.525   3.270   3.545
 2057SOL    HW2 7071   6.535   3.201   3.693
 2058SOL     OW 7072   5.596   0.281   3.914
 2058SOL    HW1 7073   5.610   0.345   3.989
 2058SOL    HW2 7074   5.557   0.330   3.836
 2059SOL     OW 7075   2.519   1.297   5.863
 2059SOL    HW1 7076   2.541   1.394   5.858
 2059SOL    HW2 7077   2.439   1.284   5.922
 2060SOL     OW 7078   1.353   2.489   6.229
 2060SOL    HW1 7079   1.308   2.424   6.168
 2060SOL    HW2 7080   1.415   2.547   6.177
 2061SOL     OW 7081   2.350   2.686   3.790
 2061SOL    HW1 7082   2.335   2.774   3.744
 2061SOL    HW2 7083   2.377   2.702   3.884
 2062SOL     OW 7084   5.045   5.253   3.917
 2062SOL    HW1 7085   4.950   5.226   3.931
 2062SOL    HW2 7086   5.059   5.345   3.955
 2063SOL     OW 7087   1.134   1.781   4.535
 2063SOL    HW1 7088   1.063   1.825   4.481
 2063SOL    HW2 7089   1.174   1.848   4.598
 2064SOL     OW 7090   0.734   3.889   4.537
 2064SOL    HW1 7091   0.790   3.833   4.597
 2064SOL    HW2 7092   0.753   3.865   4.441
 2065SOL     OW 7093   3.331   3.916   6.045
 2065SOL    HW1 7094   3.314   4.009   6.078
 2065SOL    HW2 7095   3.358   3.857   6.121
 2066SOL     OW 7096   2.262   2.294   4.275
 2066SOL    HW1 7097   2.324   2.222   4.306
 2066SOL    HW2 7098   2.174   2.285   4.321
 2067SOL     OW 7099   6.565   4.791   2.479
 2067SOL    HW1 7100   6.486   4.812   2.420
 2067SOL    HW2 7101   6.649   4.813   2.430
 2068SOL     OW 7102   3.351   0.066   3.989
 2068SOL    HW1 7103   3.351   0.013   4.074
 2068SOL    HW2 7104   3.336   0.162   4.010
 2069SOL     OW 7105   5.868   2.330   2.996
 2069SOL    HW1 7106   5.917   2.414   2.974
 2069SOL    HW2 7107   5.888   2.261   2.927
 2070SOL     OW 7108   0.301   5.435   1.641
 2070SOL    HW1 7109   0.362   5.513   1.653
 2070SOL    HW2 7110   0.224   5.442   1.705
 2071SOL     OW 7111   6.669   2.336   3.810
 2071SOL    HW1 7112   6.661   2.423   3.859
 2071SOL    HW2 7113   6.598   2.332   3.739
 2072SOL     OW 7114   4.980   2.967   5.703
 2072SOL    HW1 7115   4.969   3.004   5.795
 2072SOL    HW2 7116   4.901   2.993   5.647
 2073SOL     OW 7117   3.362   5.380   6.537
 2073SOL    HW1 7118   3.268   5.387   6.570
 2073SOL    HW2 7119   3.423   5.359   6.614
 2074SOL     OW 7120   3.606   4.814   5.774
 2074SOL    HW1 7121   3.617   4.723   5.815
 2074SOL    HW2 7122   3.640   4.884   5.836
 2075SOL     OW 7123   5.196   0.770   0.788
 2075SOL    HW1 7124   5.198   0.808   0.880
 2075SOL    HW2 7125   5.135   0.691   0.785
 2076SOL     OW 7126   6.834   0.042   4.016
 2076SOL    HW1 7127   6.910   0.052   4.080
 2076SOL    HW2 7128   6.760   0.104   4.042
 2077SOL     OW 7129   1.024   4.183   0.640
 2077SOL    HW1 7130   1.115   4.206   0.674
 2077SOL    HW2 7131   0.956   4.235   0.691
 2078SOL     OW 7132   0.851   2.258   0.322
 2078SOL    HW1 7133   0.839   2.167   0.362
 2078SOL    HW2 7134   0.796   2.324   0.373
 2079SOL     OW 7135   5.379   2.276   3.615
 2079SOL    HW1 7136   5.449   2.338   3.653
 2079SOL    HW2 7137   5.291   2.297   3.656
 2080SOL     OW 7138   2.274   2.894   5.321
 2080SOL    HW1 7139   2.191   2.895   5.265
 2080SOL    HW2 7140   2.349   2.933   5.268
 2081SOL     OW 7141   0.262   5.915   3.174
 2081SOL    HW1 7142   0.253   5.828   3.224
 2081SOL    HW2 7143   0.328   5.973   3.221
 2082SOL     OW 7144   6.581   6.555   3.687
 2082SOL    HW1 7145   6.553   6.462   3.711
 2082SOL    HW2 7146   6.668   6.576   3.733
 2083SOL     OW 7147   1.027   5.818   3.330
 2083SOL    HW1 7148   0.929   5.802   3.319
 2083SOL    HW2 7149   1.063   5.756   3.400
 2084SOL     OW 7150   5.745   2.508   1.567
 2084SOL    HW1 7151   5.701   2.486   1.480
 2084SOL    HW2 7152   5.722   2.602   1.593
 2085SOL     OW 7153   6.402   5.622   0.251
 2085SOL    HW1 7154   6.369   5.554   0.187
 2085SOL    HW2 7155   6.410   5.582   0.342
 2086SOL     OW 7156   5.277   0.372   5.826
 2086SOL    HW1 7157   5.327   0.286   5.813
 2086SOL    HW2 7158   5.224   0.391   5.744
 2087SOL     OW 7159   5.185   1.494   6.277
 2087SOL    HW1 7160   5.197   1.472   6.374
 2087SOL    HW2 7161   5.245   1.436   6.222
 2088SOL     OW 7162   0.401   3.119   5.286
 2088SOL    HW1 7163   0.465   3.045   5.264
 2088SOL    HW2 7164   0.397   3.131   5.385
 2089SOL     OW 7165   2.904   4.882   4.370
 2089SOL    HW1 7166   2.960   4.867   4.452
 2089SOL    HW2 7167   2.815   4.839   4.382
 2090SOL     OW 7168   5.055   2.516   6.055
 2090SOL    HW1 7169   5.022   2.437   6.002
 2090SOL    HW2 7170   5.154   2.513   6.061
 2091SOL     OW 7171   5.652   6.506   1.030
 2091SOL    HW1 7172   5.598   6.471   1.106
 2091SOL    HW2 7173   5.641   6.605   1.024
 2092SOL     OW 7174   3.608   2.900   2.882
 2092SOL    HW1 7175   3.666   2.939   2.811
 2092SOL    HW2 7176   3.512   2.909   2.856
 2093SOL     OW 7177   4.693   7.016   6.979
 2093SOL    HW1 7178   4.737   0.051   0.014
 2093SOL    HW2 7179   4.679   0.034   6.891
 2094SOL     OW 7180   4.248   2.838   1.664
 2094SOL    HW1 7181   4.202   2.868   1.581
 2094SOL    HW2 7182   4.275   2.743   1.655
 2095SOL     OW 7183   4.683   5.701   3.517
 2095SOL    HW1 7184   4.660   5.793   3.548
 2095SOL    HW2 7185   4.706   5.704   3.420
 2096SOL     OW 7186   3.775   0.206   2.865
 2096SOL    HW1 7187   3.853   0.175   2.918
 2096SOL    HW2 7188   3.793   0.192   2.768
 2097SOL     OW 7189   2.365   5.579   5.456
 2097SOL    HW1 7190   2.350   5.506   5.390
 2097SOL    HW2 7191   2.416   5.543   5.534
 2098SOL     OW 7192   2.003   0.028   3.791
 2098SOL    HW1 7193   1.955   0.075   3.865
 2098SOL    HW2 7194   2.047   6.974   3.826
 2099SOL     OW 7195   4.414   1.480   0.028
 2099SOL    HW1 7196   4.472   1.537   6.998
 2099SOL    HW2 7197   4.456   1.473   0.119
 2100SOL     OW 7198   4.391   0.252   0.903
 2100SOL    HW1 7199   4.307   0.211   0.939
 2100SOL    HW2 7200   4.423   0.198   0.825
 2101SOL     OW 7201   1.388   0.489   2.570
 2101SOL    HW1 7202   1.467   0.429   2.568
 2101SOL    HW2 7203   1.364   0.516   2.477
 2102SOL     OW 7204   3.577   2.879   2.400
 2102SOL    HW1 7205   3.669   2.912   2.378
 2102SOL    HW2 7206   3.539   2.834   2.319
 2103SOL     OW 7207   1.776   7.006   1.610
 2103SOL    HW1 7208   1.807   0.027   1.530
 2103SOL    HW2 7209   1.706   0.031   1.658
 2104SOL     OW 7210   0.814   4.035   2.468
 2104SOL    HW1 7211   0.765   4.065   2.550
 2104SOL    HW2 7212   0.834   4.114   2.410
 2105SOL     OW 7213   5.186   6.253   5.100
 2105SOL    HW1 7214   5.241   6.182   5.144
 2105SOL    HW2 7215   5.114   6.210   5.044
 2106SOL     OW 7216   3.394   2.735   0.835
 2106SOL    HW1 7217   3.357   2.802   0.771
 2106SOL    HW2 7218   3.323   2.708   0.900
 2107SOL     OW 7219   6.342   4.660   4.992
 2107SOL    HW1 7220   6.257   4.713   4.987
 2107SOL    HW2 7221   6.373   4.637   4.900
 2108SOL     OW 7222   4.506   6.218   5.640
 2108SOL    HW1 7223   4.510   6.307   5.596
 2108SOL    HW2 7224   4.416   6.206   5.683
 2109SOL     OW 7225   2.575   5.634   1.963
 2109SOL    HW1 7226   2.630   5.627   2.046
 2109SOL    HW2 7227   2.479   5.645   1.987
 2110SOL     OW 7228   3.796   5.656   6.874
 2110SOL    HW1 7229   3.845   5.627   6.792
 2110SOL    HW2 7230   3.832   5.745   6.904
 2111SOL     OW 7231   0.582   2.645   0.510
 2111SOL    HW1 7232   0.657   2.579   0.501
 2111SOL    HW2 7233   0.614   2.735   0.484
 2112SOL     OW 7234   0.527   0.677   6.600
 2112SOL    HW1 7235   0.442   0.643   6.559
 2112SOL    HW2 7236   0.605   0.645   6.546
 2113SOL     OW 7237   6.431   2.053   4.257
 2113SOL    HW1 7238   6.394   1.964   4.284
 2113SOL    HW2 7239   6.429   2.061   4.158
 2114SOL     OW 7240   3.147   0.927   5.379
 2114SOL    HW1 7241   3.058   0.896   5.413
 2114SOL    HW2 7242   3.148   0.925   5.280
 2115SOL     OW 7243   6.937   6.915   3.559
 2115SOL    HW1 7244   6.869   6.930   3.487
 2115SOL    HW2 7245   6.916   6.973   3.637
 2116SOL     OW 7246   1.919   0.280   6.076
 2116SOL    HW1 7247   1.898   0.188   6.108
 2116SOL    HW2 7248   1.881   0.347   6.140
 2117SOL     OW 7249   5.641   3.069   1.448
 2117SOL    HW1 7250   5.636   3.168   1.437
 2117SOL    HW2 7251   5.697   3.030   1.375
 2118SOL     OW 7252   0.152   3.447   2.379
 2118SOL    HW1 7253   0.207   3.446   2.461
 2118SOL    HW2 7254   0.103   3.534   2.373
 2119SOL     OW 7255   2.238   2.571   6.852
 2119SOL    HW1 7256   2.181   2.619   6.785
 2119SOL    HW2 7257   2.303   2.512   6.804
 2120SOL     OW 7258   5.813   1.502   0.583
 2120SOL    HW1 7259   5.814   1.524   0.681
 2120SOL    HW2 7260   5.898   1.532   0.541
 2121SOL     OW 7261   3.056   5.473   1.520
 2121SOL    HW1 7262   2.994   5.472   1.442
 2121SOL    HW2 7263   3.003   5.462   1.604
 2122SOL     OW 7264   0.433   0.788   5.089
 2122SOL    HW1 7265   0.371   0.858   5.125
 2122SOL    HW2 7266   0.526   0.810   5.117
 2123SOL     OW 7267   1.167   4.509   3.437
 2123SOL    HW1 7268   1.112   4.440   3.390
 2123SOL    HW2 7269   1.133   4.600   3.414
 2124SOL     OW 7270   5.396   3.501   6.053
 2124SOL    HW1 7271   5.421   3.434   5.983
 2124SOL    HW2 7272   5.305   3.479   6.088
 2125SOL     OW 7273   2.492   5.571   6.056
 2125SOL    HW1 7274   2.589   5.560   6.036
 2125SOL    HW2 7275   2.438   5.513   5.995
 2126SOL     OW 7276   2.927   5.363   1.747
 2126SOL    HW1 7277   2.947   5.406   1.835
 2126SOL    HW2 7278   2.841   5.401   1.711
 2127SOL     OW 7279   1.227   4.059   4.314
 2127SOL    HW1 7280   1.324   4.038   4.321
 2127SOL    HW2 7281   1.181   3.988   4.260
 2128SOL     OW 7282   5.306   2.975   1.172
 2128SOL    HW1 7283   5.324   3.047   1.105
 2128SOL    HW2 7284   5.352   2.891   1.143
 2129SOL     OW 7285   6.018   4.229   4.038
 2129SOL    HW1 7286   6.068   4.313   4.014
 2129SOL    HW2 7287   6.000   4.229   4.136
 2130SOL     OW 7288   1.765   0.122   2.982
 2130SOL    HW1 7289   1.761   0.214   2.942
 2130SOL    HW2 7290   1.802   0.127   3.074
 2131SOL     OW 7291   6.005   0.386   6.607
 2131SOL    HW1 7292   5.961   0.441   6.536
 2131SOL    HW2 7293   6.075   0.327   6.566
 2132SOL     OW 7294   3.353   1.712   0.218
 2132SOL    HW1 7295   3.319   1.626   0.255
 2132SOL    HW2 7296   3.296   1.788   0.251
 2133SOL     OW 7297   4.236   3.296   1.809
 2133SOL    HW1 7298   4.175   3.238   1.864
 2133SOL    HW2 7299   4.309   3.240   1.769
 2134SOL     OW 7300   2.503   0.282   5.162
 2134SOL    HW1 7301   2.546   0.203   5.204
 2134SOL    HW2 7302   2.451   0.253   5.081
 2135SOL     OW 7303   0.236   6.189   4.475
 2135SOL    HW1 7304   0.148   6.223   4.444
 2135SOL    HW2 7305   0.264   6.238   4.557
 2136SOL     OW 7306   0.499   4.981   3.659
 2136SOL    HW1 7307   0.542   5.063   3.620
 2136SOL    HW2 7308   0.563   4.905   3.655
 2137SOL     OW 7309   0.188   0.537   4.644
 2137SOL    HW1 7310   0.105   0.580   4.680
 2137SOL    HW2 7311   0.257   0.532   4.716
 2138SOL     OW 7312   1.285   2.233   0.163
 2138SOL    HW1 7313   1.302   2.211   0.067
 2138SOL    HW2 7314   1.267   2.148   0.213
 2139SOL     OW 7315   3.618   6.268   4.294
 2139SOL    HW1 7316   3.548   6.210   4.337
 2139SOL    HW2 7317   3.622   6.356   4.340
 2140SOL     OW 7318   1.438   5.497   3.384
 2140SOL    HW1 7319   1.466   5.576   3.330
 2140SOL    HW2 7320   1.508   5.425   3.375
 2141SOL     OW 7321   6.562   0.581   6.599
 2141SOL    HW1 7322   6.534   0.676   6.581
 2141SOL    HW2 7323   6.563   0.529   6.514
 2142SOL     OW 7324   4.335   0.876   3.255
 2142SOL    HW1 7325   4.424   0.863   3.298
 2142SOL    HW2 7326   4.302   0.789   3.218
 2143SOL     OW 7327   3.633   5.953   0.211
 2143SOL    HW1 7328   3.576   6.011   0.268
 2143SOL    HW2 7329   3.594   5.861   0.207
 2144SOL     OW 7330   0.510   1.397   2.039
 2144SOL    HW1 7331   0.512   1.463   2.114
 2144SOL    HW2 7332   0.561   1.433   1.961
 2145SOL     OW 7333   2.548   5.814   3.730
 2145SOL    HW1 7334   2.538   5.758   3.812
 2145SOL    HW2 7335   2.483   5.784   3.661
 2146SOL     OW 7336   3.052   2.102   1.267
 2146SOL    HW1 7337   3.009   2.168   1.328
 2146SOL    HW2 7338   3.050   2.011   1.309
 2147SOL     OW 7339   6.700   0.102   4.359
 2147SOL    HW1 7340   6.768   0.030   4.379
 2147SOL    HW2 7341   6.725   0.186   4.407
 2148SOL     OW 7342   6.498   3.764   3.600
 2148SOL    HW1 7343   6.537   3.828   3.534
 2148SOL    HW2 7344   6.428   3.709   3.555
 2149SOL     OW 7345   2.401   0.853   2.511
 2149SOL    HW1 7346   2.419   0.844   2.609
 2149SOL    HW2 7347   2.383   0.949   2.490
 2150SOL     OW 7348   5.420   0.724   3.133
 2150SOL    HW1 7349   5.404   0.746   3.229
 2150SOL    HW2 7350   5.425   0.809   3.081
 2151SOL     OW 7351   4.293   4.406   5.655
 2151SOL    HW1 7352   4.356   4.391   5.579
 2151SOL    HW2 7353   4.199   4.404   5.621
 2152SOL     OW 7354   6.859   6.115   3.209
 2152SOL    HW1 7355   6.932   6.183   3.218
 2152SOL    HW2 7356   6.829   6.111   3.113
 2153SOL     OW 7357   4.542   1.587   3.884
 2153SOL    HW1 7358   4.471   1.578   3.814
 2153SOL    HW2 7359   4.558   1.498   3.927
 2154SOL     OW 7360   4.653   6.741   3.979
 2154SOL    HW1 7361   4.584   6.769   3.912
 2154SOL    HW2 7362   4.607   6.703   4.059
 2155SOL     OW 7363   5.662   4.116   0.759
 2155SOL    HW1 7364   5.619   4.067   0.683
 2155SOL    HW2 7365   5.597   4.122   0.835
 2156SOL     OW 7366   5.877   5.943   2.457
 2156SOL    HW1 7367   5.953   5.966   2.397
 2156SOL    HW2 7368   5.792   5.981   2.420
 2157SOL     OW 7369   5.442   1.485   3.835
 2157SOL    HW1 7370   5.409   1.393   3.813
 2157SOL    HW2 7371   5.540   1.491   3.816
 2158SOL     OW 7372   4.231   0.858   3.517
 2158SOL    HW1 7373   4.160   0.927   3.526
 2158SOL    HW2 7374   4.277   0.868   3.428
 2159SOL     OW 7375   2.430   1.791   5.117
 2159SOL    HW1 7376   2.385   1.792   5.028
 2159SOL    HW2 7377   2.506   1.726   5.116
 2160SOL     OW 7378   2.404   3.788   1.000
 2160SOL    HW1 7379   2.475   3.737   1.048
 2160SOL    HW2 7380   2.372   3.736   0.921
 2161SOL     OW 7381   4.706   2.668   2.632
 2161SOL    HW1 7382   4.767   2.721   2.690
 2161SOL    HW2 7383   4.733   2.677   2.536
 2162SOL     OW 7384   2.571   1.721   2.396
 2162SOL    HW1 7385   2.596   1.648   2.333
 2162SOL    HW2 7386   2.601   1.809   2.358
 2163SOL     OW 7387   4.514   1.380   1.072
 2163SOL    HW1 7388   4.471   1.343   1.154
 2163SOL    HW2 7389   4.465   1.348   0.991
 2164SOL     OW 7390   6.465   0.701   1.480
 2164SOL    HW1 7391   6.497   0.794   1.458
 2164SOL    HW2 7392   6.521   0.634   1.431
 2165SOL     OW 7393   2.046   0.492   2.221
 2165SOL    HW1 7394   2.132   0.525   2.184
 2165SOL    HW2 7395   1.972   0.515   2.158
 2166SOL     OW 7396   5.585   2.791   4.516
 2166SOL    HW1 7397   5.668   2.755   4.474
 2166SOL    HW2 7398   5.518   2.717   4.527
 2167SOL     OW 7399   3.463   1.881   1.212
 2167SOL    HW1 7400   3.545   1.939   1.209
 2167SOL    HW2 7401   3.485   1.795   1.258
 2168SOL     OW 7402   5.608   6.910   4.581
 2168SOL    HW1 7403   5.574   6.994   4.540
 2168SOL    HW2 7404   5.531   6.858   4.619
 2169SOL     OW 7405   5.126   1.951   5.887
 2169SOL    HW1 7406   5.074   2.036   5.882
 2169SOL    HW2 7407   5.122   1.905   5.798
 2170SOL     OW 7408   4.776   5.614   4.521
 2170SOL    HW1 7409   4.752   5.524   4.484
 2170SOL    HW2 7410   4.695   5.658   4.557
 2171SOL     OW 7411   0.671   3.341   0.028
 2171SOL    HW1 7412   0.595   3.348   0.092
 2171SOL    HW2 7413   0.706   3.432   0.007
 2172SOL     OW 7414   2.282   0.546   3.140
 2172SOL    HW1 7415   2.276   0.613   3.065
 2172SOL    HW2 7416   2.225   0.467   3.119
 2173SOL     OW 7417   4.456   2.018   4.500
 2173SOL    HW1 7418   4.418   2.054   4.585
 2173SOL    HW2 7419   4.543   1.972   4.520
 2174SOL     OW 7420   0.970   5.766   5.203
 2174SOL    HW1 7421   0.928   5.855   5.222
 2174SOL    HW2 7422   0.971   5.751   5.104
 2175SOL     OW 7423   1.174   0.375   6.939
 2175SOL    HW1 7424   1.146   0.446   6.874
 2175SOL    HW2 7425   1.256   0.405   6.988
 2176SOL     OW 7426   2.179   2.872   2.247
 2176SOL    HW1 7427   2.167   2.798   2.181
 2176SOL    HW2 7428   2.238   2.841   2.322
 2177SOL     OW 7429   0.929   1.569   1.992
 2177SOL    HW1 7430   0.866   1.518   1.934
 2177SOL    HW2 7431   1.012   1.514   2.005
 2178SOL     OW 7432   6.863   6.194   0.033
 2178SOL    HW1 7433   6.946   6.186   0.088
 2178SOL    HW2 7434   6.800   6.120   0.055
 2179SOL     OW 7435   2.204   3.839   4.117
 2179SOL    HW1 7436   2.303   3.828   4.118
 2179SOL    HW2 7437   2.163   3.764   4.065
 2180SOL     OW 7438   2.984   3.161   2.459
 2180SOL    HW1 7439   2.993   3.177   2.361
 2180SOL    HW2 7440   3.048   3.089   2.487
 2181SOL     OW 7441   3.486   0.066   0.899
 2181SOL    HW1 7442   3.416   0.111   0.954
 2181SOL    HW2 7443   3.442   0.015   0.825
 2182SOL     OW 7444   4.008   3.496   0.333
 2182SOL    HW1 7445   4.069   3.507   0.412
 2182SOL    HW2 7446   3.919   3.536   0.354
 2183SOL     OW 7447   4.849   2.912   1.701
 2183SOL    HW1 7448   4.927   2.962   1.740
 2183SOL    HW2 7449   4.770   2.921   1.761
 2184SOL     OW 7450   4.667   2.818   6.133
 2184SOL    HW1 7451   4.636   2.903   6.176
 2184SOL    HW2 7452   4.669   2.745   6.201
 2185SOL     OW 7453   6.907   6.613   2.249
 2185SOL    HW1 7454   7.000   6.614   2.213
 2185SOL    HW2 7455   6.862   6.700   2.229
 2186SOL     OW 7456   0.012   4.243   3.052
 2186SOL    HW1 7457   0.080   4.257   3.123
 2186SOL    HW2 7458   7.026   4.145   3.038
 2187SOL     OW 7459   6.236   0.588   6.470
 2187SOL    HW1 7460   6.282   0.508   6.508
 2187SOL    HW2 7461   6.294   0.669   6.482
 2188SOL     OW 7462   4.554   2.408   3.513
 2188SOL    HW1 7463   4.528   2.423   3.418
 2188SOL    HW2 7464   4.594   2.491   3.551
 2189SOL     OW 7465   4.038   6.144   6.645
 2189SOL    HW1 7466   3.973   6.068   6.650
 2189SOL    HW2 7467   3.993   6.229   6.674
 2190SOL     OW 7468   5.783   3.347   1.308
 2190SOL    HW1 7469   5.766   3.422   1.372
 2190SOL    HW2 7470   5.738   3.366   1.221
 2191SOL     OW 7471   3.601   0.432   6.906
 2191SOL    HW1 7472   3.640   0.360   6.963
 2191SOL    HW2 7473   3.501   0.424   6.905
 2192SOL     OW 7474   4.122   6.347   1.870
 2192SOL    HW1 7475   4.068   6.299   1.939
 2192SOL    HW2 7476   4.121   6.296   1.785
 2193SOL     OW 7477   0.209   6.282   4.751
 2193SOL    HW1 7478   0.267   6.227   4.811
 2193SOL    HW2 7479   0.115   6.249   4.757
 2194SOL     OW 7480   2.329   0.062   2.168
 2194SOL    HW1 7481   2.253   0.126   2.177
 2194SOL    HW2 7482   2.351   0.025   2.258
 2195SOL     OW 7483   0.273   5.162   2.537
 2195SOL    HW1 7484   0.349   5.103   2.510
 2195SOL    HW2 7485   0.301   5.258   2.532
 2196SOL     OW 7486   4.372   4.021   0.517
 2196SOL    HW1 7487   4.291   3.969   0.488
 2196SOL    HW2 7488   4.451   3.959   0.520
 2197SOL     OW 7489   4.880   3.466   0.002
 2197SOL    HW1 7490   4.977   3.489   7.018
 2197SOL    HW2 7491   4.837   3.454   6.941
 2198SOL     OW 7492   0.725   4.674   6.296
 2198SOL    HW1 7493   0.665   4.733   6.350
 2198SOL    HW2 7494   0.810   4.657   6.347
 2199SOL     OW 7495   3.948   1.747   3.018
 2199SOL    HW1 7496   3.855   1.785   3.017
 2199SOL    HW2 7497   3.944   1.648   3.031
 2200SOL     OW 7498   3.988   0.184   3.734
 2200SOL    HW1 7499   3.979   0.126   3.653
 2200SOL    HW2 7500   4.001   0.127   3.815
 2201SOL     OW 7501   5.239   4.686   4.332
 2201SOL    HW1 7502   5.159   4.736   4.366
 2201SOL    HW2 7503   5.266   4.617   4.398
 2202SOL     OW 7504   4.927   5.846   4.162
 2202SOL    HW1 7505   4.945   5.944   4.163
 2202SOL    HW2 7506   4.967   5.805   4.079
 2203SOL     OW 7507   2.157   1.438   2.607
 2203SOL    HW1 7508   2.122   1.532   2.614
 2203SOL    HW2 7509   2.227   1.424   2.677
 2204SOL     OW 7510   3.475   2.360   1.116
 2204SOL    HW1 7511   3.542   2.428   1.147
 2204SOL    HW2 7512   3.428   2.323   1.196
 2205SOL     OW 7513   3.352   0.652   2.326
 2205SOL    HW1 7514   3.308   0.603   2.401
 2205SOL    HW2 7515   3.293   0.651   2.245
 2206SOL     OW 7516   1.444   4.030   0.437
 2206SOL    HW1 7517   1.472   4.111   0.387
 2206SOL    HW2 7518   1.401   3.965   0.374
 2207SOL     OW 7519   6.421   4.691   5.416
 2207SOL    HW1 7520   6.440   4.634   5.495
 2207SOL    HW2 7521   6.501   4.748   5.395
 2208SOL     OW 7522   6.301   5.064   1.956
 2208SOL    HW1 7523   6.327   5.023   1.869
 2208SOL    HW2 7524   6.382   5.067   2.016
 2209SOL     OW 7525   6.568   0.023   1.797
 2209SOL    HW1 7526   6.619   0.001   1.881
 2209SOL    HW2 7527   6.604   6.997   1.721
 2210SOL     OW 7528   2.446   4.527   3.826
 2210SOL    HW1 7529   2.396   4.574   3.899
 2210SOL    HW2 7530   2.523   4.478   3.865
 2211SOL     OW 7531   5.961   0.563   5.933
 2211SOL    HW1 7532   6.055   0.595   5.920
 2211SOL    HW2 7533   5.938   0.565   6.030
 2212SOL     OW 7534   2.361   6.591   6.112
 2212SOL    HW1 7535   2.306   6.546   6.041
 2212SOL    HW2 7536   2.305   6.604   6.194
 2213SOL     OW 7537   4.715   1.287   3.778
 2213SOL    HW1 7538   4.769   1.364   3.812
 2213SOL    HW2 7539   4.766   1.238   3.707
 2214SOL     OW 7540   3.848   0.462   4.347
 2214SOL    HW1 7541   3.921   0.523   4.316
 2214SOL    HW2 7542   3.826   0.397   4.274
 2215SOL     OW 7543   5.905   2.234   6.158
 2215SOL    HW1 7544   6.003   2.223   6.173
 2215SOL    HW2 7545   5.878   2.184   6.076
 2216SOL     OW 7546   3.139   1.399   2.395
 2216SOL    HW1 7547   3.144   1.326   2.327
 2216SOL    HW2 7548   3.043   1.425   2.408
 2217SOL     OW 7549   3.112   7.007   1.076
 2217SOL    HW1 7550   3.150   6.961   1.156
 2217SOL    HW2 7551   3.019   0.008   1.096
 2218SOL     OW 7552   6.508   0.864   2.172
 2218SOL    HW1 7553   6.435   0.913   2.219
 2218SOL    HW2 7554   6.485   0.857   2.074
 2219SOL     OW 7555   2.489   2.068   2.952
 2219SOL    HW1 7556   2.527   2.062   2.860
 2219SOL    HW2 7557   2.453   1.978   2.980
 2220SOL     OW 7558   1.890   6.442   2.921
 2220SOL    HW1 7559   1.854   6.374   2.986
 2220SOL    HW2 7560   1.985   6.461   2.942
 2221SOL     OW 7561   0.169   6.522   4.919
 2221SOL    HW1 7562   0.212   6.443   4.962
 2221SOL    HW2 7563   0.132   6.496   4.830
 2222SOL     OW 7564   5.653   5.002   4.108
 2222SOL    HW1 7565   5.695   5.093   4.108
 2222SOL    HW2 7566   5.627   4.979   4.202
 2223SOL     OW 7567   6.721   6.656   2.494
 2223SOL    HW1 7568   6.798   6.634   2.434
 2223SOL    HW2 7569   6.714   6.756   2.502
 2224SOL     OW 7570   1.125   5.703   1.550
 2224SOL    HW1 7571   1.139   5.761   1.470
 2224SOL    HW2 7572   1.172   5.743   1.629
 2225SOL     OW 7573   0.507   4.339   0.161
 2225SOL    HW1 7574   0.433   4.298   0.107
 2225SOL    HW2 7575   0.470   4.372   0.247
 2226SOL     OW 7576   3.392   3.812   3.173
 2226SOL    HW1 7577   3.309   3.781   3.218
 2226SOL    HW2 7578   3.374   3.898   3.124
 2227SOL     OW 7579   1.585   2.124   5.062
 2227SOL    HW1 7580   1.489   2.133   5.089
 2227SOL    HW2 7581   1.609   2.028   5.053
 2228SOL     OW 7582   1.798   4.511   4.631
 2228SOL    HW1 7583   1.826   4.456   4.553
 2228SOL    HW2 7584   1.779   4.605   4.601
 2229SOL     OW 7585   5.539   5.524   2.723
 2229SOL    HW1 7586   5.542   5.622   2.702
 2229SOL    HW2 7587   5.564   5.509   2.818
 2230SOL     OW 7588   1.943   5.540   2.818
 2230SOL    HW1 7589   2.002   5.517   2.741
 2230SOL    HW2 7590   1.926   5.458   2.872
 2231SOL     OW 7591   1.821   5.687   1.079
 2231SOL    HW1 7592   1.792   5.776   1.044
 2231SOL    HW2 7593   1.918   5.672   1.058
 2232SOL     OW 7594   5.849   2.166   3.433
 2232SOL    HW1 7595   5.908   2.234   3.476
 2232SOL    HW2 7596   5.758   2.170   3.474
 2233SOL     OW 7597   3.627   1.043   0.612
 2233SOL    HW1 7598   3.578   1.047   0.699
 2233SOL    HW2 7599   3.691   1.119   0.606
 2234SOL     OW 7600   4.618   2.249   1.161
 2234SOL    HW1 7601   4.608   2.224   1.257
 2234SOL    HW2 7602   4.705   2.214   1.126
 2235SOL     OW 7603   1.898   2.475   2.294
 2235SOL    HW1 7604   1.852   2.545   2.350
 2235SOL    HW2 7605   1.975   2.436   2.345
 2236SOL     OW 7606   0.496   3.853   5.484
 2236SOL    HW1 7607   0.499   3.753   5.489
 2236SOL    HW2 7608   0.432   3.887   5.553
 2237SOL     OW 7609   6.098   2.986   3.325
 2237SOL    HW1 7610   6.031   2.912   3.335
 2237SOL    HW2 7611   6.187   2.947   3.301
 2238SOL     OW 7612   5.330   5.961   6.799
 2238SOL    HW1 7613   5.323   6.060   6.788
 2238SOL    HW2 7614   5.425   5.932   6.789
 2239SOL     OW 7615   0.182   5.642   1.300
 2239SOL    HW1 7616   0.145   5.710   1.237
 2239SOL    HW2 7617   0.211   5.688   1.384
 2240SOL     OW 7618   6.637   3.411   1.248
 2240SOL    HW1 7619   6.689   3.496   1.237
 2240SOL    HW2 7620   6.543   3.425   1.219
 2241SOL     OW 7621   0.570   0.334   3.945
 2241SOL    HW1 7622   0.538   0.240   3.955
 2241SOL    HW2 7623   0.519   0.393   4.008
 2242SOL     OW 7624   1.915   1.831   3.142
 2242SOL    HW1 7625   1.838   1.856   3.200
 2242SOL    HW2 7626   1.991   1.893   3.159
 2243SOL     OW 7627   1.745   0.311   4.602
 2243SOL    HW1 7628   1.770   0.347   4.512
 2243SOL    HW2 7629   1.667   0.250   4.593
 2244SOL     OW 7630   3.431   0.332   4.798
 2244SOL    HW1 7631   3.426   0.407   4.732
 2244SOL    HW2 7632   3.406   0.246   4.753
 2245SOL     OW 7633   1.075   2.708   1.958
 2245SOL    HW1 7634   1.089   2.721   2.056
 2245SOL    HW2 7635   0.988   2.661   1.943
 2246SOL     OW 7636   0.678   3.983   4.842
 2246SOL    HW1 7637   0.634   3.930   4.915
 2246SOL    HW2 7638   0.723   3.920   4.778
 2247SOL     OW 7639   1.907   2.517   3.895
 2247SOL    HW1 7640   1.984   2.559   3.845
 2247SOL    HW2 7641   1.895   2.423   3.864
 2248SOL     OW 7642   5.761   3.678   5.988
 2248SOL    HW1 7643   5.682   3.716   5.939
 2248SOL    HW2 7644   5.741   3.674   6.086
 2249SOL     OW 7645   5.417   5.596   4.949
 2249SOL    HW1 7646   5.339   5.657   4.936
 2249SOL    HW2 7647   5.396   5.531   5.022
 2250SOL     OW 7648   4.385   4.571   1.957
 2250SOL    HW1 7649   4.442   4.492   1.935
 2250SOL    HW2 7650   4.357   4.617   1.872
 2251SOL     OW 7651   0.584   1.004   5.444
 2251SOL    HW1 7652   0.645   0.924   5.441
 2251SOL    HW2 7653   0.626   1.079   5.393
 2252SOL     OW 7654   3.374   1.396   6.538
 2252SOL    HW1 7655   3.276   1.393   6.519
 2252SOL    HW2 7656   3.424   1.402   6.451
 2253SOL     OW 7657   0.657   3.936   0.574
 2253SOL    HW1 7658   0.602   3.860   0.609
 2253SOL    HW2 7659   0.694   3.988   0.651
 2254SOL     OW 7660   1.606   4.959   6.169
 2254SOL    HW1 7661   1.652   4.979   6.256
 2254SOL    HW2 7662   1.517   4.916   6.188
 2255SOL     OW 7663   6.755   3.802   6.717
 2255SOL    HW1 7664   6.685   3.852   6.665
 2255SOL    HW2 7665   6.776   3.717   6.670
 2256SOL     OW 7666   3.469   5.477   2.309
 2256SOL    HW1 7667   3.542   5.433   2.361
 2256SOL    HW2 7668   3.394   5.500   2.370
 2257SOL     OW 7669   1.441   4.614   5.400
 2257SOL    HW1 7670   1.371   4.681   5.376
 2257SOL    HW2 7671   1.406   4.521   5.382
 2258SOL     OW 7672   2.222   6.834   5.760
 2258SOL    HW1 7673   2.231   6.918   5.706
 2258SOL    HW2 7674   2.276   6.762   5.717
 2259SOL     OW 7675   6.079   1.894   6.085
 2259SOL    HW1 7676   5.983   1.921   6.079
 2259SOL    HW2 7677   6.085   1.801   6.120
 2260SOL     OW 7678   4.381   3.179   0.604
 2260SOL    HW1 7679   4.380   3.190   0.505
 2260SOL    HW2 7680   4.470   3.206   0.640
 2261SOL     OW 7681   2.492   6.930   4.983
 2261SOL    HW1 7682   2.554   6.993   5.029
 2261SOL    HW2 7683   2.508   6.837   5.015
 2262SOL     OW 7684   2.613   1.801   3.653
 2262SOL    HW1 7685   2.675   1.877   3.675
 2262SOL    HW2 7686   2.520   1.835   3.644
 2263SOL     OW 7687   0.766   4.495   5.321
 2263SOL    HW1 7688   0.787   4.589   5.346
 2263SOL    HW2 7689   0.677   4.491   5.276
 2264SOL     OW 7690   3.489   3.497   3.534
 2264SOL    HW1 7691   3.531   3.516   3.623
 2264SOL    HW2 7692   3.419   3.566   3.515
 2265SOL     OW 7693   0.950   5.872   4.342
 2265SOL    HW1 7694   0.972   5.969   4.358
 2265SOL    HW2 7695   0.875   5.866   4.277
 2266SOL     OW 7696   6.828   0.679   5.492
 2266SOL    HW1 7697   6.774   0.641   5.567
 2266SOL    HW2 7698   6.924   0.685   5.520
 2267SOL     OW 7699   6.254   1.845   5.438
 2267SOL    HW1 7700   6.271   1.749   5.458
 2267SOL    HW2 7701   6.167   1.855   5.391
 2268SOL     OW 7702   0.175   6.892   0.497
 2268SOL    HW1 7703   0.243   6.964   0.478
 2268SOL    HW2 7704   0.213   6.803   0.471
 2269SOL     OW 7705   6.427   6.128   2.732
 2269SOL    HW1 7706   6.486   6.053   2.763
 2269SOL    HW2 7707   6.471   6.175   2.656
 2270SOL     OW 7708   3.533   2.990   3.554
 2270SOL    HW1 7709   3.451   2.954   3.509
 2270SOL    HW2 7710   3.526   3.090   3.559
 2271SOL     OW 7711   1.725   3.856   2.832
 2271SOL    HW1 7712   1.645   3.889   2.882
 2271SOL    HW2 7713   1.785   3.806   2.894
 2272SOL     OW 7714   5.237   0.879   5.764
 2272SOL    HW1 7715   5.326   0.921   5.781
 2272SOL    HW2 7716   5.188   0.934   5.696
 2273SOL     OW 7717   0.240   1.308   2.019
 2273SOL    HW1 7718   0.232   1.222   1.968
 2273SOL    HW2 7719   0.335   1.336   2.023
 2274SOL     OW 7720   0.263   4.814   2.924
 2274SOL    HW1 7721   0.190   4.755   2.892
 2274SOL    HW2 7722   0.295   4.872   2.849
 2275SOL     OW 7723   4.612   6.514   3.642
 2275SOL    HW1 7724   4.567   6.592   3.599
 2275SOL    HW2 7725   4.572   6.429   3.607
 2276SOL     OW 7726   3.541   6.212   2.750
 2276SOL    HW1 7727   3.581   6.280   2.810
 2276SOL    HW2 7728   3.598   6.129   2.751
 2277SOL     OW 7729   3.431   3.011   2.602
 2277SOL    HW1 7730   3.466   3.105   2.599
 2277SOL    HW2 7731   3.475   2.957   2.530
 2278SOL     OW 7732   4.457   4.874   1.183
 2278SOL    HW1 7733   4.522   4.808   1.144
 2278SOL    HW2 7734   4.376   4.880   1.125
 2279SOL     OW 7735   5.541   4.036   5.402
 2279SOL    HW1 7736   5.574   3.954   5.355
 2279SOL    HW2 7737   5.545   4.021   5.501
 2280SOL     OW 7738   5.727   0.963   6.003
 2280SOL    HW1 7739   5.673   0.928   6.079
 2280SOL    HW2 7740   5.804   1.016   6.038
 2281SOL     OW 7741   2.513   0.438   0.655
 2281SOL    HW1 7742   2.593   0.388   0.688
 2281SOL    HW2 7743   2.542   0.517   0.601
 2282SOL     OW 7744   3.590   0.230   2.435
 2282SOL    HW1 7745   3.514   0.221   2.499
 2282SOL    HW2 7746   3.587   0.319   2.390
 2283SOL     OW 7747   0.792   3.229   1.401
 2283SOL    HW1 7748   0.829   3.318   1.372
 2283SOL    HW2 7749   0.856   3.186   1.464
 2284SOL     OW 7750   2.100   3.338   0.786
 2284SOL    HW1 7751   2.103   3.253   0.734
 2284SOL    HW2 7752   2.120   3.319   0.882
 2285SOL     OW 7753   2.416   2.666   0.001
 2285SOL    HW1 7754   2.333   2.638   6.980
 2285SOL    HW2 7755   2.496   2.628   6.983
 2286SOL     OW 7756   6.531   6.304   3.758
 2286SOL    HW1 7757   6.556   6.239   3.830
 2286SOL    HW2 7758   6.486   6.254   3.683
 2287SOL     OW 7759   2.431   1.401   0.397
 2287SOL    HW1 7760   2.494   1.448   0.334
 2287SOL    HW2 7761   2.475   1.319   0.433
 2288SOL     OW 7762   2.725   5.660   4.218
 2288SOL    HW1 7763   2.777   5.579   4.244
 2288SOL    HW2 7764   2.785   5.724   4.169
 2289SOL     OW 7765   3.855   0.074   6.152
 2289SOL    HW1 7766   3.941   0.126   6.149
 2289SOL    HW2 7767   3.795   0.106   6.079
 2290SOL     OW 7768   2.366   3.455   5.632
 2290SOL    HW1 7769   2.422   3.371   5.634
 2290SOL    HW2 7770   2.383   3.504   5.547
 2291SOL     OW 7771   2.946   1.863   0.476
 2291SOL    HW1 7772   2.929   1.785   0.536
 2291SOL    HW2 7773   2.954   1.946   0.530
 2292SOL     OW 7774   5.033   2.040   2.877
 2292SOL    HW1 7775   5.012   2.137   2.863
 2292SOL    HW2 7776   5.115   2.031   2.934
 2293SOL     OW 7777   0.530   0.798   0.225
 2293SOL    HW1 7778   0.617   0.760   0.195
 2293SOL    HW2 7779   0.543   0.852   0.308
 2294SOL     OW 7780   6.831   2.784   5.533
 2294SOL    HW1 7781   6.841   2.686   5.512
 2294SOL    HW2 7782   6.852   2.800   5.629
 2295SOL     OW 7783   5.697   5.820   0.072
 2295SOL    HW1 7784   5.635   5.771   0.012
 2295SOL    HW2 7785   5.787   5.775   0.072
 2296SOL     OW 7786   3.801   5.860   4.410
 2296SOL    HW1 7787   3.775   5.924   4.483
 2296SOL    HW2 7788   3.838   5.911   4.333
 2297SOL     OW 7789   6.394   2.460   6.950
 2297SOL    HW1 7790   6.350   2.542   6.914
 2297SOL    HW2 7791   6.492   2.464   6.932
 2298SOL     OW 7792   2.305   3.631   5.430
 2298SOL    HW1 7793   2.279   3.707   5.371
 2298SOL    HW2 7794   2.237   3.620   5.502
 2299SOL     OW 7795   6.016   3.703   4.786
 2299SOL    HW1 7796   5.980   3.796   4.782
 2299SOL    HW2 7797   6.005   3.658   4.697
 2300SOL     OW 7798   4.313   0.359   3.407
 2300SOL    HW1 7799   4.338   0.402   3.320
 2300SOL    HW2 7800   4.390   0.305   3.441
 2301SOL     OW 7801   4.268   3.144   5.699
 2301SOL    HW1 7802   4.262   3.243   5.690
 2301SOL    HW2 7803   4.245   3.117   5.792
 2302SOL     OW 7804   0.230   2.850   4.968
 2302SOL    HW1 7805   0.289   2.926   4.940
 2302SOL    HW2 7806   0.196   2.867   5.060
 2303SOL     OW 7807   2.665   2.067   6.580
 2303SOL    HW1 7808   2.602   2.068   6.503
 2303SOL    HW2 7809   2.653   1.982   6.632
 2304SOL     OW 7810   4.135   6.693   3.243
 2304SOL    HW1 7811   4.112   6.620   3.307
 2304SOL    HW2 7812   4.068   6.697   3.170
 2305SOL     OW 7813   2.784   5.874   4.859
 2305SOL    HW1 7814   2.820   5.823   4.938
 2305SOL    HW2 7815   2.705   5.928   4.888
 2306SOL     OW 7816   0.847   5.048   5.472
 2306SOL    HW1 7817   0.899   4.999   5.403
 2306SOL    HW2 7818   0.900   5.054   5.556
 2307SOL     OW 7819   6.018   3.962   5.017
 2307SOL    HW1 7820   5.967   4.030   4.964
 2307SOL    HW2 7821   6.107   3.945   4.975
 2308SOL     OW 7822   1.403   6.530   2.793
 2308SOL    HW1 7823   1.419   6.625   2.823
 2308SOL    HW2 7824   1.308   6.520   2.766
 2309SOL     OW 7825   2.041   1.153   4.841
 2309SOL    HW1 7826   2.043   1.252   4.837
 2309SOL    HW2 7827   2.080   1.122   4.928
 2310SOL     OW 7828   5.196   6.054   0.288
 2310SOL    HW1 7829   5.219   6.066   0.384
 2310SOL    HW2 7830   5.220   6.136   0.237
 2311SOL     OW 7831   2.253   5.779   0.755
 2311SOL    HW1 7832   2.225   5.684   0.738
 2311SOL    HW2 7833   2.347   5.780   0.790
 2312SOL     OW 7834   2.634   4.691   2.471
 2312SOL    HW1 7835   2.534   4.692   2.479
 2312SOL    HW2 7836   2.661   4.630   2.397
 2313SOL     OW 7837   4.887   5.186   1.587
 2313SOL    HW1 7838   4.889   5.133   1.502
 2313SOL    HW2 7839   4.840   5.132   1.658
 2314SOL     OW 7840   2.353   4.291   2.948
 2314SOL    HW1 7841   2.311   4.205   2.979
 2314SOL    HW2 7842   2.342   4.300   2.850
 2315SOL     OW 7843   3.666   1.746   6.625
 2315SOL    HW1 7844   3.754   1.793   6.614
 2315SOL    HW2 7845   3.595   1.795   6.574
 2316SOL     OW 7846   5.440   4.331   1.335
 2316SOL    HW1 7847   5.408   4.252   1.388
 2316SOL    HW2 7848   5.361   4.377   1.294
 2317SOL     OW 7849   0.299   6.503   3.706
 2317SOL    HW1 7850   0.334   6.596   3.716
 2317SOL    HW2 7851   0.218   6.491   3.764
 2318SOL     OW 7852   0.090   1.806   3.446
 2318SOL    HW1 7853   0.166   1.815   3.510
 2318SOL    HW2 7854   0.012   1.764   3.492
 2319SOL     OW 7855   1.126   5.534   2.709
 2319SOL    HW1 7856   1.183   5.615   2.698
 2319SOL    HW2 7857   1.120   5.509   2.805
 2320SOL     OW 7858   6.797   4.781   3.401
 2320SOL    HW1 7859   6.830   4.688   3.386
 2320SOL    HW2 7860   6.852   4.846   3.348
 2321SOL     OW 7861   3.377   4.935   3.853
 2321SOL    HW1 7862   3.293   4.925   3.906
 2321SOL    HW2 7863   3.358   4.917   3.756
 2322SOL     OW 7864   2.071   2.019   4.559
 2322SOL    HW1 7865   2.008   1.942   4.568
 2322SOL    HW2 7866   2.085   2.039   4.462
 2323SOL     OW 7867   5.472   3.884   1.453
 2323SOL    HW1 7868   5.387   3.923   1.419
 2323SOL    HW2 7869   5.455   3.836   1.538
 2324SOL     OW 7870   0.615   5.697   4.272
 2324SOL    HW1 7871   0.532   5.649   4.245
 2324SOL    HW2 7872   0.608   5.722   4.369
 2325SOL     OW 7873   6.257   2.013   1.121
 2325SOL    HW1 7874   6.218   2.013   1.213
 2325SOL    HW2 7875   6.329   1.944   1.116
 2326SOL     OW 7876   0.388   5.592   0.529
 2326SOL    HW1 7877   0.359   5.497   0.517
 2326SOL    HW2 7878   0.308   5.650   0.544
 2327SOL     OW 7879   4.696   1.725   2.979
 2327SOL    HW1 7880   4.786   1.688   2.998
 2327SOL    HW2 7881   4.660   1.684   2.895
 2328SOL     OW 7882   6.270   4.915   3.887
 2328SOL    HW1 7883   6.342   4.865   3.840
 2328SOL    HW2 7884   6.273   4.896   3.985
 2329SOL     OW 7885   1.440   6.550   3.416
 2329SOL    HW1 7886   1.415   6.586   3.326
 2329SOL    HW2 7887   1.527   6.589   3.445
 2330SOL     OW 7888   1.656   4.235   0.186
 2330SOL    HW1 7889   1.571   4.255   0.138
 2330SOL    HW2 7890   1.682   4.313   0.244
 2331SOL     OW 7891   1.987   4.946   4.568
 2331SOL    HW1 7892   2.040   5.031   4.565
 2331SOL    HW2 7893   1.968   4.924   4.664
 2332SOL     OW 7894   6.954   3.529   6.304
 2332SOL    HW1 7895   6.928   3.433   6.287
 2332SOL    HW2 7896   0.015   3.531   6.348
 2333SOL     OW 7897   2.551   4.492   4.095
 2333SOL    HW1 7898   2.495   4.427   4.147
 2333SOL    HW2 7899   2.552   4.580   4.143
 2334SOL     OW 7900   2.645   0.296   5.883
 2334SOL    HW1 7901   2.581   0.220   5.875
 2334SOL    HW2 7902   2.721   0.283   5.819
 2335SOL     OW 7903   4.836   4.630   4.171
 2335SOL    HW1 7904   4.759   4.644   4.234
 2335SOL    HW2 7905   4.824   4.687   4.090
 2336SOL     OW 7906   4.639   1.298   5.343
 2336SOL    HW1 7907   4.659   1.300   5.245
 2336SOL    HW2 7908   4.704   1.356   5.392
 2337SOL     OW 7909   5.609   0.648   5.207
 2337SOL    HW1 7910   5.625   0.554   5.178
 2337SOL    HW2 7911   5.642   0.660   5.300
 2338SOL     OW 7912   1.731   0.228   6.846
 2338SOL    HW1 7913   1.740   0.242   6.944
 2338SOL    HW2 7914   1.635   0.212   6.823
 2339SOL     OW 7915   3.806   4.754   6.787
 2339SOL    HW1 7916   3.800   4.665   6.833
 2339SOL    HW2 7917   3.718   4.776   6.745
 2340SOL     OW 7918   4.330   4.896   4.105
 2340SOL    HW1 7919   4.237   4.882   4.138
 2340SOL    HW2 7920   4.384   4.941   4.176
 2341SOL     OW 7921   0.258   4.114   6.177
 2341SOL    HW1 7922   0.281   4.089   6.083
 2341SOL    HW2 7923   0.222   4.033   6.224
 2342SOL     OW 7924   5.833   0.895   5.771
 2342SOL    HW1 7925   5.778   0.815   5.747
 2342SOL    HW2 7926   5.814   0.921   5.865
 2343SOL     OW 7927   1.585   5.787   1.710
 2343SOL    HW1 7928   1.583   5.763   1.613
 2343SOL    HW2 7929   1.532   5.720   1.762
 2344SOL     OW 7930   2.003   0.833   2.848
 2344SOL    HW1 7931   2.076   0.889   2.807
 2344SOL    HW2 7932   1.936   0.892   2.891
 2345SOL     OW 7933   0.917   2.143   2.125
 2345SOL    HW1 7934   0.865   2.128   2.209
 2345SOL    HW2 7935   1.015   2.137   2.144
 2346SOL     OW 7936   5.125   2.975   5.101
 2346SOL    HW1 7937   5.168   3.056   5.140
 2346SOL    HW2 7938   5.121   2.983   5.001
 2347SOL     OW 7939   1.345   4.258   0.650
 2347SOL    HW1 7940   1.443   4.279   0.651
 2347SOL    HW2 7941   1.308   4.274   0.558
 2348SOL     OW 7942   2.972   0.018   1.495
 2348SOL    HW1 7943   2.890   0.012   1.553
 2348SOL    HW2 7944   3.052   0.038   1.552
 2349SOL     OW 7945   5.811   3.175   6.987
 2349SOL    HW1 7946   5.840   3.253   0.013
 2349SOL    HW2 7947   5.748   3.119   0.011
 2350SOL     OW 7948   2.240   6.027   5.452
 2350SOL    HW1 7949   2.162   5.978   5.490
 2350SOL    HW2 7950   2.209   6.115   5.415
 2351SOL     OW 7951   1.955   5.083   3.444
 2351SOL    HW1 7952   1.978   5.176   3.474
 2351SOL    HW2 7953   2.026   5.050   3.381
 2352SOL     OW 7954   6.002   5.953   6.484
 2352SOL    HW1 7955   6.050   5.880   6.436
 2352SOL    HW2 7956   6.006   6.037   6.430
 2353SOL     OW 7957   3.111   2.838   5.986
 2353SOL    HW1 7958   3.109   2.834   5.886
 2353SOL    HW2 7959   3.054   2.914   6.018
 2354SOL     OW 7960   3.542   1.866   2.239
 2354SOL    HW1 7961   3.445   1.884   2.219
 2354SOL    HW2 7962   3.559   1.768   2.232
 2355SOL     OW 7963   0.048   1.657   2.371
 2355SOL    HW1 7964   0.008   1.579   2.420
 2355SOL    HW2 7965   0.146   1.639   2.355
 2356SOL     OW 7966   3.818   4.919   4.236
 2356SOL    HW1 7967   3.830   4.988   4.307
 2356SOL    HW2 7968   3.729   4.932   4.192
 2357SOL     OW 7969   1.204   5.350   1.344
 2357SOL    HW1 7970   1.174   5.291   1.419
 2357SOL    HW2 7971   1.272   5.415   1.378
 2358SOL     OW 7972   2.122   0.745   5.599
 2358SOL    HW1 7973   2.087   0.724   5.690
 2358SOL    HW2 7974   2.091   0.676   5.534
 2359SOL     OW 7975   2.927   2.502   5.912
 2359SOL    HW1 7976   2.977   2.416   5.916
 2359SOL    HW2 7977   2.962   2.564   5.982
 2360SOL     OW 7978   3.165   4.938   0.732
 2360SOL    HW1 7979   3.125   4.852   0.762
 2360SOL    HW2 7980   3.252   4.953   0.780
 2361SOL     OW 7981   3.612   4.794   1.176
 2361SOL    HW1 7982   3.553   4.750   1.243
 2361SOL    HW2 7983   3.678   4.853   1.223
 2362SOL     OW 7984   2.699   4.706   4.460
 2362SOL    HW1 7985   2.715   4.677   4.554
 2362SOL    HW2 7986   2.620   4.768   4.457
 2363SOL     OW 7987   2.310   4.260   1.357
 2363SOL    HW1 7988   2.385   4.258   1.291
 2363SOL    HW2 7989   2.224   4.273   1.308
 2364SOL     OW 7990   5.431   1.046   2.730
 2364SOL    HW1 7991   5.523   1.074   2.704
 2364SOL    HW2 7992   5.365   1.086   2.667
 2365SOL     OW 7993   5.830   4.471   2.607
 2365SOL    HW1 7994   5.769   4.487   2.684
 2365SOL    HW2 7995   5.912   4.424   2.638
 2366SOL     OW 7996   3.567   5.183   5.066
 2366SOL    HW1 7997   3.496   5.222   5.125
 2366SOL    HW2 7998   3.541   5.195   4.970
 2367SOL     OW 7999   5.827   4.714   5.453
 2367SOL    HW1 8000   5.785   4.757   5.373
 2367SOL    HW2 8001   5.810   4.616   5.451
 2368SOL     OW 8002   5.030   0.646   5.454
 2368SOL    HW1 8003   5.028   0.608   5.546
 2368SOL    HW2 8004   5.000   0.741   5.456
 2369SOL     OW 8005   4.028   1.913   3.998
 2369SOL    HW1 8006   3.946   1.866   4.028
 2369SOL    HW2 8007   4.092   1.847   3.958
 2370SOL     OW 8008   3.935   2.197   0.891
 2370SOL    HW1 8009   3.978   2.107   0.905
 2370SOL    HW2 8010   3.964   2.259   0.964
 2371SOL     OW 8011   2.285   6.503   2.731
 2371SOL    HW1 8012   2.294   6.602   2.744
 2371SOL    HW2 8013   2.218   6.467   2.795
 2372SOL     OW 8014   6.418   6.911   6.051
 2372SOL    HW1 8015   6.336   6.960   6.021
 2372SOL    HW2 8016   6.462   6.868   5.973
 2373SOL     OW 8017   6.547   4.044   5.840
 2373SOL    HW1 8018   6.460   4.092   5.832
 2373SOL    HW2 8019   6.536   3.950   5.807
 2374SOL     OW 8020   6.895   5.972   2.776
 2374SOL    HW1 8021   6.857   5.883   2.800
 2374SOL    HW2 8022   6.864   6.000   2.686
 2375SOL     OW 8023   2.149   0.076   4.753
 2375SOL    HW1 8024   2.152   0.175   4.765
 2375SOL    HW2 8025   2.083   0.036   4.817
 2376SOL     OW 8026   5.627   3.341   3.640
 2376SOL    HW1 8027   5.657   3.293   3.557
 2376SOL    HW2 8028   5.647   3.439   3.631
 2377SOL     OW 8029   3.854   4.493   5.745
 2377SOL    HW1 8030   3.782   4.506   5.813
 2377SOL    HW2 8031   3.918   4.423   5.777
 2378SOL     OW 8032   0.840   0.794   0.954
 2378SOL    HW1 8033   0.896   0.741   0.890
 2378SOL    HW2 8034   0.842   0.891   0.928
 2379SOL     OW 8035   0.578   4.836   2.510
 2379SOL    HW1 8036   0.646   4.804   2.576
 2379SOL    HW2 8037   0.510   4.764   2.494
 2380SOL     OW 8038   4.622   5.179   6.697
 2380SOL    HW1 8039   4.562   5.256   6.720
 2380SOL    HW2 8040   4.648   5.185   6.601
 2381SOL     OW 8041   2.120   3.768   3.675
 2381SOL    HW1 8042   2.158   3.849   3.630
 2381SOL    HW2 8043   2.083   3.706   3.606
 2382SOL     OW 8044   6.149   6.198   2.668
 2382SOL    HW1 8045   6.242   6.189   2.704
 2382SOL    HW2 8046   6.154   6.222   2.571
 2383SOL     OW 8047   5.363   3.910   6.175
 2383SOL    HW1 8048   5.415   3.958   6.104
 2383SOL    HW2 8049   5.417   3.834   6.211
 2384SOL     OW 8050   0.766   2.194   3.211
 2384SOL    HW1 8051   0.806   2.281   3.239
 2384SOL    HW2 8052   0.828   2.119   3.237
 2385SOL     OW 8053   0.450   1.258   0.798
 2385SOL    HW1 8054   0.363   1.298   0.768
 2385SOL    HW2 8055   0.507   1.238   0.718
 2386SOL     OW 8056   6.690   4.846   5.814
 2386SOL    HW1 8057   6.590   4.847   5.822
 2386SOL    HW2 8058   6.731   4.867   5.903
 2387SOL     OW 8059   6.889   0.459   3.388
 2387SOL    HW1 8060   6.935   0.545   3.410
 2387SOL    HW2 8061   6.948   0.403   3.330
 2388SOL     OW 8062   2.008   3.705   4.284
 2388SOL    HW1 8063   2.021   3.733   4.189
 2388SOL    HW2 8064   1.924   3.651   4.292
 2389SOL     OW 8065   3.504   0.225   2.875
 2389SOL    HW1 8066   3.462   0.222   2.785
 2389SOL    HW2 8067   3.599   0.257   2.866
 2390SOL     OW 8068   5.094   2.878   5.358
 2390SOL    HW1 8069   5.114   2.906   5.264
 2390SOL    HW2 8070   4.996   2.887   5.375
 2391SOL     OW 8071   2.735   3.803   6.260
 2391SOL    HW1 8072   2.804   3.776   6.194
 2391SOL    HW2 8073   2.772   3.794   6.353
 2392SOL     OW 8074   4.380   5.256   5.902
 2392SOL    HW1 8075   4.296   5.249   5.956
 2392SOL    HW2 8076   4.451   5.300   5.957
 2393SOL     OW 8077   4.322   4.329   0.180
 2393SOL    HW1 8078   4.367   4.242   0.199
 2393SOL    HW2 8079   4.319   4.384   0.264
 2394SOL     OW 8080   0.156   2.743   3.091
 2394SOL    HW1 8081   0.066   2.741   3.135
 2394SOL    HW2 8082   0.166   2.665   3.030
 2395SOL     OW 8083   1.490   2.267   3.837
 2395SOL    HW1 8084   1.401   2.310   3.845
 2395SOL    HW2 8085   1.485   2.191   3.772
 2396SOL     OW 8086   0.155   0.455   6.129
 2396SOL    HW1 8087   0.249   0.490   6.130
 2396SOL    HW2 8088   0.092   0.531   6.144
 2397SOL     OW 8089   2.196   4.461   6.156
 2397SOL    HW1 8090   2.100   4.454   6.130
 2397SOL    HW2 8091   2.253   4.418   6.086
 2398SOL     OW 8092   4.020   6.048   4.683
 2398SOL    HW1 8093   4.046   5.967   4.632
 2398SOL    HW2 8094   3.922   6.048   4.701
 2399SOL     OW 8095   3.282   1.624   2.412
 2399SOL    HW1 8096   3.219   1.547   2.417
 2399SOL    HW2 8097   3.328   1.625   2.324
 2400SOL     OW 8098   1.033   2.342   6.725
 2400SOL    HW1 8099   0.941   2.303   6.737
 2400SOL    HW2 8100   1.044   2.421   6.785
 2401SOL     OW 8101   1.307   6.614   0.954
 2401SOL    HW1 8102   1.210   6.616   0.934
 2401SOL    HW2 8103   1.327   6.675   1.031
 2402SOL     OW 8104   0.781   3.081   1.931
 2402SOL    HW1 8105   0.732   3.094   1.844
 2402SOL    HW2 8106   0.746   3.000   1.977
 2403SOL     OW 8107   3.093   4.498   5.295
 2403SOL    HW1 8108   3.026   4.536   5.232
 2403SOL    HW2 8109   3.167   4.564   5.308
 2404SOL     OW 8110   6.451   2.073   1.951
 2404SOL    HW1 8111   6.412   2.081   1.859
 2404SOL    HW2 8112   6.385   2.026   2.011
 2405SOL     OW 8113   2.069   2.979   0.361
 2405SOL    HW1 8114   2.084   2.996   0.263
 2405SOL    HW2 8115   1.971   2.979   0.380
 2406SOL     OW 8116   4.135   5.816   5.038
 2406SOL    HW1 8117   4.211   5.847   4.980
 2406SOL    HW2 8118   4.171   5.755   5.109
 2407SOL     OW 8119   2.106   1.721   3.364
 2407SOL    HW1 8120   2.044   1.681   3.297
 2407SOL    HW2 8121   2.167   1.786   3.319
 2408SOL     OW 8122   4.666   6.782   4.893
 2408SOL    HW1 8123   4.584   6.731   4.920
 2408SOL    HW2 8124   4.747   6.737   4.930
 2409SOL     OW 8125   1.112   2.979   6.587
 2409SOL    HW1 8126   1.031   3.034   6.566
 2409SOL    HW2 8127   1.175   2.980   6.509
 2410SOL     OW 8128   6.821   3.664   4.428
 2410SOL    HW1 8129   6.906   3.669   4.377
 2410SOL    HW2 8130   6.744   3.653   4.365
 2411SOL     OW 8131   3.116   1.396   0.772
 2411SOL    HW1 8132   3.161   1.352   0.695
 2411SOL    HW2 8133   3.158   1.486   0.788
 2412SOL     OW 8134   3.303   2.245   6.933
 2412SOL    HW1 8135   3.252   2.331   6.942
 2412SOL    HW2 8136   3.322   2.207   7.023
 2413SOL     OW 8137   6.724   3.933   6.354
 2413SOL    HW1 8138   6.742   3.844   6.395
 2413SOL    HW2 8139   6.754   3.932   6.258
 2414SOL     OW 8140   6.435   1.674   4.829
 2414SOL    HW1 8141   6.469   1.691   4.922
 2414SOL    HW2 8142   6.504   1.703   4.763
 2415SOL     OW 8143   3.295   4.108   5.584
 2415SOL    HW1 8144   3.246   4.091   5.670
 2415SOL    HW2 8145   3.245   4.175   5.530
 2416SOL     OW 8146   7.019   3.708   3.709
 2416SOL    HW1 8147   6.964   3.760   3.774
 2416SOL    HW2 8148   0.087   3.715   3.733
 2417SOL     OW 8149   3.597   2.559   1.740
 2417SOL    HW1 8150   3.525   2.542   1.673
 2417SOL    HW2 8151   3.633   2.472   1.774
 2418SOL     OW 8152   6.314   3.416   6.472
 2418SOL    HW1 8153   6.309   3.448   6.566
 2418SOL    HW2 8154   6.287   3.320   6.467
 2419SOL     OW 8155   3.626   1.046   2.808
 2419SOL    HW1 8156   3.624   1.135   2.760
 2419SOL    HW2 8157   3.720   1.026   2.836
 2420SOL     OW 8158   0.985   3.111   1.589
 2420SOL    HW1 8159   0.999   3.026   1.540
 2420SOL    HW2 8160   1.058   3.175   1.566
 2421SOL     OW 8161   2.384   0.313   2.956
 2421SOL    HW1 8162   2.441   0.366   3.019
 2421SOL    HW2 8163   2.432   0.304   2.868
 2422SOL     OW 8164   3.407   6.865   0.373
 2422SOL    HW1 8165   3.468   6.829   0.302
 2422SOL    HW2 8166   3.440   6.954   0.404
 2423SOL     OW 8167   4.220   5.008   4.789
 2423SOL    HW1 8168   4.286   5.028   4.861
 2423SOL    HW2 8169   4.130   5.043   4.815
 2424SOL     OW 8170   5.418   0.397   6.056
 2424SOL    HW1 8171   5.360   0.382   5.976
 2424SOL    HW2 8172   5.419   0.315   6.113
 2425SOL     OW 8173   4.586   5.333   5.245
 2425SOL    HW1 8174   4.649   5.286   5.307
 2425SOL    HW2 8175   4.497   5.344   5.290
 2426SOL     OW 8176   2.894   2.314   5.621
 2426SOL    HW1 8177   2.822   2.282   5.559
 2426SOL    HW2 8178   2.973   2.345   5.568
 2427SOL     OW 8179   4.357   1.889   6.965
 2427SOL    HW1 8180   4.379   1.987   6.974
 2427SOL    HW2 8181   4.277   1.868   7.021
 2428SOL     OW 8182   1.745   1.911   2.395
 2428SOL    HW1 8183   1.809   1.910   2.318
 2428SOL    HW2 8184   1.690   1.994   2.392
 2429SOL     OW 8185   5.024   5.918   1.618
 2429SOL    HW1 8186   4.959   5.909   1.693
 2429SOL    HW2 8187   5.077   6.002   1.629
 2430SOL     OW 8188   6.676   0.261   0.077
 2430SOL    HW1 8189   6.652   0.257   7.008
 2430SOL    HW2 8190   6.766   0.304   0.087
 2431SOL     OW 8191   1.750   2.429   1.488
 2431SOL    HW1 8192   1.771   2.448   1.392
 2431SOL    HW2 8193   1.814   2.361   1.523
 2432SOL     OW 8194   3.261   6.256   2.329
 2432SOL    HW1 8195   3.339   6.241   2.391
 2432SOL    HW2 8196   3.192   6.310   2.376
 2433SOL     OW 8197   0.646   4.601   4.368
 2433SOL    HW1 8198   0.668   4.581   4.272
 2433SOL    HW2 8199   0.694   4.536   4.427
 2434SOL     OW 8200   4.008   1.593   2.768
 2434SOL    HW1 8201   4.060   1.657   2.711
 2434SOL    HW2 8202   3.934   1.642   2.814
 2435SOL     OW 8203   5.490   6.981   6.378
 2435SOL    HW1 8204   5.587   7.004   6.391
 2435SOL    HW2 8205   5.451   6.953   6.466
 2436SOL     OW 8206   0.143   2.714   0.469
 2436SOL    HW1 8207   0.155   2.669   0.557
 2436SOL    HW2 8208   0.165   2.649   0.396
 2437SOL     OW 8209   1.167   4.600   1.522
 2437SOL    HW1 8210   1.070   4.626   1.530
 2437SOL    HW2 8211   1.174   4.501   1.508
 2438SOL     OW 8212   3.718   1.905   4.285
 2438SOL    HW1 8213   3.725   1.956   4.199
 2438SOL    HW2 8214   3.667   1.960   4.351
 2439SOL     OW 8215   0.630   5.836   0.208
 2439SOL    HW1 8216   0.588   5.780   0.279
 2439SOL    HW2 8217   0.681   5.777   0.145
 2440SOL     OW 8218   6.442   2.594   5.250
 2440SOL    HW1 8219   6.367   2.617   5.313
 2440SOL    HW2 8220   6.404   2.570   5.161
 2441SOL     OW 8221   6.567   0.527   0.234
 2441SOL    HW1 8222   6.486   0.519   0.291
 2441SOL    HW2 8223   6.641   0.471   0.273
 2442SOL     OW 8224   5.593   3.159   2.529
 2442SOL    HW1 8225   5.603   3.179   2.627
 2442SOL    HW2 8226   5.619   3.064   2.512
 2443SOL     OW 8227   0.335   2.960   1.206
 2443SOL    HW1 8228   0.355   2.947   1.109
 2443SOL    HW2 8229   0.236   2.965   1.219
 2444SOL     OW 8230   3.497   4.999   2.729
 2444SOL    HW1 8231   3.473   5.074   2.667
 2444SOL    HW2 8232   3.570   4.944   2.690
 2445SOL     OW 8233   0.633   2.007   1.234
 2445SOL    HW1 8234   0.595   1.983   1.324
 2445SOL    HW2 8235   0.706   1.943   1.211
 2446SOL     OW 8236   6.395   5.724   0.985
 2446SOL    HW1 8237   6.462   5.798   0.980
 2446SOL    HW2 8238   6.407   5.662   0.907
 2447SOL     OW 8239   2.172   6.730   0.354
 2447SOL    HW1 8240   2.098   6.779   0.401
 2447SOL    HW2 8241   2.258   6.778   0.368
 2448SOL     OW 8242   5.791   0.773   4.154
 2448SOL    HW1 8243   5.714   0.815   4.201
 2448SOL    HW2 8244   5.758   0.717   4.078
 2449SOL     OW 8245   2.070   4.022   1.188
 2449SOL    HW1 8246   2.164   4.006   1.218
 2449SOL    HW2 8247   2.017   3.938   1.199
 2450SOL     OW 8248   6.808   6.658   5.254
 2450SOL    HW1 8249   6.851   6.586   5.199
 2450SOL    HW2 8250   6.876   6.729   5.275
 2451SOL     OW 8251   1.304   6.547   6.904
 2451SOL    HW1 8252   1.356   6.584   6.980
 2451SOL    HW2 8253   1.363   6.536   6.825
 2452SOL     OW 8254   2.141   2.108   3.531
 2452SOL    HW1 8255   2.224   2.096   3.477
 2452SOL    HW2 8256   2.119   2.206   3.536
 2453SOL     OW 8257   1.494   1.938   6.310
 2453SOL    HW1 8258   1.432   2.017   6.319
 2453SOL    HW2 8259   1.563   1.957   6.241
 2454SOL     OW 8260   2.296   6.640   6.908
 2454SOL    HW1 8261   2.246   6.558   6.938
 2454SOL    HW2 8262   2.336   6.623   6.817
 2455SOL     OW 8263   4.920   2.320   0.325
 2455SOL    HW1 8264   4.972   2.242   0.288
 2455SOL    HW2 8265   4.976   2.369   0.392
 2456SOL     OW 8266   0.535   3.016   6.324
 2456SOL    HW1 8267   0.624   3.049   6.292
 2456SOL    HW2 8268   0.535   3.015   6.424
 2457SOL     OW 8269   5.109   1.613   6.030
 2457SOL    HW1 8270   5.016   1.593   6.001
 2457SOL    HW2 8271   5.128   1.567   6.117
 2458SOL     OW 8272   1.121   0.175   2.124
 2458SOL    HW1 8273   1.096   0.152   2.030
 2458SOL    HW2 8274   1.073   0.258   2.152
 2459SOL     OW 8275   1.561   6.276   1.585
 2459SOL    HW1 8276   1.528   6.184   1.605
 2459SOL    HW2 8277   1.618   6.308   1.661
 2460SOL     OW 8278   0.102   0.356   4.015
 2460SOL    HW1 8279   0.070   0.323   4.104
 2460SOL    HW2 8280   0.118   0.455   4.019
 2461SOL     OW 8281   2.434   1.195   3.299
 2461SOL    HW1 8282   2.451   1.228   3.206
 2461SOL    HW2 8283   2.409   1.271   3.358
 2462SOL     OW 8284   0.115   6.350   0.999
 2462SOL    HW1 8285   0.050   6.283   0.964
 2462SOL    HW2 8286   0.075   6.442   0.993
 2463SOL     OW 8287   6.979   6.922   0.813
 2463SOL    HW1 8288   6.890   6.881   0.831
 2463SOL    HW2 8289   0.014   6.897   0.886
 2464SOL     OW 8290   0.750   2.424   5.092
 2464SOL    HW1 8291   0.673   2.462   5.041
 2464SOL    HW2 8292   0.833   2.477   5.073
 2465SOL     OW 8293   6.283   1.537   0.236
 2465SOL    HW1 8294   6.381   1.530   0.219
 2465SOL    HW2 8295   6.240   1.591   0.163
 2466SOL     OW 8296   0.899   2.223   1.230
 2466SOL    HW1 8297   0.982   2.228   1.176
 2466SOL    HW2 8298   0.820   2.243   1.172
 2467SOL     OW 8299   5.366   2.138   5.390
 2467SOL    HW1 8300   5.386   2.070   5.460
 2467SOL    HW2 8301   5.278   2.117   5.347
 2468SOL     OW 8302   2.960   0.142   4.924
 2468SOL    HW1 8303   2.939   0.044   4.916
 2468SOL    HW2 8304   3.041   0.153   4.981
 2469SOL     OW 8305   2.949   2.111   6.252
 2469SOL    HW1 8306   2.943   2.084   6.156
 2469SOL    HW2 8307   2.982   2.034   6.307
 2470SOL     OW 8308   2.060   5.192   6.478
 2470SOL    HW1 8309   1.970   5.234   6.471
 2470SOL    HW2 8310   2.059   5.102   6.434
 2471SOL     OW 8311   3.275   5.588   3.002
 2471SOL    HW1 8312   3.310   5.496   3.019
 2471SOL    HW2 8313   3.214   5.615   3.077
 2472SOL     OW 8314   4.843   1.290   3.149
 2472SOL    HW1 8315   4.830   1.268   3.246
 2472SOL    HW2 8316   4.939   1.312   3.132
 2473SOL     OW 8317   0.897   4.089   4.620
 2473SOL    HW1 8318   0.826   4.023   4.594
 2473SOL    HW2 8319   0.984   4.042   4.634
 2474SOL     OW 8320   1.738   6.598   0.942
 2474SOL    HW1 8321   1.748   6.675   0.879
 2474SOL    HW2 8322   1.662   6.616   1.004
 2475SOL     OW 8323   5.628   1.843   1.028
 2475SOL    HW1 8324   5.602   1.751   1.061
 2475SOL    HW2 8325   5.547   1.888   0.991
 2476SOL     OW 8326   4.653   0.163   6.773
 2476SOL    HW1 8327   4.687   0.250   6.809
 2476SOL    HW2 8328   4.708   0.137   6.693
 2477SOL     OW 8329   3.675   1.309   3.557
 2477SOL    HW1 8330   3.708   1.338   3.647
 2477SOL    HW2 8331   3.583   1.344   3.542
 2478SOL     OW 8332   3.477   0.590   4.117
 2478SOL    HW1 8333   3.551   0.631   4.170
 2478SOL    HW2 8334   3.396   0.580   4.176
 2479SOL     OW 8335   5.682   4.330   1.491
 2479SOL    HW1 8336   5.611   4.331   1.422
 2479SOL    HW2 8337   5.743   4.409   1.478
 2480SOL     OW 8338   3.054   2.315   1.489
 2480SOL    HW1 8339   3.119   2.329   1.564
 2480SOL    HW2 8340   2.963   2.345   1.519
 2481SOL     OW 8341   3.272   6.829   1.982
 2481SOL    HW1 8342   3.208   6.820   1.905
 2481SOL    HW2 8343   3.363   6.801   1.952
 2482SOL     OW 8344   6.868   2.918   0.013
 2482SOL    HW1 8345   6.926   2.860   0.070
 2482SOL    HW2 8346   6.800   2.861   6.996
 2483SOL     OW 8347   2.434   2.383   1.624
 2483SOL    HW1 8348   2.352   2.387   1.680
 2483SOL    HW2 8349   2.483   2.297   1.642
 2484SOL     OW 8350   4.255   0.309   6.486
 2484SOL    HW1 8351   4.260   0.387   6.423
 2484SOL    HW2 8352   4.199   0.333   6.565
 2485SOL     OW 8353   0.201   1.397   6.414
 2485SOL    HW1 8354   0.197   1.299   6.432
 2485SOL    HW2 8355   0.296   1.427   6.415
 2486SOL     OW 8356   6.674   5.933   3.562
 2486SOL    HW1 8357   6.709   6.017   3.521
 2486SOL    HW2 8358   6.682   5.858   3.496
 2487SOL     OW 8359   4.351   6.436   0.238
 2487SOL    HW1 8360   4.360   6.480   0.149
 2487SOL    HW2 8361   4.437   6.391   0.262
 2488SOL     OW 8362   0.074   3.941   0.916
 2488SOL    HW1 8363   0.152   3.980   0.966
 2488SOL    HW2 8364   7.024   4.002   0.924
 2489SOL     OW 8365   6.175   5.286   4.420
 2489SOL    HW1 8366   6.122   5.309   4.337
 2489SOL    HW2 8367   6.152   5.350   4.493
 2490SOL     OW 8368   2.609   5.837   1.811
 2490SOL    HW1 8369   2.576   5.757   1.861
 2490SOL    HW2 8370   2.552   5.916   1.833
 2491SOL     OW 8371   3.939   4.655   1.742
 2491SOL    HW1 8372   4.003   4.688   1.674
 2491SOL    HW2 8373   3.924   4.557   1.730
 2492SOL     OW 8374   6.885   5.872   1.284
 2492SOL    HW1 8375   6.930   5.824   1.359
 2492SOL    HW2 8376   6.795   5.832   1.267
 2493SOL     OW 8377   5.918   6.570   0.715
 2493SOL    HW1 8378   5.946   6.490   0.661
 2493SOL    HW2 8379   5.963   6.566   0.804
 2494SOL     OW 8380   6.880   4.108   0.924
 2494SOL    HW1 8381   6.885   4.133   1.021
 2494SOL    HW2 8382   6.841   4.185   0.872
 2495SOL     OW 8383   6.702   3.470   1.992
 2495SOL    HW1 8384   6.778   3.528   2.022
 2495SOL    HW2 8385   6.696   3.472   1.892
 2496SOL     OW 8386   6.050   4.000   6.155
 2496SOL    HW1 8387   6.102   3.994   6.240
 2496SOL    HW2 8388   6.068   3.919   6.099
 2497SOL     OW 8389   0.533   7.007   3.416
 2497SOL    HW1 8390   0.505   0.003   3.509
 2497SOL    HW2 8391   0.611   6.944   3.420
 2498SOL     OW 8392   2.047   3.223   4.612
 2498SOL    HW1 8393   2.100   3.252   4.532
 2498SOL    HW2 8394   1.962   3.274   4.616
 2499SOL     OW 8395   6.113   3.701   2.313
 2499SOL    HW1 8396   6.079   3.618   2.269
 2499SOL    HW2 8397   6.108   3.691   2.413
 2500SOL     OW 8398   3.653   3.241   2.203
 2500SOL    HW1 8399   3.599   3.321   2.176
 2500SOL    HW2 8400   3.593   3.170   2.239
 2501SOL     OW 8401   6.180   5.573   5.111
 2501SOL    HW1 8402   6.240   5.574   5.031
 2501SOL    HW2 8403   6.228   5.616   5.188
 2502SOL     OW 8404   2.787   5.474   3.887
 2502SOL    HW1 8405   2.859   5.518   3.832
 2502SOL    HW2 8406   2.705   5.532   3.886
 2503SOL     OW 8407   2.459   0.344   5.423
 2503SOL    HW1 8408   2.475   0.342   5.324
 2503SOL    HW2 8409   2.453   0.251   5.458
 2504SOL     OW 8410   4.050   0.327   3.355
 2504SOL    HW1 8411   4.143   0.345   3.386
 2504SOL    HW2 8412   3.986   0.342   3.431
 2505SOL     OW 8413   5.783   4.680   4.267
 2505SOL    HW1 8414   5.684   4.678   4.250
 2505SOL    HW2 8415   5.823   4.759   4.221
 2506SOL     OW 8416   6.332   5.270   6.524
 2506SOL    HW1 8417   6.265   5.279   6.451
 2506SOL    HW2 8418   6.417   5.316   6.498
 2507SOL     OW 8419   6.277   3.315   3.199
 2507SOL    HW1 8420   6.208   3.249   3.169
 2507SOL    HW2 8421   6.246   3.408   3.177
 2508SOL     OW 8422   6.296   0.950   3.987
 2508SOL    HW1 8423   6.345   1.002   4.057
 2508SOL    HW2 8424   6.216   0.906   4.028
 2509SOL     OW 8425   0.039   2.817   6.245
 2509SOL    HW1 8426   0.039   2.748   6.317
 2509SOL    HW2 8427   0.132   2.851   6.232
 2510SOL     OW 8428   3.798   4.033   2.308
 2510SOL    HW1 8429   3.833   4.004   2.397
 2510SOL    HW2 8430   3.827   3.967   2.238
 2511SOL     OW 8431   2.377   1.030   4.443
 2511SOL    HW1 8432   2.296   1.057   4.392
 2511SOL    HW2 8433   2.356   1.030   4.541
 2512SOL     OW 8434   3.727   5.094   3.898
 2512SOL    HW1 8435   3.680   5.072   3.984
 2512SOL    HW2 8436   3.692   5.037   3.824
 2513SOL     OW 8437   2.113   5.647   6.627
 2513SOL    HW1 8438   2.081   5.741   6.637
 2513SOL    HW2 8439   2.211   5.647   6.610
 2514SOL     OW 8440   1.751   2.123   2.868
 2514SOL    HW1 8441   1.824   2.177   2.909
 2514SOL    HW2 8442   1.742   2.145   2.771
 2515SOL     OW 8443   6.995   1.946   0.970
 2515SOL    HW1 8444   6.897   1.962   0.983
 2515SOL    HW2 8445   0.018   2.005   1.031
 2516SOL     OW 8446   6.331   2.511   4.970
 2516SOL    HW1 8447   6.266   2.446   4.930
 2516SOL    HW2 8448   6.347   2.585   4.905
 2517SOL     OW 8449   0.043   1.318   4.387
 2517SOL    HW1 8450   0.063   1.247   4.319
 2517SOL    HW2 8451   0.128   1.344   4.434
 2518SOL     OW 8452   2.731   3.886   1.264
 2518SOL    HW1 8453   2.740   3.834   1.179
 2518SOL    HW2 8454   2.810   3.867   1.322
 2519SOL     OW 8455   0.769   1.074   0.893
 2519SOL    HW1 8456   0.824   1.087   0.976
 2519SOL    HW2 8457   0.755   1.162   0.848
 2520SOL     OW 8458   2.700   2.917   0.847
 2520SOL    HW1 8459   2.734   3.001   0.804
 2520SOL    HW2 8460   2.619   2.885   0.798
 2521SOL     OW 8461   4.844   0.185   5.250
 2521SOL    HW1 8462   4.869   0.268   5.200
 2521SOL    HW2 8463   4.751   0.194   5.287
 2522SOL     OW 8464   1.507   1.991   0.033
 2522SOL    HW1 8465   1.582   1.945   7.014
 2522SOL    HW2 8466   1.467   2.060   7.001
 2523SOL     OW 8467   0.961   5.599   5.773
 2523SOL    HW1 8468   0.999   5.532   5.710
 2523SOL    HW2 8469   1.005   5.688   5.759
 2524SOL     OW 8470   1.042   1.990   4.937
 2524SOL    HW1 8471   0.972   2.046   4.982
 2524SOL    HW2 8472   1.032   1.895   4.965
 2525SOL     OW 8473   6.419   2.560   6.072
 2525SOL    HW1 8474   6.496   2.622   6.054
 2525SOL    HW2 8475   6.402   2.555   6.170
 2526SOL     OW 8476   1.541   0.681   0.783
 2526SOL    HW1 8477   1.444   0.700   0.800
 2526SOL    HW2 8478   1.590   0.766   0.768
 2527SOL     OW 8479   3.820   5.001   6.844
 2527SOL    HW1 8480   3.758   5.002   6.923
 2527SOL    HW2 8481   3.836   4.907   6.816
 2528SOL     OW 8482   4.705   5.484   6.319
 2528SOL    HW1 8483   4.794   5.514   6.284
 2528SOL    HW2 8484   4.715   5.396   6.365
 2529SOL     OW 8485   0.711   6.401   5.602
 2529SOL    HW1 8486   0.679   6.315   5.643
 2529SOL    HW2 8487   0.638   6.469   5.608
 2530SOL     OW 8488   2.657   6.170   6.928
 2530SOL    HW1 8489   2.589   6.223   6.978
 2530SOL    HW2 8490   2.698   6.102   6.988
 2531SOL     OW 8491   0.363   4.741   6.215
 2531SOL    HW1 8492   0.427   4.669   6.242
 2531SOL    HW2 8493   0.271   4.718   6.248
 2532SOL     OW 8494   5.691   5.503   2.003
 2532SOL    HW1 8495   5.603   5.505   1.957
 2532SOL    HW2 8496   5.756   5.450   1.949
 2533SOL     OW 8497   4.382   0.831   3.965
 2533SOL    HW1 8498   4.459   0.893   3.948
 2533SOL    HW2 8499   4.296   0.880   3.951
 2534SOL     OW 8500   4.294   1.535   2.554
 2534SOL    HW1 8501   4.276   1.622   2.600
 2534SOL    HW2 8502   4.241   1.530   2.470
 2535SOL     OW 8503   3.900   2.969   6.242
 2535SOL    HW1 8504   3.883   3.052   6.188
 2535SOL    HW2 8505   3.990   2.932   6.219
 2536SOL     OW 8506   1.389   0.315   0.685
 2536SOL    HW1 8507   1.344   0.344   0.769
 2536SOL    HW2 8508   1.443   0.390   0.648
 2537SOL     OW 8509   3.848   6.491   5.339
 2537SOL    HW1 8510   3.887   6.540   5.261
 2537SOL    HW2 8511   3.822   6.399   5.310
 2538SOL     OW 8512   5.932   3.758   3.734
 2538SOL    HW1 8513   5.954   3.833   3.796
 2538SOL    HW2 8514   5.984   3.769   3.649
 2539SOL     OW 8515   4.796   2.313   5.325
 2539SOL    HW1 8516   4.767   2.316   5.229
 2539SOL    HW2 8517   4.851   2.230   5.340
 2540SOL     OW 8518   2.751   2.152   1.623
 2540SOL    HW1 8519   2.738   2.242   1.581
 2540SOL    HW2 8520   2.757   2.082   1.552
 2541SOL     OW 8521   3.498   6.737   3.522
 2541SOL    HW1 8522   3.459   6.680   3.595
 2541SOL    HW2 8523   3.470   6.832   3.535
 2542SOL     OW 8524   1.931   5.815   5.893
 2542SOL    HW1 8525   1.880   5.743   5.846
 2542SOL    HW2 8526   1.939   5.895   5.834
 2543SOL     OW 8527   0.357   1.028   4.102
 2543SOL    HW1 8528   0.367   0.928   4.101
 2543SOL    HW2 8529   0.406   1.067   4.024
 2544SOL     OW 8530   0.723   5.319   6.022
 2544SOL    HW1 8531   0.696   5.358   6.110
 2544SOL    HW2 8532   0.723   5.392   5.953
 2545SOL     OW 8533   2.516   5.664   3.382
 2545SOL    HW1 8534   2.489   5.671   3.478
 2545SOL    HW2 8535   2.536   5.568   3.360
 2546SOL     OW 8536   6.993   0.690   1.629
 2546SOL    HW1 8537   6.996   0.595   1.597
 2546SOL    HW2 8538   6.973   0.691   1.727
 2547SOL     OW 8539   0.543   3.607   5.241
 2547SOL    HW1 8540   0.532   3.513   5.208
 2547SOL    HW2 8541   0.493   3.618   5.327
 2548SOL     OW 8542   0.418   0.596   6.162
 2548SOL    HW1 8543   0.490   0.534   6.192
 2548SOL    HW2 8544   0.414   0.598   6.062
 2549SOL     OW 8545   5.676   2.718   2.322
 2549SOL    HW1 8546   5.631   2.778   2.257
 2549SOL    HW2 8547   5.713   2.638   2.275
 2550SOL     OW 8548   5.580   5.280   6.863
 2550SOL    HW1 8549   5.503   5.257   6.803
 2550SOL    HW2 8550   5.546   5.296   6.956
 2551SOL     OW 8551   1.056   5.161   6.684
 2551SOL    HW1 8552   1.005   5.101   6.622
 2551SOL    HW2 8553   1.047   5.128   6.778
 2552SOL     OW 8554   1.590   5.659   3.546
 2552SOL    HW1 8555   1.526   5.588   3.516
 2552SOL    HW2 8556   1.679   5.643   3.505
 2553SOL     OW 8557   4.135   3.572   0.089
 2553SOL    HW1 8558   4.075   3.527   0.154
 2553SOL    HW2 8559   4.115   3.539   7.025
 2554SOL     OW 8560   1.088   2.019   0.680
 2554SOL    HW1 8561   1.037   1.951   0.733
 2554SOL    HW2 8562   1.028   2.056   0.608
 2555SOL     OW 8563   0.233   0.148   6.226
 2555SOL    HW1 8564   0.254   0.123   6.131
 2555SOL    HW2 8565   0.210   0.245   6.230
 2556SOL     OW 8566   4.020   4.934   0.335
 2556SOL    HW1 8567   4.078   4.934   0.417
 2556SOL    HW2 8568   4.002   4.840   0.307
 2557SOL     OW 8569   1.730   4.708   0.116
 2557SOL    HW1 8570   1.776   4.774   0.056
 2557SOL    HW2 8571   1.765   4.719   0.209
 2558SOL     OW 8572   4.150   0.734   5.208
 2558SOL    HW1 8573   4.174   0.643   5.241
 2558SOL    HW2 8574   4.083   0.775   5.269
 2559SOL     OW 8575   0.601   5.120   5.255
 2559SOL    HW1 8576   0.667   5.190   5.282
 2559SOL    HW2 8577   0.508   5.155   5.268
 2560SOL     OW 8578   6.093   0.835   0.656
 2560SOL    HW1 8579   6.101   0.923   0.610
 2560SOL    HW2 8580   6.026   0.778   0.607
 2561SOL     OW 8581   3.041   5.637   4.096
 2561SOL    HW1 8582   3.124   5.693   4.102
 2561SOL    HW2 8583   3.064   5.547   4.059
 2562SOL     OW 8584   2.005   3.821   0.265
 2562SOL    HW1 8585   1.946   3.894   0.232
 2562SOL    HW2 8586   1.981   3.799   0.360
 2563SOL     OW 8587   1.581   0.236   1.630
 2563SOL    HW1 8588   1.597   0.198   1.540
 2563SOL    HW2 8589   1.482   0.248   1.645
 2564SOL     OW 8590   1.540   6.387   2.596
 2564SOL    HW1 8591   1.545   6.416   2.501
 2564SOL    HW2 8592   1.497   6.459   2.651
 2565SOL     OW 8593   0.612   0.683   1.680
 2565SOL    HW1 8594   0.617   0.605   1.742
 2565SOL    HW2 8595   0.560   0.757   1.722
 2566SOL     OW 8596   2.277   6.867   5.346
 2566SOL    HW1 8597   2.208   6.840   5.413
 2566SOL    HW2 8598   2.255   6.828   5.257
 2567SOL     OW 8599   0.768   0.486   0.978
 2567SOL    HW1 8600   0.831   0.521   0.909
 2567SOL    HW2 8601   0.718   0.562   1.020
 2568SOL     OW 8602   5.288   3.605   0.254
 2568SOL    HW1 8603   5.349   3.535   0.291
 2568SOL    HW2 8604   5.246   3.656   0.330
 2569SOL     OW 8605   2.297   0.605   2.552
 2569SOL    HW1 8606   2.340   0.695   2.544
 2569SOL    HW2 8607   2.368   0.534   2.547
 2570SOL     OW 8608   5.684   2.469   5.968
 2570SOL    HW1 8609   5.623   2.548   5.960
 2570SOL    HW2 8610   5.661   2.418   6.050
 2571SOL     OW 8611   1.171   4.028   4.659
 2571SOL    HW1 8612   1.176   4.020   4.759
 2571SOL    HW2 8613   1.232   4.100   4.628
 2572SOL     OW 8614   1.581   4.563   3.649
 2572SOL    HW1 8615   1.483   4.564   3.632
 2572SOL    HW2 8616   1.616   4.657   3.645
 2573SOL     OW 8617   1.657   6.881   6.999
 2573SOL    HW1 8618   1.655   6.814   0.044
 2573SOL    HW2 8619   1.729   6.948   7.017
 2574SOL     OW 8620   6.637   3.698   0.387
 2574SOL    HW1 8621   6.731   3.675   0.412
 2574SOL    HW2 8622   6.591   3.738   0.467
 2575SOL     OW 8623   0.687   6.524   6.328
 2575SOL    HW1 8624   0.673   6.517   6.426
 2575SOL    HW2 8625   0.770   6.576   6.310
 2576SOL     OW 8626   4.415   6.635   5.174
 2576SOL    HW1 8627   4.352   6.711   5.185
 2576SOL    HW2 8628   4.382   6.555   5.224
 2577SOL     OW 8629   1.555   3.619   2.634
 2577SOL    HW1 8630   1.636   3.592   2.686
 2577SOL    HW2 8631   1.567   3.711   2.597
 2578SOL     OW 8632   4.220   1.774   2.017
 2578SOL    HW1 8633   4.291   1.714   2.053
 2578SOL    HW2 8634   4.211   1.854   2.076
 2579SOL     OW 8635   0.199   5.980   2.920
 2579SOL    HW1 8636   0.246   5.933   2.845
 2579SOL    HW2 8637   0.224   5.939   3.007
 2580SOL     OW 8638   2.873   1.700   5.641
 2580SOL    HW1 8639   2.856   1.758   5.721
 2580SOL    HW2 8640   2.855   1.753   5.557
 2581SOL     OW 8641   3.090   0.461   5.690
 2581SOL    HW1 8642   3.108   0.399   5.766
 2581SOL    HW2 8643   3.123   0.552   5.713
 2582SOL     OW 8644   0.094   3.705   0.758
 2582SOL    HW1 8645   0.023   3.635   0.762
 2582SOL    HW2 8646   0.061   3.788   0.803
 2583SOL     OW 8647   5.262   0.425   0.908
 2583SOL    HW1 8648   5.306   0.473   0.832
 2583SOL    HW2 8649   5.218   0.342   0.873
 2584SOL     OW 8650   3.637   4.230   6.539
 2584SOL    HW1 8651   3.732   4.261   6.536
 2584SOL    HW2 8652   3.576   4.309   6.551
 2585SOL     OW 8653   2.520   5.269   0.245
 2585SOL    HW1 8654   2.569   5.335   0.303
 2585SOL    HW2 8655   2.439   5.236   0.294
 2586SOL     OW 8656   2.527   1.237   3.736
 2586SOL    HW1 8657   2.508   1.140   3.752
 2586SOL    HW2 8658   2.445   1.280   3.698
 2587SOL     OW 8659   5.973   1.156   4.639
 2587SOL    HW1 8660   6.057   1.151   4.694
 2587SOL    HW2 8661   5.931   1.065   4.633
 2588SOL     OW 8662   4.433   0.934   6.806
 2588SOL    HW1 8663   4.391   0.891   6.886
 2588SOL    HW2 8664   4.384   1.019   6.785
 2589SOL     OW 8665   2.140   6.083   0.276
 2589SOL    HW1 8666   2.131   6.148   0.351
 2589SOL    HW2 8667   2.051   6.046   0.253
 2590SOL     OW 8668   2.299   5.199   0.377
 2590SOL    HW1 8669   2.236   5.276   0.364
 2590SOL    HW2 8670   2.313   5.183   0.474
 2591SOL     OW 8671   5.030   6.245   3.121
 2591SOL    HW1 8672   4.998   6.281   3.209
 2591SOL    HW2 8673   5.026   6.318   3.052
 2592SOL     OW 8674   3.157   3.414   0.720
 2592SOL    HW1 8675   3.173   3.438   0.816
 2592SOL    HW2 8676   3.125   3.320   0.714
 2593SOL     OW 8677   3.460   4.599   6.978
 2593SOL    HW1 8678   3.405   4.663   0.003
 2593SOL    HW2 8679   3.404   4.520   6.953
 2594SOL     OW 8680   2.270   3.035   3.283
 2594SOL    HW1 8681   2.300   2.993   3.369
 2594SOL    HW2 8682   2.316   2.990   3.206
 2595SOL     OW 8683   2.038   1.225   2.879
 2595SOL    HW1 8684   1.968   1.288   2.845
 2595SOL    HW2 8685   2.080   1.178   2.802
 2596SOL     OW 8686   0.155   1.647   0.381
 2596SOL    HW1 8687   0.067   1.610   0.414
 2596SOL    HW2 8688   0.217   1.657   0.459
 2597SOL     OW 8689   6.259   6.388   0.555
 2597SOL    HW1 8690   6.189   6.459   0.569
 2597SOL    HW2 8691   6.233   6.331   0.476
 2598SOL     OW 8692   4.723   2.731   2.112
 2598SOL    HW1 8693   4.812   2.692   2.087
 2598SOL    HW2 8694   4.725   2.830   2.101
 2599SOL     OW 8695   2.481   5.893   2.420
 2599SOL    HW1 8696   2.449   5.810   2.375
 2599SOL    HW2 8697   2.483   5.879   2.519
 2600SOL     OW 8698   5.818   4.682   4.725
 2600SOL    HW1 8699   5.764   4.761   4.697
 2600SOL    HW2 8700   5.808   4.609   4.658
 2601SOL     OW 8701   6.675   1.265   4.339
 2601SOL    HW1 8702   6.597   1.219   4.380
 2601SOL    HW2 8703   6.705   1.340   4.398
 2602SOL     OW 8704   0.784   4.814   2.690
 2602SOL    HW1 8705   0.862   4.753   2.674
 2602SOL    HW2 8706   0.740   4.789   2.776
 2603SOL     OW 8707   1.650   5.848   2.084
 2603SOL    HW1 8708   1.683   5.941   2.069
 2603SOL    HW2 8709   1.673   5.818   2.177
 2604SOL     OW 8710   5.038   3.220   2.891
 2604SOL    HW1 8711   5.136   3.242   2.893
 2604SOL    HW2 8712   5.017   3.168   2.809
 2605SOL     OW 8713   1.360   2.597   1.033
 2605SOL    HW1 8714   1.443   2.586   0.978
 2605SOL    HW2 8715   1.353   2.522   1.098
 2606SOL     OW 8716   5.146   3.923   1.015
 2606SOL    HW1 8717   5.061   3.974   1.004
 2606SOL    HW2 8718   5.125   3.826   1.030
 2607SOL     OW 8719   2.582   2.790   1.751
 2607SOL    HW1 8720   2.629   2.702   1.762
 2607SOL    HW2 8721   2.648   2.864   1.755
 2608SOL     OW 8722   3.178   5.198   4.567
 2608SOL    HW1 8723   3.201   5.113   4.615
 2608SOL    HW2 8724   3.087   5.189   4.527
 2609SOL     OW 8725   0.213   1.795   1.435
 2609SOL    HW1 8726   0.294   1.842   1.470
 2609SOL    HW2 8727   0.223   1.697   1.448
 2610SOL     OW 8728   1.298   4.538   4.764
 2610SOL    HW1 8729   1.203   4.507   4.767
 2610SOL    HW2 8730   1.355   4.475   4.817
 2611SOL     OW 8731   5.777   0.984   5.450
 2611SOL    HW1 8732   5.815   0.897   5.480
 2611SOL    HW2 8733   5.685   0.970   5.415
 2612SOL     OW 8734   6.566   6.594   0.210
 2612SOL    HW1 8735   6.635   6.641   0.266
 2612SOL    HW2 8736   6.611   6.528   0.150
 2613SOL     OW 8737   1.504   6.531   0.459
 2613SOL    HW1 8738   1.587   6.476   0.473
 2613SOL    HW2 8739   1.475   6.572   0.545
 2614SOL     OW 8740   5.490   2.277   0.966
 2614SOL    HW1 8741   5.501   2.198   0.907
 2614SOL    HW2 8742   5.460   2.247   1.057
 2615SOL     OW 8743   1.192   3.404   6.486
 2615SOL    HW1 8744   1.137   3.461   6.547
 2615SOL    HW2 8745   1.134   3.368   6.413
 2616SOL     OW 8746   1.330   1.126   4.612
 2616SOL    HW1 8747   1.426   1.116   4.584
 2616SOL    HW2 8748   1.304   1.049   4.669
 2617SOL     OW 8749   5.339   0.118   0.375
 2617SOL    HW1 8750   5.371   0.199   0.424
 2617SOL    HW2 8751   5.253   0.087   0.415
 2618SOL     OW 8752   1.254   0.693   0.009
 2618SOL    HW1 8753   1.293   0.609   7.000
 2618SOL    HW2 8754   1.247   0.685   0.108
 2619SOL     OW 8755   4.787   1.144   2.741
 2619SOL    HW1 8756   4.789   1.091   2.656
 2619SOL    HW2 8757   4.692   1.169   2.762
 2620SOL     OW 8758   6.086   2.213   2.406
 2620SOL    HW1 8759   6.167   2.264   2.375
 2620SOL    HW2 8760   6.095   2.117   2.381
 2621SOL     OW 8761   2.859   6.169   1.339
 2621SOL    HW1 8762   2.877   6.140   1.245
 2621SOL    HW2 8763   2.925   6.125   1.401
 2622SOL     OW 8764   2.533   3.818   6.794
 2622SOL    HW1 8765   2.524   3.886   6.721
 2622SOL    HW2 8766   2.490   3.733   6.764
 2623SOL     OW 8767   0.070   1.357   3.610
 2623SOL    HW1 8768   7.020   1.396   3.562
 2623SOL    HW2 8769   0.038   1.302   3.687
 2624SOL     OW 8770   1.402   1.922   5.616
 2624SOL    HW1 8771   1.452   1.873   5.545
 2624SOL    HW2 8772   1.453   2.003   5.644
 2625SOL     OW 8773   3.213   5.382   6.043
 2625SOL    HW1 8774   3.236   5.414   6.135
 2625SOL    HW2 8775   3.158   5.299   6.049
 2626SOL     OW 8776   6.889   6.891   0.497
 2626SOL    HW1 8777   6.823   6.955   0.536
 2626SOL    HW2 8778   6.980   6.908   0.535
 2627SOL     OW 8779   1.905   0.433   5.841
 2627SOL    HW1 8780   1.963   0.413   5.761
 2627SOL    HW2 8781   1.931   0.372   5.916
 2628SOL     OW 8782   0.215   5.370   1.388
 2628SOL    HW1 8783   0.229   5.378   1.486
 2628SOL    HW2 8784   0.215   5.461   1.346
 2629SOL     OW 8785   3.060   3.989   2.962
 2629SOL    HW1 8786   3.145   4.010   2.914
 2629SOL    HW2 8787   2.991   4.058   2.941
 2630SOL     OW 8788   3.304   0.657   4.869
 2630SOL    HW1 8789   3.376   0.624   4.809
 2630SOL    HW2 8790   3.266   0.741   4.832
 2631SOL     OW 8791   4.458   6.172   0.565
 2631SOL    HW1 8792   4.411   6.244   0.614
 2631SOL    HW2 8793   4.535   6.139   0.619
 2632SOL     OW 8794   4.990   4.851   1.870
 2632SOL    HW1 8795   4.962   4.825   1.962
 2632SOL    HW2 8796   5.082   4.891   1.873
 2633SOL     OW 8797   0.028   3.000   5.883
 2633SOL    HW1 8798   7.012   3.074   5.934
 2633SOL    HW2 8799   7.000   2.973   5.806
 2634SOL     OW 8800   1.989   2.208   6.193
 2634SOL    HW1 8801   1.991   2.307   6.181
 2634SOL    HW2 8802   1.933   2.186   6.273
 2635SOL     OW 8803   4.028   5.167   3.055
 2635SOL    HW1 8804   4.034   5.182   2.956
 2635SOL    HW2 8805   3.963   5.093   3.073
 2636SOL     OW 8806   3.261   6.470   6.255
 2636SOL    HW1 8807   3.249   6.371   6.259
 2636SOL    HW2 8808   3.262   6.508   6.347
 2637SOL     OW 8809   0.321   1.936   2.992
 2637SOL    HW1 8810   0.341   1.931   3.090
 2637SOL    HW2 8811   0.226   1.911   2.976
 2638SOL     OW 8812   0.710   6.481   4.604
 2638SOL    HW1 8813   0.617   6.516   4.618
 2638SOL    HW2 8814   0.706   6.391   4.561
 2639SOL     OW 8815   4.950   5.389   4.844
 2639SOL    HW1 8816   4.923   5.320   4.776
 2639SOL    HW2 8817   4.924   5.480   4.812
 2640SOL     OW 8818   2.088   1.127   3.204
 2640SOL    HW1 8819   2.142   1.172   3.133
 2640SOL    HW2 8820   2.016   1.188   3.235
 2641SOL     OW 8821   5.375   2.156   0.475
 2641SOL    HW1 8822   5.457   2.106   0.448
 2641SOL    HW2 8823   5.350   2.221   0.402
 2642SOL     OW 8824   0.538   0.317   2.398
 2642SOL    HW1 8825   0.490   0.369   2.328
 2642SOL    HW2 8826   0.474   0.289   2.469
 2643SOL     OW 8827   1.947   4.346   4.242
 2643SOL    HW1 8828   2.031   4.396   4.220
 2643SOL    HW2 8829   1.966   4.248   4.244
 2644SOL     OW 8830   5.565   5.451   3.747
 2644SOL    HW1 8831   5.642   5.490   3.697
 2644SOL    HW2 8832   5.487   5.514   3.743
 2645SOL     OW 8833   4.506   5.946   2.690
 2645SOL    HW1 8834   4.417   5.980   2.660
 2645SOL    HW2 8835   4.517   5.964   2.788
 2646SOL     OW 8836   1.188   1.948   6.225
 2646SOL    HW1 8837   1.246   1.887   6.280
 2646SOL    HW2 8838   1.243   2.024   6.191
 2647SOL     OW 8839   4.212   0.359   2.926
 2647SOL    HW1 8840   4.182   0.332   3.018
 2647SOL    HW2 8841   4.181   0.290   2.860
 2648SOL     OW 8842   1.657   0.542   5.806
 2648SOL    HW1 8843   1.582   0.502   5.860
 2648SOL    HW2 8844   1.738   0.484   5.816
 2649SOL     OW 8845   5.927   2.016   3.738
 2649SOL    HW1 8846   5.936   1.941   3.673
 2649SOL    HW2 8847   6.002   2.012   3.804
 2650SOL     OW 8848   1.986   6.684   4.452
 2650SOL    HW1 8849   1.987   6.585   4.465
 2650SOL    HW2 8850   2.054   6.726   4.512
 2651SOL     OW 8851   3.698   1.685   3.359
 2651SOL    HW1 8852   3.719   1.776   3.394
 2651SOL    HW2 8853   3.778   1.625   3.371
 2652SOL     OW 8854   4.695   3.806   5.523
 2652SOL    HW1 8855   4.632   3.841   5.592
 2652SOL    HW2 8856   4.646   3.746   5.460
 2653SOL     OW 8857   2.106   6.442   6.981
 2653SOL    HW1 8858   2.043   6.512   7.014
 2653SOL    HW2 8859   2.117   6.451   6.882
 2654SOL     OW 8860   7.027   0.624   1.141
 2654SOL    HW1 8861   6.930   0.603   1.129
 2654SOL    HW2 8862   0.041   0.639   1.052
 2655SOL     OW 8863   4.857   6.900   3.198
 2655SOL    HW1 8864   4.935   6.911   3.136
 2655SOL    HW2 8865   4.840   6.803   3.213
 2656SOL     OW 8866   4.741   6.835   4.648
 2656SOL    HW1 8867   4.722   6.788   4.734
 2656SOL    HW2 8868   4.660   6.884   4.617
 2657SOL     OW 8869   1.655   3.092   6.562
 2657SOL    HW1 8870   1.673   2.998   6.591
 2657SOL    HW2 8871   1.729   3.123   6.502
 2658SOL     OW 8872   3.702   4.552   0.380
 2658SOL    HW1 8873   3.796   4.526   0.399
 2658SOL    HW2 8874   3.641   4.507   0.445
 2659SOL     OW 8875   0.413   2.098   5.353
 2659SOL    HW1 8876   0.494   2.135   5.397
 2659SOL    HW2 8877   0.343   2.169   5.346
 2660SOL     OW 8878   1.092   1.395   0.474
 2660SOL    HW1 8879   1.156   1.463   0.509
 2660SOL    HW2 8880   1.136   1.342   0.402
 2661SOL     OW 8881   2.204   0.744   0.981
 2661SOL    HW1 8882   2.107   0.739   0.959
 2661SOL    HW2 8883   2.226   0.676   1.051
 2662SOL     OW 8884   2.613   1.709   1.672
 2662SOL    HW1 8885   2.648   1.775   1.739
 2662SOL    HW2 8886   2.588   1.624   1.720
 2663SOL     OW 8887   3.736   0.729   0.774
 2663SOL    HW1 8888   3.653   0.675   0.759
 2663SOL    HW2 8889   3.711   0.826   0.783
 2664SOL     OW 8890   5.128   3.264   5.965
 2664SOL    HW1 8891   5.069   3.189   5.995
 2664SOL    HW2 8892   5.217   3.227   5.938
 2665SOL     OW 8893   1.356   3.204   4.534
 2665SOL    HW1 8894   1.440   3.195   4.589
 2665SOL    HW2 8895   1.277   3.211   4.595
 2666SOL     OW 8896   1.889   3.799   2.007
 2666SOL    HW1 8897   1.875   3.705   2.040
 2666SOL    HW2 8898   1.971   3.803   1.950
 2667SOL     OW 8899   5.905   2.541   4.730
 2667SOL    HW1 8900   5.952   2.513   4.814
 2667SOL    HW2 8901   5.901   2.641   4.726
 2668SOL     OW 8902   5.635   0.678   4.534
 2668SOL    HW1 8903   5.658   0.673   4.631
 2668SOL    HW2 8904   5.557   0.739   4.521
 2669SOL     OW 8905   2.595   1.329   1.824
 2669SOL    HW1 8906   2.603   1.286   1.734
 2669SOL    HW2 8907   2.672   1.391   1.838
 2670SOL     OW 8908   0.724   0.656   1.413
 2670SOL    HW1 8909   0.676   0.653   1.501
 2670SOL    HW2 8910   0.720   0.566   1.370
 2671SOL     OW 8911   5.747   4.151   5.916
 2671SOL    HW1 8912   5.766   4.054   5.900
 2671SOL    HW2 8913   5.832   4.203   5.914
 2672SOL     OW 8914   2.273   1.745   2.434
 2672SOL    HW1 8915   2.258   1.677   2.362
 2672SOL    HW2 8916   2.371   1.766   2.440
 2673SOL     OW 8917   3.379   0.239   3.098
 2673SOL    HW1 8918   3.427   0.204   3.178
 2673SOL    HW2 8919   3.436   0.228   3.017
 2674SOL     OW 8920   6.094   5.812   3.520
 2674SOL    HW1 8921   6.004   5.817   3.477
 2674SOL    HW2 8922   6.157   5.874   3.473
 2675SOL     OW 8923   4.759   1.189   4.420
 2675SOL    HW1 8924   4.784   1.113   4.360
 2675SOL    HW2 8925   4.659   1.192   4.429
 2676SOL     OW 8926   4.032   3.431   5.330
 2676SOL    HW1 8927   4.046   3.517   5.281
 2676SOL    HW2 8928   4.036   3.355   5.265
 2677SOL     OW 8929   1.436   5.706   0.934
 2677SOL    HW1 8930   1.464   5.769   1.007
 2677SOL    HW2 8931   1.491   5.623   0.938
 2678SOL     OW 8932   3.441   2.020   1.914
 2678SOL    HW1 8933   3.506   2.062   1.977
 2678SOL    HW2 8934   3.490   1.985   1.834
 2679SOL     OW 8935   2.164   3.466   2.464
 2679SOL    HW1 8936   2.143   3.371   2.443
 2679SOL    HW2 8937   2.167   3.519   2.379
 2680SOL     OW 8938   5.726   2.659   6.438
 2680SOL    HW1 8939   5.716   2.695   6.531
 2680SOL    HW2 8940   5.822   2.665   6.411
 2681SOL     OW 8941   2.519   2.510   3.382
 2681SOL    HW1 8942   2.543   2.555   3.468
 2681SOL    HW2 8943   2.595   2.517   3.318
 2682SOL     OW 8944   3.589   4.103   2.567
 2682SOL    HW1 8945   3.619   4.088   2.661
 2682SOL    HW2 8946   3.663   4.078   2.505
 2683SOL     OW 8947   1.639   3.359   1.349
 2683SOL    HW1 8948   1.586   3.437   1.383
 2683SOL    HW2 8949   1.641   3.362   1.249
 2684SOL     OW 8950   5.083   0.876   4.156
 2684SOL    HW1 8951   5.075   0.783   4.120
 2684SOL    HW2 8952   5.137   0.932   4.094
 2685SOL     OW 8953   1.584   6.763   5.676
 2685SOL    HW1 8954   1.541   6.681   5.638
 2685SOL    HW2 8955   1.553   6.843   5.625
 2686SOL     OW 8956   1.823   2.135   5.976
 2686SOL    HW1 8957   1.735   2.089   5.985
 2686SOL    HW2 8958   1.881   2.112   6.053
 2687SOL     OW 8959   3.885   2.662   1.580
 2687SOL    HW1 8960   3.939   2.720   1.641
 2687SOL    HW2 8961   3.833   2.595   1.634
 2688SOL     OW 8962   4.096   2.588   6.995
 2688SOL    HW1 8963   4.046   2.535   0.035
 2688SOL    HW2 8964   4.190   2.601   7.026
 2689SOL     OW 8965   6.772   4.005   2.228
 2689SOL    HW1 8966   6.750   4.084   2.286
 2689SOL    HW2 8967   6.753   3.921   2.278
 2690SOL     OW 8968   5.180   1.271   4.578
 2690SOL    HW1 8969   5.271   1.235   4.559
 2690SOL    HW2 8970   5.180   1.370   4.565
 2691SOL     OW 8971   6.398   3.437   3.800
 2691SOL    HW1 8972   6.474   3.394   3.751
 2691SOL    HW2 8973   6.430   3.519   3.847
 2692SOL     OW 8974   1.525   5.305   1.289
 2692SOL    HW1 8975   1.472   5.226   1.319
 2692SOL    HW2 8976   1.616   5.303   1.331
 2693SOL     OW 8977   0.685   5.626   2.922
 2693SOL    HW1 8978   0.740   5.709   2.933
 2693SOL    HW2 8979   0.592   5.642   2.956
 2694SOL     OW 8980   2.077   0.378   2.516
 2694SOL    HW1 8981   2.029   0.331   2.590
 2694SOL    HW2 8982   2.175   0.366   2.527
 2695SOL     OW 8983   6.650   5.712   3.716
 2695SOL    HW1 8984   6.589   5.707   3.795
 2695SOL    HW2 8985   6.670   5.807   3.695
 2696SOL     OW 8986   4.020   4.446   6.553
 2696SOL    HW1 8987   3.955   4.414   6.621
 2696SOL    HW2 8988   4.056   4.535   6.581
 2697SOL     OW 8989   4.092   2.200   6.973
 2697SOL    HW1 8990   4.148   2.183   6.892
 2697SOL    HW2 8991   4.146   2.252   0.011
 2698SOL     OW 8992   1.835   5.728   6.880
 2698SOL    HW1 8993   1.897   5.650   6.888
 2698SOL    HW2 8994   1.887   5.812   6.895
 2699SOL     OW 8995   2.660   6.465   2.356
 2699SOL    HW1 8996   2.652   6.471   2.256
 2699SOL    HW2 8997   2.687   6.372   2.381
 2700SOL     OW 8998   4.401   2.082   1.459
 2700SOL    HW1 8999   4.492   2.062   1.497
 2700SOL    HW2 9000   4.343   2.121   1.530
 2701SOL     OW 9001   5.452   3.456   5.403
 2701SOL    HW1 9002   5.371   3.406   5.434
 2701SOL    HW2 9003   5.473   3.430   5.309
 2702SOL     OW 9004   1.800   1.925   4.858
 2702SOL    HW1 9005   1.715   1.903   4.905
 2702SOL    HW2 9006   1.878   1.898   4.915
 2703SOL     OW 9007   2.284   6.289   1.881
 2703SOL    HW1 9008   2.320   6.340   1.958
 2703SOL    HW2 9009   2.187   6.270   1.896
 2704SOL     OW 9010   4.366   1.058   3.657
 2704SOL    HW1 9011   4.361   0.964   3.624
 2704SOL    HW2 9012   4.361   1.121   3.580
 2705SOL     OW 9013   1.101   0.021   5.400
 2705SOL    HW1 9014   1.182   0.051   5.350
 2705SOL    HW2 9015   1.020   0.034   5.343
 2706SOL     OW 9016   0.121   4.509   4.160
 2706SOL    HW1 9017   0.086   4.585   4.215
 2706SOL    HW2 9018   0.218   4.495   4.180
 2707SOL     OW 9019   4.397   1.257   3.043
 2707SOL    HW1 9020   4.421   1.334   3.102
 2707SOL    HW2 9021   4.302   1.231   3.059
 2708SOL     OW 9022   5.612   3.240   5.546
 2708SOL    HW1 9023   5.693   3.279   5.589
 2708SOL    HW2 9024   5.570   3.308   5.485
 2709SOL     OW 9025   5.509   0.975   5.792
 2709SOL    HW1 9026   5.562   1.050   5.753
 2709SOL    HW2 9027   5.557   0.938   5.871
 2710SOL     OW 9028   1.003   2.865   4.086
 2710SOL    HW1 9029   1.071   2.843   4.156
 2710SOL    HW2 9030   0.912   2.866   4.128
 2711SOL     OW 9031   4.814   1.086   1.826
 2711SOL    HW1 9032   4.732   1.109   1.879
 2711SOL    HW2 9033   4.815   1.142   1.742
 2712SOL     OW 9034   4.935   6.353   1.939
 2712SOL    HW1 9035   4.875   6.433   1.929
 2712SOL    HW2 9036   5.024   6.372   1.899
 2713SOL     OW 9037   3.495   4.957   5.227
 2713SOL    HW1 9038   3.497   5.019   5.149
 2713SOL    HW2 9039   3.427   4.886   5.213
 2714SOL     OW 9040   3.058   4.338   6.155
 2714SOL    HW1 9041   3.010   4.306   6.073
 2714SOL    HW2 9042   3.134   4.397   6.127
 2715SOL     OW 9043   4.592   6.529   0.556
 2715SOL    HW1 9044   4.562   6.476   0.477
 2715SOL    HW2 9045   4.655   6.474   0.611
 2716SOL     OW 9046   4.804   1.139   2.140
 2716SOL    HW1 9047   4.889   1.183   2.168
 2716SOL    HW2 9048   4.806   1.043   2.167
 2717SOL     OW 9049   0.764   2.060   2.391
 2717SOL    HW1 9050   0.757   2.128   2.463
 2717SOL    HW2 9051   0.746   1.969   2.428
 2718SOL     OW 9052   7.019   1.338   5.767
 2718SOL    HW1 9053   0.069   1.385   5.807
 2718SOL    HW2 9054   6.957   1.309   5.841
 2719SOL     OW 9055   0.973   4.912   3.405
 2719SOL    HW1 9056   0.883   4.915   3.362
 2719SOL    HW2 9057   0.963   4.895   3.503
 2720SOL     OW 9058   1.796   4.968   6.437
 2720SOL    HW1 9059   1.868   4.942   6.501
 2720SOL    HW2 9060   1.709   4.931   6.469
 2721SOL     OW 9061   2.231   5.998   3.861
 2721SOL    HW1 9062   2.250   6.059   3.784
 2721SOL    HW2 9063   2.279   6.032   3.942
 2722SOL     OW 9064   3.329   4.010   6.667
 2722SOL    HW1 9065   3.314   4.037   6.762
 2722SOL    HW2 9066   3.272   3.931   6.645
 2723SOL     OW 9067   3.720   5.403   6.984
 2723SOL    HW1 9068   3.786   5.332   6.959
 2723SOL    HW2 9069   3.754   5.492   6.954
 2724SOL     OW 9070   6.569   5.923   0.910
 2724SOL    HW1 9071   6.578   6.009   0.860
 2724SOL    HW2 9072   6.659   5.879   0.916
 2725SOL     OW 9073   6.279   4.796   2.722
 2725SOL    HW1 9074   6.208   4.810   2.653
 2725SOL    HW2 9075   6.256   4.845   2.806
 2726SOL     OW 9076   6.566   2.410   2.829
 2726SOL    HW1 9077   6.510   2.461   2.893
 2726SOL    HW2 9078   6.515   2.331   2.794
 2727SOL     OW 9079   1.735   4.799   4.055
 2727SOL    HW1 9080   1.808   4.733   4.069
 2727SOL    HW2 9081   1.647   4.752   4.051
 2728SOL     OW 9082   5.223   5.018   5.980
 2728SOL    HW1 9083   5.228   5.099   6.037
 2728SOL    HW2 9084   5.227   4.936   6.037
 2729SOL     OW 9085   6.896   0.396   0.364
 2729SOL    HW1 9086   6.891   0.302   0.331
 2729SOL    HW2 9087   6.939   0.397   0.454
 2730SOL     OW 9088   1.336   5.463   3.094
 2730SOL    HW1 9089   1.407   5.519   3.136
 2730SOL    HW2 9090   1.277   5.522   3.037
 2731SOL     OW 9091   4.015   3.678   5.172
 2731SOL    HW1 9092   4.062   3.713   5.091
 2731SOL    HW2 9093   3.957   3.750   5.211
 2732SOL     OW 9094   4.578   0.502   2.307
 2732SOL    HW1 9095   4.517   0.566   2.354
 2732SOL    HW2 9096   4.533   0.467   2.225
 2733SOL     OW 9097   0.698   0.205   0.956
 2733SOL    HW1 9098   0.734   0.298   0.947
 2733SOL    HW2 9099   0.625   0.203   1.024
 2734SOL     OW 9100   3.097   0.203   1.931
 2734SOL    HW1 9101   3.016   0.242   1.974
 2734SOL    HW2 9102   3.149   0.152   2.000
 2735SOL     OW 9103   0.903   2.431   2.567
 2735SOL    HW1 9104   0.926   2.506   2.505
 2735SOL    HW2 9105   0.907   2.463   2.662
 2736SOL     OW 9106   5.358   4.887   2.927
 2736SOL    HW1 9107   5.337   4.938   3.010
 2736SOL    HW2 9108   5.280   4.828   2.904
 2737SOL     OW 9109   2.610   0.209   6.230
 2737SOL    HW1 9110   2.658   0.268   6.165
 2737SOL    HW2 9111   2.661   0.205   6.315
 2738SOL     OW 9112   5.351   6.447   1.062
 2738SOL    HW1 9113   5.373   6.514   0.991
 2738SOL    HW2 9114   5.350   6.355   1.023
 2739SOL     OW 9115   0.701   5.250   1.862
 2739SOL    HW1 9116   0.700   5.151   1.871
 2739SOL    HW2 9117   0.679   5.275   1.768
 2740SOL     OW 9118   6.484   5.888   5.051
 2740SOL    HW1 9119   6.476   5.815   5.119
 2740SOL    HW2 9120   6.398   5.897   5.002
 2741SOL     OW 9121   0.503   0.129   0.004
 2741SOL    HW1 9122   0.463   0.123   6.941
 2741SOL    HW2 9123   0.573   0.058   0.014
 2742SOL     OW 9124   2.627   5.078   2.398
 2742SOL    HW1 9125   2.655   5.005   2.336
 2742SOL    HW2 9126   2.532   5.104   2.378
 2743SOL     OW 9127   5.837   1.878   2.601
 2743SOL    HW1 9128   5.862   1.840   2.690
 2743SOL    HW2 9129   5.754   1.833   2.567
 2744SOL     OW 9130   3.273   3.911   2.314
 2744SOL    HW1 9131   3.370   3.923   2.292
 2744SOL    HW2 9132   3.229   3.854   2.244
 2745SOL     OW 9133   0.473   6.455   6.917
 2745SOL    HW1 9134   0.424   6.374   6.948
 2745SOL    HW2 9135   0.539   6.429   6.847
 2746SOL     OW 9136   1.690   0.737   4.624
 2746SOL    HW1 9137   1.738   0.825   4.623
 2746SOL    HW2 9138   1.757   0.663   4.625
 2747SOL     OW 9139   4.598   4.707   0.009
 2747SOL    HW1 9140   4.672   4.752   6.988
 2747SOL    HW2 9141   4.634   4.633   0.064
 2748SOL     OW 9142   4.305   0.595   0.301
 2748SOL    HW1 9143   4.218   0.618   0.257
 2748SOL    HW2 9144   4.307   0.498   0.324
 2749SOL     OW 9145   3.721   0.608   0.048
 2749SOL    HW1 9146   3.661   0.548   7.025
 2749SOL    HW2 9147   3.690   0.613   0.143
 2750SOL     OW 9148   1.970   6.104   2.200
 2750SOL    HW1 9149   1.944   6.147   2.286
 2750SOL    HW2 9150   2.070   6.102   2.193
 2751SOL     OW 9151   6.197   5.006   1.412
 2751SOL    HW1 9152   6.141   5.010   1.495
 2751SOL    HW2 9153   6.289   5.041   1.432
 2752SOL     OW 9154   4.238   5.169   6.252
 2752SOL    HW1 9155   4.257   5.075   6.279
 2752SOL    HW2 9156   4.324   5.216   6.231
 2753SOL     OW 9157   4.814   4.697   6.014
 2753SOL    HW1 9158   4.840   4.662   5.924
 2753SOL    HW2 9159   4.806   4.621   6.078
 2754SOL     OW 9160   1.409   0.646   4.598
 2754SOL    HW1 9161   1.494   0.658   4.648
 2754SOL    HW2 9162   1.398   0.720   4.532
 2755SOL     OW 9163   3.047   7.024   2.453
 2755SOL    HW1 9164   3.048   0.025   2.358
 2755SOL    HW2 9165   2.953   7.013   2.484
 2756SOL     OW 9166   4.877   5.482   6.650
 2756SOL    HW1 9167   4.784   5.472   6.685
 2756SOL    HW2 9168   4.943   5.465   6.723
 2757SOL     OW 9169   0.608   4.691   0.869
 2757SOL    HW1 9170   0.687   4.632   0.886
 2757SOL    HW2 9171   0.628   4.783   0.903
 2758SOL     OW 9172   4.850   0.065   6.202
 2758SOL    HW1 9173   4.840   0.158   6.169
 2758SOL    HW2 9174   4.764   0.035   6.244
 2759SOL     OW 9175   4.704   5.046   3.841
 2759SOL    HW1 9176   4.733   5.001   3.756
 2759SOL    HW2 9177   4.704   5.145   3.827
 2760SOL     OW 9178   0.684   5.999   3.428
 2760SOL    HW1 9179   0.620   6.050   3.370
 2760SOL    HW2 9180   0.761   6.058   3.452
 2761SOL     OW 9181   2.359   4.957   4.721
 2761SOL    HW1 9182   2.390   4.997   4.634
 2761SOL    HW2 9183   2.276   5.004   4.751
 2762SOL     OW 9184   1.800   1.916   5.727
 2762SOL    HW1 9185   1.816   1.989   5.661
 2762SOL    HW2 9186   1.743   1.845   5.685
 2763SOL     OW 9187   5.421   6.927   2.175
 2763SOL    HW1 9188   5.396   7.023   2.162
 2763SOL    HW2 9189   5.340   6.874   2.200
 2764SOL     OW 9190   6.302   0.593   1.858
 2764SOL    HW1 9191   6.221   0.634   1.900
 2764SOL    HW2 9192   6.373   0.580   1.928
 2765SOL     OW 9193   5.526   1.912   3.331
 2765SOL    HW1 9194   5.486   1.907   3.240
 2765SOL    HW2 9195   5.571   1.825   3.353
 2766SOL     OW 9196   5.444   6.694   2.687
 2766SOL    HW1 9197   5.481   6.611   2.728
 2766SOL    HW2 9198   5.381   6.738   2.752
 2767SOL     OW 9199   6.788   4.233   5.372
 2767SOL    HW1 9200   6.703   4.209   5.417
 2767SOL    HW2 9201   6.772   4.245   5.274
 2768SOL     OW 9202   5.934   0.986   6.495
 2768SOL    HW1 9203   6.032   0.988   6.516
 2768SOL    HW2 9204   5.898   1.080   6.495
 2769SOL     OW 9205   0.880   4.011   0.797
 2769SOL    HW1 9206   0.909   4.009   0.893
 2769SOL    HW2 9207   0.938   4.073   0.745
 2770SOL     OW 9208   4.758   5.993   2.563
 2770SOL    HW1 9209   4.721   6.021   2.474
 2770SOL    HW2 9210   4.683   5.981   2.628
 2771SOL     OW 9211   4.703   0.293   1.310
 2771SOL    HW1 9212   4.648   0.264   1.232
 2771SOL    HW2 9213   4.657   0.268   1.395
 2772SOL     OW 9214   3.401   0.976   6.752
 2772SOL    HW1 9215   3.325   0.947   6.810
 2772SOL    HW2 9216   3.380   1.065   6.712
 2773SOL     OW 9217   3.052   4.270   1.445
 2773SOL    HW1 9218   3.023   4.254   1.539
 2773SOL    HW2 9219   3.012   4.201   1.384
 2774SOL     OW 9220   4.978   3.023   1.942
 2774SOL    HW1 9221   5.030   3.053   2.022
 2774SOL    HW2 9222   4.881   3.017   1.966
 2775SOL     OW 9223   0.213   0.112   2.521
 2775SOL    HW1 9224   0.273   0.061   2.582
 2775SOL    HW2 9225   0.172   0.188   2.571
 2776SOL     OW 9226   2.773   6.228   0.424
 2776SOL    HW1 9227   2.847   6.273   0.374
 2776SOL    HW2 9228   2.707   6.190   0.359
 2777SOL     OW 9229   1.362   2.473   4.191
 2777SOL    HW1 9230   1.330   2.557   4.148
 2777SOL    HW2 9231   1.445   2.492   4.243
 2778SOL     OW 9232   2.958   2.129   5.075
 2778SOL    HW1 9233   3.022   2.205   5.083
 2778SOL    HW2 9234   2.975   2.063   5.147
 2779SOL     OW 9235   6.276   1.170   0.905
 2779SOL    HW1 9236   6.216   1.247   0.882
 2779SOL    HW2 9237   6.234   1.117   0.978
 2780SOL     OW 9238   3.247   5.802   6.638
 2780SOL    HW1 9239   3.160   5.812   6.686
 2780SOL    HW2 9240   3.265   5.884   6.584
 2781SOL     OW 9241   5.369   3.762   6.515
 2781SOL    HW1 9242   5.305   3.686   6.526
 2781SOL    HW2 9243   5.318   3.847   6.498
 2782SOL     OW 9244   3.543   0.860   5.330
 2782SOL    HW1 9245   3.476   0.894   5.397
 2782SOL    HW2 9246   3.500   0.854   5.240
 2783SOL     OW 9247   0.578   3.630   5.845
 2783SOL    HW1 9248   0.527   3.620   5.759
 2783SOL    HW2 9249   0.589   3.540   5.887
 2784SOL     OW 9250   2.344   1.862   1.754
 2784SOL    HW1 9251   2.251   1.828   1.739
 2784SOL    HW2 9252   2.401   1.838   1.675
 2785SOL     OW 9253   6.229   1.917   2.064
 2785SOL    HW1 9254   6.194   1.905   2.157
 2785SOL    HW2 9255   6.182   1.854   2.002
 2786SOL     OW 9256   3.873   0.304   1.080
 2786SOL    HW1 9257   3.933   0.295   1.160
 2786SOL    HW2 9258   3.876   0.398   1.047
 2787SOL     OW 9259   1.962   4.141   5.986
 2787SOL    HW1 9260   2.052   4.117   6.022
 2787SOL    HW2 9261   1.971   4.181   5.895
 2788SOL     OW 9262   1.141   3.241   0.425
 2788SOL    HW1 9263   1.167   3.337   0.415
 2788SOL    HW2 9264   1.052   3.226   0.383
 2789SOL     OW 9265   0.360   3.190   3.820
 2789SOL    HW1 9266   0.457   3.200   3.800
 2789SOL    HW2 9267   0.345   3.208   3.918
 2790SOL     OW 9268   3.968   6.500   4.262
 2790SOL    HW1 9269   3.996   6.477   4.355
 2790SOL    HW2 9270   3.990   6.424   4.200
 2791SOL     OW 9271   1.627   3.556   2.277
 2791SOL    HW1 9272   1.579   3.592   2.197
 2791SOL    HW2 9273   1.569   3.568   2.358
 2792SOL     OW 9274   0.776   2.112   5.846
 2792SOL    HW1 9275   0.836   2.188   5.822
 2792SOL    HW2 9276   0.701   2.145   5.904
 2793SOL     OW 9277   4.669   0.732   4.414
 2793SOL    HW1 9278   4.749   0.783   4.446
 2793SOL    HW2 9279   4.645   0.661   4.481
 2794SOL     OW 9280   0.312   1.584   2.310
 2794SOL    HW1 9281   0.313   1.508   2.375
 2794SOL    HW2 9282   0.397   1.585   2.258
 2795SOL     OW 9283   0.747   3.749   1.007
 2795SOL    HW1 9284   0.667   3.744   0.947
 2795SOL    HW2 9285   0.729   3.812   1.082
 2796SOL     OW 9286   4.444   4.477   2.394
 2796SOL    HW1 9287   4.526   4.438   2.351
 2796SOL    HW2 9288   4.373   4.489   2.325
 2797SOL     OW 9289   4.631   4.084   5.407
 2797SOL    HW1 9290   4.668   4.095   5.500
 2797SOL    HW2 9291   4.685   4.140   5.344
 2798SOL     OW 9292   1.867   4.035   3.105
 2798SOL    HW1 9293   1.771   4.006   3.102
 2798SOL    HW2 9294   1.915   3.998   3.026
 2799SOL     OW 9295   0.011   6.149   5.905
 2799SOL    HW1 9296   6.947   6.183   5.922
 2799SOL    HW2 9297   0.020   6.056   5.943
 2800SOL     OW 9298   2.371   0.531   6.175
 2800SOL    HW1 9299   2.347   0.434   6.183
 2800SOL    HW2 9300   2.389   0.569   6.266
 2801SOL     OW 9301   3.766   5.100   2.324
 2801SOL    HW1 9302   3.725   5.174   2.271
 2801SOL    HW2 9303   3.788   5.024   2.264
 2802SOL     OW 9304   6.712   0.539   6.316
 2802SOL    HW1 9305   6.648   0.514   6.243
 2802SOL    HW2 9306   6.766   0.459   6.342
 2803SOL     OW 9307   3.129   5.760   5.065
 2803SOL    HW1 9308   3.031   5.743   5.080
 2803SOL    HW2 9309   3.158   5.717   4.980
 2804SOL     OW 9310   0.526   5.085   2.443
 2804SOL    HW1 9311   0.474   5.091   2.358
 2804SOL    HW2 9312   0.547   4.990   2.463
 2805SOL     OW 9313   6.557   4.102   6.970
 2805SOL    HW1 9314   6.634   4.040   6.986
 2805SOL    HW2 9315   6.544   4.116   6.872
 2806SOL     OW 9316   6.189   5.653   2.902
 2806SOL    HW1 9317   6.142   5.600   2.972
 2806SOL    HW2 9318   6.205   5.596   2.821
 2807SOL     OW 9319   3.898   4.909   3.681
 2807SOL    HW1 9320   3.965   4.850   3.635
 2807SOL    HW2 9321   3.945   4.970   3.745
 2808SOL     OW 9322   4.860   6.545   4.528
 2808SOL    HW1 9323   4.888   6.639   4.548
 2808SOL    HW2 9324   4.793   6.515   4.596
 2809SOL     OW 9325   5.403   2.634   0.331
 2809SOL    HW1 9326   5.368   2.540   0.324
 2809SOL    HW2 9327   5.423   2.655   0.427
 2810SOL     OW 9328   2.206   1.412   6.525
 2810SOL    HW1 9329   2.302   1.395   6.503
 2810SOL    HW2 9330   2.198   1.437   6.621
 2811SOL     OW 9331   0.351   0.362   3.646
 2811SOL    HW1 9332   0.280   0.431   3.660
 2811SOL    HW2 9333   0.436   0.393   3.690
 2812SOL     OW 9334   4.970   4.773   2.696
 2812SOL    HW1 9335   4.917   4.714   2.636
 2812SOL    HW2 9336   5.022   4.718   2.761
 2813SOL     OW 9337   6.278   1.525   5.982
 2813SOL    HW1 9338   6.222   1.569   6.052
 2813SOL    HW2 9339   6.374   1.523   6.012
 2814SOL     OW 9340   5.773   4.213   5.335
 2814SOL    HW1 9341   5.682   4.179   5.310
 2814SOL    HW2 9342   5.830   4.137   5.363
 2815SOL     OW 9343   0.906   1.044   4.525
 2815SOL    HW1 9344   0.987   1.063   4.469
 2815SOL    HW2 9345   0.900   0.946   4.544
 2816SOL     OW 9346   5.015   6.570   3.257
 2816SOL    HW1 9347   4.929   6.539   3.217
 2816SOL    HW2 9348   4.997   6.614   3.345
 2817SOL     OW 9349   1.176   1.472   0.923
 2817SOL    HW1 9350   1.088   1.481   0.970
 2817SOL    HW2 9351   1.215   1.563   0.907
 2818SOL     OW 9352   1.595   2.449   6.699
 2818SOL    HW1 9353   1.647   2.450   6.613
 2818SOL    HW2 9354   1.499   2.432   6.679
 2819SOL     OW 9355   6.557   3.442   1.551
 2819SOL    HW1 9356   6.565   3.533   1.510
 2819SOL    HW2 9357   6.464   3.427   1.582
 2820SOL     OW 9358   5.095   3.075   4.126
 2820SOL    HW1 9359   5.088   3.155   4.186
 2820SOL    HW2 9360   5.090   3.105   4.031
 2821SOL     OW 9361   1.241   3.085   3.131
 2821SOL    HW1 9362   1.276   3.014   3.193
 2821SOL    HW2 9363   1.200   3.159   3.185
 2822SOL     OW 9364   2.648   2.215   0.570
 2822SOL    HW1 9365   2.686   2.296   0.615
 2822SOL    HW2 9366   2.687   2.206   0.478
 2823SOL     OW 9367   1.208   0.272   4.258
 2823SOL    HW1 9368   1.196   0.306   4.165
 2823SOL    HW2 9369   1.268   0.334   4.309
 2824SOL     OW 9370   3.255   2.151   5.669
 2824SOL    HW1 9371   3.268   2.244   5.704
 2824SOL    HW2 9372   3.264   2.085   5.744
 2825SOL     OW 9373   5.812   5.784   0.941
 2825SOL    HW1 9374   5.876   5.845   0.987
 2825SOL    HW2 9375   5.778   5.717   1.007
 2826SOL     OW 9376   4.848   3.832   4.332
 2826SOL    HW1 9377   4.905   3.791   4.403
 2826SOL    HW2 9378   4.868   3.789   4.244
 2827SOL     OW 9379   0.252   7.009   6.005
 2827SOL    HW1 9380   0.270   6.913   6.028
 2827SOL    HW2 9381   0.155   7.021   5.985
 2828SOL     OW 9382   3.252   2.059   6.272
 2828SOL    HW1 9383   3.179   2.000   6.306
 2828SOL    HW2 9384   3.247   2.148   6.318
 2829SOL     OW 9385   2.908   1.112   6.887
 2829SOL    HW1 9386   2.847   1.048   6.841
 2829SOL    HW2 9387   2.952   1.171   6.819
 2830SOL     OW 9388   3.150   3.821   6.717
 2830SOL    HW1 9389   3.106   3.906   6.688
 2830SOL    HW2 9390   3.130   3.749   6.651
 2831SOL     OW 9391   6.308   6.434   3.931
 2831SOL    HW1 9392   6.372   6.504   3.960
 2831SOL    HW2 9393   6.333   6.404   3.838
 2832SOL     OW 9394   0.058   0.945   2.099
 2832SOL    HW1 9395   0.119   0.992   2.162
 2832SOL    HW2 9396   0.015   0.867   2.146
 2833SOL     OW 9397   6.220   3.143   2.068
 2833SOL    HW1 9398   6.264   3.197   1.996
 2833SOL    HW2 9399   6.217   3.197   2.152
 2834SOL     OW 9400   4.357   0.915   5.111
 2834SOL    HW1 9401   4.277   0.859   5.133
 2834SOL    HW2 9402   4.424   0.860   5.061
 2835SOL     OW 9403   6.201   6.222   3.524
 2835SOL    HW1 9404   6.198   6.321   3.527
 2835SOL    HW2 9405   6.295   6.190   3.538
 2836SOL     OW 9406   6.445   0.080   0.949
 2836SOL    HW1 9407   6.392   0.096   1.032
 2836SOL    HW2 9408   6.464   7.011   0.941
 2837SOL     OW 9409   5.720   3.026   3.984
 2837SOL    HW1 9410   5.763   3.106   3.942
 2837SOL    HW2 9411   5.626   3.048   4.009
 2838SOL     OW 9412   1.460   4.449   4.398
 2838SOL    HW1 9413   1.416   4.469   4.486
 2838SOL    HW2 9414   1.532   4.517   4.382
 2839SOL     OW 9415   4.665   3.151   0.480
 2839SOL    HW1 9416   4.639   3.238   0.520
 2839SOL    HW2 9417   4.585   3.092   0.470
 2840SOL     OW 9418   6.803   2.572   4.848
 2840SOL    HW1 9419   6.817   2.614   4.937
 2840SOL    HW2 9420   6.890   2.538   4.812
 2841SOL     OW 9421   0.001   6.191   0.241
 2841SOL    HW1 9422   0.040   6.099   0.230
 2841SOL    HW2 9423   6.998   6.202   0.335
 2842SOL     OW 9424   6.128   3.937   2.867
 2842SOL    HW1 9425   6.066   3.865   2.899
 2842SOL    HW2 9426   6.108   3.959   2.772
 2843SOL     OW 9427   4.125   0.917   3.925
 2843SOL    HW1 9428   4.046   0.978   3.918
 2843SOL    HW2 9429   4.093   0.822   3.923
 2844SOL     OW 9430   1.653   4.197   5.653
 2844SOL    HW1 9431   1.732   4.219   5.712
 2844SOL    HW2 9432   1.569   4.207   5.706
 2845SOL     OW 9433   0.474   3.535   6.265
 2845SOL    HW1 9434   0.516   3.614   6.308
 2845SOL    HW2 9435   0.413   3.565   6.192
 2846SOL     OW 9436   5.464   1.441   5.880
 2846SOL    HW1 9437   5.462   1.534   5.916
 2846SOL    HW2 9438   5.558   1.406   5.883
 2847SOL     OW 9439   4.416   4.996   4.356
 2847SOL    HW1 9440   4.509   5.022   4.380
 2847SOL    HW2 9441   4.358   5.002   4.438
 2848SOL     OW 9442   2.304   0.115   5.655
 2848SOL    HW1 9443   2.281   0.114   5.558
 2848SOL    HW2 9444   2.380   0.051   5.672
 2849SOL     OW 9445   2.268   3.036   1.799
 2849SOL    HW1 9446   2.231   3.028   1.892
 2849SOL    HW2 9447   2.318   2.953   1.776
 2850SOL     OW 9448   4.161   1.433   0.888
 2850SOL    HW1 9449   4.182   1.467   0.979
 2850SOL    HW2 9450   4.209   1.347   0.872
 2851SOL     OW 9451   2.939   5.751   5.719
 2851SOL    HW1 9452   2.854   5.804   5.720
 2851SOL    HW2 9453   2.942   5.695   5.636
 2852SOL     OW 9454   0.321   2.258   6.628
 2852SOL    HW1 9455   0.317   2.269   6.728
 2852SOL    HW2 9456   0.336   2.347   6.585
 2853SOL     OW 9457   3.474   2.494   1.450
 2853SOL    HW1 9458   3.406   2.430   1.416
 2853SOL    HW2 9459   3.523   2.534   1.372
 2854SOL     OW 9460   0.572   0.912   3.696
 2854SOL    HW1 9461   0.571   0.881   3.601
 2854SOL    HW2 9462   0.544   0.837   3.756
 2855SOL     OW 9463   3.363   1.474   4.226
 2855SOL    HW1 9464   3.411   1.427   4.301
 2855SOL    HW2 9465   3.331   1.563   4.257
 2856SOL     OW 9466   2.982   1.369   5.821
 2856SOL    HW1 9467   2.920   1.321   5.759
 2856SOL    HW2 9468   3.069   1.386   5.775
 2857SOL     OW 9469   3.655   3.013   3.814
 2857SOL    HW1 9470   3.628   3.108   3.803
 2857SOL    HW2 9471   3.610   2.957   3.744
 2858SOL     OW 9472   5.714   2.958   2.826
 2858SOL    HW1 9473   5.649   2.998   2.762
 2858SOL    HW2 9474   5.724   2.861   2.807
 2859SOL     OW 9475   5.230   5.856   7.019
 2859SOL    HW1 9476   5.271   5.894   6.937
 2859SOL    HW2 9477   5.292   5.870   0.068
 2860SOL     OW 9478   4.378   2.158   0.602
 2860SOL    HW1 9479   4.372   2.088   0.530
 2860SOL    HW2 9480   4.474   2.168   0.631
 2861SOL     OW 9481   4.533   4.382   6.265
 2861SOL    HW1 9482   4.512   4.438   6.345
 2861SOL    HW2 9483   4.497   4.427   6.183
 2862SOL     OW 9484   6.426   6.949   3.515
 2862SOL    HW1 9485   6.459   6.907   3.430
 2862SOL    HW2 9486   6.502   6.997   3.560
 2863SOL     OW 9487   6.418   0.493   7.018
 2863SOL    HW1 9488   6.336   0.436   7.024
 2863SOL    HW2 9489   6.468   0.488   0.075
 2864SOL     OW 9490   3.674   2.253   0.681
 2864SOL    HW1 9491   3.697   2.348   0.705
 2864SOL    HW2 9492   3.710   2.192   0.751
 2865SOL     OW 9493   4.801   4.906   5.367
 2865SOL    HW1 9494   4.747   4.980   5.326
 2865SOL    HW2 9495   4.859   4.944   5.440
 2866SOL     OW 9496   0.421   6.673   6.275
 2866SOL    HW1 9497   0.375   6.586   6.255
 2866SOL    HW2 9498   0.520   6.662   6.263
 2867SOL     OW 9499   6.696   4.139   4.235
 2867SOL    HW1 9500   6.621   4.080   4.205
 2867SOL    HW2 9501   6.759   4.085   4.292
 2868SOL     OW 9502   1.703   4.906   4.769
 2868SOL    HW1 9503   1.707   4.949   4.679
 2868SOL    HW2 9504   1.609   4.875   4.787
 2869SOL     OW 9505   6.117   1.278   2.423
 2869SOL    HW1 9506   6.193   1.246   2.366
 2869SOL    HW2 9507   6.034   1.229   2.397
 2870SOL     OW 9508   4.019   2.207   2.196
 2870SOL    HW1 9509   4.062   2.262   2.124
 2870SOL    HW2 9510   3.940   2.158   2.158
 2871SOL     OW 9511   1.231   1.485   6.000
 2871SOL    HW1 9512   1.160   1.528   5.944
 2871SOL    HW2 9513   1.268   1.552   6.064
 2872SOL     OW 9514   1.814   0.344   3.911
 2872SOL    HW1 9515   1.857   0.271   3.965
 2872SOL    HW2 9516   1.871   0.363   3.831
 2873SOL     OW 9517   6.585   5.737   2.144
 2873SOL    HW1 9518   6.571   5.725   2.046
 2873SOL    HW2 9519   6.508   5.696   2.194
 2874SOL     OW 9520   5.330   2.331   1.887
 2874SOL    HW1 9521   5.235   2.331   1.921
 2874SOL    HW2 9522   5.338   2.397   1.812
 2875SOL     OW 9523   2.948   4.740   0.646
 2875SOL    HW1 9524   2.868   4.731   0.705
 2875SOL    HW2 9525   2.970   4.651   0.606
 2876SOL     OW 9526   5.941   2.434   2.079
 2876SOL    HW1 9527   6.031   2.436   2.122
 2876SOL    HW2 9528   5.943   2.374   1.999
 2877SOL     OW 9529   1.758   3.732   5.303
 2877SOL    HW1 9530   1.733   3.636   5.285
 2877SOL    HW2 9531   1.732   3.756   5.396
 2878SOL     OW 9532   4.303   4.903   0.419
 2878SOL    HW1 9533   4.250   4.834   0.468
 2878SOL    HW2 9534   4.372   4.858   0.362
 2879SOL     OW 9535   5.115   3.884   6.668
 2879SOL    HW1 9536   5.095   3.824   6.590
 2879SOL    HW2 9537   5.153   3.970   6.635
 2880SOL     OW 9538   1.849   6.338   3.521
 2880SOL    HW1 9539   1.757   6.347   3.558
 2880SOL    HW2 9540   1.873   6.421   3.472
 2881SOL     OW 9541   6.898   0.432   0.110
 2881SOL    HW1 9542   6.909   0.438   0.209
 2881SOL    HW2 9543   6.863   0.519   0.075
 2882SOL     OW 9544   6.948   3.548   3.146
 2882SOL    HW1 9545   6.922   3.483   3.217
 2882SOL    HW2 9546   0.016   3.573   3.157
 2883SOL     OW 9547   3.877   6.242   1.986
 2883SOL    HW1 9548   3.791   6.290   2.004
 2883SOL    HW2 9549   3.862   6.171   1.917
 2884SOL     OW 9550   1.870   5.049   3.022
 2884SOL    HW1 9551   1.935   5.005   3.083
 2884SOL    HW2 9552   1.838   4.984   2.954
 2885SOL     OW 9553   0.893   2.123   4.556
 2885SOL    HW1 9554   0.809   2.133   4.610
 2885SOL    HW2 9555   0.959   2.192   4.585
 2886SOL     OW 9556   2.699   2.664   6.149
 2886SOL    HW1 9557   2.625   2.608   6.110
 2886SOL    HW2 9558   2.780   2.608   6.160
 2887SOL     OW 9559   2.691   1.663   5.104
 2887SOL    HW1 9560   2.646   1.590   5.155
 2887SOL    HW2 9561   2.788   1.642   5.094
 2888SOL     OW 9562   0.077   5.349   6.969
 2888SOL    HW1 9563   0.167   5.352   7.011
 2888SOL    HW2 9564   0.009   5.319   0.008
 2889SOL     OW 9565   1.212   0.370   0.876
 2889SOL    HW1 9566   1.235   0.410   0.964
 2889SOL    HW2 9567   1.142   0.426   0.831
 2890SOL     OW 9568   2.858   0.208   0.764
 2890SOL    HW1 9569   2.863   0.250   0.674
 2890SOL    HW2 9570   2.951   0.192   0.798
 2891SOL     OW 9571   2.990   4.882   4.948
 2891SOL    HW1 9572   2.960   4.788   4.931
 2891SOL    HW2 9573   2.961   4.911   5.039
 2892SOL     OW 9574   4.029   4.261   5.273
 2892SOL    HW1 9575   4.102   4.324   5.243
 2892SOL    HW2 9576   3.967   4.243   5.197
 2893SOL     OW 9577   3.373   0.495   5.317
 2893SOL    HW1 9578   3.287   0.534   5.351
 2893SOL    HW2 9579   3.367   0.483   5.218
 2894SOL     OW 9580   4.268   3.542   1.682
 2894SOL    HW1 9581   4.366   3.564   1.685
 2894SOL    HW2 9582   4.253   3.454   1.727
 2895SOL     OW 9583   3.676   3.175   0.184
 2895SOL    HW1 9584   3.686   3.202   0.280
 2895SOL    HW2 9585   3.587   3.130   0.172
 2896SOL     OW 9586   1.222   4.738   0.441
 2896SOL    HW1 9587   1.252   4.812   0.382
 2896SOL    HW2 9588   1.123   4.742   0.451
 2897SOL     OW 9589   1.046   6.702   3.655
 2897SOL    HW1 9590   1.050   6.775   3.587
 2897SOL    HW2 9591   1.080   6.735   3.742
 2898SOL     OW 9592   2.033   5.154   2.744
 2898SOL    HW1 9593   1.936   5.129   2.742
 2898SOL    HW2 9594   2.068   5.142   2.837
 2899SOL     OW 9595   5.846   0.538   0.809
 2899SOL    HW1 9596   5.796   0.601   0.869
 2899SOL    HW2 9597   5.944   0.544   0.828
 2900SOL     OW 9598   2.716   5.353   6.184
 2900SOL    HW1 9599   2.751   5.370   6.092
 2900SOL    HW2 9600   2.723   5.255   6.204
 2901SOL     OW 9601   3.014   6.679   0.977
 2901SOL    HW1 9602   3.076   6.743   0.932
 2901SOL    HW2 9603   3.003   6.703   1.073
 2902SOL     OW 9604   4.531   5.537   0.737
 2902SOL    HW1 9605   4.554   5.457   0.792
 2902SOL    HW2 9606   4.479   5.602   0.792
 2903SOL     OW 9607   3.005   2.585   1.722
 2903SOL    HW1 9608   2.977   2.529   1.800
 2903SOL    HW2 9609   3.105   2.585   1.715
 2904SOL     OW 9610   2.625   2.026   4.156
 2904SOL    HW1 9611   2.595   2.059   4.066
 2904SOL    HW2 9612   2.639   2.104   4.217
 2905SOL     OW 9613   0.837   1.642   2.265
 2905SOL    HW1 9614   0.820   1.739   2.250
 2905SOL    HW2 9615   0.868   1.599   2.180
 2906SOL     OW 9616   5.119   5.236   2.408
 2906SOL    HW1 9617   5.115   5.147   2.454
 2906SOL    HW2 9618   5.041   5.292   2.436
 2907SOL     OW 9619   5.814   0.412   4.816
 2907SOL    HW1 9620   5.886   0.371   4.759
 2907SOL    HW2 9621   5.853   0.443   4.902
 2908SOL     OW 9622   3.542   5.827   4.700
 2908SOL    HW1 9623   3.572   5.781   4.783
 2908SOL    HW2 9624   3.539   5.761   4.624
 2909SOL     OW 9625   2.584   6.312   5.686
 2909SOL    HW1 9626   2.598   6.345   5.593
 2909SOL    HW2 9627   2.528   6.229   5.684
 2910SOL     OW 9628   4.340   5.904   5.401
 2910SOL    HW1 9629   4.315   5.858   5.316
 2910SOL    HW2 9630   4.388   5.990   5.380
 2911SOL     OW 9631   2.434   4.490   3.347
 2911SOL    HW1 9632   2.532   4.492   3.330
 2911SOL    HW2 9633   2.384   4.504   3.262
 2912SOL     OW 9634   2.950   5.141   1.576
 2912SOL    HW1 9635   2.923   5.216   1.635
 2912SOL    HW2 9636   2.930   5.164   1.481
 2913SOL     OW 9637   0.963   2.966   2.170
 2913SOL    HW1 9638   1.024   2.967   2.091
 2913SOL    HW2 9639   0.966   3.055   2.215
 2914SOL     OW 9640   5.318   4.307   6.032
 2914SOL    HW1 9641   5.258   4.311   5.952
 2914SOL    HW2 9642   5.382   4.384   6.030
 2915SOL     OW 9643   4.577   1.557   3.485
 2915SOL    HW1 9644   4.535   1.487   3.543
 2915SOL    HW2 9645   4.666   1.525   3.453
 2916SOL     OW 9646   4.887   0.083   4.697
 2916SOL    HW1 9647   4.986   0.078   4.709
 2916SOL    HW2 9648   4.854   7.027   4.657
 2917SOL     OW 9649   3.859   0.359   2.106
 2917SOL    HW1 9650   3.762   0.375   2.086
 2917SOL    HW2 9651   3.871   0.266   2.140
 2918SOL     OW 9652   1.110   2.738   4.739
 2918SOL    HW1 9653   1.192   2.779   4.700
 2918SOL    HW2 9654   1.046   2.716   4.665
 2919SOL     OW 9655   5.626   5.810   0.395
 2919SOL    HW1 9656   5.699   5.747   0.372
 2919SOL    HW2 9657   5.648   5.901   0.360
 2920SOL     OW 9658   4.651   1.784   2.632
 2920SOL    HW1 9659   4.646   1.765   2.534
 2920SOL    HW2 9660   4.616   1.706   2.683
 2921SOL     OW 9661   6.489   1.594   0.730
 2921SOL    HW1 9662   6.437   1.632   0.653
 2921SOL    HW2 9663   6.426   1.572   0.805
 2922SOL     OW 9664   4.044   6.972   4.399
 2922SOL    HW1 9665   4.084   0.000   4.327
 2922SOL    HW2 9666   4.081   7.000   4.488
 2923SOL     OW 9667   0.074   4.781   6.537
 2923SOL    HW1 9668   0.063   4.728   6.452
 2923SOL    HW2 9669   0.162   4.759   6.579
 2924SOL     OW 9670   6.726   6.863   6.366
 2924SOL    HW1 9671   6.699   6.946   6.318
 2924SOL    HW2 9672   6.825   6.849   6.356
 2925SOL     OW 9673   5.976   4.547   0.300
 2925SOL    HW1 9674   5.900   4.592   0.254
 2925SOL    HW2 9675   6.045   4.614   0.325
 2926SOL     OW 9676   0.431   1.188   3.330
 2926SOL    HW1 9677   0.469   1.267   3.378
 2926SOL    HW2 9678   0.331   1.189   3.339
 2927SOL     OW 9679   0.288   3.411   2.600
 2927SOL    HW1 9680   0.373   3.457   2.624
 2927SOL    HW2 9681   0.239   3.383   2.683
 2928SOL     OW 9682   5.548   6.274   0.416
 2928SOL    HW1 9683   5.491   6.246   0.493
 2928SOL    HW2 9684   5.617   6.204   0.399
 2929SOL     OW 9685   0.730   0.258   5.605
 2929SOL    HW1 9686   0.760   0.231   5.696
 2929SOL    HW2 9687   0.793   0.221   5.537
 2930SOL     OW 9688   3.050   7.024   4.300
 2930SOL    HW1 9689   3.018   0.060   4.369
 2930SOL    HW2 9690   3.083   6.941   4.345
 2931SOL     OW 9691   4.445   4.953   6.364
 2931SOL    HW1 9692   4.435   4.859   6.396
 2931SOL    HW2 9693   4.514   5.000   6.419
 2932SOL     OW 9694   1.293   4.652   1.774
 2932SOL    HW1 9695   1.267   4.640   1.678
 2932SOL    HW2 9696   1.292   4.749   1.797
 2933SOL     OW 9697   5.014   2.376   3.524
 2933SOL    HW1 9698   4.974   2.418   3.442
 2933SOL    HW2 9699   5.029   2.279   3.508
 2934SOL     OW 9700   1.971   1.282   0.826
 2934SOL    HW1 9701   1.884   1.234   0.815
 2934SOL    HW2 9702   2.004   1.268   0.920
 2935SOL     OW 9703   6.908   1.551   0.866
 2935SOL    HW1 9704   6.930   1.630   0.810
 2935SOL    HW2 9705   6.822   1.566   0.914
 2936SOL     OW 9706   3.420   5.354   0.791
 2936SOL    HW1 9707   3.478   5.382   0.714
 2936SOL    HW2 9708   3.334   5.318   0.756
 2937SOL     OW 9709   2.798   4.255   0.058
 2937SOL    HW1 9710   2.743   4.177   0.027
 2937SOL    HW2 9711   2.828   4.240   0.152
 2938SOL     OW 9712   4.859   4.268   6.486
 2938SOL    HW1 9713   4.773   4.301   6.524
 2938SOL    HW2 9714   4.900   4.202   6.550
 2939SOL     OW 9715   0.261   6.464   5.736
 2939SOL    HW1 9716   0.184   6.521   5.761
 2939SOL    HW2 9717   0.345   6.519   5.734
 2940SOL     OW 9718   3.798   0.102   5.515
 2940SOL    HW1 9719   3.709   0.089   5.472
 2940SOL    HW2 9720   3.797   0.185   5.571
 2941SOL     OW 9721   3.961   1.757   5.039
 2941SOL    HW1 9722   3.863   1.777   5.050
 2941SOL    HW2 9723   3.978   1.661   5.058
 2942SOL     OW 9724   3.283   6.396   4.285
 2942SOL    HW1 9725   3.282   6.319   4.222
 2942SOL    HW2 9726   3.245   6.368   4.373
 2943SOL     OW 9727   5.571   4.774   3.065
 2943SOL    HW1 9728   5.492   4.798   3.009
 2943SOL    HW2 9729   5.654   4.783   3.011
 2944SOL     OW 9730   4.472   5.894   7.002
 2944SOL    HW1 9731   4.512   5.984   7.016
 2944SOL    HW2 9732   4.374   5.898   7.018
 2945SOL     OW 9733   2.917   3.733   4.814
 2945SOL    HW1 9734   3.003   3.683   4.821
 2945SOL    HW2 9735   2.862   3.718   4.897
 2946SOL     OW 9736   1.190   6.296   5.782
 2946SOL    HW1 9737   1.178   6.209   5.830
 2946SOL    HW2 9738   1.166   6.285   5.685
 2947SOL     OW 9739   6.878   5.268   0.150
 2947SOL    HW1 9740   6.826   5.339   0.198
 2947SOL    HW2 9741   6.956   5.241   0.206
 2948SOL     OW 9742   5.932   3.751   5.619
 2948SOL    HW1 9743   5.941   3.712   5.711
 2948SOL    HW2 9744   5.851   3.714   5.574
 2949SOL     OW 9745   0.594   6.350   0.185
 2949SOL    HW1 9746   0.633   6.353   0.092
 2949SOL    HW2 9747   0.569   6.256   0.208
 2950SOL     OW 9748   5.347   3.362   4.890
 2950SOL    HW1 9749   5.336   3.333   4.985
 2950SOL    HW2 9750   5.305   3.452   4.878
 2951SOL     OW 9751   5.852   0.210   0.344
 2951SOL    HW1 9752   5.797   0.240   0.266
 2951SOL    HW2 9753   5.857   0.110   0.345
 2952SOL     OW 9754   0.651   3.285   2.075
 2952SOL    HW1 9755   0.702   3.242   2.000
 2952SOL    HW2 9756   0.643   3.222   2.152
 2953SOL     OW 9757   5.955   1.760   2.167
 2953SOL    HW1 9758   5.986   1.677   2.214
 2953SOL    HW2 9759   5.933   1.738   2.072
 2954SOL     OW 9760   5.038   5.663   1.969
 2954SOL    HW1 9761   4.975   5.722   1.918
 2954SOL    HW2 9762   5.127   5.708   1.976
 2955SOL     OW 9763   5.783   1.938   1.237
 2955SOL    HW1 9764   5.868   1.910   1.192
 2955SOL    HW2 9765   5.708   1.934   1.171
 2956SOL     OW 9766   5.762   5.727   3.651
 2956SOL    HW1 9767   5.726   5.809   3.606
 2956SOL    HW2 9768   5.744   5.647   3.593
 2957SOL     OW 9769   1.630   4.693   1.556
 2957SOL    HW1 9770   1.575   4.622   1.601
 2957SOL    HW2 9771   1.679   4.746   1.624
 2958SOL     OW 9772   2.977   4.732   6.220
 2958SOL    HW1 9773   3.074   4.712   6.234
 2958SOL    HW2 9774   2.923   4.682   6.287
 2959SOL     OW 9775   3.556   5.095   0.438
 2959SOL    HW1 9776   3.579   5.101   0.535
 2959SOL    HW2 9777   3.633   5.054   0.389
 2960SOL     OW 9778   3.205   1.750   7.022
 2960SOL    HW1 9779   3.283   1.737   0.054
 2960SOL    HW2 9780   3.120   1.747   0.047
 2961SOL     OW 9781   5.696   1.363   4.131
 2961SOL    HW1 9782   5.767   1.339   4.198
 2961SOL    HW2 9783   5.606   1.352   4.173
 2962SOL     OW 9784   4.457   0.297   2.804
 2962SOL    HW1 9785   4.397   0.346   2.867
 2962SOL    HW2 9786   4.552   0.316   2.827
 2963SOL     OW 9787   2.176   3.194   5.081
 2963SOL    HW1 9788   2.196   3.246   5.164
 2963SOL    HW2 9789   2.257   3.143   5.053
 2964SOL     OW 9790   3.149   6.083   0.423
 2964SOL    HW1 9791   3.223   6.088   0.491
 2964SOL    HW2 9792   3.063   6.062   0.469
 2965SOL     OW 9793   0.675   2.788   6.537
 2965SOL    HW1 9794   0.635   2.870   6.578
 2965SOL    HW2 9795   0.740   2.814   6.467
 2966SOL     OW 9796   4.795   4.899   3.621
 2966SOL    HW1 9797   4.745   4.892   3.535
 2966SOL    HW2 9798   4.798   4.809   3.665
 2967SOL     OW 9799   6.015   2.723   4.215
 2967SOL    HW1 9800   6.041   2.631   4.184
 2967SOL    HW2 9801   6.092   2.764   4.265
 2968SOL     OW 9802   6.869   4.019   3.579
 2968SOL    HW1 9803   6.879   3.962   3.498
 2968SOL    HW2 9804   6.844   4.112   3.551
 2969SOL     OW 9805   3.766   1.663   4.719
 2969SOL    HW1 9806   3.709   1.659   4.637
 2969SOL    HW2 9807   3.775   1.758   4.749
 2970SOL     OW 9808   1.109   4.077   5.662
 2970SOL    HW1 9809   1.195   4.035   5.691
 2970SOL    HW2 9810   1.068   4.125   5.739
 2971SOL     OW 9811   5.385   3.830   2.327
 2971SOL    HW1 9812   5.350   3.923   2.340
 2971SOL    HW2 9813   5.318   3.764   2.362
 2972SOL     OW 9814   0.712   4.242   4.949
 2972SOL    HW1 9815   0.810   4.264   4.946
 2972SOL    HW2 9816   0.698   4.150   4.913
 2973SOL     OW 9817   5.807   0.170   3.764
 2973SOL    HW1 9818   5.891   0.225   3.774
 2973SOL    HW2 9819   5.733   0.213   3.815
 2974SOL     OW 9820   0.024   4.578   1.273
 2974SOL    HW1 9821   0.010   4.507   1.342
 2974SOL    HW2 9822   0.110   4.625   1.291
 2975SOL     OW 9823   6.401   1.494   3.929
 2975SOL    HW1 9824   6.348   1.460   3.851
 2975SOL    HW2 9825   6.485   1.536   3.896
 2976SOL     OW 9826   2.310   6.138   1.362
 2976SOL    HW1 9827   2.264   6.193   1.432
 2976SOL    HW2 9828   2.408   6.134   1.381
 2977SOL     OW 9829   3.078   6.874   3.571
 2977SOL    HW1 9830   3.064   6.946   3.638
 2977SOL    HW2 9831   3.099   6.788   3.618
 2978SOL     OW 9832   2.895   6.924   6.445
 2978SOL    HW1 9833   2.848   6.930   6.357
 2978SOL    HW2 9834   2.920   6.829   6.463
 2979SOL     OW 9835   2.865   1.164   3.292
 2979SOL    HW1 9836   2.834   1.155   3.387
 2979SOL    HW2 9837   2.835   1.251   3.255
 2980SOL     OW 9838   6.260   6.959   2.925
 2980SOL    HW1 9839   6.209   0.010   2.959
 2980SOL    HW2 9840   6.320   6.926   2.998
 2981SOL     OW 9841   1.966   1.485   6.164
 2981SOL    HW1 9842   1.951   1.398   6.210
 2981SOL    HW2 9843   1.878   1.529   6.144
 2982SOL     OW 9844   4.502   5.834   2.016
 2982SOL    HW1 9845   4.469   5.747   1.978
 2982SOL    HW2 9846   4.500   5.829   2.116
 2983SOL     OW 9847   0.127   0.970   2.582
 2983SOL    HW1 9848   0.156   0.875   2.597
 2983SOL    HW2 9849   0.070   0.974   2.500
 2984SOL     OW 9850   5.970   4.762   1.735
 2984SOL    HW1 9851   6.021   4.821   1.798
 2984SOL    HW2 9852   5.907   4.705   1.786
 2985SOL     OW 9853   6.485   2.562   3.037
 2985SOL    HW1 9854   6.498   2.508   3.120
 2985SOL    HW2 9855   6.394   2.605   3.039
 2986SOL     OW 9856   1.835   3.213   5.241
 2986SOL    HW1 9857   1.867   3.281   5.175
 2986SOL    HW2 9858   1.859   3.122   5.208
 2987SOL     OW 9859   5.023   1.781   5.009
 2987SOL    HW1 9860   5.053   1.700   5.059
 2987SOL    HW2 9861   5.102   1.835   4.983
 2988SOL     OW 9862   1.133   0.345   2.508
 2988SOL    HW1 9863   1.125   0.335   2.409
 2988SOL    HW2 9864   1.218   0.393   2.530
 2989SOL     OW 9865   6.263   5.222   0.830
 2989SOL    HW1 9866   6.238   5.203   0.735
 2989SOL    HW2 9867   6.181   5.221   0.887
 2990SOL     OW 9868   2.965   1.510   1.624
 2990SOL    HW1 9869   2.909   1.580   1.581
 2990SOL    HW2 9870   2.955   1.424   1.574
 2991SOL     OW 9871   6.749   4.775   6.807
 2991SOL    HW1 9872   6.723   4.772   6.710
 2991SOL    HW2 9873   6.676   4.819   6.859
 2992SOL     OW 9874   4.499   4.065   6.959
 2992SOL    HW1 9875   4.577   4.023   7.004
 2992SOL    HW2 9876   4.414   4.026   6.996
 2993SOL     OW 9877   1.340   4.568   0.064
 2993SOL    HW1 9878   1.408   4.597   7.024
 2993SOL    HW2 9879   1.365   4.607   0.153
 2994SOL     OW 9880   4.573   6.142   0.051
 2994SOL    HW1 9881   4.656   6.187   0.085
 2994SOL    HW2 9882   4.494   6.199   0.070
 2995SOL     OW 9883   2.353   0.883   5.543
 2995SOL    HW1 9884   2.416   0.862   5.617
 2995SOL    HW2 9885   2.278   0.817   5.543
 2996SOL     OW 9886   4.427   6.555   5.863
 2996SOL    HW1 9887   4.339   6.557   5.912
 2996SOL    HW2 9888   4.413   6.589   5.770
 2997SOL     OW 9889   3.931   5.843   0.259
 2997SOL    HW1 9890   3.902   5.747   0.249
 2997SOL    HW2 9891   3.852   5.903   0.245
 2998SOL     OW 9892   6.413   4.465   5.568
 2998SOL    HW1 9893   6.480   4.450   5.640
 2998SOL    HW2 9894   6.400   4.379   5.516
 2999SOL     OW 9895   2.093   1.718   1.734
 2999SOL    HW1 9896   2.123   1.657   1.660
 2999SOL    HW2 9897   2.047   1.665   1.805
 3000SOL     OW 9898   1.230   1.955   4.740
 3000SOL    HW1 9899   1.266   2.048   4.735
 3000SOL    HW2 9900   1.147   1.955   4.796
 3001SOL     OW 9901   4.982   6.172   5.726
 3001SOL    HW1 9902   5.065   6.133   5.767
 3001SOL    HW2 9903   4.994   6.182   5.628
 3002SOL     OW 9904   3.315   0.468   5.043
 3002SOL    HW1 9905   3.337   0.378   5.007
 3002SOL    HW2 9906   3.299   0.532   4.968
 3003SOL     OW 9907   1.187   0.103   5.700
 3003SOL    HW1 9908   1.174   0.203   5.699
 3003SOL    HW2 9909   1.185   0.069   5.606
 3004SOL     OW 9910   6.885   2.794   5.791
 3004SOL    HW1 9911   6.922   2.701   5.795
 3004SOL    HW2 9912   6.871   2.829   5.883
 3005SOL     OW 9913   4.800   2.456   0.894
 3005SOL    HW1 9914   4.767   2.367   0.864
 3005SOL    HW2 9915   4.835   2.449   0.987
 3006SOL     OW 9916   4.353   7.004   1.812
 3006SOL    HW1 9917   4.352   0.067   1.852
 3006SOL    HW2 9918   4.366   6.936   1.884
 3007SOL     OW 9919   5.810   5.323   1.815
 3007SOL    HW1 9920   5.765   5.234   1.813
 3007SOL    HW2 9921   5.897   5.315   1.863
 3008SOL     OW 9922   4.442   5.428   5.652
 3008SOL    HW1 9923   4.468   5.497   5.720
 3008SOL    HW2 9924   4.435   5.339   5.697
 3009SOL     OW 9925   0.930   0.621   2.838
 3009SOL    HW1 9926   0.835   0.596   2.818
 3009SOL    HW2 9927   0.938   0.648   2.934
 3010SOL     OW 9928   2.817   6.911   2.929
 3010SOL    HW1 9929   2.880   6.887   2.855
 3010SOL    HW2 9930   2.826   7.008   2.950
 3011SOL     OW 9931   5.487   0.162   0.819
 3011SOL    HW1 9932   5.568   0.217   0.840
 3011SOL    HW2 9933   5.494   0.126   0.726
 3012SOL     OW 9934   6.949   5.278   1.299
 3012SOL    HW1 9935   6.967   5.213   1.225
 3012SOL    HW2 9936   7.027   5.278   1.362
 3013SOL     OW 9937   5.579   4.544   1.886
 3013SOL    HW1 9938   5.650   4.479   1.857
 3013SOL    HW2 9939   5.508   4.550   1.815
 3014SOL     OW 9940   5.132   6.715   5.864
 3014SOL    HW1 9941   5.145   6.792   5.927
 3014SOL    HW2 9942   5.215   6.660   5.860
 3015SOL     OW 9943   2.607   1.139   0.257
 3015SOL    HW1 9944   2.670   1.187   0.196
 3015SOL    HW2 9945   2.648   1.052   0.284
 3016SOL     OW 9946   3.969   5.876   3.652
 3016SOL    HW1 9947   3.871   5.898   3.659
 3016SOL    HW2 9948   3.998   5.828   3.735
 3017SOL     OW 9949   0.353   5.854   1.900
 3017SOL    HW1 9950   0.376   5.927   1.965
 3017SOL    HW2 9951   0.310   5.894   1.819
 3018SOL     OW 9952   4.572   0.137   6.084
 3018SOL    HW1 9953   4.588   0.150   5.986
 3018SOL    HW2 9954   4.503   0.066   6.098
 3019SOL     OW 9955   4.878   0.425   1.868
 3019SOL    HW1 9956   4.864   0.457   1.774
 3019SOL    HW2 9957   4.798   0.372   1.897
 3020SOL     OW 9958   1.927   0.396   1.700
 3020SOL    HW1 9959   2.009   0.437   1.659
 3020SOL    HW2 9960   1.853   0.393   1.632
 3021SOL     OW 9961   4.415   0.858   6.509
 3021SOL    HW1 9962   4.410   0.884   6.606
 3021SOL    HW2 9963   4.336   0.896   6.460
 3022SOL     OW 9964   6.890   0.465   3.069
 3022SOL    HW1 9965   6.904   0.377   3.114
 3022SOL    HW2 9966   6.870   0.451   2.972
 3023SOL     OW 9967   5.610   0.450   1.536
 3023SOL    HW1 9968   5.683   0.397   1.493
 3023SOL    HW2 9969   5.541   0.474   1.468
 3024SOL     OW 9970   2.335   7.008   6.611
 3024SOL    HW1 9971   2.344   6.971   6.704
 3024SOL    HW2 9972   2.426   7.026   6.574
 3025SOL     OW 9973   2.008   2.415   1.789
 3025SOL    HW1 9974   2.051   2.505   1.789
 3025SOL    HW2 9975   2.000   2.382   1.695
 3026SOL     OW 9976   2.862   5.619   0.614
 3026SOL    HW1 9977   2.895   5.650   0.524
 3026SOL    HW2 9978   2.787   5.679   0.643
 3027SOL     OW 9979   1.502   2.043   3.649
 3027SOL    HW1 9980   1.552   2.017   3.566
 3027SOL    HW2 9981   1.441   1.968   3.675
 3028SOL     OW 9982   1.122   0.252   4.678
 3028SOL    HW1 9983   1.064   0.294   4.608
 3028SOL    HW2 9984   1.204   0.309   4.691
 3029SOL     OW 9985   6.501   5.432   6.069
 3029SOL    HW1 9986   6.507   5.503   5.999
 3029SOL    HW2 9987   6.510   5.342   6.025
 3030SOL     OW 9988   1.134   0.546   5.087
 3030SOL    HW1 9989   1.080   0.619   5.129
 3030SOL    HW2 9990   1.075   0.466   5.073
 3031SOL     OW 9991   0.242   5.750   5.930
 3031SOL    HW1 9992   0.300   5.722   6.006
 3031SOL    HW2 9993   0.299   5.775   5.851
 3032SOL     OW 9994   4.017   6.696   5.530
 3032SOL    HW1 9995   4.057   6.673   5.619
 3032SOL    HW2 9996   4.056   6.636   5.460
 3033SOL     OW 9997   5.035   4.799   5.568
 3033SOL    HW1 9998   5.045   4.718   5.511
 3033SOL    HW2 9999   5.125   4.835   5.591
 3034SOL     OW10000   2.724   6.859   4.427
 3034SOL    HW110001   2.789   6.922   4.385
 3034SOL    HW210002   2.689   6.796   4.358
 3035SOL     OW10003   6.094   0.177   7.012
 3035SOL    HW110004   6.137   0.263   0.010
 3035SOL    HW210005   6.131   0.103   0.040
 3036SOL     OW10006   1.243   5.212   5.415
 3036SOL    HW110007   1.225   5.121   5.451
 3036SOL    HW210008   1.157   5.257   5.390
 3037SOL     OW10009   5.382   6.595   5.900
 3037SOL    HW110010   5.481   6.594   5.912
 3037SOL    HW210011   5.338   6.557   5.981
 3038SOL     OW10012   6.152   6.162   6.059
 3038SOL    HW110013   6.071   6.216   6.079
 3038SOL    HW210014   6.171   6.165   5.960
 3039SOL     OW10015   0.451   5.359   0.715
 3039SOL    HW110016   0.550   5.350   0.700
 3039SOL    HW210017   0.406   5.272   0.693
 3040SOL     OW10018   3.153   1.304   0.128
 3040SOL    HW110019   3.142   1.367   0.051
 3040SOL    HW210020   3.222   1.235   0.104
 3041SOL     OW10021   1.625   2.278   6.297
 3041SOL    HW110022   1.691   2.206   6.316
 3041SOL    HW210023   1.632   2.307   6.202
 3042SOL     OW10024   6.206   0.327   1.108
 3042SOL    HW110025   6.140   0.361   1.174
 3042SOL    HW210026   6.251   0.245   1.144
 3043SOL     OW10027   0.251   5.334   6.708
 3043SOL    HW110028   0.283   5.241   6.689
 3043SOL    HW210029   0.185   5.332   6.783
 3044SOL     OW10030   2.446   3.288   6.303
 3044SOL    HW110031   2.495   3.270   6.388
 3044SOL    HW210032   2.495   3.246   6.227
 3045SOL     OW10033   4.847   2.317   3.787
 3045SOL    HW110034   4.765   2.266   3.813
 3045SOL    HW210035   4.868   2.299   3.691
 3046SOL     OW10036   1.951   2.455   6.081
 3046SOL    HW110037   2.035   2.494   6.044
 3046SOL    HW210038   1.897   2.414   6.007
 3047SOL     OW10039   6.987   5.652   1.482
 3047SOL    HW110040   0.005   5.601   1.410
 3047SOL    HW210041   0.024   5.675   1.554
 3048SOL     OW10042   3.338   2.706   1.642
 3048SOL    HW110043   3.309   2.757   1.561
 3048SOL    HW210044   3.435   2.723   1.659
 3049SOL     OW10045   0.704   0.406   1.230
 3049SOL    HW110046   0.767   0.403   1.153
 3049SOL    HW210047   0.670   0.314   1.250
 3050SOL     OW10048   1.599   0.790   3.998
 3050SOL    HW110049   1.691   0.756   4.017
 3050SOL    HW210050   1.596   0.889   4.014
 3051SOL     OW10051   2.636   4.512   6.292
 3051SOL    HW110052   2.709   4.447   6.315
 3051SOL    HW210053   2.655   4.600   6.335
 3052SOL     OW10054   5.218   6.774   2.834
 3052SOL    HW110055   5.227   6.872   2.852
 3052SOL    HW210056   5.203   6.725   2.920
 3053SOL     OW10057   4.023   0.034   1.996
 3053SOL    HW110058   4.020   6.962   1.992
 3053SOL    HW210059   3.977   0.065   2.079
 3054SOL     OW10060   2.295   4.383   5.649
 3054SOL    HW110061   2.383   4.340   5.628
 3054SOL    HW210062   2.224   4.313   5.651
 3055SOL     OW10063   6.574   6.505   2.665
 3055SOL    HW110064   6.514   6.555   2.727
 3055SOL    HW210065   6.617   6.570   2.602
 3056SOL     OW10066   5.549   0.614   1.943
 3056SOL    HW110067   5.530   0.641   1.849
 3056SOL    HW210068   5.647   0.616   1.960
 3057SOL     OW10069   6.176   5.476   2.698
 3057SOL    HW110070   6.080   5.500   2.709
 3057SOL    HW210071   6.184   5.381   2.666
 3058SOL     OW10072   5.774   6.065   1.463
 3058SOL    HW110073   5.735   6.078   1.555
 3058SOL    HW210074   5.761   5.970   1.435
 3059SOL     OW10075   2.457   2.647   5.976
 3059SOL    HW110076   2.414   2.735   5.995
 3059SOL    HW210077   2.544   2.662   5.930
 3060SOL     OW10078   0.445   6.336   6.549
 3060SOL    HW110079   0.354   6.300   6.569
 3060SOL    HW210080   0.511   6.260   6.545
 3061SOL     OW10081   0.751   0.943   6.048
 3061SOL    HW110082   0.725   0.993   5.965
 3061SOL    HW210083   0.828   0.883   6.029
 3062SOL     OW10084   3.228   5.134   6.330
 3062SOL    HW110085   3.247   5.104   6.424
 3062SOL    HW210086   3.215   5.233   6.330
 3063SOL     OW10087   2.723   5.885   0.915
 3063SOL    HW110088   2.811   5.838   0.928
 3063SOL    HW210089   2.737   5.984   0.924
 3064SOL     OW10090   0.260   4.429   3.238
 3064SOL    HW110091   0.217   4.509   3.279
 3064SOL    HW210092   0.231   4.346   3.286
 3065SOL     OW10093   3.306   1.518   1.458
 3065SOL    HW110094   3.285   1.424   1.486
 3065SOL    HW210095   3.242   1.547   1.387
 3066SOL     OW10096   5.254   5.378   0.576
 3066SOL    HW110097   5.350   5.366   0.600
 3066SOL    HW210098   5.212   5.445   0.638
 3067SOL     OW10099   4.300   6.936   2.998
 3067SOL    HW110100   4.368   6.886   3.052
 3067SOL    HW210101   4.279   7.023   3.043
 3068SOL     OW10102   6.379   4.639   6.676
 3068SOL    HW110103   6.382   4.646   6.776
 3068SOL    HW210104   6.422   4.554   6.647
 3069SOL     OW10105   0.837   4.582   3.633
 3069SOL    HW110106   0.860   4.633   3.716
 3069SOL    HW210107   0.759   4.522   3.650
 3070SOL     OW10108   4.438   1.954   4.111
 3070SOL    HW110109   4.466   1.859   4.121
 3070SOL    HW210110   4.498   2.012   4.167
 3071SOL     OW10111   5.854   0.427   4.029
 3071SOL    HW110112   5.926   0.485   4.067
 3071SOL    HW210113   5.848   0.342   4.082
 3072SOL     OW10114   0.279   0.553   1.748
 3072SOL    HW110115   0.323   0.499   1.677
 3072SOL    HW210116   0.183   0.569   1.724
 3073SOL     OW10117   2.354   1.989   4.893
 3073SOL    HW110118   2.341   2.039   4.807
 3073SOL    HW210119   2.308   1.901   4.887
 3074SOL     OW10120   4.795   3.735   5.886
 3074SOL    HW110121   4.880   3.697   5.849
 3074SOL    HW210122   4.812   3.828   5.920
 3075SOL     OW10123   0.047   5.701   0.861
 3075SOL    HW110124   0.005   5.772   0.804
 3075SOL    HW210125   7.012   5.625   0.871
 3076SOL     OW10126   0.668   0.930   5.138
 3076SOL    HW110127   0.751   0.958   5.187
 3076SOL    HW210128   0.662   0.980   5.052
 3077SOL     OW10129   4.865   4.629   3.278
 3077SOL    HW110130   4.793   4.600   3.214
 3077SOL    HW210131   4.951   4.640   3.228
 3078SOL     OW10132   1.983   2.476   7.008
 3078SOL    HW110133   2.054   2.545   7.022
 3078SOL    HW210134   1.893   2.521   7.009
 3079SOL     OW10135   5.661   2.888   5.870
 3079SOL    HW110136   5.621   2.915   5.782
 3079SOL    HW210137   5.755   2.920   5.875
 3080SOL     OW10138   5.984   6.672   1.646
 3080SOL    HW110139   5.906   6.614   1.669
 3080SOL    HW210140   6.063   6.614   1.627
 3081SOL     OW10141   1.220   4.420   5.636
 3081SOL    HW110142   1.159   4.405   5.558
 3081SOL    HW210143   1.308   4.375   5.618
 3082SOL     OW10144   3.357   0.017   2.334
 3082SOL    HW110145   3.407   6.989   2.269
 3082SOL    HW210146   3.351   6.999   2.422
 3083SOL     OW10147   3.672   0.048   2.275
 3083SOL    HW110148   3.642   0.108   2.349
 3083SOL    HW210149   3.615   6.995   2.273
 3084SOL     OW10150   4.245   6.215   4.088
 3084SOL    HW110151   4.224   6.138   4.029
 3084SOL    HW210152   4.161   6.250   4.129
 3085SOL     OW10153   1.035   5.017   2.195
 3085SOL    HW110154   0.964   4.978   2.253
 3085SOL    HW210155   0.993   5.077   2.127
 3086SOL     OW10156   6.114   1.367   4.528
 3086SOL    HW110157   6.075   1.330   4.444
 3086SOL    HW210158   6.142   1.291   4.588
 3087SOL     OW10159   5.744   4.032   1.574
 3087SOL    HW110160   5.657   4.000   1.538
 3087SOL    HW210161   5.731   4.120   1.620
 3088SOL     OW10162   2.937   3.795   6.464
 3088SOL    HW110163   2.982   3.854   6.397
 3088SOL    HW210164   2.974   3.702   6.457
 3089SOL     OW10165   3.533   1.882   1.668
 3089SOL    HW110166   3.615   1.936   1.687
 3089SOL    HW210167   3.494   1.911   1.581
 3090SOL     OW10168   6.103   1.651   0.700
 3090SOL    HW110169   6.173   1.659   0.771
 3090SOL    HW210170   6.017   1.624   0.741
 3091SOL     OW10171   2.364   5.952   0.216
 3091SOL    HW110172   2.335   5.858   0.195
 3091SOL    HW210173   2.288   6.003   0.255
 3092SOL     OW10174   3.503   5.429   0.148
 3092SOL    HW110175   3.467   5.344   0.187
 3092SOL    HW210176   3.569   5.407   0.076
 3093SOL     OW10177   4.726   0.193   3.222
 3093SOL    HW110178   4.805   0.181   3.281
 3093SOL    HW210179   4.702   0.290   3.215
 3094SOL     OW10180   3.451   5.538   5.089
 3094SOL    HW110181   3.423   5.608   5.154
 3094SOL    HW210182   3.377   5.519   5.025
 3095SOL     OW10183   1.925   5.037   5.131
 3095SOL    HW110184   1.931   5.110   5.064
 3095SOL    HW210185   1.872   4.961   5.093
 3096SOL     OW10186   0.596   1.295   5.660
 3096SOL    HW110187   0.502   1.309   5.628
 3096SOL    HW210188   0.657   1.287   5.581
 3097SOL     OW10189   2.007   1.147   0.240
 3097SOL    HW110190   1.966   1.068   0.286
 3097SOL    HW210191   1.980   1.147   0.144
 3098SOL     OW10192   4.237   2.537   0.997
 3098SOL    HW110193   4.324   2.490   0.983
 3098SOL    HW210194   4.254   2.634   1.017
 3099SOL     OW10195   1.632   5.871   5.494
 3099SOL    HW110196   1.588   5.880   5.405
 3099SOL    HW210197   1.714   5.813   5.485
 3100SOL     OW10198   6.581   6.689   6.172
 3100SOL    HW110199   6.514   6.696   6.098
 3100SOL    HW210200   6.581   6.775   6.223
 3101SOL     OW10201   3.641   0.711   1.208
 3101SOL    HW110202   3.640   0.612   1.217
 3101SOL    HW210203   3.558   0.742   1.162
 3102SOL     OW10204   0.827   6.012   0.175
 3102SOL    HW110205   0.752   5.946   0.177
 3102SOL    HW210206   0.845   6.044   0.269
 3103SOL     OW10207   4.158   4.328   1.704
 3103SOL    HW110208   4.238   4.295   1.755
 3103SOL    HW210209   4.076   4.281   1.738
 3104SOL     OW10210   5.631   5.780   3.987
 3104SOL    HW110211   5.604   5.685   3.971
 3104SOL    HW210212   5.573   5.840   3.932
 3105SOL     OW10213   5.999   5.551   3.692
 3105SOL    HW110214   6.059   5.624   3.726
 3105SOL    HW210215   5.919   5.592   3.647
 3106SOL     OW10216   6.657   2.972   4.772
 3106SOL    HW110217   6.576   2.999   4.824
 3106SOL    HW210218   6.736   2.970   4.833
 3107SOL     OW10219   2.749   0.079   4.314
 3107SOL    HW110220   2.663   0.048   4.354
 3107SOL    HW210221   2.809   0.115   4.385
 3108SOL     OW10222   1.986   0.565   2.953
 3108SOL    HW110223   2.085   0.558   2.944
 3108SOL    HW210224   1.955   0.651   2.913
 3109SOL     OW10225   4.912   5.993   3.367
 3109SOL    HW110226   4.860   5.934   3.305
 3109SOL    HW210227   5.006   5.961   3.372
 3110SOL     OW10228   1.299   2.955   1.666
 3110SOL    HW110229   1.217   3.010   1.647
 3110SOL    HW210230   1.370   3.014   1.706
 3111SOL     OW10231   0.263   4.858   2.227
 3111SOL    HW110232   0.201   4.829   2.299
 3111SOL    HW210233   0.311   4.941   2.256
 3112SOL     OW10234   2.691   3.515   5.849
 3112SOL    HW110235   2.624   3.589   5.858
 3112SOL    HW210236   2.782   3.555   5.835
 3113SOL     OW10237   4.267   6.450   4.416
 3113SOL    HW110238   4.359   6.434   4.381
 3113SOL    HW210239   4.256   6.546   4.439
 3114SOL     OW10240   4.939   5.876   0.609
 3114SOL    HW110241   4.946   5.776   0.606
 3114SOL    HW210242   5.016   5.916   0.561
 3115SOL     OW10243   2.846   3.289   2.178
 3115SOL    HW110244   2.867   3.271   2.082
 3115SOL    HW210245   2.752   3.261   2.197
 3116SOL     OW10246   0.138   1.303   6.836
 3116SOL    HW110247   0.207   1.375   6.830
 3116SOL    HW210248   0.173   1.220   6.794
 3117SOL     OW10249   3.620   4.058   6.007
 3117SOL    HW110250   3.558   3.995   5.960
 3117SOL    HW210251   3.618   4.147   5.960
 3118SOL     OW10252   6.254   5.557   6.941
 3118SOL    HW110253   6.321   5.620   6.900
 3118SOL    HW210254   6.235   5.482   6.878
 3119SOL     OW10255   2.340   4.189   6.915
 3119SOL    HW110256   2.290   4.104   6.903
 3119SOL    HW210257   2.280   4.259   6.954
 3120SOL     OW10258   2.759   5.398   6.635
 3120SOL    HW110259   2.764   5.475   6.571
 3120SOL    HW210260   2.666   5.392   6.672
 3121SOL     OW10261   0.553   5.904   3.656
 3121SOL    HW110262   0.595   5.941   3.573
 3121SOL    HW210263   0.509   5.817   3.635
 3122SOL     OW10264   3.601   5.194   1.247
 3122SOL    HW110265   3.646   5.173   1.161
 3122SOL    HW210266   3.525   5.257   1.230
 3123SOL     OW10267   3.416   6.890   4.191
 3123SOL    HW110268   3.435   6.797   4.221
 3123SOL    HW210269   3.499   6.945   4.198
 3124SOL     OW10270   3.604   0.059   5.959
 3124SOL    HW110271   3.628   7.009   6.015
 3124SOL    HW210272   3.558   0.028   5.875
 3125SOL     OW10273   6.904   2.193   6.365
 3125SOL    HW110274   6.975   2.178   6.433
 3125SOL    HW210275   6.834   2.121   6.372
 3126SOL     OW10276   4.101   6.205   6.317
 3126SOL    HW110277   4.200   6.204   6.299
 3126SOL    HW210278   4.085   6.232   6.412
 3127SOL     OW10279   1.207   1.388   4.244
 3127SOL    HW110280   1.148   1.309   4.261
 3127SOL    HW210281   1.277   1.364   4.177
 3128SOL     OW10282   1.687   0.648   1.139
 3128SOL    HW110283   1.707   0.606   1.051
 3128SOL    HW210284   1.638   0.583   1.197
 3129SOL     OW10285   0.993   2.818   3.250
 3129SOL    HW110286   1.067   2.884   3.268
 3129SOL    HW210287   0.923   2.861   3.193
 3130SOL     OW10288   2.555   5.389   3.356
 3130SOL    HW110289   2.643   5.354   3.324
 3130SOL    HW210290   2.489   5.388   3.281
 3131SOL     OW10291   0.427   2.839   4.343
 3131SOL    HW110292   0.409   2.937   4.352
 3131SOL    HW210293   0.434   2.816   4.246
 3132SOL     OW10294   5.059   4.055   5.973
 3132SOL    HW110295   5.071   4.081   6.069
 3132SOL    HW210296   4.966   4.023   5.959
 3133SOL     OW10297   2.318   1.899   3.334
 3133SOL    HW110298   2.394   1.900   3.270
 3133SOL    HW210299   2.245   1.958   3.299
 3134SOL     OW10300   5.813   2.971   2.099
 3134SOL    HW110301   5.747   2.984   2.174
 3134SOL    HW210302   5.769   2.921   2.025
 3135SOL     OW10303   1.314   2.016   2.967
 3135SOL    HW110304   1.215   2.031   2.965
 3135SOL    HW210305   1.336   1.935   2.914
 3136SOL     OW10306   6.137   0.339   5.111
 3136SOL    HW110307   6.173   0.308   5.199
 3136SOL    HW210308   6.139   0.263   5.046
 3137SOL     OW10309   0.634   1.992   4.410
 3137SOL    HW110310   0.693   2.071   4.393
 3137SOL    HW210311   0.541   2.013   4.382
 3138SOL     OW10312   6.121   2.293   4.350
 3138SOL    HW110313   6.109   2.329   4.442
 3138SOL    HW210314   6.060   2.343   4.287
 3139SOL     OW10315   4.798   5.562   5.176
 3139SOL    HW110316   4.887   5.523   5.153
 3139SOL    HW210317   4.727   5.494   5.162
 3140SOL     OW10318   5.906   6.282   6.092
 3140SOL    HW110319   5.851   6.199   6.098
 3140SOL    HW210320   5.856   6.359   6.131
 3141SOL     OW10321   1.112   6.053   2.066
 3141SOL    HW110322   1.180   6.079   2.136
 3141SOL    HW210323   1.051   5.984   2.104
 3142SOL     OW10324   3.713   0.036   0.354
 3142SOL    HW110325   3.713   6.979   0.303
 3142SOL    HW210326   3.623   0.080   0.345
 3143SOL     OW10327   0.224   1.886   0.479
 3143SOL    HW110328   0.187   1.815   0.419
 3143SOL    HW210329   0.200   1.976   0.444
 3144SOL     OW10330   2.473   2.931   6.847
 3144SOL    HW110331   2.393   2.932   6.907
 3144SOL    HW210332   2.483   2.841   6.805
 3145SOL     OW10333   2.947   5.442   3.019
 3145SOL    HW110334   2.995   5.359   2.989
 3145SOL    HW210335   3.007   5.494   3.080
 3146SOL     OW10336   2.239   6.847   3.993
 3146SOL    HW110337   2.245   6.753   3.959
 3146SOL    HW210338   2.298   6.857   4.074
 3147SOL     OW10339   3.764   4.436   0.752
 3147SOL    HW110340   3.753   4.366   0.822
 3147SOL    HW210341   3.684   4.437   0.692
 3148SOL     OW10342   3.149   5.607   4.784
 3148SOL    HW110343   3.207   5.528   4.764
 3148SOL    HW210344   3.179   5.684   4.728
 3149SOL     OW10345   2.699   6.554   5.784
 3149SOL    HW110346   2.696   6.611   5.702
 3149SOL    HW210347   2.661   6.464   5.763
 3150SOL     OW10348   6.416   0.000   4.433
 3150SOL    HW110349   6.345   6.995   4.371
 3150SOL    HW210350   6.485   0.050   4.380
 3151SOL     OW10351   3.421   0.066   1.832
 3151SOL    HW110352   3.395   7.002   1.860
 3151SOL    HW210353   3.472   0.110   1.907
 3152SOL     OW10354   1.680   4.763   6.008
 3152SOL    HW110355   1.694   4.762   5.909
 3152SOL    HW210356   1.670   4.857   6.040
 3153SOL     OW10357   6.716   4.355   3.199
 3153SOL    HW110358   6.696   4.415   3.122
 3153SOL    HW210359   6.724   4.260   3.166
 3154SOL     OW10360   5.926   2.805   6.079
 3154SOL    HW110361   5.912   2.709   6.058
 3154SOL    HW210362   5.990   2.845   6.014
 3155SOL     OW10363   4.430   5.934   0.440
 3155SOL    HW110364   4.522   5.895   0.433
 3155SOL    HW210365   4.436   6.025   0.481
 3156SOL     OW10366   3.543   3.849   3.508
 3156SOL    HW110367   3.589   3.931   3.474
 3156SOL    HW210368   3.606   3.772   3.506
 3157SOL     OW10369   2.034   2.386   4.643
 3157SOL    HW110370   2.005   2.305   4.695
 3157SOL    HW210371   2.107   2.433   4.692
 3158SOL     OW10372   4.639   6.776   1.598
 3158SOL    HW110373   4.570   6.722   1.646
 3158SOL    HW210374   4.730   6.753   1.633
 3159SOL     OW10375   5.106   4.758   0.433
 3159SOL    HW110376   5.169   4.681   0.447
 3159SOL    HW210377   5.157   4.838   0.404
 3160SOL     OW10378   6.432   4.737   0.667
 3160SOL    HW110379   6.370   4.724   0.744
 3160SOL    HW210380   6.472   4.649   0.641
 3161SOL     OW10381   1.012   1.165   3.940
 3161SOL    HW110382   1.019   1.082   3.885
 3161SOL    HW210383   0.955   1.147   4.020
 3162SOL     OW10384   0.021   0.063   5.883
 3162SOL    HW110385   0.003   0.159   5.901
 3162SOL    HW210386   6.964   0.015   5.869
 3163SOL     OW10387   1.932   4.596   5.454
 3163SOL    HW110388   1.890   4.505   5.453
 3163SOL    HW210389   1.989   4.605   5.535
 3164SOL     OW10390   6.565   5.186   5.440
 3164SOL    HW110391   6.520   5.107   5.399
 3164SOL    HW210392   6.522   5.270   5.407
 3165SOL     OW10393   0.370   3.157   1.385
 3165SOL    HW110394   0.336   3.111   1.303
 3165SOL    HW210395   0.406   3.089   1.449
 3166SOL     OW10396   3.943   3.012   6.510
 3166SOL    HW110397   3.913   2.958   6.431
 3166SOL    HW210398   3.926   3.109   6.492
 3167SOL     OW10399   0.120   5.069   2.018
 3167SOL    HW110400   0.171   5.016   2.085
 3167SOL    HW210401   0.031   5.095   2.057
 3168SOL     OW10402   6.089   2.702   0.956
 3168SOL    HW110403   6.083   2.625   1.019
 3168SOL    HW210404   6.156   2.682   0.884
 3169SOL     OW10405   2.641   2.124   5.673
 3169SOL    HW110406   2.585   2.184   5.731
 3169SOL    HW210407   2.628   2.150   5.577
 3170SOL     OW10408   3.722   0.259   5.204
 3170SOL    HW110409   3.704   0.162   5.186
 3170SOL    HW210410   3.704   0.312   5.121
 3171SOL     OW10411   5.574   5.870   2.853
 3171SOL    HW110412   5.613   5.802   2.914
 3171SOL    HW210413   5.497   5.831   2.803
 3172SOL     OW10414   5.570   6.692   5.634
 3172SOL    HW110415   5.539   6.774   5.681
 3172SOL    HW210416   5.497   6.658   5.574
 3173SOL     OW10417   1.901   0.832   1.528
 3173SOL    HW110418   1.904   0.774   1.447
 3173SOL    HW210419   1.952   0.788   1.602
 3174SOL     OW10420   2.408   3.407   6.546
 3174SOL    HW110421   2.401   3.374   6.452
 3174SOL    HW210422   2.392   3.331   6.609
 3175SOL     OW10423   0.184   6.507   0.538
 3175SOL    HW110424   0.241   6.584   0.508
 3175SOL    HW210425   0.203   6.427   0.482
 3176SOL     OW10426   0.815   5.361   0.079
 3176SOL    HW110427   0.782   5.288   0.139
 3176SOL    HW210428   0.800   5.335   7.012
 3177SOL     OW10429   0.831   0.258   4.292
 3177SOL    HW110430   0.838   0.316   4.210
 3177SOL    HW210431   0.904   0.189   4.290
 3178SOL     OW10432   3.378   2.815   0.088
 3178SOL    HW110433   3.461   2.766   0.062
 3178SOL    HW210434   3.319   2.824   0.008
 3179SOL     OW10435   0.925   2.467   4.044
 3179SOL    HW110436   0.933   2.528   3.966
 3179SOL    HW210437   0.841   2.487   4.095
 3180SOL     OW10438   6.370   1.375   6.598
 3180SOL    HW110439   6.351   1.341   6.690
 3180SOL    HW210440   6.283   1.392   6.550
 3181SOL     OW10441   0.676   1.819   2.481
 3181SOL    HW110442   0.724   1.764   2.550
 3181SOL    HW210443   0.584   1.783   2.467
 3182SOL     OW10444   1.754   5.041   5.804
 3182SOL    HW110445   1.811   5.043   5.722
 3182SOL    HW210446   1.800   4.989   5.876
 3183SOL     OW10447   4.769   3.806   1.130
 3183SOL    HW110448   4.831   3.835   1.203
 3183SOL    HW210449   4.698   3.746   1.168
 3184SOL     OW10450   0.509   2.131   3.232
 3184SOL    HW110451   0.607   2.150   3.229
 3184SOL    HW210452   0.494   2.034   3.249
 3185SOL     OW10453   0.238   6.579   6.915
 3185SOL    HW110454   0.334   6.548   6.914
 3185SOL    HW210455   0.189   6.531   6.988
 3186SOL     OW10456   3.354   0.119   1.440
 3186SOL    HW110457   3.284   0.119   1.511
 3186SOL    HW210458   3.445   0.115   1.483
 3187SOL     OW10459   2.873   4.178   0.318
 3187SOL    HW110460   2.845   4.084   0.303
 3187SOL    HW210461   2.956   4.180   0.373
 3188SOL     OW10462   3.793   6.741   3.218
 3188SOL    HW110463   3.798   6.828   3.267
 3188SOL    HW210464   3.816   6.667   3.281
 3189SOL     OW10465   6.309   6.463   2.290
 3189SOL    HW110466   6.238   6.434   2.353
 3189SOL    HW210467   6.332   6.388   2.228
 3190SOL     OW10468   1.573   0.248   2.138
 3190SOL    HW110469   1.577   0.212   2.045
 3190SOL    HW210470   1.500   0.203   2.189
 3191SOL     OW10471   3.556   1.338   0.286
 3191SOL    HW110472   3.531   1.376   0.375
 3191SOL    HW210473   3.540   1.239   0.286
 3192SOL     OW10474   5.408   2.889   3.970
 3192SOL    HW110475   5.486   2.860   4.025
 3192SOL    HW210476   5.336   2.821   3.976
 3193SOL     OW10477   5.204   4.429   1.302
 3193SOL    HW110478   5.186   4.521   1.267
 3193SOL    HW210479   5.151   4.415   1.386
 3194SOL     OW10480   2.878   5.731   5.114
 3194SOL    HW110481   2.845   5.770   5.200
 3194SOL    HW210482   2.825   5.649   5.092
 3195SOL     OW10483   6.799   4.286   3.991
 3195SOL    HW110484   6.754   4.246   4.071
 3195SOL    HW210485   6.859   4.218   3.949
 3196SOL     OW10486   6.982   6.438   6.098
 3196SOL    HW110487   0.031   6.403   6.044
 3196SOL    HW210488   7.016   6.503   6.166
 3197SOL     OW10489   0.987   4.394   5.459
 3197SOL    HW110490   0.944   4.310   5.491
 3197SOL    HW210491   0.923   4.445   5.403
 3198SOL     OW10492   6.020   6.853   0.638
 3198SOL    HW110493   6.037   6.860   0.736
 3198SOL    HW210494   5.996   6.759   0.614
 3199SOL     OW10495   3.086   1.340   3.084
 3199SOL    HW110496   3.154   1.267   3.077
 3199SOL    HW210497   3.098   1.389   3.170
 3200SOL     OW10498   6.255   2.132   0.473
 3200SOL    HW110499   6.239   2.036   0.496
 3200SOL    HW210500   6.195   2.158   0.397
 3201SOL     OW10501   4.139   4.819   2.952
 3201SOL    HW110502   4.042   4.844   2.948
 3201SOL    HW210503   4.183   4.865   3.029
 3202SOL     OW10504   1.407   4.937   1.801
 3202SOL    HW110505   1.505   4.920   1.787
 3202SOL    HW210506   1.391   4.961   1.897
 3203SOL     OW10507   4.572   0.250   0.213
 3203SOL    HW110508   4.620   0.168   0.244
 3203SOL    HW210509   4.610   0.331   0.259
 3204SOL     OW10510   6.636   6.487   2.008
 3204SOL    HW110511   6.601   6.580   2.008
 3204SOL    HW210512   6.645   6.455   1.914
 3205SOL     OW10513   1.152   3.634   4.323
 3205SOL    HW110514   1.121   3.686   4.403
 3205SOL    HW210515   1.218   3.564   4.352
 3206SOL     OW10516   1.776   6.657   0.115
 3206SOL    HW110517   1.874   6.637   0.110
 3206SOL    HW210518   1.730   6.619   0.035
 3207SOL     OW10519   1.558   1.637   3.130
 3207SOL    HW110520   1.581   1.556   3.185
 3207SOL    HW210521   1.642   1.677   3.093
 3208SOL     OW10522   6.015   6.832   5.682
 3208SOL    HW110523   5.986   6.791   5.595
 3208SOL    HW210524   5.949   6.808   5.753
 3209SOL     OW10525   0.698   6.773   3.464
 3209SOL    HW110526   0.616   6.718   3.448
 3209SOL    HW210527   0.761   6.761   3.388
 3210SOL     OW10528   0.775   6.051   1.962
 3210SOL    HW110529   0.817   5.991   1.894
 3210SOL    HW210530   0.676   6.051   1.952
 3211SOL     OW10531   0.485   4.499   3.548
 3211SOL    HW110532   0.450   4.593   3.556
 3211SOL    HW210533   0.509   4.480   3.453
 3212SOL     OW10534   4.611   2.707   5.011
 3212SOL    HW110535   4.594   2.662   4.924
 3212SOL    HW210536   4.524   2.714   5.062
 3213SOL     OW10537   5.369   0.071   1.298
 3213SOL    HW110538   5.459   0.107   1.274
 3213SOL    HW210539   5.310   0.146   1.326
 3214SOL     OW10540   4.776   4.124   0.195
 3214SOL    HW110541   4.762   4.042   0.138
 3214SOL    HW210542   4.687   4.156   0.228
 3215SOL     OW10543   6.010   1.680   0.037
 3215SOL    HW110544   5.927   1.642   0.078
 3215SOL    HW210545   6.039   1.620   6.991
 3216SOL     OW10546   5.378   6.442   5.186
 3216SOL    HW110547   5.387   6.478   5.279
 3216SOL    HW210548   5.306   6.373   5.183
 3217SOL     OW10549   6.947   4.613   6.701
 3217SOL    HW110550   6.880   4.683   6.726
 3217SOL    HW210551   7.011   4.650   6.633
 3218SOL     OW10552   4.125   2.247   1.585
 3218SOL    HW110553   4.040   2.298   1.599
 3218SOL    HW210554   4.110   2.150   1.601
 3219SOL     OW10555   0.495   1.510   3.094
 3219SOL    HW110556   0.530   1.604   3.091
 3219SOL    HW210557   0.571   1.447   3.108
 3220SOL     OW10558   6.856   3.293   6.594
 3220SOL    HW110559   6.837   3.227   6.666
 3220SOL    HW210560   6.774   3.346   6.574
 3221SOL     OW10561   3.583   0.647   1.686
 3221SOL    HW110562   3.500   0.595   1.667
 3221SOL    HW210563   3.578   0.736   1.641
 3222SOL     OW10564   6.354   4.141   2.340
 3222SOL    HW110565   6.402   4.119   2.425
 3222SOL    HW210566   6.421   4.170   2.271
 3223SOL     OW10567   1.452   4.400   4.966
 3223SOL    HW110568   1.474   4.329   5.033
 3223SOL    HW210569   1.536   4.433   4.923
 3224SOL     OW10570   2.983   6.066   1.105
 3224SOL    HW110571   2.974   5.967   1.116
 3224SOL    HW210572   2.926   6.096   1.029
 3225SOL     OW10573   1.574   2.498   0.835
 3225SOL    HW110574   1.672   2.501   0.813
 3225SOL    HW210575   1.521   2.523   0.754
 3226SOL     OW10576   6.503   1.729   3.678
 3226SOL    HW110577   6.551   1.642   3.662
 3226SOL    HW210578   6.406   1.718   3.655
 3227SOL     OW10579   2.782   1.823   5.421
 3227SOL    HW110580   2.780   1.864   5.330
 3227SOL    HW210581   2.694   1.836   5.466
 3228SOL     OW10582   4.935   3.454   4.864
 3228SOL    HW110583   4.893   3.512   4.934
 3228SOL    HW210584   4.915   3.358   4.884
 3229SOL     OW10585   4.304   1.736   4.977
 3229SOL    HW110586   4.223   1.768   5.025
 3229SOL    HW210587   4.333   1.805   4.911
 3230SOL     OW10588   1.487   7.022   3.813
 3230SOL    HW110589   1.562   0.045   3.772
 3230SOL    HW210590   1.451   6.956   3.748
 3231SOL     OW10591   4.376   4.443   0.423
 3231SOL    HW110592   4.421   4.410   0.505
 3231SOL    HW210593   4.315   4.518   0.446
 3232SOL     OW10594   0.946   3.619   3.257
 3232SOL    HW110595   0.990   3.708   3.245
 3232SOL    HW210596   0.948   3.593   3.354
 3233SOL     OW10597   2.491   3.972   0.586
 3233SOL    HW110598   2.505   3.984   0.684
 3233SOL    HW210599   2.440   3.887   0.570
 3234SOL     OW10600   6.447   1.651   4.432
 3234SOL    HW110601   6.400   1.563   4.443
 3234SOL    HW210602   6.386   1.715   4.385
 3235SOL     OW10603   6.176   0.728   2.263
 3235SOL    HW110604   6.079   0.734   2.288
 3235SOL    HW210605   6.230   0.786   2.324
 3236SOL     OW10606   6.982   2.002   1.394
 3236SOL    HW110607   6.892   1.971   1.361
 3236SOL    HW210608   7.026   1.927   1.443
 3237SOL     OW10609   2.627   5.881   4.366
 3237SOL    HW110610   2.569   5.850   4.442
 3237SOL    HW210611   2.671   5.802   4.324
 3238SOL     OW10612   6.446   6.751   6.893
 3238SOL    HW110613   6.504   6.692   6.838
 3238SOL    HW210614   6.350   6.733   6.871
 3239SOL     OW10615   1.973   6.243   6.299
 3239SOL    HW110616   1.931   6.304   6.232
 3239SOL    HW210617   2.066   6.273   6.317
 3240SOL     OW10618   1.331   2.236   4.752
 3240SOL    HW110619   1.417   2.245   4.802
 3240SOL    HW210620   1.265   2.301   4.789
 3241SOL     OW10621   3.544   6.340   5.179
 3241SOL    HW110622   3.618   6.287   5.220
 3241SOL    HW210623   3.557   6.344   5.080
 3242SOL     OW10624   2.589   0.669   0.862
 3242SOL    HW110625   2.653   0.593   0.876
 3242SOL    HW210626   2.508   0.637   0.814
 3243SOL     OW10627   4.097   5.445   2.036
 3243SOL    HW110628   4.163   5.375   2.009
 3243SOL    HW210629   4.137   5.535   2.023
 3244SOL     OW10630   0.964   0.262   5.036
 3244SOL    HW110631   0.954   0.212   5.122
 3244SOL    HW210632   0.977   0.198   4.961
 3245SOL     OW10633   3.589   1.925   5.932
 3245SOL    HW110634   3.677   1.963   5.905
 3245SOL    HW210635   3.525   2.000   5.951
 3246SOL     OW10636   6.032   6.610   2.557
 3246SOL    HW110637   5.954   6.566   2.512
 3246SOL    HW210638   6.065   6.686   2.501
 3247SOL     OW10639   6.376   3.120   5.294
 3247SOL    HW110640   6.373   3.211   5.252
 3247SOL    HW210641   6.420   3.056   5.232
 3248SOL     OW10642   5.081   4.150   3.345
 3248SOL    HW110643   4.997   4.198   3.369
 3248SOL    HW210644   5.111   4.095   3.423
 3249SOL     OW10645   3.456   5.345   5.879
 3249SOL    HW110646   3.478   5.254   5.843
 3249SOL    HW210647   3.370   5.340   5.930
 3250SOL     OW10648   4.240   4.446   0.725
 3250SOL    HW110649   4.319   4.417   0.671
 3250SOL    HW210650   4.157   4.441   0.668
 3251SOL     OW10651   2.413   1.383   3.489
 3251SOL    HW110652   2.499   1.433   3.480
 3251SOL    HW210653   2.338   1.449   3.502
 3252SOL     OW10654   3.171   2.036   2.999
 3252SOL    HW110655   3.206   1.955   2.952
 3252SOL    HW210656   3.165   2.112   2.935
 3253SOL     OW10657   5.009   4.385   1.538
 3253SOL    HW110658   5.040   4.475   1.568
 3253SOL    HW210659   4.910   4.379   1.550
 3254SOL     OW10660   6.456   4.067   2.613
 3254SOL    HW110661   6.430   4.111   2.699
 3254SOL    HW210662   6.399   3.986   2.598
 3255SOL     OW10663   3.614   4.914   0.736
 3255SOL    HW110664   3.593   4.879   0.645
 3255SOL    HW210665   3.616   5.014   0.734
 3256SOL     OW10666   6.461   0.334   5.392
 3256SOL    HW110667   6.415   0.366   5.475
 3256SOL    HW210668   6.495   0.413   5.341
 3257SOL     OW10669   2.565   1.138   1.606
 3257SOL    HW110670   2.616   1.062   1.567
 3257SOL    HW210671   2.563   1.214   1.541
 3258SOL     OW10672   5.102   6.768   2.595
 3258SOL    HW110673   5.132   6.756   2.689
 3258SOL    HW210674   5.098   6.678   2.550
 3259SOL     OW10675   5.678   5.479   2.966
 3259SOL    HW110676   5.705   5.566   3.007
 3259SOL    HW210677   5.664   5.411   3.039
 3260SOL     OW10678   2.387   1.549   1.363
 3260SOL    HW110679   2.317   1.511   1.303
 3260SOL    HW210680   2.459   1.590   1.308
 3261SOL     OW10681   5.318   6.905   3.986
 3261SOL    HW110682   5.395   6.954   4.028
 3261SOL    HW210683   5.320   6.810   4.014
 3262SOL     OW10684   4.577   2.176   3.663
 3262SOL    HW110685   4.589   2.248   3.595
 3262SOL    HW210686   4.541   2.094   3.617
 3263SOL     OW10687   3.206   4.943   3.211
 3263SOL    HW110688   3.273   4.947   3.285
 3263SOL    HW210689   3.251   4.918   3.126
 3264SOL     OW10690   5.482   4.264   6.614
 3264SOL    HW110691   5.470   4.320   6.696
 3264SOL    HW210692   5.578   4.264   6.587
 3265SOL     OW10693   5.182   6.793   5.596
 3265SOL    HW110694   5.175   6.701   5.559
 3265SOL    HW210695   5.146   6.794   5.690
 3266SOL     OW10696   1.135   2.309   6.461
 3266SOL    HW110697   1.100   2.310   6.555
 3266SOL    HW210698   1.122   2.400   6.420
 3267SOL     OW10699   5.314   4.252   1.880
 3267SOL    HW110700   5.403   4.205   1.877
 3267SOL    HW210701   5.317   4.333   1.822
 3268SOL     OW10702   1.852   5.306   0.397
 3268SOL    HW110703   1.842   5.230   0.461
 3268SOL    HW210704   1.771   5.312   0.339
 3269SOL     OW10705   4.320   2.775   1.117
 3269SOL    HW110706   4.355   2.867   1.133
 3269SOL    HW210707   4.227   2.768   1.154
 3270SOL     OW10708   6.849   5.561   3.629
 3270SOL    HW110709   6.881   5.584   3.537
 3270SOL    HW210710   6.766   5.613   3.649
 3271SOL     OW10711   5.050   6.873   0.747
 3271SOL    HW110712   5.007   6.961   0.764
 3271SOL    HW210713   5.128   6.885   0.686
 3272SOL     OW10714   4.474   5.619   6.023
 3272SOL    HW110715   4.378   5.630   5.995
 3272SOL    HW210716   4.497   5.688   6.091
 3273SOL     OW10717   0.142   6.986   3.125
 3273SOL    HW110718   0.221   0.018   3.122
 3273SOL    HW210719   0.083   7.012   3.202
 3274SOL     OW10720   3.023   0.802   1.155
 3274SOL    HW110721   3.082   0.838   1.083
 3274SOL    HW210722   2.930   0.835   1.140
 3275SOL     OW10723   4.171   0.129   6.766
 3275SOL    HW110724   4.119   0.085   6.693
 3275SOL    HW210725   4.263   0.090   6.769
 3276SOL     OW10726   1.319   5.778   1.262
 3276SOL    HW110727   1.315   5.788   1.163
 3276SOL    HW210728   1.350   5.863   1.304
 3277SOL     OW10729   0.348   6.208   7.021
 3277SOL    HW110730   0.378   6.151   0.069
 3277SOL    HW210731   0.257   6.180   6.993
 3278SOL     OW10732   1.430   0.468   7.014
 3278SOL    HW110733   1.471   0.483   0.075
 3278SOL    HW210734   1.465   0.382   6.976
 3279SOL     OW10735   1.965   6.390   1.700
 3279SOL    HW110736   1.904   6.341   1.762
 3279SOL    HW210737   2.016   6.459   1.752
 3280SOL     OW10738   2.583   5.922   3.393
 3280SOL    HW110739   2.581   5.822   3.393
 3280SOL    HW210740   2.608   5.956   3.303
 3281SOL     OW10741   1.272   6.351   1.073
 3281SOL    HW110742   1.217   6.350   1.156
 3281SOL    HW210743   1.303   6.444   1.054
 3282SOL     OW10744   1.783   4.960   2.551
 3282SOL    HW110745   1.771   5.023   2.627
 3282SOL    HW210746   1.878   4.929   2.547
 3283SOL     OW10747   1.481   0.437   3.463
 3283SOL    HW110748   1.430   0.430   3.377
 3283SOL    HW210749   1.457   0.522   3.509
 3284SOL     OW10750   1.976   6.105   5.757
 3284SOL    HW110751   1.906   6.170   5.727
 3284SOL    HW210752   1.991   6.036   5.686
 3285SOL     OW10753   0.817   3.168   4.559
 3285SOL    HW110754   0.743   3.203   4.502
 3285SOL    HW210755   0.845   3.078   4.527
 3286SOL     OW10756   5.358   4.490   6.441
 3286SOL    HW110757   5.374   4.411   6.501
 3286SOL    HW210758   5.401   4.473   6.352
 3287SOL     OW10759   0.116   2.686   1.351
 3287SOL    HW110760   0.053   2.745   1.401
 3287SOL    HW210761   0.210   2.713   1.372
 3288SOL     OW10762   0.623   0.154   0.686
 3288SOL    HW110763   0.663   0.175   0.775
 3288SOL    HW210764   0.559   0.227   0.660
 3289SOL     OW10765   1.634   0.337   3.730
 3289SOL    HW110766   1.701   0.326   3.803
 3289SOL    HW210767   1.620   0.434   3.711
 3290SOL     OW10768   6.895   4.916   4.136
 3290SOL    HW110769   6.929   5.003   4.099
 3290SOL    HW210770   6.855   4.862   4.062
 3291SOL     OW10771   0.833   1.785   1.835
 3291SOL    HW110772   0.804   1.873   1.874
 3291SOL    HW210773   0.870   1.728   1.908
 3292SOL     OW10774   0.821   6.129   4.257
 3292SOL    HW110775   0.753   6.193   4.293
 3292SOL    HW210776   0.912   6.171   4.262
 3293SOL     OW10777   6.095   0.430   2.990
 3293SOL    HW110778   6.183   0.396   3.023
 3293SOL    HW210779   6.038   0.353   2.961
 3294SOL     OW10780   6.813   6.747   1.022
 3294SOL    HW110781   6.762   6.798   1.092
 3294SOL    HW210782   6.761   6.749   0.936
 3295SOL     OW10783   3.085   3.128   5.950
 3295SOL    HW110784   3.021   3.117   5.874
 3295SOL    HW210785   3.178   3.110   5.918
 3296SOL     OW10786   0.713   6.455   1.817
 3296SOL    HW110787   0.660   6.449   1.732
 3296SOL    HW210788   0.796   6.401   1.809
 3297SOL     OW10789   3.345   0.893   5.555
 3297SOL    HW110790   3.385   0.983   5.575
 3297SOL    HW210791   3.264   0.904   5.499
 3298SOL     OW10792   0.505   5.394   3.091
 3298SOL    HW110793   0.439   5.380   3.017
 3298SOL    HW210794   0.565   5.315   3.098
 3299SOL     OW10795   1.815   1.459   4.407
 3299SOL    HW110796   1.738   1.419   4.358
 3299SOL    HW210797   1.843   1.544   4.361
 3300SOL     OW10798   0.265   6.797   4.954
 3300SOL    HW110799   0.231   6.703   4.942
 3300SOL    HW210800   0.308   6.827   4.870
 3301SOL     OW10801   6.564   4.497   2.073
 3301SOL    HW110802   6.504   4.442   2.132
 3301SOL    HW210803   6.582   4.446   1.988
 3302SOL     OW10804   1.787   6.291   5.691
 3302SOL    HW110805   1.753   6.299   5.784
 3302SOL    HW210806   1.828   6.378   5.663
 3303SOL     OW10807   3.527   3.694   4.949
 3303SOL    HW110808   3.561   3.659   4.862
 3303SOL    HW210809   3.445   3.749   4.934
 3304SOL     OW10810   1.282   0.996   4.045
 3304SOL    HW110811   1.374   0.968   4.020
 3304SOL    HW210812   1.243   1.052   3.972
 3305SOL     OW10813   0.701   2.398   0.529
 3305SOL    HW110814   0.690   2.359   0.620
 3305SOL    HW210815   0.613   2.400   0.482
 3306SOL     OW10816   1.588   1.345   1.073
 3306SOL    HW110817   1.519   1.335   1.001
 3306SOL    HW210818   1.607   1.442   1.087
 3307SOL     OW10819   0.273   7.022   0.090
 3307SOL    HW110820   0.344   0.063   0.085
 3307SOL    HW210821   0.304   6.938   0.047
 3308SOL     OW10822   5.300   6.105   0.548
 3308SOL    HW110823   5.363   6.033   0.577
 3308SOL    HW210824   5.264   6.152   0.629
 3309SOL     OW10825   0.988   4.596   1.954
 3309SOL    HW110826   0.957   4.690   1.946
 3309SOL    HW210827   1.006   4.559   1.863
 3310SOL     OW10828   2.231   6.049   2.219
 3310SOL    HW110829   2.219   6.012   2.311
 3310SOL    HW210830   2.328   6.069   2.204
 3311SOL     OW10831   4.208   5.507   1.128
 3311SOL    HW110832   4.284   5.444   1.115
 3311SOL    HW210833   4.171   5.533   1.039
 3312SOL     OW10834   2.000   2.562   6.324
 3312SOL    HW110835   1.956   2.562   6.234
 3312SOL    HW210836   2.095   2.589   6.315
 3313SOL     OW10837   5.650   6.531   5.344
 3313SOL    HW110838   5.636   6.443   5.298
 3313SOL    HW210839   5.563   6.565   5.380
 3314SOL     OW10840   0.509   4.162   6.037
 3314SOL    HW110841   0.562   4.100   5.979
 3314SOL    HW210842   0.551   4.166   6.128
 3315SOL     OW10843   5.985   3.285   3.119
 3315SOL    HW110844   5.983   3.357   3.050
 3315SOL    HW210845   5.975   3.196   3.075
 3316SOL     OW10846   3.592   0.021   6.780
 3316SOL    HW110847   3.524   6.986   6.817
 3316SOL    HW210848   3.684   7.017   6.803
 3317SOL     OW10849   5.078   3.121   1.257
 3317SOL    HW110850   5.005   3.053   1.249
 3317SOL    HW210851   5.160   3.087   1.212
 3318SOL     OW10852   2.494   5.115   6.599
 3318SOL    HW110853   2.549   5.033   6.616
 3318SOL    HW210854   2.547   5.180   6.544
 3319SOL     OW10855   0.986   5.949   6.061
 3319SOL    HW110856   1.021   5.979   6.149
 3319SOL    HW210857   1.062   5.920   6.003
 3320SOL     OW10858   1.005   0.866   1.632
 3320SOL    HW110859   0.957   0.778   1.632
 3320SOL    HW210860   0.976   0.919   1.552
 3321SOL     OW10861   3.650   3.855   4.277
 3321SOL    HW110862   3.697   3.927   4.227
 3321SOL    HW210863   3.586   3.808   4.216
 3322SOL     OW10864   4.875   3.735   2.697
 3322SOL    HW110865   4.864   3.682   2.613
 3322SOL    HW210866   4.837   3.826   2.684
 3323SOL     OW10867   1.527   4.844   0.635
 3323SOL    HW110868   1.502   4.752   0.603
 3323SOL    HW210869   1.503   4.853   0.732
 3324SOL     OW10870   6.759   3.534   1.722
 3324SOL    HW110871   6.695   3.521   1.646
 3324SOL    HW210872   6.818   3.453   1.730
 3325SOL     OW10873   1.073   5.182   4.969
 3325SOL    HW110874   0.988   5.203   5.016
 3325SOL    HW210875   1.150   5.216   5.024
 3326SOL     OW10876   4.773   6.821   2.195
 3326SOL    HW110877   4.724   6.906   2.174
 3326SOL    HW210878   4.869   6.841   2.213
 3327SOL     OW10879   4.724   6.266   1.599
 3327SOL    HW110880   4.692   6.227   1.685
 3327SOL    HW210881   4.651   6.264   1.531
 3328SOL     OW10882   6.085   6.612   3.728
 3328SOL    HW110883   6.178   6.646   3.713
 3328SOL    HW210884   6.027   6.688   3.755
 3329SOL     OW10885   5.771   0.213   6.191
 3329SOL    HW110886   5.732   0.305   6.184
 3329SOL    HW210887   5.730   0.166   6.269
 3330SOL     OW10888   5.995   0.055   2.600
 3330SOL    HW110889   6.023   7.008   2.542
 3330SOL    HW210890   6.044   0.050   2.687
 3331SOL     OW10891   1.080   3.427   2.500
 3331SOL    HW110892   1.131   3.342   2.512
 3331SOL    HW210893   1.083   3.480   2.585
 3332SOL     OW10894   4.185   5.158   0.823
 3332SOL    HW110895   4.125   5.228   0.785
 3332SOL    HW210896   4.204   5.089   0.753
 3333SOL     OW10897   2.545   4.120   1.210
 3333SOL    HW110898   2.624   4.096   1.267
 3333SOL    HW210899   2.480   4.044   1.209
 3334SOL     OW10900   1.676   2.842   2.256
 3334SOL    HW110901   1.754   2.843   2.318
 3334SOL    HW210902   1.708   2.852   2.162
 3335SOL     OW10903   4.736   4.023   6.232
 3335SOL    HW110904   4.782   3.981   6.311
 3335SOL    HW210905   4.661   4.080   6.264
 3336SOL     OW10906   3.521   5.824   6.035
 3336SOL    HW110907   3.445   5.885   6.013
 3336SOL    HW210908   3.526   5.751   5.967
 3337SOL     OW10909   2.972   3.844   4.177
 3337SOL    HW110910   2.993   3.942   4.184
 3337SOL    HW210911   2.984   3.801   4.266
 3338SOL     OW10912   3.324   2.880   1.411
 3338SOL    HW110913   3.345   2.978   1.410
 3338SOL    HW210914   3.353   2.839   1.325
 3339SOL     OW10915   0.792   6.905   6.156
 3339SOL    HW110916   0.814   6.830   6.219
 3339SOL    HW210917   0.865   6.972   6.158
 3340SOL     OW10918   4.595   1.710   6.632
 3340SOL    HW110919   4.672   1.773   6.629
 3340SOL    HW210920   4.621   1.623   6.590
 3341SOL     OW10921   1.217   4.310   1.533
 3341SOL    HW110922   1.143   4.242   1.533
 3341SOL    HW210923   1.290   4.279   1.472
 3342SOL     OW10924   5.734   0.475   2.533
 3342SOL    HW110925   5.690   0.536   2.466
 3342SOL    HW210926   5.805   0.526   2.582
 3343SOL     OW10927   3.916   4.626   1.086
 3343SOL    HW110928   3.898   4.607   1.182
 3343SOL    HW210929   3.840   4.677   1.047
 3344SOL     OW10930   1.282   3.540   1.091
 3344SOL    HW110931   1.280   3.593   1.006
 3344SOL    HW210932   1.345   3.582   1.156
 3345SOL     OW10933   4.716   5.093   0.858
 3345SOL    HW110934   4.737   4.996   0.850
 3345SOL    HW210935   4.737   5.139   0.772
 3346SOL     OW10936   1.482   0.834   6.973
 3346SOL    HW110937   1.481   0.912   0.007
 3346SOL    HW210938   1.401   0.778   6.989
 3347SOL     OW10939   0.976   3.161   5.687
 3347SOL    HW110940   0.985   3.199   5.779
 3347SOL    HW210941   1.060   3.112   5.663
 3348SOL     OW10942   3.363   4.395   5.845
 3348SOL    HW110943   3.372   4.479   5.792
 3348SOL    HW210944   3.365   4.316   5.783
 3349SOL     OW10945   2.443   5.029   1.926
 3349SOL    HW110946   2.498   5.022   1.842
 3349SOL    HW210947   2.471   5.109   1.978
 3350SOL     OW10948   3.115   5.409   3.985
 3350SOL    HW110949   3.071   5.319   3.976
 3350SOL    HW210950   3.213   5.399   3.966
 3351SOL     OW10951   5.340   6.802   1.824
 3351SOL    HW110952   5.421   6.849   1.860
 3351SOL    HW210953   5.275   6.787   1.899
 3352SOL     OW10954   5.973   0.959   0.221
 3352SOL    HW110955   6.027   0.924   0.145
 3352SOL    HW210956   5.922   0.883   0.262
 3353SOL     OW10957   3.999   0.861   6.054
 3353SOL    HW110958   3.917   0.807   6.037
 3353SOL    HW210959   3.975   0.945   6.101
 3354SOL     OW10960   3.083   2.029   7.007
 3354SOL    HW110961   3.136   1.944   7.010
 3354SOL    HW210962   3.121   2.090   6.938
 3355SOL     OW10963   1.110   2.152   5.455
 3355SOL    HW110964   1.164   2.202   5.388
 3355SOL    HW210965   1.016   2.186   5.454
 3356SOL     OW10966   3.045   0.524   5.120
 3356SOL    HW110967   3.122   0.461   5.125
 3356SOL    HW210968   3.070   0.611   5.163
 3357SOL     OW10969   3.014   3.893   4.593
 3357SOL    HW110970   2.981   3.844   4.674
 3357SOL    HW210971   3.053   3.981   4.621
 3358SOL     OW10972   6.717   1.853   1.608
 3358SOL    HW110973   6.808   1.813   1.593
 3358SOL    HW210974   6.719   1.950   1.585
 3359SOL     OW10975   1.377   6.770   3.694
 3359SOL    HW110976   1.386   6.676   3.661
 3359SOL    HW210977   1.345   6.828   3.619
 3360SOL     OW10978   0.908   5.349   4.739
 3360SOL    HW110979   0.864   5.329   4.652
 3360SOL    HW210980   1.002   5.314   4.737
 3361SOL     OW10981   0.388   0.064   4.316
 3361SOL    HW110982   0.343   7.003   4.317
 3361SOL    HW210983   0.370   0.111   4.402
 3362SOL     OW10984   3.163   1.002   5.106
 3362SOL    HW110985   3.249   0.953   5.091
 3362SOL    HW210986   3.175   1.099   5.087
 3363SOL     OW10987   4.834   3.565   0.695
 3363SOL    HW110988   4.841   3.546   0.793
 3363SOL    HW210989   4.834   3.664   0.680
 3364SOL     OW10990   1.828   2.948   1.245
 3364SOL    HW110991   1.828   2.857   1.204
 3364SOL    HW210992   1.860   3.015   1.177
 3365SOL     OW10993   0.652   2.677   2.708
 3365SOL    HW110994   0.653   2.590   2.757
 3365SOL    HW210995   0.645   2.659   2.609
 3366SOL     OW10996   5.746   3.584   3.301
 3366SOL    HW110997   5.659   3.535   3.303
 3366SOL    HW210998   5.820   3.518   3.287
 3367SOL     OW10999   2.979   3.900   3.736
 3367SOL    HW111000   2.990   3.831   3.807
 3367SOL    HW211001   2.911   3.967   3.764
 3368SOL     OW11002   1.287   1.106   3.763
 3368SOL    HW111003   1.345   1.029   3.734
 3368SOL    HW211004   1.274   1.169   3.686
 3369SOL     OW11005   5.496   2.713   0.576
 3369SOL    HW111006   5.491   2.812   0.571
 3369SOL    HW211007   5.407   2.676   0.605
 3370SOL     OW11008   0.751   5.777   3.313
 3370SOL    HW111009   0.690   5.842   3.358
 3370SOL    HW211010   0.750   5.691   3.364
 3371SOL     OW11011   2.783   3.140   1.246
 3371SOL    HW111012   2.874   3.114   1.211
 3371SOL    HW211013   2.747   3.065   1.302
 3372SOL     OW11014   5.258   2.995   2.936
 3372SOL    HW111015   5.244   3.036   3.026
 3372SOL    HW211016   5.251   3.066   2.866
 3373SOL     OW11017   0.568   4.716   1.221
 3373SOL    HW111018   0.583   4.797   1.165
 3373SOL    HW211019   0.520   4.741   1.304
 3374SOL     OW11020   1.236   5.505   3.819
 3374SOL    HW111021   1.136   5.500   3.825
 3374SOL    HW211022   1.269   5.437   3.754
 3375SOL     OW11023   6.926   6.944   5.425
 3375SOL    HW111024   6.981   6.987   5.497
 3375SOL    HW211025   6.925   7.003   5.344
 3376SOL     OW11026   3.401   3.998   4.694
 3376SOL    HW111027   3.447   4.048   4.768
 3376SOL    HW211028   3.469   3.950   4.639
 3377SOL     OW11029   6.582   5.703   4.552
 3377SOL    HW111030   6.560   5.625   4.494
 3377SOL    HW211031   6.592   5.672   4.647
 3378SOL     OW11032   1.143   5.959   0.201
 3378SOL    HW111033   1.065   6.013   0.168
 3378SOL    HW211034   1.174   5.898   0.128
 3379SOL     OW11035   5.980   4.645   3.954
 3379SOL    HW111036   5.962   4.712   4.027
 3379SOL    HW211037   5.893   4.613   3.916
 3380SOL     OW11038   1.406   4.395   2.205
 3380SOL    HW111039   1.460   4.449   2.140
 3380SOL    HW211040   1.308   4.409   2.186
 3381SOL     OW11041   2.846   4.338   6.325
 3381SOL    HW111042   2.872   4.316   6.419
 3381SOL    HW211043   2.928   4.356   6.270
 3382SOL     OW11044   0.395   3.851   6.625
 3382SOL    HW111045   0.336   3.778   6.661
 3382SOL    HW211046   0.385   3.933   6.680
 3383SOL     OW11047   3.859   6.255   0.317
 3383SOL    HW111048   3.872   6.354   0.328
 3383SOL    HW211049   3.942   6.207   0.343
 3384SOL     OW11050   3.682   2.686   6.376
 3384SOL    HW111051   3.629   2.614   6.331
 3384SOL    HW211052   3.686   2.668   6.474
 3385SOL     OW11053   5.996   2.073   4.633
 3385SOL    HW111054   5.905   2.045   4.605
 3385SOL    HW211055   6.059   1.996   4.623
 3386SOL     OW11056   7.022   5.079   5.359
 3386SOL    HW111057   6.963   5.123   5.427
 3386SOL    HW211058   0.074   5.040   5.405
 3387SOL     OW11059   6.059   0.602   2.805
 3387SOL    HW111060   6.148   0.623   2.766
 3387SOL    HW211061   6.070   0.539   2.881
 3388SOL     OW11062   0.909   3.716   0.699
 3388SOL    HW111063   0.841   3.648   0.672
 3388SOL    HW211064   0.873   3.808   0.680
 3389SOL     OW11065   6.347   5.176   5.741
 3389SOL    HW111066   6.294   5.142   5.664
 3389SOL    HW211067   6.408   5.249   5.711
 3390SOL     OW11068   2.802   4.584   0.911
 3390SOL    HW111069   2.736   4.557   0.842
 3390SOL    HW211070   2.753   4.614   0.994
 3391SOL     OW11071   5.199   3.853   5.847
 3391SOL    HW111072   5.176   3.945   5.880
 3391SOL    HW211073   5.242   3.861   5.757
 3392SOL     OW11074   4.777   5.904   5.634
 3392SOL    HW111075   4.846   5.877   5.701
 3392SOL    HW211076   4.801   5.993   5.595
 3393SOL     OW11077   3.434   0.806   0.695
 3393SOL    HW111078   3.382   0.761   0.767
 3393SOL    HW211079   3.389   0.791   0.607
 3394SOL     OW11080   3.113   5.993   2.159
 3394SOL    HW111081   3.211   6.012   2.146
 3394SOL    HW211082   3.102   5.902   2.198
 3395SOL     OW11083   1.974   6.085   3.059
 3395SOL    HW111084   1.914   6.010   3.032
 3395SOL    HW211085   2.022   6.061   3.143
 3396SOL     OW11086   3.964   0.010   3.959
 3396SOL    HW111087   3.872   0.042   3.979
 3396SOL    HW211088   4.029   0.058   4.018
 3397SOL     OW11089   2.922   5.983   1.928
 3397SOL    HW111090   2.989   5.989   2.002
 3397SOL    HW211091   2.949   5.911   1.863
 3398SOL     OW11092   6.790   0.659   0.481
 3398SOL    HW111093   6.798   0.597   0.559
 3398SOL    HW211094   6.837   0.619   0.402
 3399SOL     OW11095   6.751   6.400   2.247
 3399SOL    HW111096   6.686   6.420   2.173
 3399SOL    HW211097   6.813   6.478   2.259
 3400SOL     OW11098   3.514   3.358   5.428
 3400SOL    HW111099   3.576   3.416   5.374
 3400SOL    HW211100   3.450   3.415   5.478
 3401SOL     OW11101   6.643   3.778   3.861
 3401SOL    HW111102   6.659   3.765   3.763
 3401SOL    HW211103   6.587   3.704   3.896
 3402SOL     OW11104   6.326   3.960   0.353
 3402SOL    HW111105   6.232   3.952   0.387
 3402SOL    HW211106   6.389   3.926   0.423
 3403SOL     OW11107   5.676   6.966   3.802
 3403SOL    HW111108   5.578   6.985   3.796
 3403SOL    HW211109   5.728   0.021   3.787
 3404SOL     OW11110   5.161   4.953   2.489
 3404SOL    HW111111   5.063   4.953   2.467
 3404SOL    HW211112   5.190   4.861   2.514
 3405SOL     OW11113   4.473   0.085   1.329
 3405SOL    HW111114   4.414   0.071   1.409
 3405SOL    HW211115   4.550   0.022   1.334
 3406SOL     OW11116   4.427   5.349   1.110
 3406SOL    HW111117   4.463   5.315   1.023
 3406SOL    HW211118   4.460   5.291   1.185
 3407SOL     OW11119   2.233   1.607   0.897
 3407SOL    HW111120   2.151   1.593   0.841
 3407SOL    HW211121   2.228   1.696   0.941
 3408SOL     OW11122   3.531   0.105   3.782
 3408SOL    HW111123   3.476   0.062   3.854
 3408SOL    HW211124   3.506   0.202   3.774
 3409SOL     OW11125   4.537   2.412   6.882
 3409SOL    HW111126   4.509   2.334   6.826
 3409SOL    HW211127   4.637   2.410   6.893
 3410SOL     OW11128   6.497   1.488   2.859
 3410SOL    HW111129   6.514   1.394   2.890
 3410SOL    HW211130   6.438   1.486   2.778
 3411SOL     OW11131   5.794   2.960   6.498
 3411SOL    HW111132   5.799   3.060   6.503
 3411SOL    HW211133   5.757   2.933   6.409
 3412SOL     OW11134   5.166   3.564   3.228
 3412SOL    HW111135   5.238   3.533   3.290
 3412SOL    HW211136   5.142   3.658   3.249
 3413SOL     OW11137   0.965   2.714   0.810
 3413SOL    HW111138   0.946   2.802   0.854
 3413SOL    HW211139   0.973   2.726   0.711
 3414SOL     OW11140   3.877   3.178   2.057
 3414SOL    HW111141   3.808   3.188   2.130
 3414SOL    HW211142   3.903   3.268   2.024
 3415SOL     OW11143   2.795   0.629   6.693
 3415SOL    HW111144   2.774   0.581   6.607
 3415SOL    HW211145   2.887   0.605   6.723
 3416SOL     OW11146   5.490   6.130   6.335
 3416SOL    HW111147   5.523   6.065   6.267
 3416SOL    HW211148   5.418   6.087   6.390
 3417SOL     OW11149   6.071   0.670   2.010
 3417SOL    HW111150   5.974   0.667   1.988
 3417SOL    HW211151   6.083   0.673   2.109
 3418SOL     OW11152   4.201   5.089   1.259
 3418SOL    HW111153   4.215   5.016   1.193
 3418SOL    HW211154   4.282   5.098   1.318
 3419SOL     OW11155   3.056   4.787   5.285
 3419SOL    HW111156   2.988   4.726   5.243
 3419SOL    HW211157   3.017   4.827   5.368
 3420SOL     OW11158   5.144   0.709   1.983
 3420SOL    HW111159   5.184   0.769   2.053
 3420SOL    HW211160   5.060   0.750   1.948
 3421SOL     OW11161   0.399   1.559   4.200
 3421SOL    HW111162   0.336   1.535   4.125
 3421SOL    HW211163   0.389   1.655   4.223
 3422SOL     OW11164   2.917   4.790   1.122
 3422SOL    HW111165   2.918   4.707   1.177
 3422SOL    HW211166   3.002   4.841   1.137
 3423SOL     OW11167   1.791   5.342   5.818
 3423SOL    HW111168   1.803   5.300   5.908
 3423SOL    HW211169   1.734   5.283   5.762
 3424SOL     OW11170   5.527   5.820   2.237
 3424SOL    HW111171   5.581   5.771   2.306
 3424SOL    HW211172   5.431   5.794   2.245
 3425SOL     OW11173   5.478   2.714   6.281
 3425SOL    HW111174   5.392   2.703   6.330
 3425SOL    HW211175   5.554   2.716   6.346
 3426SOL     OW11176   6.687   5.642   6.141
 3426SOL    HW111177   6.654   5.667   6.232
 3426SOL    HW211178   6.648   5.553   6.115
 3427SOL     OW11179   1.697   1.324   6.490
 3427SOL    HW111180   1.609   1.359   6.461
 3427SOL    HW211181   1.758   1.400   6.512
 3428SOL     OW11182   4.229   0.722   4.453
 3428SOL    HW111183   4.173   0.803   4.435
 3428SOL    HW211184   4.298   0.744   4.521
 3429SOL     OW11185   4.944   5.587   0.519
 3429SOL    HW111186   4.892   5.567   0.436
 3429SOL    HW211187   4.903   5.539   0.597
 3430SOL     OW11188   2.598   4.081   6.975
 3430SOL    HW111189   2.601   3.982   6.984
 3430SOL    HW211190   2.515   4.107   6.925
 3431SOL     OW11191   1.446   3.989   1.936
 3431SOL    HW111192   1.450   3.996   1.837
 3431SOL    HW211193   1.506   4.058   1.978
 3432SOL     OW11194   0.002   5.446   6.564
 3432SOL    HW111195   0.030   5.499   6.644
 3432SOL    HW211196   0.057   5.363   6.558
 3433SOL     OW11197   0.839   1.488   0.075
 3433SOL    HW111198   0.831   1.564   0.139
 3433SOL    HW211199   0.840   1.401   0.125
 3434SOL     OW11200   4.211   2.231   1.939
 3434SOL    HW111201   4.278   2.157   1.946
 3434SOL    HW211202   4.148   2.212   1.864
 3435SOL     OW11203   3.052   2.822   1.384
 3435SOL    HW111204   3.059   2.818   1.484
 3435SOL    HW211205   3.140   2.849   1.346
 3436SOL     OW11206   4.407   5.487   5.391
 3436SOL    HW111207   4.449   5.565   5.345
 3436SOL    HW211208   4.445   5.479   5.483
 3437SOL     OW11209   2.686   5.828   0.637
 3437SOL    HW111210   2.636   5.837   0.723
 3437SOL    HW211211   2.621   5.819   0.562
 3438SOL     OW11212   2.582   4.223   0.472
 3438SOL    HW111213   2.558   4.132   0.507
 3438SOL    HW211214   2.658   4.215   0.408
 3439SOL     OW11215   2.936   5.810   1.152
 3439SOL    HW111216   2.851   5.759   1.138
 3439SOL    HW211217   3.012   5.760   1.112
 3440SOL     OW11218   4.280   4.673   5.720
 3440SOL    HW111219   4.320   4.702   5.807
 3440SOL    HW211220   4.314   4.582   5.697
 3441SOL     OW11221   0.180   5.788   5.581
 3441SOL    HW111222   0.132   5.705   5.609
 3441SOL    HW211223   0.122   5.842   5.520
 3442SOL     OW11224   1.826   2.200   0.600
 3442SOL    HW111225   1.841   2.256   0.681
 3442SOL    HW211226   1.911   2.156   0.572
 3443SOL     OW11227   6.665   5.562   2.629
 3443SOL    HW111228   6.738   5.629   2.618
 3443SOL    HW211229   6.582   5.596   2.584
 3444SOL     OW11230   1.230   4.006   6.076
 3444SOL    HW111231   1.246   3.932   6.142
 3444SOL    HW211232   1.253   3.974   5.984
 3445SOL     OW11233   6.107   5.003   4.482
 3445SOL    HW111234   6.164   4.956   4.549
 3445SOL    HW211235   6.136   5.099   4.476
 3446SOL     OW11236   5.213   1.486   0.018
 3446SOL    HW111237   5.239   1.465   0.112
 3446SOL    HW211238   5.233   1.582   7.027
 3447SOL     OW11239   4.837   1.580   6.007
 3447SOL    HW111240   4.738   1.591   6.018
 3447SOL    HW211241   4.855   1.508   5.941
 3448SOL     OW11242   0.554   5.477   4.512
 3448SOL    HW111243   0.481   5.432   4.563
 3448SOL    HW211244   0.565   5.571   4.545
 3449SOL     OW11245   1.375   4.197   4.636
 3449SOL    HW111246   1.454   4.202   4.574
 3449SOL    HW211247   1.390   4.256   4.714
 3450SOL     OW11248   1.918   6.048   3.481
 3450SOL    HW111249   1.929   6.033   3.579
 3450SOL    HW211250   1.872   6.136   3.466
 3451SOL     OW11251   2.542   1.952   1.065
 3451SOL    HW111252   2.587   2.041   1.070
 3451SOL    HW211253   2.465   1.957   1.001
 3452SOL     OW11254   4.407   1.166   5.221
 3452SOL    HW111255   4.492   1.213   5.245
 3452SOL    HW211256   4.427   1.087   5.163
 3453SOL     OW11257   4.454   6.508   5.440
 3453SOL    HW111258   4.550   6.520   5.466
 3453SOL    HW211259   4.444   6.426   5.383
 3454SOL     OW11260   1.403   3.217   4.227
 3454SOL    HW111261   1.471   3.290   4.234
 3454SOL    HW211262   1.368   3.195   4.318
 3455SOL     OW11263   1.372   4.027   5.795
 3455SOL    HW111264   1.390   4.124   5.811
 3455SOL    HW211265   1.417   3.973   5.866
 3456SOL     OW11266   4.222   5.598   2.835
 3456SOL    HW111267   4.284   5.530   2.796
 3456SOL    HW211268   4.258   5.630   2.923
 3457SOL     OW11269   3.523   3.959   0.280
 3457SOL    HW111270   3.465   3.925   0.354
 3457SOL    HW211271   3.586   3.886   0.251
 3458SOL     OW11272   3.779   1.811   1.018
 3458SOL    HW111273   3.867   1.833   1.059
 3458SOL    HW211274   3.745   1.890   0.967
 3459SOL     OW11275   6.581   0.288   2.998
 3459SOL    HW111276   6.563   0.253   2.906
 3459SOL    HW211277   6.649   0.231   3.043
 3460SOL     OW11278   4.627   1.625   5.011
 3460SOL    HW111279   4.682   1.705   4.989
 3460SOL    HW211280   4.556   1.613   4.942
 3461SOL     OW11281   4.509   4.437   3.930
 3461SOL    HW111282   4.445   4.509   3.901
 3461SOL    HW211283   4.598   4.451   3.885
 3462SOL     OW11284   1.298   4.371   6.813
 3462SOL    HW111285   1.289   4.282   6.768
 3462SOL    HW211286   1.289   4.360   6.912
 3463SOL     OW11287   6.381   3.830   6.996
 3463SOL    HW111288   6.475   3.823   7.028
 3463SOL    HW211289   6.354   3.927   6.995
 3464SOL     OW11290   0.062   5.122   4.448
 3464SOL    HW111291   0.150   5.109   4.402
 3464SOL    HW211292   0.063   5.209   4.496
 3465SOL     OW11293   0.649   2.691   1.300
 3465SOL    HW111294   0.621   2.787   1.309
 3465SOL    HW211295   0.729   2.686   1.240
 3466SOL     OW11296   5.724   3.886   3.380
 3466SOL    HW111297   5.665   3.881   3.461
 3466SOL    HW211298   5.738   3.793   3.344
 3467SOL     OW11299   2.153   1.558   5.959
 3467SOL    HW111300   2.149   1.518   5.867
 3467SOL    HW211301   2.075   1.525   6.012
 3468SOL     OW11302   5.523   5.079   1.850
 3468SOL    HW111303   5.470   5.017   1.908
 3468SOL    HW211304   5.470   5.101   1.768
 3469SOL     OW11305   5.747   3.678   0.969
 3469SOL    HW111306   5.811   3.754   0.958
 3469SOL    HW211307   5.654   3.713   0.973
 3470SOL     OW11308   6.519   5.929   6.979
 3470SOL    HW111309   6.486   5.941   0.044
 3470SOL    HW211310   6.468   5.855   6.936
 3471SOL     OW11311   4.115   0.155   4.159
 3471SOL    HW111312   4.214   0.147   4.175
 3471SOL    HW211313   4.093   0.250   4.139
 3472SOL     OW11314   3.419   1.014   4.539
 3472SOL    HW111315   3.353   1.069   4.488
 3472SOL    HW211316   3.424   0.922   4.500
 3473SOL     OW11317   4.891   0.319   3.916
 3473SOL    HW111318   4.872   0.222   3.898
 3473SOL    HW211319   4.869   0.340   4.012
 3474SOL     OW11320   5.431   5.182   0.399
 3474SOL    HW111321   5.519   5.140   0.377
 3474SOL    HW211322   5.429   5.276   0.364
 3475SOL     OW11323   1.989   5.870   5.286
 3475SOL    HW111324   1.919   5.925   5.239
 3475SOL    HW211325   2.061   5.846   5.221
 3476SOL     OW11326   3.071   1.746   3.264
 3476SOL    HW111327   3.150   1.800   3.236
 3476SOL    HW211328   3.068   1.741   3.364
 3477SOL     OW11329   4.681   5.399   2.712
 3477SOL    HW111330   4.733   5.315   2.695
 3477SOL    HW211331   4.741   5.467   2.754
 3478SOL     OW11332   3.351   4.867   0.173
 3478SOL    HW111333   3.361   4.912   0.083
 3478SOL    HW211334   3.256   4.843   0.187
 3479SOL     OW11335   1.794   0.286   0.080
 3479SOL    HW111336   1.872   0.344   0.104
 3479SOL    HW211337   1.794   0.206   0.140
 3480SOL     OW11338   1.357   6.162   4.349
 3480SOL    HW111339   1.422   6.234   4.327
 3480SOL    HW211340   1.340   6.160   4.447
 3481SOL     OW11341   2.136   4.394   0.438
 3481SOL    HW111342   2.232   4.413   0.416
 3481SOL    HW211343   2.126   4.391   0.538
 3482SOL     OW11344   0.189   2.208   1.881
 3482SOL    HW111345   0.210   2.298   1.918
 3482SOL    HW211346   0.136   2.156   1.949
 3483SOL     OW11347   4.187   1.686   1.263
 3483SOL    HW111348   4.213   1.737   1.345
 3483SOL    HW211349   4.157   1.594   1.289
 3484SOL     OW11350   3.197   4.077   3.678
 3484SOL    HW111351   3.180   4.103   3.583
 3484SOL    HW211352   3.137   4.000   3.702
 3485SOL     OW11353   6.714   2.630   3.909
 3485SOL    HW111354   6.744   2.572   3.985
 3485SOL    HW211355   6.791   2.649   3.849
 3486SOL     OW11356   6.386   1.754   2.454
 3486SOL    HW111357   6.389   1.705   2.367
 3486SOL    HW211358   6.314   1.716   2.512
 3487SOL     OW11359   1.541   6.240   1.318
 3487SOL    HW111360   1.520   6.322   1.265
 3487SOL    HW211361   1.547   6.264   1.415
 3488SOL     OW11362   6.398   3.590   5.532
 3488SOL    HW111363   6.480   3.552   5.490
 3488SOL    HW211364   6.377   3.678   5.490
 3489SOL     OW11365   2.953   5.599   6.922
 3489SOL    HW111366   2.880   5.537   6.950
 3489SOL    HW211367   2.997   5.638   7.003
 3490SOL     OW11368   5.844   3.565   0.263
 3490SOL    HW111369   5.761   3.525   0.302
 3490SOL    HW211370   5.887   3.499   0.202
 3491SOL     OW11371   6.048   2.707   5.178
 3491SOL    HW111372   6.085   2.749   5.095
 3491SOL    HW211373   6.040   2.776   5.249
 3492SOL     OW11374   0.467   4.482   6.320
 3492SOL    HW111375   0.563   4.512   6.323
 3492SOL    HW211376   0.463   4.383   6.308
 3493SOL     OW11377   6.657   4.944   1.374
 3493SOL    HW111378   6.686   4.867   1.317
 3493SOL    HW211379   6.737   4.985   1.418
 3494SOL     OW11380   3.357   0.283   1.010
 3494SOL    HW111381   3.355   0.287   1.110
 3494SOL    HW211382   3.410   0.360   0.975
 3495SOL     OW11383   5.973   4.529   5.732
 3495SOL    HW111384   5.918   4.464   5.679
 3495SOL    HW211385   6.069   4.521   5.706
 3496SOL     OW11386   0.769   6.295   1.357
 3496SOL    HW111387   0.714   6.213   1.372
 3496SOL    HW211388   0.864   6.277   1.382
 3497SOL     OW11389   2.834   0.384   5.006
 3497SOL    HW111390   2.910   0.444   5.031
 3497SOL    HW211391   2.869   0.293   4.986
 3498SOL     OW11392   1.607   2.067   0.288
 3498SOL    HW111393   1.566   2.053   0.198
 3498SOL    HW211394   1.632   1.978   0.327
 3499SOL     OW11395   6.724   3.954   2.870
 3499SOL    HW111396   6.686   4.040   2.903
 3499SOL    HW211397   6.733   3.958   2.770
 3500SOL     OW11398   6.768   2.492   0.691
 3500SOL    HW111399   6.827   2.508   0.611
 3500SOL    HW211400   6.750   2.394   0.701
 3501SOL     OW11401   6.844   5.238   3.388
 3501SOL    HW111402   6.796   5.304   3.331
 3501SOL    HW211403   6.941   5.261   3.393
 3502SOL     OW11404   0.893   6.536   1.471
 3502SOL    HW111405   0.948   6.508   1.550
 3502SOL    HW211406   0.846   6.456   1.433
 3503SOL     OW11407   2.643   0.758   3.739
 3503SOL    HW111408   2.690   0.670   3.742
 3503SOL    HW211409   2.710   0.831   3.728
 3504SOL     OW11410   2.164   3.128   2.595
 3504SOL    HW111411   2.143   3.154   2.501
 3504SOL    HW211412   2.224   3.198   2.636
 3505SOL     OW11413   4.187   6.570   4.739
 3505SOL    HW111414   4.157   6.545   4.647
 3505SOL    HW211415   4.242   6.496   4.778
 3506SOL     OW11416   6.905   4.050   2.627
 3506SOL    HW111417   7.003   4.069   2.637
 3506SOL    HW211418   6.861   4.128   2.583
 3507SOL     OW11419   6.704   0.205   5.513
 3507SOL    HW111420   6.617   0.199   5.464
 3507SOL    HW211421   6.689   0.190   5.610
 3508SOL     OW11422   0.353   4.726   6.597
 3508SOL    HW111423   0.420   4.770   6.538
 3508SOL    HW211424   0.345   4.629   6.573
 3509SOL     OW11425   4.239   6.490   6.540
 3509SOL    HW111426   4.174   6.476   6.465
 3509SOL    HW211427   4.190   6.527   6.620
 3510SOL     OW11428   2.036   1.200   2.557
 3510SOL    HW111429   2.073   1.291   2.573
 3510SOL    HW211430   1.936   1.204   2.556
 3511SOL     OW11431   1.142   1.118   4.390
 3511SOL    HW111432   1.205   1.108   4.467
 3511SOL    HW211433   1.160   1.046   4.322
 3512SOL     OW11434   3.385   3.382   2.119
 3512SOL    HW111435   3.458   3.379   2.051
 3512SOL    HW211436   3.372   3.290   2.157
 3513SOL     OW11437   6.856   4.929   0.978
 3513SOL    HW111438   6.933   4.865   0.972
 3513SOL    HW211439   6.814   4.938   0.888
 3514SOL     OW11440   3.412   5.852   3.580
 3514SOL    HW111441   3.318   5.888   3.575
 3514SOL    HW211442   3.451   5.875   3.670
 3515SOL     OW11443   4.075   5.630   4.165
 3515SOL    HW111444   4.170   5.621   4.195
 3515SOL    HW211445   4.015   5.581   4.228
 3516SOL     OW11446   1.301   1.307   0.252
 3516SOL    HW111447   1.356   1.381   0.213
 3516SOL    HW211448   1.257   1.256   0.178
 3517SOL     OW11449   0.359   0.438   0.150
 3517SOL    HW111450   0.345   0.537   0.140
 3517SOL    HW211451   0.273   0.391   0.128
 3518SOL     OW11452   4.069   3.680   6.443
 3518SOL    HW111453   4.111   3.606   6.390
 3518SOL    HW211454   4.095   3.671   6.539
 3519SOL     OW11455   4.320   0.211   0.251
 3519SOL    HW111456   4.415   0.227   0.225
 3519SOL    HW211457   4.264   0.204   0.168
 3520SOL     OW11458   4.355   4.738   1.408
 3520SOL    HW111459   4.424   4.803   1.375
 3520SOL    HW211460   4.329   4.678   1.333
 3521SOL     OW11461   0.370   1.932   5.591
 3521SOL    HW111462   0.401   2.015   5.546
 3521SOL    HW211463   0.428   1.912   5.669
 3522SOL     OW11464   2.478   0.075   1.075
 3522SOL    HW111465   2.450   0.146   1.010
 3522SOL    HW211466   2.397   0.031   1.113
 3523SOL     OW11467   2.299   4.312   5.126
 3523SOL    HW111468   2.304   4.221   5.086
 3523SOL    HW211469   2.336   4.379   5.061
 3524SOL     OW11470   2.410   1.496   3.765
 3524SOL    HW111471   2.486   1.518   3.705
 3524SOL    HW211472   2.442   1.495   3.860
 3525SOL     OW11473   1.865   3.087   3.795
 3525SOL    HW111474   1.931   3.120   3.726
 3525SOL    HW211475   1.797   3.030   3.750
 3526SOL     OW11476   3.695   5.946   3.688
 3526SOL    HW111477   3.658   5.910   3.603
 3526SOL    HW211478   3.623   5.945   3.758
 3527SOL     OW11479   6.762   4.371   6.385
 3527SOL    HW111480   6.833   4.314   6.343
 3527SOL    HW211481   6.683   4.313   6.408
 3528SOL     OW11482   0.993   6.557   4.101
 3528SOL    HW111483   0.947   6.637   4.140
 3528SOL    HW211484   1.083   6.546   4.143
 3529SOL     OW11485   3.376   6.339   0.498
 3529SOL    HW111486   3.405   6.432   0.477
 3529SOL    HW211487   3.447   6.274   0.471
 3530SOL     OW11488   2.158   5.732   2.316
 3530SOL    HW111489   2.226   5.729   2.243
 3530SOL    HW211490   2.182   5.666   2.387
 3531SOL     OW11491   5.450   4.299   7.005
 3531SOL    HW111492   5.490   4.260   0.060
 3531SOL    HW211493   5.366   4.249   6.982
 3532SOL     OW11494   2.617   6.767   0.004
 3532SOL    HW111495   2.684   6.724   6.973
 3532SOL    HW211496   2.526   6.755   6.995
 3533SOL     OW11497   1.295   1.290   3.578
 3533SOL    HW111498   1.324   1.356   3.508
 3533SOL    HW211499   1.202   1.313   3.609
 3534SOL     OW11500   4.740   6.604   4.226
 3534SOL    HW111501   4.765   6.652   4.142
 3534SOL    HW211502   4.815   6.545   4.255
 3535SOL     OW11503   4.152   4.929   0.077
 3535SOL    HW111504   4.080   4.952   0.144
 3535SOL    HW211505   4.235   4.903   0.125
 3536SOL     OW11506   2.060   3.218   2.376
 3536SOL    HW111507   2.044   3.236   2.279
 3536SOL    HW211508   1.973   3.217   2.424
 3537SOL     OW11509   3.306   5.050   1.732
 3537SOL    HW111510   3.227   5.087   1.781
 3537SOL    HW211511   3.274   4.991   1.658
 3538SOL     OW11512   2.938   0.419   3.347
 3538SOL    HW111513   2.962   0.418   3.444
 3538SOL    HW211514   2.920   0.325   3.317
 3539SOL     OW11515   5.544   5.328   5.594
 3539SOL    HW111516   5.593   5.399   5.644
 3539SOL    HW211517   5.517   5.255   5.656
 3540SOL     OW11518   4.797   3.887   6.999
 3540SOL    HW111519   4.887   3.921   6.971
 3540SOL    HW211520   4.762   3.824   6.930
 3541SOL     OW11521   0.813   2.969   2.435
 3541SOL    HW111522   0.854   2.916   2.360
 3541SOL    HW211523   0.883   2.990   2.503
 3542SOL     OW11524   5.671   1.218   6.721
 3542SOL    HW111525   5.600   1.168   6.671
 3542SOL    HW211526   5.718   1.156   6.784
 3543SOL     OW11527   0.276   2.582   4.914
 3543SOL    HW111528   0.303   2.675   4.940
 3543SOL    HW211529   0.356   2.532   4.883
 3544SOL     OW11530   3.944   4.872   6.014
 3544SOL    HW111531   3.954   4.834   5.921
 3544SOL    HW211532   4.023   4.844   6.069
 3545SOL     OW11533   2.843   6.470   1.135
 3545SOL    HW111534   2.916   6.409   1.106
 3545SOL    HW211535   2.821   6.533   1.061
 3546SOL     OW11536   0.524   4.797   1.499
 3546SOL    HW111537   0.462   4.864   1.540
 3546SOL    HW211538   0.577   4.752   1.570
 3547SOL     OW11539   1.729   3.872   4.311
 3547SOL    HW111540   1.638   3.912   4.322
 3547SOL    HW211541   1.755   3.872   4.215
 3548SOL     OW11542   6.330   0.239   5.729
 3548SOL    HW111543   6.234   0.221   5.705
 3548SOL    HW211544   6.390   0.185   5.671
 3549SOL     OW11545   1.877   0.130   6.616
 3549SOL    HW111546   1.833   0.170   6.697
 3549SOL    HW211547   1.976   0.128   6.630
 3550SOL     OW11548   6.536   2.140   4.807
 3550SOL    HW111549   6.460   2.203   4.792
 3550SOL    HW211550   6.611   2.163   4.746
 3551SOL     OW11551   6.111   1.261   5.255
 3551SOL    HW111552   6.145   1.273   5.161
 3551SOL    HW211553   6.157   1.326   5.316
 3552SOL     OW11554   6.187   0.883   3.757
 3552SOL    HW111555   6.152   0.963   3.709
 3552SOL    HW211556   6.224   0.912   3.846
 3553SOL     OW11557   5.795   6.225   6.408
 3553SOL    HW111558   5.851   6.305   6.430
 3553SOL    HW211559   5.737   6.203   6.486
 3554SOL     OW11560   6.143   3.957   6.398
 3554SOL    HW111561   6.061   3.933   6.450
 3554SOL    HW211562   6.211   3.885   6.409
 3555SOL     OW11563   3.509   1.233   5.190
 3555SOL    HW111564   3.512   1.316   5.246
 3555SOL    HW211565   3.537   1.154   5.245
 3556SOL     OW11566   5.571   0.927   1.018
 3556SOL    HW111567   5.554   0.932   0.919
 3556SOL    HW211568   5.646   0.987   1.042
 3557SOL     OW11569   4.894   7.019   1.550
 3557SOL    HW111570   4.994   7.009   1.544
 3557SOL    HW211571   4.854   7.012   1.459
 3558SOL     OW11572   4.299   5.661   3.095
 3558SOL    HW111573   4.254   5.573   3.080
 3558SOL    HW211574   4.398   5.647   3.104
 3559SOL     OW11575   4.495   6.144   6.438
 3559SOL    HW111576   4.514   6.242   6.443
 3559SOL    HW211577   4.425   6.120   6.505
 3560SOL     OW11578   1.971   5.892   4.266
 3560SOL    HW111579   1.884   5.928   4.232
 3560SOL    HW211580   1.955   5.835   4.346
 3561SOL     OW11581   3.887   2.612   6.188
 3561SOL    HW111582   3.905   2.515   6.172
 3561SOL    HW211583   3.836   2.623   6.273
 3562SOL     OW11584   2.988   0.980   0.436
 3562SOL    HW111585   2.988   1.073   0.397
 3562SOL    HW211586   3.059   0.926   0.391
 3563SOL     OW11587   6.712   1.991   6.460
 3563SOL    HW111588   6.780   1.921   6.444
 3563SOL    HW211589   6.641   1.987   6.389
 3564SOL     OW11590   5.999   2.991   3.031
 3564SOL    HW111591   6.012   2.917   2.964
 3564SOL    HW211592   6.029   2.960   3.121
 3565SOL     OW11593   4.671   6.450   4.719
 3565SOL    HW111594   4.732   6.440   4.798
 3565SOL    HW211595   4.576   6.448   4.749
 3566SOL     OW11596   0.574   0.877   4.879
 3566SOL    HW111597   0.495   0.847   4.932
 3566SOL    HW211598   0.624   0.797   4.846
 3567SOL     OW11599   0.933   4.588   6.454
 3567SOL    HW111600   0.942   4.489   6.450
 3567SOL    HW211601   1.020   4.629   6.480
 3568SOL     OW11602   2.426   4.272   5.945
 3568SOL    HW111603   2.516   4.231   5.960
 3568SOL    HW211604   2.424   4.319   5.857
 3569SOL     OW11605   0.695   0.200   3.291
 3569SOL    HW111606   0.776   0.143   3.278
 3569SOL    HW211607   0.620   0.144   3.326
 3570SOL     OW11608   0.472   2.171   4.604
 3570SOL    HW111609   0.435   2.261   4.625
 3570SOL    HW211610   0.455   2.148   4.509
 3571SOL     OW11611   6.401   5.544   4.939
 3571SOL    HW111612   6.355   5.465   4.899
 3571SOL    HW211613   6.481   5.567   4.884
 3572SOL     OW11614   5.559   6.374   5.702
 3572SOL    HW111615   5.657   6.386   5.718
 3572SOL    HW211616   5.522   6.457   5.659
 3573SOL     OW11617   0.507   2.660   1.847
 3573SOL    HW111618   0.516   2.608   1.762
 3573SOL    HW211619   0.476   2.752   1.826
 3574SOL     OW11620   0.136   3.896   0.115
 3574SOL    HW111621   0.154   3.808   0.071
 3574SOL    HW211622   0.217   3.927   0.164
 3575SOL     OW11623   6.614   0.440   2.442
 3575SOL    HW111624   6.713   0.449   2.439
 3575SOL    HW211625   6.572   0.530   2.430
 3576SOL     OW11626   0.586   0.978   0.422
 3576SOL    HW111627   0.520   1.036   0.374
 3576SOL    HW211628   0.630   1.030   0.495
 3577SOL     OW11629   2.214   4.711   0.368
 3577SOL    HW111630   2.233   4.626   0.319
 3577SOL    HW211631   2.256   4.708   0.458
 3578SOL     OW11632   3.368   4.536   1.671
 3578SOL    HW111633   3.435   4.583   1.727
 3578SOL    HW211634   3.282   4.587   1.671
 3579SOL     OW11635   2.436   2.936   6.344
 3579SOL    HW111636   2.428   2.884   6.429
 3579SOL    HW211637   2.531   2.933   6.311
 3580SOL     OW11638   5.440   1.339   1.976
 3580SOL    HW111639   5.477   1.430   1.958
 3580SOL    HW211640   5.494   1.271   1.927
 3581SOL     OW11641   6.523   0.963   2.855
 3581SOL    HW111642   6.463   0.988   2.931
 3581SOL    HW211643   6.579   0.884   2.880
 3582SOL     OW11644   0.767   0.765   5.413
 3582SOL    HW111645   0.840   0.721   5.465
 3582SOL    HW211646   0.780   0.749   5.315
 3583SOL     OW11647   1.392   7.012   1.753
 3583SOL    HW111648   1.347   6.927   1.780
 3583SOL    HW211649   1.331   0.036   1.694
 3584SOL     OW11650   5.358   0.238   4.587
 3584SOL    HW111651   5.286   0.169   4.580
 3584SOL    HW211652   5.370   0.265   4.682
 3585SOL     OW11653   2.433   4.655   3.591
 3585SOL    HW111654   2.414   4.582   3.525
 3585SOL    HW211655   2.442   4.615   3.682
 3586SOL     OW11656   1.240   1.184   0.008
 3586SOL    HW111657   1.247   1.269   6.983
 3586SOL    HW211658   1.312   1.121   7.009
 3587SOL     OW11659   3.454   6.856   5.854
 3587SOL    HW111660   3.447   6.804   5.938
 3587SOL    HW211661   3.544   6.842   5.813
 3588SOL     OW11662   2.463   2.561   5.319
 3588SOL    HW111663   2.513   2.647   5.319
 3588SOL    HW211664   2.463   2.522   5.226
 3589SOL     OW11665   2.760   6.085   4.541
 3589SOL    HW111666   2.852   6.045   4.544
 3589SOL    HW211667   2.700   6.027   4.486
 3590SOL     OW11668   0.973   5.528   6.861
 3590SOL    HW111669   0.912   5.452   6.884
 3590SOL    HW211670   1.038   5.498   6.791
 3591SOL     OW11671   5.335   1.555   5.001
 3591SOL    HW111672   5.246   1.546   5.046
 3591SOL    HW211673   5.358   1.470   4.954
 3592SOL     OW11674   5.690   1.570   2.282
 3592SOL    HW111675   5.650   1.656   2.250
 3592SOL    HW211676   5.755   1.536   2.214
 3593SOL     OW11677   0.617   5.200   4.023
 3593SOL    HW111678   0.536   5.159   3.980
 3593SOL    HW211679   0.595   5.227   4.117
 3594SOL     OW11680   4.168   1.189   4.494
 3594SOL    HW111681   4.138   1.213   4.586
 3594SOL    HW211682   4.174   1.272   4.439
 3595SOL     OW11683   2.217   6.579   6.355
 3595SOL    HW111684   2.155   6.619   6.422
 3595SOL    HW211685   2.225   6.480   6.372
 3596SOL     OW11686   6.496   3.697   2.883
 3596SOL    HW111687   6.457   3.735   2.967
 3596SOL    HW211688   6.546   3.613   2.904
 3597SOL     OW11689   4.098   0.384   4.010
 3597SOL    HW111690   4.033   0.421   3.945
 3597SOL    HW211691   4.185   0.365   3.964
 3598SOL     OW11692   2.079   6.932   0.018
 3598SOL    HW111693   2.122   7.021   0.033
 3598SOL    HW211694   2.011   6.940   6.974
 3599SOL     OW11695   0.350   2.495   3.757
 3599SOL    HW111696   0.279   2.482   3.688
 3599SOL    HW211697   0.440   2.488   3.714
 3600SOL     OW11698   6.415   6.828   1.453
 3600SOL    HW111699   6.351   6.855   1.381
 3600SOL    HW211700   6.415   6.728   1.461
 3601SOL     OW11701   7.004   3.696   5.895
 3601SOL    HW111702   0.016   3.746   5.818
 3601SOL    HW211703   7.008   3.598   5.876
 3602SOL     OW11704   3.213   2.699   1.037
 3602SOL    HW111705   3.208   2.599   1.033
 3602SOL    HW211706   3.123   2.737   1.015
 3603SOL     OW11707   4.115   5.285   5.041
 3603SOL    HW111708   4.178   5.266   5.116
 3603SOL    HW211709   4.023   5.254   5.065
 3604SOL     OW11710   5.801   4.491   3.438
 3604SOL    HW111711   5.801   4.589   3.458
 3604SOL    HW211712   5.721   4.448   3.481
 3605SOL     OW11713   5.447   1.680   6.277
 3605SOL    HW111714   5.481   1.759   6.225
 3605SOL    HW211715   5.360   1.649   6.238
 3606SOL     OW11716   1.799   3.484   2.702
 3606SOL    HW111717   1.836   3.494   2.610
 3606SOL    HW211718   1.787   3.386   2.722
 3607SOL     OW11719   4.196   6.821   5.207
 3607SOL    HW111720   4.206   6.894   5.140
 3607SOL    HW211721   4.119   6.762   5.180
 3608SOL     OW11722   6.918   3.018   2.994
 3608SOL    HW111723   6.950   2.955   3.065
 3608SOL    HW211724   6.921   2.972   2.905
 3609SOL     OW11725   0.079   0.814   3.776
 3609SOL    HW111726   0.121   0.885   3.721
 3609SOL    HW211727   7.020   0.847   3.811
 3610SOL     OW11728   1.992   4.875   5.372
 3610SOL    HW111729   1.959   4.781   5.376
 3610SOL    HW211730   1.945   4.924   5.299
 3611SOL     OW11731   4.795   4.450   6.169
 3611SOL    HW111732   4.863   4.379   6.191
 3611SOL    HW211733   4.708   4.427   6.213
 3612SOL     OW11734   2.135   5.922   1.276
 3612SOL    HW111735   2.186   6.005   1.297
 3612SOL    HW211736   2.049   5.947   1.231
 3613SOL     OW11737   5.744   4.769   6.092
 3613SOL    HW111738   5.662   4.783   6.036
 3613SOL    HW211739   5.825   4.791   6.038
 3614SOL     OW11740   3.708   2.877   4.868
 3614SOL    HW111741   3.754   2.815   4.806
 3614SOL    HW211742   3.609   2.868   4.858
 3615SOL     OW11743   5.712   6.556   6.578
 3615SOL    HW111744   5.632   6.606   6.544
 3615SOL    HW211745   5.684   6.467   6.612
 3616SOL     OW11746   6.379   1.367   4.443
 3616SOL    HW111747   6.416   1.278   4.470
 3616SOL    HW211748   6.279   1.364   4.446
 3617SOL     OW11749   0.130   0.711   0.935
 3617SOL    HW111750   0.170   0.790   0.981
 3617SOL    HW211751   0.200   0.641   0.921
 3618SOL     OW11752   3.799   5.523   5.946
 3618SOL    HW111753   3.786   5.459   6.023
 3618SOL    HW211754   3.741   5.603   5.960
 3619SOL     OW11755   4.964   3.469   4.002
 3619SOL    HW111756   4.874   3.430   3.985
 3619SOL    HW211757   5.034   3.408   3.964
 3620SOL     OW11758   6.074   1.828   5.233
 3620SOL    HW111759   6.040   1.776   5.154
 3620SOL    HW211760   6.159   1.874   5.207
 3621SOL     OW11761   1.798   2.806   6.416
 3621SOL    HW111762   1.885   2.805   6.367
 3621SOL    HW211763   1.815   2.782   6.512
 3622SOL     OW11764   1.127   3.649   0.880
 3622SOL    HW111765   1.142   3.563   0.832
 3622SOL    HW211766   1.062   3.705   0.828
 3623SOL     OW11767   6.543   4.820   5.135
 3623SOL    HW111768   6.475   4.761   5.090
 3623SOL    HW211769   6.625   4.767   5.153
 3624SOL     OW11770   1.623   0.496   1.745
 3624SOL    HW111771   1.584   0.413   1.703
 3624SOL    HW211772   1.682   0.542   1.680
 3625SOL     OW11773   1.074   2.456   5.397
 3625SOL    HW111774   1.117   2.538   5.436
 3625SOL    HW211775   1.145   2.399   5.355
 3626SOL     OW11776   2.042   3.300   5.615
 3626SOL    HW111777   1.961   3.289   5.673
 3626SOL    HW211778   2.104   3.366   5.656
 3627SOL     OW11779   3.670   3.382   4.355
 3627SOL    HW111780   3.679   3.333   4.268
 3627SOL    HW211781   3.589   3.347   4.404
 3628SOL     OW11782   3.043   5.586   3.791
 3628SOL    HW111783   3.134   5.604   3.754
 3628SOL    HW211784   3.051   5.532   3.875
 3629SOL     OW11785   5.659   3.578   4.808
 3629SOL    HW111786   5.657   3.549   4.903
 3629SOL    HW211787   5.726   3.524   4.757
 3630SOL     OW11788   6.121   1.872   4.870
 3630SOL    HW111789   6.151   1.780   4.899
 3630SOL    HW211790   6.190   1.911   4.810
 3631SOL     OW11791   1.849   0.814   4.126
 3631SOL    HW111792   1.848   0.898   4.180
 3631SOL    HW211793   1.943   0.785   4.110
 3632SOL     OW11794   5.008   6.292   6.166
 3632SOL    HW111795   5.030   6.199   6.197
 3632SOL    HW211796   5.090   6.335   6.128
 3633SOL     OW11797   0.643   2.633   5.719
 3633SOL    HW111798   0.587   2.579   5.655
 3633SOL    HW211799   0.584   2.675   5.788
 3634SOL     OW11800   2.773   4.696   6.482
 3634SOL    HW111801   2.749   4.621   6.544
 3634SOL    HW211802   2.689   4.732   6.440
 3635SOL     OW11803   2.072   1.975   4.257
 3635SOL    HW111804   2.088   2.029   4.175
 3635SOL    HW211805   1.979   1.992   4.291
 3636SOL     OW11806   0.903   6.812   1.510
 3636SOL    HW111807   0.892   6.723   1.466
 3636SOL    HW211808   0.988   6.814   1.562
 3637SOL     OW11809   4.989   1.343   2.502
 3637SOL    HW111810   5.065   1.344   2.567
 3637SOL    HW211811   4.903   1.354   2.552
 3638SOL     OW11812   6.943   4.545   3.299
 3638SOL    HW111813   6.947   4.595   3.213
 3638SOL    HW211814   6.862   4.485   3.298
 3639SOL     OW11815   3.058   6.324   7.016
 3639SOL    HW111816   2.987   6.395   7.017
 3639SOL    HW211817   3.052   6.272   6.931
 3640SOL     OW11818   2.337   6.658   2.231
 3640SOL    HW111819   2.315   6.706   2.316
 3640SOL    HW211820   2.383   6.572   2.252
 3641SOL     OW11821   1.856   1.366   5.207
 3641SOL    HW111822   1.872   1.344   5.303
 3641SOL    HW211823   1.812   1.289   5.161
 3642SOL     OW11824   6.299   6.990   2.421
 3642SOL    HW111825   6.304   0.034   2.489
 3642SOL    HW211826   6.358   6.914   2.449
 3643SOL     OW11827   3.921   6.789   3.842
 3643SOL    HW111828   3.946   6.723   3.912
 3643SOL    HW211829   3.942   6.881   3.874
 3644SOL     OW11830   5.862   0.209   1.870
 3644SOL    HW111831   5.947   0.156   1.868
 3644SOL    HW211832   5.864   0.273   1.947
 3645SOL     OW11833   4.704   5.798   3.798
 3645SOL    HW111834   4.639   5.874   3.805
 3645SOL    HW211835   4.653   5.712   3.799
 3646SOL     OW11836   0.725   5.285   5.448
 3646SOL    HW111837   0.783   5.207   5.471
 3646SOL    HW211838   0.781   5.367   5.443
 3647SOL     OW11839   3.236   2.938   0.717
 3647SOL    HW111840   3.235   3.000   0.795
 3647SOL    HW211841   3.156   2.878   0.722
 3648SOL     OW11842   2.811   6.308   3.494
 3648SOL    HW111843   2.732   6.254   3.524
 3648SOL    HW211844   2.892   6.249   3.492
 3649SOL     OW11845   3.327   3.012   3.087
 3649SOL    HW111846   3.417   3.013   3.132
 3649SOL    HW211847   3.331   2.955   3.006
 3650SOL     OW11848   5.422   6.231   1.696
 3650SOL    HW111849   5.486   6.157   1.713
 3650SOL    HW211850   5.468   6.303   1.644
 3651SOL     OW11851   1.660   5.369   1.730
 3651SOL    HW111852   1.701   5.435   1.667
 3651SOL    HW211853   1.563   5.358   1.708
 3652SOL     OW11854   4.435   6.301   3.818
 3652SOL    HW111855   4.477   6.392   3.816
 3652SOL    HW211856   4.336   6.309   3.808
 3653SOL     OW11857   0.292   3.331   3.577
 3653SOL    HW111858   0.302   3.267   3.653
 3653SOL    HW211859   0.344   3.414   3.596
 3654SOL     OW11860   2.105   6.906   2.137
 3654SOL    HW111861   2.170   6.981   2.153
 3654SOL    HW211862   2.129   6.860   2.052
 3655SOL     OW11863   6.496   1.148   3.750
 3655SOL    HW111864   6.495   1.099   3.663
 3655SOL    HW211865   6.581   1.199   3.758
 3656SOL     OW11866   2.300   1.854   2.986
 3656SOL    HW111867   2.240   1.774   2.980
 3656SOL    HW211868   2.303   1.900   2.897
 3657SOL     OW11869   5.747   5.299   1.427
 3657SOL    HW111870   5.688   5.313   1.507
 3657SOL    HW211871   5.806   5.220   1.442
 3658SOL     OW11872   2.860   4.547   5.579
 3658SOL    HW111873   2.829   4.472   5.521
 3658SOL    HW211874   2.882   4.626   5.522
 3659SOL     OW11875   1.765   4.114   6.438
 3659SOL    HW111876   1.762   4.208   6.474
 3659SOL    HW211877   1.677   4.090   6.398
 3660SOL     OW11878   4.745   3.962   0.825
 3660SOL    HW111879   4.778   3.971   0.919
 3660SOL    HW211880   4.668   4.023   0.810
 3661SOL     OW11881   5.644   1.112   1.952
 3661SOL    HW111882   5.667   1.132   1.857
 3661SOL    HW211883   5.611   1.018   1.959
 3662SOL     OW11884   1.183   6.901   4.188
 3662SOL    HW111885   1.213   6.924   4.096
 3662SOL    HW211886   1.241   6.828   4.225
 3663SOL     OW11887   2.311   2.174   6.006
 3663SOL    HW111888   2.356   2.259   5.977
 3663SOL    HW211889   2.231   2.157   5.948
 3664SOL     OW11890   3.601   0.508   2.327
 3664SOL    HW111891   3.687   0.559   2.318
 3664SOL    HW211892   3.524   0.571   2.316
 3665SOL     OW11893   2.414   1.563   5.449
 3665SOL    HW111894   2.402   1.662   5.457
 3665SOL    HW211895   2.482   1.532   5.515
 3666SOL     OW11896   0.712   4.720   2.943
 3666SOL    HW111897   0.751   4.787   3.007
 3666SOL    HW211898   0.703   4.632   2.989
 3667SOL     OW11899   0.007   1.115   0.170
 3667SOL    HW111900   6.950   1.123   0.220
 3667SOL    HW211901   0.016   1.022   0.134
 3668SOL     OW11902   1.937   6.663   1.537
 3668SOL    HW111903   1.935   6.759   1.565
 3668SOL    HW211904   1.920   6.605   1.617
 3669SOL     OW11905   5.446   1.537   4.110
 3669SOL    HW111906   5.527   1.593   4.128
 3669SOL    HW211907   5.435   1.526   4.011
 3670SOL     OW11908   3.173   4.880   6.046
 3670SOL    HW111909   3.126   4.914   6.127
 3670SOL    HW211910   3.166   4.948   5.973
 3671SOL     OW11911   1.923   1.326   3.281
 3671SOL    HW111912   1.922   1.292   3.375
 3671SOL    HW211913   1.836   1.370   3.261
 3672SOL     OW11914   6.398   6.348   0.081
 3672SOL    HW111915   6.472   6.295   0.122
 3672SOL    HW211916   6.396   6.439   0.124
 3673SOL     OW11917   4.233   0.040   6.412
 3673SOL    HW111918   4.287   0.025   6.329
 3673SOL    HW211919   4.256   0.129   6.451
 3674SOL     OW11920   1.025   6.238   0.931
 3674SOL    HW111921   1.115   6.282   0.931
 3674SOL    HW211922   0.957   6.300   0.970
 3675SOL     OW11923   2.306   2.372   4.001
 3675SOL    HW111924   2.287   2.397   4.096
 3675SOL    HW211925   2.237   2.413   3.941
 3676SOL     OW11926   1.617   5.344   2.576
 3676SOL    HW111927   1.644   5.297   2.491
 3676SOL    HW211928   1.521   5.372   2.570
 3677SOL     OW11929   5.978   0.768   3.507
 3677SOL    HW111930   5.888   0.813   3.506
 3677SOL    HW211931   6.046   0.830   3.546
 3678SOL     OW11932   0.739   2.764   4.326
 3678SOL    HW111933   0.728   2.729   4.233
 3678SOL    HW211934   0.668   2.831   4.345
 3679SOL     OW11935   6.134   1.426   2.000
 3679SOL    HW111936   6.106   1.471   2.085
 3679SOL    HW211937   6.192   1.348   2.021
 3680SOL     OW11938   6.010   4.359   4.794
 3680SOL    HW111939   6.072   4.286   4.824
 3680SOL    HW211940   6.036   4.391   4.703
 3681SOL     OW11941   5.537   0.444   5.583
 3681SOL    HW111942   5.630   0.478   5.572
 3681SOL    HW211943   5.472   0.517   5.562
 3682SOL     OW11944   7.012   1.760   0.137
 3682SOL    HW111945   0.038   1.843   0.146
 3682SOL    HW211946   0.012   1.709   0.056
 3683SOL     OW11947   5.283   6.572   3.291
 3683SOL    HW111948   5.184   6.577   3.304
 3683SOL    HW211949   5.328   6.588   3.379
 3684SOL     OW11950   2.258   4.315   1.738
 3684SOL    HW111951   2.245   4.407   1.774
 3684SOL    HW211952   2.181   4.257   1.767
 3685SOL     OW11953   5.424   5.867   5.474
 3685SOL    HW111954   5.470   5.786   5.510
 3685SOL    HW211955   5.488   5.943   5.469
 3686SOL     OW11956   0.336   4.085   0.526
 3686SOL    HW111957   0.245   4.101   0.562
 3686SOL    HW211958   0.397   4.160   0.554
 3687SOL     OW11959   4.179   0.871   0.401
 3687SOL    HW111960   4.129   0.812   0.337
 3687SOL    HW211961   4.257   0.913   0.354
 3688SOL     OW11962   0.305   3.426   0.415
 3688SOL    HW111963   0.223   3.457   0.368
 3688SOL    HW211964   0.284   3.345   0.469
 3689SOL     OW11965   1.935   6.399   3.905
 3689SOL    HW111966   1.895   6.314   3.938
 3689SOL    HW211967   1.917   6.472   3.970
 3690SOL     OW11968   4.877   5.017   5.694
 3690SOL    HW111969   4.906   5.110   5.670
 3690SOL    HW211970   4.947   4.952   5.665
 3691SOL     OW11971   3.491   3.028   6.234
 3691SOL    HW111972   3.499   3.110   6.177
 3691SOL    HW211973   3.566   2.966   6.212
 3692SOL     OW11974   0.034   0.426   5.286
 3692SOL    HW111975   0.076   0.421   5.195
 3692SOL    HW211976   6.964   0.438   5.277
 3693SOL     OW11977   1.335   1.310   3.954
 3693SOL    HW111978   1.314   1.255   3.874
 3693SOL    HW211979   1.421   1.359   3.940
 3694SOL     OW11980   1.830   4.934   3.824
 3694SOL    HW111981   1.822   4.886   3.911
 3694SOL    HW211982   1.917   4.985   3.822
 3695SOL     OW11983   2.181   2.518   0.611
 3695SOL    HW111984   2.113   2.535   0.681
 3695SOL    HW211985   2.202   2.603   0.563
 3696SOL     OW11986   2.930   6.090   5.346
 3696SOL    HW111987   2.975   6.059   5.429
 3696SOL    HW211988   2.979   6.055   5.266
 3697SOL     OW11989   5.480   0.911   3.561
 3697SOL    HW111990   5.498   1.009   3.566
 3697SOL    HW211991   5.456   0.876   3.651
 3698SOL     OW11992   3.244   6.832   6.204
 3698SOL    HW111993   3.344   6.832   6.210
 3698SOL    HW211994   3.215   6.769   6.132
 3699SOL     OW11995   1.062   5.326   2.338
 3699SOL    HW111996   1.144   5.382   2.324
 3699SOL    HW211997   1.084   5.230   2.322
 3700SOL     OW11998   6.241   0.539   3.410
 3700SOL    HW111999   6.185   0.600   3.354
 3700SOL    HW212000   6.279   0.590   3.487
 3701SOL     OW12001   4.580   1.327   4.013
 3701SOL    HW112002   4.616   1.278   3.933
 3701SOL    HW212003   4.567   1.262   4.088
 3702SOL     OW12004   4.810   1.489   6.276
 3702SOL    HW112005   4.822   1.545   6.194
 3702SOL    HW212006   4.801   1.393   6.250
 3703SOL     OW12007   4.273   4.591   1.212
 3703SOL    HW112008   4.244   4.496   1.200
 3703SOL    HW212009   4.246   4.644   1.131
 3704SOL     OW12010   3.177   6.190   1.238
 3704SOL    HW112011   3.094   6.157   1.195
 3704SOL    HW212012   3.235   6.234   1.170
 3705SOL     OW12013   7.021   0.891   4.191
 3705SOL    HW112014   6.943   0.908   4.251
 3705SOL    HW212015   6.993   0.829   4.117
 3706SOL     OW12016   2.802   1.962   3.343
 3706SOL    HW112017   2.796   1.997   3.436
 3706SOL    HW212018   2.881   2.002   3.297
 3707SOL     OW12019   4.303   2.309   5.527
 3707SOL    HW112020   4.363   2.339   5.601
 3707SOL    HW212021   4.340   2.226   5.485
 3708SOL     OW12022   6.539   0.759   0.374
 3708SOL    HW112023   6.622   0.774   0.427
 3708SOL    HW212024   6.554   0.684   0.310
 3709SOL     OW12025   6.987   6.539   6.620
 3709SOL    HW112026   6.926   6.616   6.642
 3709SOL    HW212027   6.938   6.471   6.567
 3710SOL     OW12028   0.499   5.231   6.266
 3710SOL    HW112029   0.583   5.217   6.317
 3710SOL    HW212030   0.439   5.152   6.278
 3711SOL     OW12031   6.763   5.320   1.853
 3711SOL    HW112032   6.666   5.339   1.870
 3711SOL    HW212033   6.791   5.361   1.767
 3712SOL     OW12034   1.556   6.595   6.758
 3712SOL    HW112035   1.574   6.544   6.674
 3712SOL    HW212036   1.550   6.693   6.737
 3713SOL     OW12037   3.682   4.865   6.106
 3713SOL    HW112038   3.666   4.939   6.171
 3713SOL    HW212039   3.780   4.859   6.087
 3714SOL     OW12040   4.741   2.011   5.070
 3714SOL    HW112041   4.648   2.000   5.106
 3714SOL    HW212042   4.767   1.927   5.021
 3715SOL     OW12043   4.796   4.032   3.611
 3715SOL    HW112044   4.768   4.115   3.661
 3715SOL    HW212045   4.785   4.047   3.513
 3716SOL     OW12046   1.035   1.145   4.795
 3716SOL    HW112047   1.062   1.049   4.788
 3716SOL    HW212048   1.052   1.191   4.708
 3717SOL     OW12049   5.912   0.743   6.832
 3717SOL    HW112050   6.011   0.739   6.819
 3717SOL    HW212051   5.876   0.652   6.850
 3718SOL     OW12052   0.893   6.251   6.199
 3718SOL    HW112053   0.952   6.272   6.121
 3718SOL    HW212054   0.805   6.297   6.189
 3719SOL     OW12055   3.129   4.243   0.479
 3719SOL    HW112056   3.163   4.299   0.403
 3719SOL    HW212057   3.131   4.296   0.563
 3720SOL     OW12058   6.990   1.124   6.558
 3720SOL    HW112059   7.001   1.049   6.623
 3720SOL    HW212060   0.050   1.167   6.540
 3721SOL     OW12061   4.920   3.136   0.355
 3721SOL    HW112062   4.864   3.192   0.415
 3721SOL    HW212063   4.866   3.057   0.324
 3722SOL     OW12064   4.503   6.114   1.009
 3722SOL    HW112065   4.475   6.070   1.095
 3722SOL    HW212066   4.435   6.096   0.939
 3723SOL     OW12067   4.701   1.189   0.745
 3723SOL    HW112068   4.775   1.255   0.733
 3723SOL    HW212069   4.675   1.186   0.842
 3724SOL     OW12070   0.603   4.552   5.918
 3724SOL    HW112071   0.601   4.587   5.825
 3724SOL    HW212072   0.533   4.482   5.929
 3725SOL     OW12073   5.229   6.095   1.567
 3725SOL    HW112074   5.308   6.123   1.622
 3725SOL    HW212075   5.260   6.058   1.480
 3726SOL     OW12076   6.277   3.297   1.634
 3726SOL    HW112077   6.198   3.354   1.612
 3726SOL    HW212078   6.292   3.232   1.559
 3727SOL     OW12079   2.806   2.842   5.472
 3727SOL    HW112080   2.805   2.763   5.535
 3727SOL    HW212081   2.899   2.859   5.441
 3728SOL     OW12082   0.668   4.089   6.353
 3728SOL    HW112083   0.630   3.997   6.364
 3728SOL    HW212084   0.594   4.156   6.360
 3729SOL     OW12085   1.126   3.313   3.900
 3729SOL    HW112086   1.096   3.219   3.884
 3729SOL    HW212087   1.056   3.377   3.869
 3730SOL     OW12088   2.206   6.993   1.517
 3730SOL    HW112089   2.217   6.900   1.485
 3730SOL    HW212090   2.230   0.028   1.444
 3731SOL     OW12091   2.466   5.729   0.494
 3731SOL    HW112092   2.421   5.731   0.405
 3731SOL    HW212093   2.417   5.667   0.555
 3732SOL     OW12094   2.129   3.574   4.471
 3732SOL    HW112095   2.101   3.625   4.390
 3732SOL    HW212096   2.132   3.476   4.449
 3733SOL     OW12097   3.081   3.273   1.715
 3733SOL    HW112098   3.175   3.273   1.680
 3733SOL    HW212099   3.019   3.244   1.642
 3734SOL     OW12100   3.876   1.459   3.139
 3734SOL    HW112101   3.852   1.468   3.236
 3734SOL    HW212102   3.799   1.418   3.089
 3735SOL     OW12103   3.816   2.018   2.118
 3735SOL    HW112104   3.828   1.927   2.080
 3735SOL    HW212105   3.730   2.057   2.085
 3736SOL     OW12106   4.877   1.001   6.203
 3736SOL    HW112107   4.963   0.959   6.172
 3736SOL    HW212108   4.803   0.934   6.195
 3737SOL     OW12109   3.117   0.125   3.603
 3737SOL    HW112110   3.096   0.168   3.691
 3737SOL    HW212111   3.069   0.172   3.530
 3738SOL     OW12112   0.318   0.623   4.432
 3738SOL    HW112113   0.273   0.581   4.511
 3738SOL    HW212114   0.349   0.715   4.456
 3739SOL     OW12115   0.391   3.233   0.954
 3739SOL    HW112116   0.402   3.259   0.858
 3739SOL    HW212117   0.387   3.134   0.962
 3740SOL     OW12118   5.740   6.947   6.908
 3740SOL    HW112119   5.676   7.011   6.866
 3740SOL    HW212120   5.724   6.944   7.007
 3741SOL     OW12121   3.781   1.486   0.280
 3741SOL    HW112122   3.698   1.430   0.280
 3741SOL    HW212123   3.833   1.468   0.196
 3742SOL     OW12124   3.572   3.544   6.119
 3742SOL    HW112125   3.639   3.558   6.192
 3742SOL    HW212126   3.617   3.556   6.030
 3743SOL     OW12127   0.798   5.922   5.854
 3743SOL    HW112128   0.857   5.918   5.934
 3743SOL    HW212129   0.704   5.900   5.880
 3744SOL     OW12130   6.647   4.909   3.079
 3744SOL    HW112131   6.714   4.847   3.118
 3744SOL    HW212132   6.573   4.857   3.038
 3745SOL     OW12133   5.110   4.868   0.991
 3745SOL    HW112134   5.084   4.821   0.906
 3745SOL    HW212135   5.048   4.944   1.007
 3746SOL     OW12136   3.900   1.556   1.421
 3746SOL    HW112137   3.927   1.631   1.360
 3746SOL    HW212138   3.801   1.545   1.417
 3747SOL     OW12139   2.550   6.854   1.367
 3747SOL    HW112140   2.528   6.758   1.385
 3747SOL    HW212141   2.635   6.859   1.314
 3748SOL     OW12142   5.879   0.292   1.615
 3748SOL    HW112143   5.924   0.381   1.613
 3748SOL    HW212144   5.866   0.263   1.710
 3749SOL     OW12145   0.968   0.620   3.963
 3749SOL    HW112146   0.935   0.714   3.975
 3749SOL    HW212147   1.057   0.622   3.916
 3750SOL     OW12148   0.594   4.085   6.892
 3750SOL    HW112149   0.628   4.083   6.986
 3750SOL    HW212150   0.611   4.175   6.852
 3751SOL     OW12151   1.778   5.129   1.784
 3751SOL    HW112152   1.795   5.109   1.688
 3751SOL    HW212153   1.735   5.219   1.793
 3752SOL     OW12154   5.237   5.475   6.818
 3752SOL    HW112155   5.161   5.532   6.848
 3752SOL    HW212156   5.308   5.532   6.777
 3753SOL     OW12157   6.865   1.066   3.588
 3753SOL    HW112158   6.961   1.075   3.614
 3753SOL    HW212159   6.857   1.005   3.509
 3754SOL     OW12160   3.759   1.814   1.456
 3754SOL    HW112161   3.735   1.906   1.428
 3754SOL    HW212162   3.680   1.753   1.441
 3755SOL     OW12163   2.580   5.630   3.989
 3755SOL    HW112164   2.483   5.655   3.989
 3755SOL    HW212165   2.619   5.647   4.079
 3756SOL     OW12166   1.290   6.387   0.742
 3756SOL    HW112167   1.348   6.365   0.821
 3756SOL    HW212168   1.317   6.475   0.704
 3757SOL     OW12169   0.684   5.146   0.197
 3757SOL    HW112170   0.585   5.131   0.192
 3757SOL    HW212171   0.729   5.062   0.227
 3758SOL     OW12172   0.412   6.054   4.293
 3758SOL    HW112173   0.338   6.121   4.300
 3758SOL    HW212174   0.373   5.963   4.277
 3759SOL     OW12175   4.696   0.630   4.030
 3759SOL    HW112176   4.668   0.678   4.113
 3759SOL    HW212177   4.769   0.681   3.985
 3760SOL     OW12178   0.614   0.796   3.449
 3760SOL    HW112179   0.694   0.837   3.405
 3760SOL    HW212180   0.634   0.700   3.471
 3761SOL     OW12181   4.461   1.362   4.890
 3761SOL    HW112182   4.467   1.377   4.791
 3761SOL    HW212183   4.375   1.399   4.924
 3762SOL     OW12184   0.155   2.451   3.594
 3762SOL    HW112185   0.135   2.499   3.509
 3762SOL    HW212186   0.071   2.409   3.629
 3763SOL     OW12187   0.968   6.316   6.881
 3763SOL    HW112188   1.060   6.282   6.868
 3763SOL    HW212189   0.931   6.283   6.967
 3764SOL     OW12190   3.627   1.711   2.471
 3764SOL    HW112191   3.561   1.642   2.501
 3764SOL    HW212192   3.584   1.772   2.404
 3765SOL     OW12193   5.681   4.003   2.617
 3765SOL    HW112194   5.608   4.024   2.552
 3765SOL    HW212195   5.691   3.904   2.624
 3766SOL     OW12196   2.107   3.013   2.013
 3766SOL    HW112197   2.092   3.106   2.048
 3766SOL    HW212198   2.145   2.956   2.086
 3767SOL     OW12199   1.793   6.080   6.068
 3767SOL    HW112200   1.812   5.983   6.081
 3767SOL    HW212201   1.879   6.131   6.066
 3768SOL     OW12202   2.183   6.886   3.612
 3768SOL    HW112203   2.121   6.956   3.647
 3768SOL    HW212204   2.151   6.796   3.641
 3769SOL     OW12205   5.270   4.944   5.710
 3769SOL    HW112206   5.236   4.954   5.804
 3769SOL    HW212207   5.364   4.975   5.705
 3770SOL     OW12208   2.846   6.497   0.847
 3770SOL    HW112209   2.925   6.554   0.869
 3770SOL    HW212210   2.878   6.408   0.814
 3771SOL     OW12211   6.539   6.391   6.063
 3771SOL    HW112212   6.457   6.423   6.112
 3771SOL    HW212213   6.513   6.317   6.001
 3772SOL     OW12214   3.394   5.680   1.903
 3772SOL    HW112215   3.349   5.768   1.920
 3772SOL    HW212216   3.338   5.624   1.843
 3773SOL     OW12217   4.934   4.102   6.692
 3773SOL    HW112218   4.999   4.033   6.723
 3773SOL    HW212219   4.928   4.175   6.761
 3774SOL     OW12220   6.934   4.611   0.759
 3774SOL    HW112221   6.958   4.639   0.852
 3774SOL    HW212222   6.838   4.581   0.757
 3775SOL     OW12223   5.456   6.686   5.025
 3775SOL    HW112224   5.446   6.598   5.071
 3775SOL    HW212225   5.495   6.672   4.934
 3776SOL     OW12226   4.512   2.669   6.712
 3776SOL    HW112227   4.560   2.636   6.631
 3776SOL    HW212228   4.489   2.592   6.771
 3777SOL     OW12229   3.515   4.908   3.356
 3777SOL    HW112230   3.602   4.940   3.393
 3777SOL    HW212231   3.442   4.925   3.422
 3778SOL     OW12232   2.972   5.646   6.506
 3778SOL    HW112233   2.879   5.642   6.470
 3778SOL    HW212234   3.031   5.697   6.443
 3779SOL     OW12235   0.103   4.863   5.916
 3779SOL    HW112236   0.127   4.766   5.922
 3779SOL    HW212237   0.172   4.917   5.963
 3780SOL     OW12238   5.927   2.266   1.854
 3780SOL    HW112239   5.849   2.226   1.806
 3780SOL    HW212240   6.011   2.220   1.825
 3781SOL     OW12241   1.161   0.009   5.958
 3781SOL    HW112242   1.153   0.052   5.868
 3781SOL    HW212243   1.257   0.008   5.986
 3782SOL     OW12244   3.529   5.330   6.766
 3782SOL    HW112245   3.548   5.386   6.846
 3782SOL    HW212246   3.615   5.299   6.726
 3783SOL     OW12247   4.629   5.057   5.250
 3783SOL    HW112248   4.633   5.148   5.210
 3783SOL    HW212249   4.534   5.034   5.272
 3784SOL     OW12250   5.301   3.580   4.457
 3784SOL    HW112251   5.242   3.633   4.395
 3784SOL    HW212252   5.344   3.643   4.522
 3785SOL     OW12253   0.804   3.359   2.652
 3785SOL    HW112254   0.887   3.370   2.706
 3785SOL    HW212255   0.827   3.364   2.554
 3786SOL     OW12256   2.898   3.051   5.750
 3786SOL    HW112257   2.814   3.057   5.697
 3786SOL    HW212258   2.937   2.959   5.741
 3787SOL     OW12259   4.918   6.018   5.205
 3787SOL    HW112260   4.847   5.966   5.253
 3787SOL    HW212261   4.959   5.961   5.134
 3788SOL     OW12262   5.720   2.959   6.205
 3788SOL    HW112263   5.795   2.904   6.167
 3788SOL    HW212264   5.633   2.914   6.185
 3789SOL     OW12265   1.958   4.090   0.951
 3789SOL    HW112266   1.963   4.007   0.895
 3789SOL    HW212267   2.005   4.075   1.038
 3790SOL     OW12268   1.997   6.887   1.753
 3790SOL    HW112269   2.079   6.942   1.739
 3790SOL    HW212270   1.928   6.912   1.685
 3791SOL     OW12271   4.966   0.760   4.390
 3791SOL    HW112272   4.948   0.663   4.375
 3791SOL    HW212273   4.995   0.803   4.304
 3792SOL     OW12274   6.329   0.340   3.109
 3792SOL    HW112275   6.326   0.314   3.206
 3792SOL    HW212276   6.423   0.329   3.075
 3793SOL     OW12277   4.940   3.437   0.265
 3793SOL    HW112278   4.895   3.356   0.226
 3793SOL    HW212279   4.961   3.502   0.192
 3794SOL     OW12280   1.510   5.028   5.653
 3794SOL    HW112281   1.582   5.044   5.721
 3794SOL    HW212282   1.542   5.059   5.563
 3795SOL     OW12283   3.262   6.149   0.677
 3795SOL    HW112284   3.287   6.234   0.630
 3795SOL    HW212285   3.339   6.118   0.732
 3796SOL     OW12286   5.299   0.765   0.086
 3796SOL    HW112287   5.269   0.828   0.158
 3796SOL    HW212288   5.220   0.720   0.045
 3797SOL     OW12289   6.830   2.428   1.113
 3797SOL    HW112290   6.895   2.421   1.189
 3797SOL    HW212291   6.765   2.502   1.131
 3798SOL     OW12292   0.404   4.529   4.223
 3798SOL    HW112293   0.448   4.439   4.224
 3798SOL    HW212294   0.421   4.575   4.310
 3799SOL     OW12295   6.693   1.730   2.377
 3799SOL    HW112296   6.721   1.814   2.423
 3799SOL    HW212297   6.753   1.713   2.298
 3800SOL     OW12298   5.357   3.448   2.272
 3800SOL    HW112299   5.264   3.470   2.242
 3800SOL    HW212300   5.422   3.508   2.225
 3801SOL     OW12301   5.665   1.422   1.296
 3801SOL    HW112302   5.615   1.337   1.279
 3801SOL    HW212303   5.665   1.442   1.394
 3802SOL     OW12304   6.301   3.792   3.035
 3802SOL    HW112305   6.275   3.846   2.955
 3802SOL    HW212306   6.326   3.853   3.110
 3803SOL     OW12307   3.808   4.228   6.152
 3803SOL    HW112308   3.789   4.326   6.161
 3803SOL    HW212309   3.745   4.189   6.085
 3804SOL     OW12310   3.085   5.996   2.854
 3804SOL    HW112311   3.041   5.914   2.819
 3804SOL    HW212312   3.184   5.990   2.839
 3805SOL     OW12313   2.706   1.774   6.701
 3805SOL    HW112314   2.765   1.750   6.624
 3805SOL    HW212315   2.611   1.748   6.679
 3806SOL     OW12316   1.857   3.568   2.118
 3806SOL    HW112317   1.782   3.574   2.184
 3806SOL    HW212318   1.945   3.579   2.166
 3807SOL     OW12319   0.572   4.224   3.919
 3807SOL    HW112320   0.601   4.311   3.880
 3807SOL    HW212321   0.517   4.174   3.851
 3808SOL     OW12322   2.953   6.485   5.870
 3808SOL    HW112323   2.985   6.438   5.788
 3808SOL    HW212324   2.863   6.526   5.853
 3809SOL     OW12325   5.047   1.225   1.408
 3809SOL    HW112326   4.960   1.190   1.442
 3809SOL    HW212327   5.108   1.148   1.387
 3810SOL     OW12328   4.995   2.105   3.482
 3810SOL    HW112329   5.079   2.062   3.514
 3810SOL    HW212330   4.918   2.073   3.537
 3811SOL     OW12331   0.189   5.917   5.040
 3811SOL    HW112332   0.222   5.829   5.005
 3811SOL    HW212333   0.196   5.918   5.140
 3812SOL     OW12334   4.174   5.838   7.009
 3812SOL    HW112335   4.078   5.815   6.998
 3812SOL    HW212336   4.200   5.832   0.076
 3813SOL     OW12337   6.583   3.116   7.004
 3813SOL    HW112338   6.512   3.046   7.007
 3813SOL    HW212339   6.587   3.163   0.063
 3814SOL     OW12340   6.811   0.484   5.288
 3814SOL    HW112341   6.714   0.462   5.282
 3814SOL    HW212342   6.822   0.575   5.328
 3815SOL     OW12343   5.078   2.112   5.306
 3815SOL    HW112344   5.057   2.150   5.216
 3815SOL    HW212345   5.028   2.027   5.319
 3816SOL     OW12346   6.888   6.459   1.640
 3816SOL    HW112347   6.943   6.377   1.630
 3816SOL    HW212348   6.944   6.532   1.679
 3817SOL     OW12349   3.923   3.978   2.548
 3817SOL    HW112350   4.014   4.015   2.561
 3817SOL    HW212351   3.870   3.987   2.632
 3818SOL     OW12352   4.404   5.434   2.741
 3818SOL    HW112353   4.503   5.422   2.751
 3818SOL    HW212354   4.369   5.369   2.674
 3819SOL     OW12355   6.187   3.556   3.084
 3819SOL    HW112356   6.147   3.537   2.994
 3819SOL    HW212357   6.229   3.646   3.083
 3820SOL     OW12358   2.698   6.358   6.204
 3820SOL    HW112359   2.778   6.322   6.158
 3820SOL    HW212360   2.669   6.443   6.159
 3821SOL     OW12361   1.776   6.597   1.329
 3821SOL    HW112362   1.848   6.629   1.391
 3821SOL    HW212363   1.810   6.520   1.276
 3822SOL     OW12364   5.907   6.927   1.579
 3822SOL    HW112365   5.863   6.972   1.658
 3822SOL    HW212366   5.933   6.834   1.604
 3823SOL     OW12367   5.352   6.048   4.742
 3823SOL    HW112368   5.443   6.016   4.714
 3823SOL    HW212369   5.345   6.146   4.727
 3824SOL     OW12370   1.899   2.665   0.642
 3824SOL    HW112371   1.953   2.739   0.601
 3824SOL    HW212372   1.805   2.695   0.655
 3825SOL     OW12373   0.343   4.820   5.701
 3825SOL    HW112374   0.300   4.834   5.790
 3825SOL    HW212375   0.423   4.880   5.693
 3826SOL     OW12376   5.038   3.997   3.831
 3826SOL    HW112377   5.087   3.999   3.744
 3826SOL    HW212378   5.002   3.905   3.847
 3827SOL     OW12379   0.598   1.438   6.977
 3827SOL    HW112380   0.680   1.478   7.019
 3827SOL    HW212381   0.582   1.347   7.016
 3828SOL     OW12382   3.271   3.908   5.200
 3828SOL    HW112383   3.321   3.981   5.153
 3828SOL    HW212384   3.214   3.948   5.271
 3829SOL     OW12385   6.911   2.852   1.466
 3829SOL    HW112386   6.926   2.948   1.493
 3829SOL    HW212387   6.886   2.798   1.546
 3830SOL     OW12388   5.292   6.852   3.530
 3830SOL    HW112389   5.275   6.896   3.618
 3830SOL    HW212390   5.346   6.912   3.472
 3831SOL     OW12391   5.088   2.723   3.809
 3831SOL    HW112392   5.186   2.702   3.810
 3831SOL    HW212393   5.036   2.640   3.791
 3832SOL     OW12394   6.441   1.219   3.998
 3832SOL    HW112395   6.472   1.173   3.915
 3832SOL    HW212396   6.431   1.317   3.980
 3833SOL     OW12397   1.866   2.963   5.979
 3833SOL    HW112398   1.789   2.920   6.027
 3833SOL    HW212399   1.916   2.893   5.928
 3834SOL     OW12400   4.946   5.074   0.691
 3834SOL    HW112401   5.044   5.064   0.675
 3834SOL    HW212402   4.895   5.014   0.629
 3835SOL     OW12403   4.668   5.098   4.396
 3835SOL    HW112404   4.753   5.097   4.343
 3835SOL    HW212405   4.614   5.178   4.370
 3836SOL     OW12406   0.213   0.016   4.627
 3836SOL    HW112407   0.121   7.025   4.592
 3836SOL    HW212408   0.230   0.114   4.622
 3837SOL     OW12409   4.955   4.067   5.413
 3837SOL    HW112410   4.963   4.006   5.491
 3837SOL    HW212411   4.907   4.021   5.339
 3838SOL     OW12412   6.985   1.524   3.949
 3838SOL    HW112413   7.016   1.534   4.044
 3838SOL    HW212414   0.005   1.448   3.906
 3839SOL     OW12415   4.356   1.550   3.717
 3839SOL    HW112416   4.391   1.456   3.714
 3839SOL    HW212417   4.271   1.556   3.666
 3840SOL     OW12418   3.813   1.267   6.472
 3840SOL    HW112419   3.789   1.364   6.460
 3840SOL    HW212420   3.746   1.224   6.531
 3841SOL     OW12421   5.693   4.571   2.813
 3841SOL    HW112422   5.762   4.621   2.866
 3841SOL    HW212423   5.662   4.491   2.864
 3842SOL     OW12424   1.876   3.908   5.132
 3842SOL    HW112425   1.814   3.852   5.187
 3842SOL    HW212426   1.880   3.872   5.039
 3843SOL     OW12427   5.829   2.267   6.494
 3843SOL    HW112428   5.910   2.322   6.473
 3843SOL    HW212429   5.748   2.324   6.491
 3844SOL     OW12430   6.298   6.639   0.222
 3844SOL    HW112431   6.397   6.642   0.236
 3844SOL    HW212432   6.251   6.660   0.307
 3845SOL     OW12433   2.193   5.351   6.989
 3845SOL    HW112434   2.128   5.307   0.023
 3845SOL    HW212435   2.242   5.281   6.937
 3846SOL     OW12436   6.789   3.291   2.725
 3846SOL    HW112437   6.811   3.351   2.801
 3846SOL    HW212438   6.715   3.230   2.750
 3847SOL     OW12439   0.648   0.978   6.941
 3847SOL    HW112440   0.715   0.908   6.967
 3847SOL    HW212441   0.556   0.940   6.944
 3848SOL     OW12442   6.394   4.911   2.306
 3848SOL    HW112443   6.447   4.892   2.224
 3848SOL    HW212444   6.302   4.873   2.295
 3849SOL     OW12445   0.194   3.234   5.520
 3849SOL    HW112446   0.167   3.142   5.491
 3849SOL    HW212447   0.135   3.301   5.476
 3850SOL     OW12448   3.203   3.006   1.727
 3850SOL    HW112449   3.158   3.095   1.730
 3850SOL    HW212450   3.283   3.007   1.787
 3851SOL     OW12451   0.009   5.527   2.585
 3851SOL    HW112452   6.979   5.605   2.561
 3851SOL    HW212453   0.104   5.551   2.566
 3852SOL     OW12454   2.728   1.094   5.010
 3852SOL    HW112455   2.761   1.181   4.975
 3852SOL    HW212456   2.794   1.022   4.989
 3853SOL     OW12457   2.445   0.896   2.806
 3853SOL    HW112458   2.510   0.819   2.805
 3853SOL    HW212459   2.463   0.952   2.887
 3854SOL     OW12460   0.484   1.962   1.522
 3854SOL    HW112461   0.572   1.917   1.540
 3854SOL    HW212462   0.449   2.001   1.607
 3855SOL     OW12463   3.074   6.255   6.646
 3855SOL    HW112464   3.165   6.290   6.621
 3855SOL    HW212465   3.070   6.157   6.629
 3856SOL     OW12466   6.617   2.603   6.533
 3856SOL    HW112467   6.701   2.607   6.479
 3856SOL    HW212468   6.549   2.664   6.493
 3857SOL     OW12469   1.398   0.276   6.553
 3857SOL    HW112470   1.304   0.304   6.572
 3857SOL    HW212471   1.455   0.358   6.542
 3858SOL     OW12472   3.877   1.310   5.263
 3858SOL    HW112473   3.822   1.277   5.340
 3858SOL    HW212474   3.969   1.271   5.269
 3859SOL     OW12475   5.711   0.143   2.206
 3859SOL    HW112476   5.787   0.175   2.263
 3859SOL    HW212477   5.741   0.065   2.151
 3860SOL     OW12478   1.502   6.650   4.358
 3860SOL    HW112479   1.412   6.644   4.401
 3860SOL    HW212480   1.573   6.632   4.426
 3861SOL     OW12481   3.220   5.708   2.310
 3861SOL    HW112482   3.272   5.787   2.341
 3861SOL    HW212483   3.247   5.683   2.218
 3862SOL     OW12484   1.390   0.461   4.378
 3862SOL    HW112485   1.448   0.519   4.435
 3862SOL    HW212486   1.432   0.451   4.288
 3863SOL     OW12487   4.234   0.502   0.986
 3863SOL    HW112488   4.325   0.463   0.974
 3863SOL    HW212489   4.180   0.486   0.904
 3864SOL     OW12490   0.754   6.954   4.189
 3864SOL    HW112491   0.675   7.008   4.160
 3864SOL    HW212492   0.835   7.011   4.188
 3865SOL     OW12493   5.060   0.855   0.555
 3865SOL    HW112494   5.101   0.833   0.644
 3865SOL    HW212495   4.962   0.872   0.567
 3866SOL     OW12496   3.426   0.494   6.536
 3866SOL    HW112497   3.419   0.430   6.613
 3866SOL    HW212498   3.399   0.585   6.567
 3867SOL     OW12499   6.249   3.266   2.300
 3867SOL    HW112500   6.326   3.321   2.334
 3867SOL    HW212501   6.239   3.184   2.357
 3868SOL     OW12502   3.923   0.143   0.108
 3868SOL    HW112503   4.013   0.175   0.077
 3868SOL    HW212504   3.916   0.156   0.207
 3869SOL     OW12505   3.651   1.194   4.134
 3869SOL    HW112506   3.732   1.137   4.148
 3869SOL    HW212507   3.623   1.235   4.221
 3870SOL     OW12508   0.328   1.446   5.537
 3870SOL    HW112509   0.350   1.539   5.508
 3870SOL    HW212510   0.334   1.385   5.459
 3871SOL     OW12511   3.040   5.123   3.727
 3871SOL    HW112512   3.083   5.082   3.808
 3871SOL    HW212513   2.946   5.149   3.749
 3872SOL     OW12514   3.016   4.033   5.275
 3872SOL    HW112515   2.984   4.042   5.181
 3872SOL    HW212516   2.945   4.067   5.338
 3873SOL     OW12517   4.832   1.909   6.669
 3873SOL    HW112518   4.896   1.832   6.673
 3873SOL    HW212519   4.820   1.947   6.761
 3874SOL     OW12520   2.247   1.532   1.582
 3874SOL    HW112521   2.312   1.535   1.506
 3874SOL    HW212522   2.210   1.440   1.591
 3875SOL     OW12523   1.221   1.294   6.611
 3875SOL    HW112524   1.235   1.200   6.643
 3875SOL    HW212525   1.147   1.295   6.544
 3876SOL     OW12526   3.707   5.520   2.487
 3876SOL    HW112527   3.623   5.533   2.540
 3876SOL    HW212528   3.785   5.524   2.549
 3877SOL     OW12529   0.861   1.603   5.333
 3877SOL    HW112530   0.840   1.670   5.262
 3877SOL    HW212531   0.870   1.649   5.421
 3878SOL     OW12532   4.986   1.509   4.877
 3878SOL    HW112533   4.910   1.483   4.818
 3878SOL    HW212534   5.034   1.587   4.837
 3879SOL     OW12535   5.048   5.656   6.904
 3879SOL    HW112536   4.996   5.699   6.830
 3879SOL    HW212537   5.080   5.725   6.967
 3880SOL     OW12538   5.118   4.677   4.097
 3880SOL    HW112539   5.030   4.629   4.100
 3880SOL    HW212540   5.164   4.667   4.185
 3881SOL     OW12541   1.459   2.932   0.102
 3881SOL    HW112542   1.519   2.919   0.023
 3881SOL    HW212543   1.390   3.001   0.080
 3882SOL     OW12544   0.509   1.852   5.809
 3882SOL    HW112545   0.543   1.924   5.870
 3882SOL    HW212546   0.419   1.822   5.840
 3883SOL     OW12547   4.509   6.220   4.144
 3883SOL    HW112548   4.506   6.150   4.215
 3883SOL    HW212549   4.418   6.230   4.104
 3884SOL     OW12550   0.092   3.259   2.163
 3884SOL    HW112551   0.112   3.304   2.250
 3884SOL    HW212552   0.177   3.235   2.117
 3885SOL     OW12553   4.262   5.457   1.781
 3885SOL    HW112554   4.264   5.536   1.841
 3885SOL    HW212555   4.350   5.447   1.735
 3886SOL     OW12556   2.989   5.232   6.087
 3886SOL    HW112557   2.990   5.141   6.129
 3886SOL    HW212558   2.974   5.301   6.157
 3887SOL     OW12559   1.988   5.273   2.118
 3887SOL    HW112560   1.956   5.352   2.172
 3887SOL    HW212561   1.960   5.189   2.164
 3888SOL     OW12562   5.347   4.914   4.030
 3888SOL    HW112563   5.307   4.917   3.938
 3888SOL    HW212564   5.398   4.828   4.041
 3889SOL     OW12565   5.493   4.107   0.337
 3889SOL    HW112566   5.533   4.040   0.399
 3889SOL    HW212567   5.547   4.110   0.252
 3890SOL     OW12568   5.235   3.683   3.902
 3890SOL    HW112569   5.294   3.643   3.971
 3890SOL    HW212570   5.226   3.620   3.825
 3891SOL     OW12571   4.744   5.315   3.814
 3891SOL    HW112572   4.758   5.393   3.875
 3891SOL    HW212573   4.683   5.341   3.740
 3892SOL     OW12574   6.651   2.119   1.572
 3892SOL    HW112575   6.659   2.183   1.495
 3892SOL    HW212576   6.643   2.171   1.657
 3893SOL     OW12577   4.116   3.324   3.610
 3893SOL    HW112578   4.130   3.266   3.690
 3893SOL    HW212579   4.114   3.268   3.528
 3894SOL     OW12580   4.253   0.788   5.986
 3894SOL    HW112581   4.164   0.803   6.029
 3894SOL    HW212582   4.241   0.781   5.887
 3895SOL     OW12583   0.150   0.140   3.876
 3895SOL    HW112584   0.110   0.074   3.939
 3895SOL    HW212585   0.167   0.226   3.923
 3896SOL     OW12586   2.086   1.182   6.425
 3896SOL    HW112587   1.998   1.200   6.380
 3896SOL    HW212588   2.142   1.264   6.421
 3897SOL     OW12589   3.411   5.912   1.123
 3897SOL    HW112590   3.468   5.843   1.077
 3897SOL    HW212591   3.469   5.984   1.160
 3898SOL     OW12592   3.651   2.956   1.471
 3898SOL    HW112593   3.686   2.903   1.548
 3898SOL    HW212594   3.698   2.928   1.387
 3899SOL     OW12595   2.897   0.088   5.507
 3899SOL    HW112596   2.906   0.060   5.602
 3899SOL    HW212597   2.929   0.183   5.497
 3900SOL     OW12598   4.538   4.630   2.911
 3900SOL    HW112599   4.598   4.691   2.861
 3900SOL    HW212600   4.443   4.658   2.898
 3901SOL     OW12601   2.855   1.256   0.094
 3901SOL    HW112602   2.855   1.195   0.014
 3901SOL    HW212603   2.937   1.239   0.148
 3902SOL     OW12604   5.400   2.880   2.720
 3902SOL    HW112605   5.343   2.903   2.642
 3902SOL    HW212606   5.350   2.899   2.805
 3903SOL     OW12607   3.462   4.472   6.560
 3903SOL    HW112608   3.499   4.530   6.633
 3903SOL    HW212609   3.385   4.419   6.596
 3904SOL     OW12610   2.084   6.724   0.638
 3904SOL    HW112611   1.986   6.713   0.623
 3904SOL    HW212612   2.134   6.691   0.559
 3905SOL     OW12613   0.022   6.314   5.324
 3905SOL    HW112614   7.025   6.358   5.238
 3905SOL    HW212615   0.060   6.383   5.386
 3906SOL     OW12616   6.924   6.155   5.516
 3906SOL    HW112617   7.000   6.164   5.580
 3906SOL    HW212618   6.942   6.211   5.435
 3907SOL     OW12619   5.552   2.418   3.785
 3907SOL    HW112620   5.538   2.375   3.874
 3907SOL    HW212621   5.634   2.380   3.742
 3908SOL     OW12622   2.808   3.888   5.928
 3908SOL    HW112623   2.813   3.852   5.835
 3908SOL    HW212624   2.886   3.854   5.981
 3909SOL     OW12625   5.600   5.845   3.373
 3909SOL    HW112626   5.573   5.867   3.280
 3909SOL    HW212627   5.624   5.929   3.422
 3910SOL     OW12628   3.861   3.596   2.571
 3910SOL    HW112629   3.842   3.564   2.664
 3910SOL    HW212630   3.852   3.520   2.508
 3911SOL     OW12631   6.170   2.208   5.872
 3911SOL    HW112632   6.147   2.241   5.963
 3911SOL    HW212633   6.173   2.108   5.873
 3912SOL     OW12634   5.505   2.674   5.995
 3912SOL    HW112635   5.553   2.756   5.962
 3912SOL    HW212636   5.507   2.673   6.095
 3913SOL     OW12637   1.351   6.713   1.474
 3913SOL    HW112638   1.357   6.619   1.509
 3913SOL    HW212639   1.374   6.714   1.377
 3914SOL     OW12640   2.977   5.762   5.427
 3914SOL    HW112641   2.879   5.754   5.406
 3914SOL    HW212642   3.024   5.680   5.396
 3915SOL     OW12643   6.539   5.886   1.469
 3915SOL    HW112644   6.608   5.873   1.539
 3915SOL    HW212645   6.571   5.849   1.382
 3916SOL     OW12646   0.475   0.103   3.656
 3916SOL    HW112647   0.426   0.180   3.616
 3916SOL    HW212648   0.423   0.067   3.733
 3917SOL     OW12649   2.685   6.893   6.746
 3917SOL    HW112650   2.770   6.946   6.743
 3917SOL    HW212651   2.707   6.796   6.758
 3918SOL     OW12652   6.087   3.579   6.708
 3918SOL    HW112653   6.026   3.543   6.638
 3918SOL    HW212654   6.049   3.664   6.745
 3919SOL     OW12655   3.352   6.289   1.052
 3919SOL    HW112656   3.376   6.386   1.041
 3919SOL    HW212657   3.407   6.234   0.990
 3920SOL     OW12658   2.289   0.957   6.930
 3920SOL    HW112659   2.236   0.956   7.014
 3920SOL    HW212660   2.267   0.875   6.876
 3921SOL     OW12661   0.825   3.501   1.279
 3921SOL    HW112662   0.870   3.571   1.223
 3921SOL    HW212663   0.731   3.529   1.298
 3922SOL     OW12664   1.306   5.030   1.120
 3922SOL    HW112665   1.385   5.076   1.080
 3922SOL    HW212666   1.329   4.998   1.212
 3923SOL     OW12667   0.011   6.602   0.984
 3923SOL    HW112668   6.949   6.632   1.014
 3923SOL    HW212669   0.076   6.677   0.996
 3924SOL     OW12670   6.616   4.969   4.900
 3924SOL    HW112671   6.594   4.902   4.970
 3924SOL    HW212672   6.633   4.923   4.813
 3925SOL     OW12673   1.319   5.132   1.596
 3925SOL    HW112674   1.222   5.145   1.613
 3925SOL    HW212675   1.354   5.061   1.658
 3926SOL     OW12676   3.381   5.328   3.054
 3926SOL    HW112677   3.417   5.337   3.147
 3926SOL    HW212678   3.437   5.263   3.003
 3927SOL     OW12679   1.891   3.532   6.448
 3927SOL    HW112680   1.975   3.565   6.492
 3927SOL    HW212681   1.859   3.599   6.381
 3928SOL     OW12682   6.115   6.576   6.307
 3928SOL    HW112683   6.047   6.606   6.241
 3928SOL    HW212684   6.189   6.644   6.312
 3929SOL     OW12685   1.212   1.596   4.746
 3929SOL    HW112686   1.193   1.671   4.682
 3929SOL    HW212687   1.192   1.508   4.702
 3930SOL     OW12688   2.651   1.749   3.937
 3930SOL    HW112689   2.720   1.822   3.927
 3930SOL    HW212690   2.591   1.749   3.857
 3931SOL     OW12691   4.274   0.071   2.109
 3931SOL    HW112692   4.324   0.129   2.044
 3931SOL    HW212693   4.186   0.045   2.069
 3932SOL     OW12694   1.759   2.792   3.508
 3932SOL    HW112695   1.725   2.848   3.433
 3932SOL    HW212696   1.734   2.835   3.595
 3933SOL     OW12697   2.011   0.808   6.094
 3933SOL    HW112698   2.043   0.832   6.186
 3933SOL    HW212699   1.913   0.787   6.097
 3934SOL     OW12700   5.256   6.280   0.148
 3934SOL    HW112701   5.352   6.301   0.130
 3934SOL    HW212702   5.198   6.325   0.081
 3935SOL     OW12703   4.888   6.768   1.694
 3935SOL    HW112704   4.951   6.690   1.683
 3935SOL    HW212705   4.941   6.853   1.693
 3936SOL     OW12706   0.441   4.629   2.442
 3936SOL    HW112707   0.380   4.629   2.522
 3936SOL    HW212708   0.399   4.575   2.369
 3937SOL     OW12709   0.087   2.260   2.533
 3937SOL    HW112710   0.175   2.303   2.511
 3937SOL    HW212711   0.072   2.182   2.471
 3938SOL     OW12712   6.566   2.934   3.415
 3938SOL    HW112713   6.584   2.927   3.317
 3938SOL    HW212714   6.485   2.991   3.431
 3939SOL     OW12715   2.033   1.993   1.823
 3939SOL    HW112716   2.065   1.899   1.832
 3939SOL    HW212717   2.099   2.055   1.866
 3940SOL     OW12718   4.356   4.258   1.184
 3940SOL    HW112719   4.439   4.312   1.168
 3940SOL    HW212720   4.345   4.239   1.281
 3941SOL     OW12721   5.451   3.240   0.067
 3941SOL    HW112722   5.370   3.205   0.021
 3941SOL    HW212723   5.511   3.164   0.093
 3942SOL     OW12724   6.794   0.457   0.690
 3942SOL    HW112725   6.858   0.384   0.715
 3942SOL    HW212726   6.714   0.417   0.646
 3943SOL     OW12727   6.576   3.001   5.115
 3943SOL    HW112728   6.645   3.072   5.110
 3943SOL    HW212729   6.614   2.920   5.160
 3944SOL     OW12730   5.554   1.447   4.651
 3944SOL    HW112731   5.591   1.402   4.733
 3944SOL    HW212732   5.496   1.382   4.601
 3945SOL     OW12733   0.293   0.327   1.120
 3945SOL    HW112734   0.241   0.267   1.060
 3945SOL    HW212735   0.231   0.367   1.189
 3946SOL     OW12736   3.590   5.721   3.147
 3946SOL    HW112737   3.640   5.634   3.149
 3946SOL    HW212738   3.554   5.737   3.055
 3947SOL     OW12739   6.759   4.141   5.994
 3947SOL    HW112740   6.688   4.095   5.940
 3947SOL    HW212741   6.800   4.076   6.058
 3948SOL     OW12742   6.557   3.658   0.825
 3948SOL    HW112743   6.513   3.716   0.893
 3948SOL    HW212744   6.563   3.707   0.738
 3949SOL     OW12745   5.521   6.372   3.282
 3949SOL    HW112746   5.514   6.461   3.236
 3949SOL    HW212747   5.612   6.363   3.322
 3950SOL     OW12748   1.813   6.709   0.618
 3950SOL    HW112749   1.781   6.650   0.544
 3950SOL    HW212750   1.740   6.772   0.644
 3951SOL     OW12751   5.471   5.803   1.581
 3951SOL    HW112752   5.383   5.757   1.586
 3951SOL    HW212753   5.544   5.735   1.582
 3952SOL     OW12754   6.097   1.649   6.175
 3952SOL    HW112755   6.046   1.601   6.104
 3952SOL    HW212756   6.089   1.600   6.262
 3953SOL     OW12757   3.246   3.800   2.707
 3953SOL    HW112758   3.291   3.869   2.651
 3953SOL    HW212759   3.148   3.802   2.690
 3954SOL     OW12760   3.992   4.759   5.723
 3954SOL    HW112761   4.089   4.734   5.725
 3954SOL    HW212762   3.937   4.676   5.736
 3955SOL     OW12763   3.715   1.455   4.876
 3955SOL    HW112764   3.710   1.532   4.813
 3955SOL    HW212765   3.676   1.481   4.964
 3956SOL     OW12766   1.961   1.400   1.231
 3956SOL    HW112767   2.058   1.390   1.210
 3956SOL    HW212768   1.948   1.476   1.295
 3957SOL     OW12769   3.622   1.135   3.876
 3957SOL    HW112770   3.594   1.151   3.971
 3957SOL    HW212771   3.557   1.180   3.815
 3958SOL     OW12772   5.636   6.577   5.966
 3958SOL    HW112773   5.646   6.554   6.062
 3958SOL    HW212774   5.687   6.511   5.910
 3959SOL     OW12775   5.549   5.251   6.503
 3959SOL    HW112776   5.590   5.160   6.498
 3959SOL    HW212777   5.454   5.243   6.535
 3960SOL     OW12778   6.046   2.433   4.938
 3960SOL    HW112779   6.002   2.345   4.925
 3960SOL    HW212780   6.074   2.442   5.034
 3961SOL     OW12781   5.344   0.158   4.230
 3961SOL    HW112782   5.255   0.113   4.233
 3961SOL    HW212783   5.408   0.101   4.178
 3962SOL     OW12784   6.265   5.216   5.117
 3962SOL    HW112785   6.303   5.239   5.028
 3962SOL    HW212786   6.165   5.208   5.110
 3963SOL     OW12787   4.647   0.039   2.288
 3963SOL    HW112788   4.555   0.067   2.312
 3963SOL    HW212789   4.712   0.110   2.314
 3964SOL     OW12790   5.081   2.958   3.534
 3964SOL    HW112791   4.989   2.997   3.542
 3964SOL    HW212792   5.074   2.858   3.526
 3965SOL     OW12793   5.038   4.205   4.394
 3965SOL    HW112794   5.033   4.304   4.382
 3965SOL    HW212795   4.957   4.163   4.354
 3966SOL     OW12796   2.470   6.653   6.700
 3966SOL    HW112797   2.527   6.730   6.671
 3966SOL    HW212798   2.499   6.570   6.653
 3967SOL     OW12799   1.688   4.263   3.897
 3967SOL    HW112800   1.653   4.356   3.901
 3967SOL    HW212801   1.730   4.247   3.808
 3968SOL     OW12802   3.759   0.198   0.569
 3968SOL    HW112803   3.723   0.173   0.659
 3968SOL    HW212804   3.734   0.128   0.503
 3969SOL     OW12805   0.149   4.676   3.361
 3969SOL    HW112806   0.062   4.668   3.312
 3969SOL    HW212807   0.145   4.620   3.444
 3970SOL     OW12808   4.752   5.741   1.791
 3970SOL    HW112809   4.751   5.718   1.693
 3970SOL    HW212810   4.714   5.665   1.843
 3971SOL     OW12811   1.499   5.930   3.991
 3971SOL    HW112812   1.420   5.939   4.051
 3971SOL    HW212813   1.507   5.835   3.960
 3972SOL     OW12814   1.504   3.333   0.270
 3972SOL    HW112815   1.564   3.392   0.324
 3972SOL    HW212816   1.558   3.264   0.223
 3973SOL     OW12817   1.763   4.669   0.593
 3973SOL    HW112818   1.669   4.699   0.606
 3973SOL    HW212819   1.792   4.689   0.499
 3974SOL     OW12820   2.787   0.963   5.298
 3974SOL    HW112821   2.782   0.971   5.199
 3974SOL    HW212822   2.713   1.016   5.340
 3975SOL     OW12823   6.144   3.179   6.982
 3975SOL    HW112824   6.194   3.261   6.955
 3975SOL    HW212825   6.091   3.145   6.904
 3976SOL     OW12826   1.765   4.084   2.648
 3976SOL    HW112827   1.734   4.168   2.694
 3976SOL    HW212828   1.777   4.012   2.716
 3977SOL     OW12829   0.776   2.802   6.984
 3977SOL    HW112830   0.756   2.708   7.012
 3977SOL    HW212831   0.811   2.802   6.891
 3978SOL     OW12832   6.434   4.562   3.981
 3978SOL    HW112833   6.485   4.633   3.932
 3978SOL    HW212834   6.495   4.513   4.043
 3979SOL     OW12835   4.710   5.873   6.042
 3979SOL    HW112836   4.726   5.972   6.037
 3979SOL    HW212837   4.642   5.854   6.112
 3980SOL     OW12838   5.899   5.009   5.980
 3980SOL    HW112839   5.983   5.061   5.964
 3980SOL    HW212840   5.913   4.913   5.953
 3981SOL     OW12841   4.641   5.491   6.763
 3981SOL    HW112842   4.613   5.537   6.847
 3981SOL    HW212843   4.605   5.540   6.684
 3982SOL     OW12844   2.623   6.031   3.140
 3982SOL    HW112845   2.718   6.063   3.142
 3982SOL    HW212846   2.562   6.110   3.132
 3983SOL     OW12847   3.447   5.805   4.424
 3983SOL    HW112848   3.390   5.835   4.348
 3983SOL    HW212849   3.542   5.832   4.407
 3984SOL     OW12850   6.775   3.264   3.073
 3984SOL    HW112851   6.795   3.309   3.161
 3984SOL    HW212852   6.854   3.211   3.044
 3985SOL     OW12853   4.031   5.192   6.449
 3985SOL    HW112854   4.095   5.155   6.517
 3985SOL    HW212855   4.082   5.219   6.368
 3986SOL     OW12856   5.183   0.736   2.963
 3986SOL    HW112857   5.236   0.653   2.975
 3986SOL    HW212858   5.244   0.816   2.966
 3987SOL     OW12859   3.740   5.370   5.354
 3987SOL    HW112860   3.793   5.310   5.295
 3987SOL    HW212861   3.782   5.376   5.444
 3988SOL     OW12862   4.612   5.765   0.619
 3988SOL    HW112863   4.590   5.680   0.667
 3988SOL    HW212864   4.673   5.745   0.542
 3989SOL     OW12865   6.454   2.909   1.077
 3989SOL    HW112866   6.386   2.837   1.091
 3989SOL    HW212867   6.416   2.978   1.015
 3990SOL     OW12868   0.138   1.606   2.000
 3990SOL    HW112869   0.136   1.685   2.061
 3990SOL    HW212870   0.151   1.523   2.053
 3991SOL     OW12871   5.620   1.296   2.974
 3991SOL    HW112872   5.719   1.291   2.959
 3991SOL    HW212873   5.588   1.210   3.012
 3992SOL     OW12874   4.135   1.973   1.650
 3992SOL    HW112875   4.058   1.922   1.689
 3992SOL    HW212876   4.175   1.920   1.575
 3993SOL     OW12877   0.867   3.437   1.731
 3993SOL    HW112878   0.834   3.456   1.638
 3993SOL    HW212879   0.928   3.511   1.760
 3994SOL     OW12880   2.503   5.625   4.514
 3994SOL    HW112881   2.427   5.584   4.563
 3994SOL    HW212882   2.541   5.558   4.450
 3995SOL     OW12883   1.890   2.260   4.365
 3995SOL    HW112884   1.959   2.328   4.388
 3995SOL    HW212885   1.833   2.242   4.445
 3996SOL     OW12886   0.186   5.946   4.549
 3996SOL    HW112887   0.087   5.934   4.535
 3996SOL    HW212888   0.212   6.039   4.524
 3997SOL     OW12889   2.981   1.489   3.316
 3997SOL    HW112890   3.071   1.468   3.356
 3997SOL    HW212891   2.983   1.581   3.278
 3998SOL     OW12892   4.638   2.530   2.954
 3998SOL    HW112893   4.634   2.467   3.031
 3998SOL    HW212894   4.563   2.510   2.890
 3999SOL     OW12895   5.039   1.861   4.373
 3999SOL    HW112896   4.948   1.885   4.405
 3999SOL    HW212897   5.107   1.917   4.421
 4000SOL     OW12898   3.959   6.014   4.238
 4000SOL    HW112899   4.056   6.011   4.259
 4000SOL    HW212900   3.938   6.098   4.188
 4001SOL     OW12901   0.847   1.590   4.219
 4001SOL    HW112902   0.784   1.525   4.260
 4001SOL    HW212903   0.932   1.592   4.271
 4002SOL     OW12904   1.668   4.269   1.155
 4002SOL    HW112905   1.590   4.217   1.122
 4002SOL    HW212906   1.705   4.325   1.081
 4003SOL     OW12907   4.074   2.177   5.051
 4003SOL    HW112908   4.111   2.270   5.062
 4003SOL    HW212909   3.981   2.182   5.014
 4004SOL     OW12910   6.712   1.646   6.301
 4004SOL    HW112911   6.756   1.643   6.391
 4004SOL    HW212912   6.773   1.692   6.236
 4005SOL     OW12913   6.377   4.349   5.028
 4005SOL    HW112914   6.367   4.358   5.127
 4005SOL    HW212915   6.440   4.419   4.994
 4006SOL     OW12916   3.304   6.328   2.836
 4006SOL    HW112917   3.392   6.284   2.819
 4006SOL    HW212918   3.279   6.316   2.933
 4007SOL     OW12919   0.545   1.334   5.954
 4007SOL    HW112920   0.590   1.307   5.869
 4007SOL    HW212921   0.521   1.431   5.950
 4008SOL     OW12922   3.323   1.526   5.500
 4008SOL    HW112923   3.263   1.476   5.438
 4008SOL    HW212924   3.395   1.571   5.447
 4009SOL     OW12925   3.491   3.789   2.825
 4009SOL    HW112926   3.519   3.716   2.888
 4009SOL    HW212927   3.409   3.759   2.775
 4010SOL     OW12928   1.238   3.116   0.065
 4010SOL    HW112929   1.191   3.084   7.011
 4010SOL    HW212930   1.289   3.199   0.044
 4011SOL     OW12931   0.365   2.324   1.002
 4011SOL    HW112932   0.297   2.279   0.945
 4011SOL    HW212933   0.334   2.324   1.097
 4012SOL     OW12934   5.491   3.163   3.186
 4012SOL    HW112935   5.504   3.092   3.255
 4012SOL    HW212936   5.563   3.156   3.118
 4013SOL     OW12937   5.092   2.785   2.959
 4013SOL    HW112938   5.148   2.710   2.924
 4013SOL    HW212939   5.140   2.872   2.943
 4014SOL     OW12940   5.405   5.353   2.103
 4014SOL    HW112941   5.409   5.403   2.017
 4014SOL    HW212942   5.374   5.259   2.086
 4015SOL     OW12943   4.771   3.417   6.786
 4015SOL    HW112944   4.686   3.368   6.764
 4015SOL    HW212945   4.818   3.442   6.702
 4016SOL     OW12946   3.140   6.096   4.351
 4016SOL    HW112947   3.124   6.171   4.415
 4016SOL    HW212948   3.115   6.009   4.395
 4017SOL     OW12949   6.065   6.547   5.945
 4017SOL    HW112950   6.062   6.620   6.013
 4017SOL    HW212951   6.058   6.458   5.991
 4018SOL     OW12952   2.119   0.314   6.883
 4018SOL    HW112953   2.032   0.342   6.842
 4018SOL    HW212954   2.161   0.243   6.827
 4019SOL     OW12955   5.407   5.909   3.873
 4019SOL    HW112956   5.333   5.898   3.939
 4019SOL    HW212957   5.369   5.901   3.780
 4020SOL     OW12958   5.535   1.923   5.079
 4020SOL    HW112959   5.477   1.884   5.150
 4020SOL    HW212960   5.499   1.897   4.989
 4021SOL     OW12961   5.137   3.591   7.013
 4021SOL    HW112962   5.187   3.580   0.071
 4021SOL    HW212963   5.190   3.648   6.950
 4022SOL     OW12964   5.657   0.702   0.648
 4022SOL    HW112965   5.746   0.678   0.687
 4022SOL    HW212966   5.669   0.768   0.574
 4023SOL     OW12967   6.281   6.453   5.645
 4023SOL    HW112968   6.265   6.549   5.667
 4023SOL    HW212969   6.376   6.429   5.665
 4024SOL     OW12970   4.573   4.464   5.058
 4024SOL    HW112971   4.625   4.461   5.144
 4024SOL    HW212972   4.498   4.531   5.067
 4025SOL     OW12973   0.884   3.758   4.008
 4025SOL    HW112974   0.854   3.667   3.981
 4025SOL    HW212975   0.834   3.827   3.956
 4026SOL     OW12976   5.625   0.739   5.457
 4026SOL    HW112977   5.686   0.725   5.535
 4026SOL    HW212978   5.532   0.756   5.489
 4027SOL     OW12979   3.226   5.150   2.447
 4027SOL    HW112980   3.151   5.112   2.500
 4027SOL    HW212981   3.202   5.148   2.349
 4028SOL     OW12982   1.828   5.317   3.041
 4028SOL    HW112983   1.731   5.330   3.024
 4028SOL    HW212984   1.848   5.219   3.052
 4029SOL     OW12985   1.833   3.937   3.453
 4029SOL    HW112986   1.922   3.956   3.411
 4029SOL    HW212987   1.761   3.954   3.385
 4030SOL     OW12988   1.881   1.540   6.559
 4030SOL    HW112989   1.834   1.571   6.476
 4030SOL    HW212990   1.961   1.597   6.576
 4031SOL     OW12991   6.430   5.857   4.371
 4031SOL    HW112992   6.458   5.792   4.441
 4031SOL    HW212993   6.342   5.829   4.332
 4032SOL     OW12994   3.530   0.031   4.896
 4032SOL    HW112995   3.438   0.020   4.933
 4032SOL    HW212996   3.598   0.008   4.966
 4033SOL     OW12997   3.831   3.641   6.289
 4033SOL    HW112998   3.907   3.689   6.333
 4033SOL    HW212999   3.755   3.705   6.273
 4034SOL     OW13000   5.822   3.414   4.689
 4034SOL    HW113001   5.855   3.348   4.756
 4034SOL    HW213002   5.893   3.432   4.621
 4035SOL     OW13003   0.209   6.272   1.825
 4035SOL    HW113004   0.253   6.302   1.910
 4035SOL    HW213005   0.218   6.343   1.756
 4036SOL     OW13006   6.093   5.689   1.790
 4036SOL    HW113007   6.163   5.735   1.735
 4036SOL    HW213008   6.019   5.656   1.731
 4037SOL     OW13009   0.558   3.801   6.405
 4037SOL    HW113010   0.616   3.736   6.454
 4037SOL    HW213011   0.485   3.834   6.465
 4038SOL     OW13012   5.889   5.333   3.218
 4038SOL    HW113013   5.909   5.413   3.274
 4038SOL    HW213014   5.942   5.255   3.251
 4039SOL     OW13015   2.365   5.292   1.154
 4039SOL    HW113016   2.282   5.298   1.209
 4039SOL    HW213017   2.443   5.271   1.213
 4040SOL     OW13018   3.045   6.855   7.026
 4040SOL    HW113019   2.975   6.926   7.018
 4040SOL    HW213020   3.062   6.836   0.094
 4041SOL     OW13021   0.761   5.888   3.047
 4041SOL    HW113022   0.761   5.813   3.114
 4041SOL    HW213023   0.760   5.975   3.096
 4042SOL     OW13024   5.851   5.993   2.031
 4042SOL    HW113025   5.780   5.928   2.004
 4042SOL    HW213026   5.939   5.946   2.038
 4043SOL     OW13027   6.715   3.454   0.882
 4043SOL    HW113028   6.654   3.381   0.914
 4043SOL    HW213029   6.661   3.534   0.857
 4044SOL     OW13030   5.931   5.089   2.548
 4044SOL    HW113031   5.912   5.183   2.519
 4044SOL    HW213032   5.915   5.080   2.646
 4045SOL     OW13033   2.680   4.474   6.021
 4045SOL    HW113034   2.664   4.499   6.116
 4045SOL    HW213035   2.657   4.378   6.006
 4046SOL     OW13036   0.544   3.186   0.470
 4046SOL    HW113037   0.538   3.249   0.393
 4046SOL    HW213038   0.636   3.187   0.507
 4047SOL     OW13039   2.929   3.408   3.069
 4047SOL    HW113040   2.998   3.342   3.099
 4047SOL    HW213041   2.942   3.428   2.971
 4048SOL     OW13042   4.549   2.511   0.265
 4048SOL    HW113043   4.475   2.519   0.331
 4048SOL    HW213044   4.615   2.586   0.280
 4049SOL     OW13045   6.854   6.901   6.880
 4049SOL    HW113046   6.881   6.996   6.864
 4049SOL    HW213047   6.886   6.873   6.971
 4050SOL     OW13048   2.654   0.713   2.639
 4050SOL    HW113049   2.697   0.792   2.595
 4050SOL    HW213050   2.666   0.719   2.738
 4051SOL     OW13051   2.544   3.546   0.820
 4051SOL    HW113052   2.623   3.514   0.768
 4051SOL    HW213053   2.460   3.523   0.770
 4052SOL     OW13054   1.700   0.164   1.027
 4052SOL    HW113055   1.611   0.209   1.017
 4052SOL    HW213056   1.749   0.204   1.105
 4053SOL     OW13057   2.889   5.192   2.462
 4053SOL    HW113058   2.924   5.281   2.491
 4053SOL    HW213059   2.789   5.194   2.462
 4054SOL     OW13060   5.558   1.459   6.395
 4054SOL    HW113061   5.521   1.540   6.349
 4054SOL    HW213062   5.526   1.377   6.349
 4055SOL     OW13063   4.730   3.621   0.398
 4055SOL    HW113064   4.821   3.583   0.379
 4055SOL    HW213065   4.695   3.667   0.317
 4056SOL     OW13066   4.613   2.910   6.709
 4056SOL    HW113067   4.712   2.899   6.715
 4056SOL    HW213068   4.570   2.820   6.706
 4057SOL     OW13069   5.796   2.554   0.834
 4057SOL    HW113070   5.809   2.456   0.850
 4057SOL    HW213071   5.866   2.587   0.771
 4058SOL     OW13072   1.035   3.061   3.875
 4058SOL    HW113073   1.081   2.997   3.937
 4058SOL    HW213074   0.944   3.082   3.910
 4059SOL     OW13075   0.097   1.854   4.638
 4059SOL    HW113076   0.108   1.905   4.723
 4059SOL    HW213077   0.127   1.760   4.652
 4060SOL     OW13078   2.728   6.759   5.592
 4060SOL    HW113079   2.828   6.769   5.588
 4060SOL    HW213080   2.686   6.816   5.521
 4061SOL     OW13081   2.264   2.822   1.163
 4061SOL    HW113082   2.233   2.746   1.220
 4061SOL    HW213083   2.188   2.854   1.106
 4062SOL     OW13084   2.806   0.129   2.709
 4062SOL    HW113085   2.866   0.191   2.659
 4062SOL    HW213086   2.823   0.137   2.808
 4063SOL     OW13087   2.955   6.023   5.979
 4063SOL    HW113088   2.876   5.969   6.008
 4063SOL    HW213089   3.036   5.993   6.029
 4064SOL     OW13090   6.446   6.960   4.727
 4064SOL    HW113091   6.474   6.948   4.632
 4064SOL    HW213092   6.348   6.979   4.731
 4065SOL     OW13093   1.438   4.312   5.494
 4065SOL    HW113094   1.533   4.313   5.525
 4065SOL    HW213095   1.424   4.235   5.432
 4066SOL     OW13096   4.538   5.398   1.651
 4066SOL    HW113097   4.508   5.314   1.696
 4066SOL    HW213098   4.630   5.422   1.683
 4067SOL     OW13099   5.719   0.674   1.019
 4067SOL    HW113100   5.641   0.614   1.038
 4067SOL    HW213101   5.689   0.769   1.021
 4068SOL     OW13102   5.060   0.613   4.706
 4068SOL    HW113103   4.998   0.691   4.714
 4068SOL    HW213104   5.137   0.637   4.647
 4069SOL     OW13105   6.531   6.478   0.601
 4069SOL    HW113106   6.432   6.471   0.613
 4069SOL    HW213107   6.557   6.438   0.513
 4070SOL     OW13108   6.651   3.700   2.648
 4070SOL    HW113109   6.614   3.715   2.739
 4070SOL    HW213110   6.577   3.686   2.583
 4071SOL     OW13111   2.526   0.362   4.661
 4071SOL    HW113112   2.600   0.306   4.698
 4071SOL    HW213113   2.529   0.361   4.561
 4072SOL     OW13114   0.541   0.325   4.336
 4072SOL    HW113115   0.494   0.255   4.282
 4072SOL    HW213116   0.640   0.312   4.330
 4073SOL     OW13117   2.660   4.613   2.160
 4073SOL    HW113118   2.573   4.568   2.139
 4073SOL    HW213119   2.725   4.598   2.086
 4074SOL     OW13120   0.098   2.923   0.819
 4074SOL    HW113121   0.084   2.839   0.767
 4074SOL    HW213122   0.067   2.909   0.913
 4075SOL     OW13123   6.299   0.264   3.380
 4075SOL    HW113124   6.299   0.364   3.382
 4075SOL    HW213125   6.246   0.229   3.457
 4076SOL     OW13126   1.831   3.205   3.426
 4076SOL    HW113127   1.748   3.203   3.369
 4076SOL    HW213128   1.858   3.112   3.448
 4077SOL     OW13129   3.537   1.064   1.276
 4077SOL    HW113130   3.585   1.152   1.274
 4077SOL    HW213131   3.599   0.994   1.311
 4078SOL     OW13132   4.805   4.963   3.162
 4078SOL    HW113133   4.887   4.954   3.105
 4078SOL    HW213134   4.724   4.964   3.104
 4079SOL     OW13135   4.987   1.030   3.909
 4079SOL    HW113136   5.027   1.110   3.954
 4079SOL    HW213137   5.031   1.017   3.820
 4080SOL     OW13138   3.456   4.202   4.467
 4080SOL    HW113139   3.551   4.171   4.460
 4080SOL    HW213140   3.438   4.234   4.560
 4081SOL     OW13141   2.533   0.373   6.967
 4081SOL    HW113142   2.510   0.339   6.876
 4081SOL    HW213143   2.542   0.297   0.002
 4082SOL     OW13144   1.379   1.351   5.653
 4082SOL    HW113145   1.305   1.312   5.598
 4082SOL    HW213146   1.366   1.450   5.661
 4083SOL     OW13147   6.294   5.137   2.381
 4083SOL    HW113148   6.324   5.042   2.366
 4083SOL    HW213149   6.285   5.182   2.292
 4084SOL     OW13150   4.254   6.682   2.457
 4084SOL    HW113151   4.322   6.753   2.438
 4084SOL    HW213152   4.176   6.723   2.503
 4085SOL     OW13153   2.004   4.234   2.692
 4085SOL    HW113154   1.958   4.321   2.672
 4085SOL    HW213155   1.945   4.158   2.663
 4086SOL     OW13156   5.298   5.042   4.863
 4086SOL    HW113157   5.287   5.063   4.766
 4086SOL    HW213158   5.321   5.125   4.913
 4087SOL     OW13159   1.627   1.036   1.538
 4087SOL    HW113160   1.715   0.988   1.536
 4087SOL    HW213161   1.559   0.982   1.487
 4088SOL     OW13162   7.007   2.198   5.446
 4088SOL    HW113163   0.001   2.133   5.518
 4088SOL    HW213164   6.943   2.156   5.382
 4089SOL     OW13165   7.003   6.873   2.677
 4089SOL    HW113166   6.910   6.873   2.715
 4089SOL    HW213167   0.037   6.912   2.745
 4090SOL     OW13168   3.425   2.500   5.400
 4090SOL    HW113169   3.516   2.526   5.369
 4090SOL    HW213170   3.371   2.468   5.322
 4091SOL     OW13171   3.884   6.606   2.795
 4091SOL    HW113172   3.906   6.527   2.851
 4091SOL    HW213173   3.798   6.590   2.746
 4092SOL     OW13174   5.140   1.992   6.481
 4092SOL    HW113175   5.076   1.931   6.434
 4092SOL    HW213176   5.214   1.939   6.520
 4093SOL     OW13177   5.497   4.088   2.429
 4093SOL    HW113178   5.511   4.177   2.472
 4093SOL    HW213179   5.487   4.099   2.331
 4094SOL     OW13180   6.697   6.432   0.048
 4094SOL    HW113181   6.758   6.501   0.008
 4094SOL    HW213182   6.739   6.342   0.039
 4095SOL     OW13183   1.257   5.122   0.715
 4095SOL    HW113184   1.354   5.118   0.689
 4095SOL    HW213185   1.248   5.164   0.805
 4096SOL     OW13186   0.922   6.497   6.008
 4096SOL    HW113187   0.996   6.430   5.999
 4096SOL    HW213188   0.884   6.517   5.917
 4097SOL     OW13189   1.445   3.805   5.434
 4097SOL    HW113190   1.535   3.812   5.477
 4097SOL    HW213191   1.380   3.766   5.499
 4098SOL     OW13192   1.331   6.088   1.876
 4098SOL    HW113193   1.304   6.183   1.865
 4098SOL    HW213194   1.317   6.060   1.972
 4099SOL     OW13195   6.978   2.549   5.822
 4099SOL    HW113196   6.924   2.474   5.785
 4099SOL    HW213197   7.011   2.525   5.913
 4100SOL     OW13198   2.442   0.966   3.871
 4100SOL    HW113199   2.443   0.898   3.799
 4100SOL    HW213200   2.520   0.951   3.933
 4101SOL     OW13201   6.337   6.449   6.225
 4101SOL    HW113202   6.395   6.460   6.306
 4101SOL    HW213203   6.245   6.483   6.246
 4102SOL     OW13204   2.705   5.121   0.752
 4102SOL    HW113205   2.751   5.058   0.814
 4102SOL    HW213206   2.687   5.076   0.665
 4103SOL     OW13207   2.612   5.162   3.084
 4103SOL    HW113208   2.540   5.231   3.071
 4103SOL    HW213209   2.684   5.200   3.142
 4104SOL     OW13210   2.410   5.867   5.840
 4104SOL    HW113211   2.359   5.796   5.792
 4104SOL    HW213212   2.378   5.873   5.935
 4105SOL     OW13213   3.575   0.105   1.603
 4105SOL    HW113214   3.673   0.088   1.591
 4105SOL    HW213215   3.546   0.070   1.693
 4106SOL     OW13216   1.704   6.762   3.160
 4106SOL    HW113217   1.758   6.725   3.236
 4106SOL    HW213218   1.741   6.728   3.073
 4107SOL     OW13219   1.983   1.906   0.735
 4107SOL    HW113220   1.981   1.946   0.644
 4107SOL    HW213221   1.994   1.807   0.729
 4108SOL     OW13222   0.601   5.864   5.058
 4108SOL    HW113223   0.529   5.889   5.123
 4108SOL    HW213224   0.686   5.909   5.084
 4109SOL     OW13225   4.950   0.205   4.954
 4109SOL    HW113226   5.014   0.129   4.963
 4109SOL    HW213227   4.864   0.172   4.916
 4110SOL     OW13228   4.703   2.677   0.800
 4110SOL    HW113229   4.709   2.688   0.700
 4110SOL    HW213230   4.733   2.585   0.825
 4111SOL     OW13231   6.512   4.891   3.390
 4111SOL    HW113232   6.452   4.815   3.416
 4111SOL    HW213233   6.607   4.860   3.394
 4112SOL     OW13234   4.080   5.511   5.872
 4112SOL    HW113235   4.105   5.419   5.902
 4112SOL    HW213236   3.981   5.523   5.880
 4113SOL     OW13237   5.000   5.806   5.437
 4113SOL    HW113238   4.910   5.809   5.479
 4113SOL    HW213239   5.065   5.857   5.494
 4114SOL     OW13240   6.738   1.813   3.298
 4114SOL    HW113241   6.737   1.852   3.206
 4114SOL    HW213242   6.752   1.886   3.365
 4115SOL     OW13243   4.002   6.451   4.974
 4115SOL    HW113244   3.990   6.357   5.006
 4115SOL    HW213245   4.049   6.450   4.886
 4116SOL     OW13246   6.545   4.074   3.561
 4116SOL    HW113247   6.555   4.080   3.660
 4116SOL    HW213248   6.634   4.092   3.518
 4117SOL     OW13249   0.059   2.408   2.754
 4117SOL    HW113250   6.996   2.448   2.760
 4117SOL    HW213251   0.077   2.378   2.660
 4118SOL     OW13252   1.487   0.505   2.105
 4118SOL    HW113253   1.521   0.411   2.095
 4118SOL    HW213254   1.442   0.533   2.020
 4119SOL     OW13255   6.655   1.071   4.804
 4119SOL    HW113256   6.614   1.046   4.892
 4119SOL    HW213257   6.674   0.988   4.752
 4120SOL     OW13258   1.349   0.805   6.590
 4120SOL    HW113259   1.360   0.726   6.531
 4120SOL    HW213260   1.380   0.783   6.682
 4121SOL     OW13261   6.427   0.498   1.086
 4121SOL    HW113262   6.342   0.446   1.074
 4121SOL    HW213263   6.431   0.573   1.021
 4122SOL     OW13264   1.279   4.333   3.826
 4122SOL    HW113265   1.186   4.354   3.796
 4122SOL    HW213266   1.277   4.295   3.918
 4123SOL     OW13267   6.047   4.369   1.834
 4123SOL    HW113268   6.066   4.271   1.839
 4123SOL    HW213269   6.010   4.400   1.922
 4124SOL     OW13270   6.131   6.592   7.027
 4124SOL    HW113271   6.109   6.496   7.016
 4124SOL    HW213272   6.190   6.604   0.079
 4125SOL     OW13273   0.331   3.054   0.163
 4125SOL    HW113274   0.278   3.008   0.234
 4125SOL    HW213275   0.285   3.041   0.075
 4126SOL     OW13276   1.536   4.214   3.581
 4126SOL    HW113277   1.631   4.197   3.609
 4126SOL    HW213278   1.520   4.313   3.577
 4127SOL     OW13279   4.568   2.477   4.101
 4127SOL    HW113280   4.507   2.408   4.060
 4127SOL    HW213281   4.622   2.520   4.029
 4128SOL     OW13282   5.991   2.734   6.388
 4128SOL    HW113283   5.978   2.768   6.295
 4128SOL    HW213284   6.075   2.772   6.427
 4129SOL     OW13285   3.163   6.987   2.153
 4129SOL    HW113286   3.211   6.924   2.092
 4129SOL    HW213287   3.230   0.016   2.200
 4130SOL     OW13288   5.218   1.519   0.526
 4130SOL    HW113289   5.282   1.488   0.595
 4130SOL    HW213290   5.138   1.561   0.570
 4131SOL     OW13291   5.029   6.656   3.543
 4131SOL    HW113292   5.086   6.701   3.612
 4131SOL    HW213293   4.993   6.570   3.581
 4132SOL     OW13294   6.290   3.847   2.595
 4132SOL    HW113295   6.194   3.873   2.586
 4132SOL    HW213296   6.296   3.758   2.639
 4133SOL     OW13297   5.788   6.458   3.349
 4133SOL    HW113298   5.746   6.543   3.318
 4133SOL    HW213299   5.884   6.455   3.320
 4134SOL     OW13300   1.543   2.854   1.162
 4134SOL    HW113301   1.524   2.757   1.145
 4134SOL    HW213302   1.547   2.902   1.074
 4135SOL     OW13303   6.097   1.371   0.913
 4135SOL    HW113304   6.015   1.420   0.883
 4135SOL    HW213305   6.106   1.379   1.012
 4136SOL     OW13306   0.592   4.775   0.349
 4136SOL    HW113307   0.596   4.686   0.303
 4136SOL    HW213308   0.570   4.761   0.445
 4137SOL     OW13309   0.221   2.311   5.385
 4137SOL    HW113310   0.128   2.293   5.417
 4137SOL    HW213311   0.217   2.375   5.307
 4138SOL     OW13312   5.953   6.717   6.113
 4138SOL    HW113313   5.990   6.795   6.164
 4138SOL    HW213314   5.902   6.749   6.034
 4139SOL     OW13315   1.560   3.864   2.261
 4139SOL    HW113316   1.645   3.915   2.249
 4139SOL    HW213317   1.567   3.804   2.340
 4140SOL     OW13318   2.458   6.286   0.066
 4140SOL    HW113319   2.476   6.381   0.092
 4140SOL    HW213320   2.361   6.267   0.076
 4141SOL     OW13321   4.944   0.500   5.922
 4141SOL    HW113322   5.030   0.539   5.955
 4141SOL    HW213323   4.923   0.416   5.972
 4142SOL     OW13324   6.991   6.695   1.765
 4142SOL    HW113325   6.920   6.734   1.824
 4142SOL    HW213326   0.029   6.646   1.821
 4143SOL     OW13327   6.495   3.356   6.211
 4143SOL    HW113328   6.471   3.277   6.266
 4143SOL    HW213329   6.416   3.417   6.203
 4144SOL     OW13330   4.590   0.905   1.906
 4144SOL    HW113331   4.577   0.982   1.968
 4144SOL    HW213332   4.625   0.827   1.958
 4145SOL     OW13333   4.815   1.027   1.349
 4145SOL    HW113334   4.798   0.958   1.279
 4145SOL    HW213335   4.826   0.982   1.438
 4146SOL     OW13336   3.352   0.775   2.645
 4146SOL    HW113337   3.299   0.852   2.678
 4146SOL    HW213338   3.291   0.700   2.619
 4147SOL     OW13339   4.714   3.689   6.524
 4147SOL    HW113340   4.619   3.660   6.511
 4147SOL    HW213341   4.721   3.787   6.506
 4148SOL     OW13342   3.203   1.006   6.013
 4148SOL    HW113343   3.106   0.995   5.992
 4148SOL    HW213344   3.246   0.916   6.017
 4149SOL     OW13345   1.632   2.877   6.927
 4149SOL    HW113346   1.673   2.843   7.011
 4149SOL    HW213347   1.670   2.829   6.849
 4150SOL     OW13348   6.875   1.282   0.905
 4150SOL    HW113349   6.886   1.377   0.875
 4150SOL    HW213350   6.894   1.276   1.003
 4151SOL     OW13351   2.862   5.601   4.754
 4151SOL    HW113352   2.862   5.594   4.854
 4151SOL    HW213353   2.948   5.642   4.724
 4152SOL     OW13354   2.421   4.169   1.590
 4152SOL    HW113355   2.364   4.212   1.661
 4152SOL    HW213356   2.406   4.215   1.503
 4153SOL     OW13357   6.392   6.193   0.699
 4153SOL    HW113358   6.335   6.247   0.638
 4153SOL    HW213359   6.429   6.251   0.771
 4154SOL     OW13360   0.100   6.481   3.930
 4154SOL    HW113361   0.082   6.563   3.984
 4154SOL    HW213362   0.084   6.400   3.985
 4155SOL     OW13363   5.826   1.651   1.953
 4155SOL    HW113364   5.822   1.747   1.924
 4155SOL    HW213365   5.891   1.602   1.895
 4156SOL     OW13366   1.000   5.183   5.738
 4156SOL    HW113367   1.087   5.134   5.749
 4156SOL    HW213368   1.016   5.269   5.691
 4157SOL     OW13369   5.133   6.204   0.768
 4157SOL    HW113370   5.114   6.298   0.795
 4157SOL    HW213371   5.061   6.144   0.803
 4158SOL     OW13372   6.134   1.431   6.822
 4158SOL    HW113373   6.103   1.468   6.735
 4158SOL    HW213374   6.111   1.334   6.828
 4159SOL     OW13375   2.997   0.644   4.836
 4159SOL    HW113376   3.072   0.579   4.830
 4159SOL    HW213377   3.024   0.722   4.894
 4160SOL     OW13378   1.385   6.990   6.133
 4160SOL    HW113379   1.442   0.043   6.141
 4160SOL    HW213380   1.438   6.910   6.163
 4161SOL     OW13381   3.619   3.349   4.750
 4161SOL    HW113382   3.711   3.312   4.767
 4161SOL    HW213383   3.552   3.291   4.796
 4162SOL     OW13384   4.414   6.057   1.275
 4162SOL    HW113385   4.422   5.988   1.347
 4162SOL    HW213386   4.477   6.132   1.293
 4163SOL     OW13387   3.580   5.753   0.987
 4163SOL    HW113388   3.557   5.762   0.890
 4163SOL    HW213389   3.526   5.679   1.027
 4164SOL     OW13390   5.510   1.292   0.021
 4164SOL    HW113391   5.476   1.280   6.956
 4164SOL    HW213392   5.520   1.203   0.064
 4165SOL     OW13393   3.463   2.128   4.210
 4165SOL    HW113394   3.491   2.131   4.306
 4165SOL    HW213395   3.543   2.143   4.152
 4166SOL     OW13396   5.881   2.092   2.823
 4166SOL    HW113397   5.789   2.089   2.784
 4166SOL    HW213398   5.913   1.999   2.840
 4167SOL     OW13399   3.977   6.533   4.535
 4167SOL    HW113400   3.887   6.510   4.572
 4167SOL    HW213401   3.981   6.631   4.515
 4168SOL     OW13402   5.270   3.777   6.860
 4168SOL    HW113403   5.352   3.835   6.865
 4168SOL    HW213404   5.211   3.810   6.786
 4169SOL     OW13405   4.865   3.930   6.476
 4169SOL    HW113406   4.936   3.860   6.471
 4169SOL    HW213407   4.873   3.979   6.563
 4170SOL     OW13408   1.290   3.000   5.250
 4170SOL    HW113409   1.280   3.076   5.186
 4170SOL    HW213410   1.368   3.018   5.310
 4171SOL     OW13411   0.169   1.076   6.230
 4171SOL    HW113412   0.233   1.028   6.290
 4171SOL    HW213413   0.113   1.139   6.284
 4172SOL     OW13414   3.090   2.656   0.162
 4172SOL    HW113415   3.111   2.754   0.172
 4172SOL    HW213416   3.091   2.613   0.252
 4173SOL     OW13417   5.543   1.595   5.642
 4173SOL    HW113418   5.557   1.692   5.622
 4173SOL    HW213419   5.576   1.575   5.734
 4174SOL     OW13420   2.771   6.572   3.599
 4174SOL    HW113421   2.694   6.581   3.662
 4174SOL    HW213422   2.770   6.482   3.556
 4175SOL     OW13423   0.913   4.289   6.358
 4175SOL    HW113424   0.828   4.237   6.349
 4175SOL    HW213425   0.955   4.300   6.268
 4176SOL     OW13426   4.017   6.612   5.183
 4176SOL    HW113427   4.028   6.544   5.110
 4176SOL    HW213428   4.086   6.596   5.253
 4177SOL     OW13429   4.495   6.246   3.561
 4177SOL    HW113430   4.557   6.170   3.541
 4177SOL    HW213431   4.479   6.251   3.660
 4178SOL     OW13432   3.845   6.927   1.058
 4178SOL    HW113433   3.868   6.923   0.961
 4178SOL    HW213434   3.748   6.910   1.070
 4179SOL     OW13435   4.146   1.856   0.099
 4179SOL    HW113436   4.165   1.758   0.105
 4179SOL    HW213437   4.054   1.874   0.134
 4180SOL     OW13438   3.738   4.218   0.036
 4180SOL    HW113439   3.706   4.228   0.130
 4180SOL    HW213440   3.736   4.121   0.010
 4181SOL     OW13441   5.555   6.161   5.493
 4181SOL    HW113442   5.559   6.221   5.572
 4181SOL    HW213443   5.645   6.156   5.449
 4182SOL     OW13444   6.829   5.161   5.534
 4182SOL    HW113445   6.843   5.066   5.562
 4182SOL    HW213446   6.732   5.176   5.512
 4183SOL     OW13447   5.170   2.454   6.776
 4183SOL    HW113448   5.159   2.355   6.785
 4183SOL    HW213449   5.119   2.500   6.848
 4184SOL     OW13450   3.467   5.739   2.897
 4184SOL    HW113451   3.426   5.803   2.832
 4184SOL    HW213452   3.398   5.673   2.926
 4185SOL     OW13453   4.581   4.386   3.326
 4185SOL    HW113454   4.483   4.399   3.315
 4185SOL    HW213455   4.628   4.411   3.241
 4186SOL     OW13456   1.342   5.355   0.397
 4186SOL    HW113457   1.330   5.361   0.496
 4186SOL    HW213458   1.315   5.442   0.355
 4187SOL     OW13459   1.823   4.345   6.796
 4187SOL    HW113460   1.781   4.368   6.708
 4187SOL    HW213461   1.855   4.251   6.795
 4188SOL     OW13462   5.234   0.831   6.496
 4188SOL    HW113463   5.182   0.775   6.560
 4188SOL    HW213464   5.332   0.817   6.513
 4189SOL     OW13465   4.460   5.947   3.357
 4189SOL    HW113466   4.530   5.993   3.411
 4189SOL    HW213467   4.502   5.905   3.277
 4190SOL     OW13468   6.278   5.786   1.595
 4190SOL    HW113469   6.246   5.877   1.568
 4190SOL    HW213470   6.377   5.781   1.585
 4191SOL     OW13471   4.671   2.816   5.773
 4191SOL    HW113472   4.720   2.734   5.742
 4191SOL    HW213473   4.686   2.830   5.870
 4192SOL     OW13474   1.796   3.723   6.277
 4192SOL    HW113475   1.858   3.798   6.302
 4192SOL    HW213476   1.746   3.748   6.193
 4193SOL     OW13477   5.788   6.940   1.311
 4193SOL    HW113478   5.697   6.900   1.300
 4193SOL    HW213479   5.814   6.938   1.407
 4194SOL     OW13480   5.120   0.627   6.692
 4194SOL    HW113481   5.045   0.565   6.671
 4194SOL    HW213482   5.086   0.704   6.746
 4195SOL     OW13483   2.277   6.209   0.820
 4195SOL    HW113484   2.194   6.154   0.826
 4195SOL    HW213485   2.309   6.230   0.913
 4196SOL     OW13486   6.863   2.999   3.769
 4196SOL    HW113487   6.779   2.959   3.732
 4196SOL    HW213488   6.859   3.099   3.761
 4197SOL     OW13489   4.426   0.593   0.064
 4197SOL    HW113490   4.379   0.678   0.039
 4197SOL    HW213491   4.455   0.598   0.160
 4198SOL     OW13492   6.514   2.471   1.210
 4198SOL    HW113493   6.570   2.421   1.276
 4198SOL    HW213494   6.470   2.407   1.147
 4199SOL     OW13495   1.009   3.853   6.788
 4199SOL    HW113496   0.972   3.808   6.869
 4199SOL    HW213497   0.934   3.888   6.733
 4200SOL     OW13498   5.669   1.667   2.533
 4200SOL    HW113499   5.683   1.655   2.435
 4200SOL    HW213500   5.713   1.592   2.583
 4201SOL     OW13501   4.715   0.051   4.909
 4201SOL    HW113502   4.786   0.054   4.839
 4201SOL    HW213503   4.679   6.987   4.917
 4202SOL     OW13504   4.600   4.058   1.683
 4202SOL    HW113505   4.533   4.115   1.730
 4202SOL    HW213506   4.574   4.048   1.587
 4203SOL     OW13507   6.221   4.192   4.870
 4203SOL    HW113508   6.285   4.241   4.930
 4203SOL    HW213509   6.245   4.095   4.869
 4204SOL     OW13510   2.546   3.942   5.769
 4204SOL    HW113511   2.453   3.951   5.803
 4204SOL    HW213512   2.543   3.909   5.674
 4205SOL     OW13513   5.763   5.820   5.731
 4205SOL    HW113514   5.748   5.889   5.660
 4205SOL    HW213515   5.856   5.783   5.722
 4206SOL     OW13516   2.478   2.494   5.007
 4206SOL    HW113517   2.450   2.590   5.014
 4206SOL    HW213518   2.398   2.437   4.993
 4207SOL     OW13519   2.115   2.658   1.339
 4207SOL    HW113520   2.094   2.566   1.307
 4207SOL    HW213521   2.068   2.675   1.426
 4208SOL     OW13522   1.878   2.389   3.132
 4208SOL    HW113523   1.786   2.351   3.143
 4208SOL    HW213524   1.922   2.347   3.053
 4209SOL     OW13525   6.383   5.583   2.267
 4209SOL    HW113526   6.399   5.587   2.365
 4209SOL    HW213527   6.287   5.564   2.249
 4210SOL     OW13528   2.988   5.148   5.594
 4210SOL    HW113529   2.943   5.166   5.507
 4210SOL    HW213530   3.071   5.094   5.579
 4211SOL     OW13531   4.643   2.526   5.918
 4211SOL    HW113532   4.678   2.510   6.010
 4211SOL    HW213533   4.719   2.527   5.853
 4212SOL     OW13534   0.893   2.466   2.855
 4212SOL    HW113535   0.922   2.527   2.930
 4212SOL    HW213536   0.800   2.433   2.872
 4213SOL     OW13537   3.117   0.782   3.626
 4213SOL    HW113538   3.040   0.741   3.577
 4213SOL    HW213539   3.194   0.791   3.563
 4214SOL     OW13540   6.083   6.402   4.082
 4214SOL    HW113541   6.169   6.403   4.030
 4214SOL    HW213542   6.010   6.441   4.025
 4215SOL     OW13543   5.458   0.185   5.517
 4215SOL    HW113544   5.489   0.277   5.543
 4215SOL    HW213545   5.489   0.166   5.423
 4216SOL     OW13546   2.215   5.391   2.341
 4216SOL    HW113547   2.165   5.397   2.254
 4216SOL    HW213548   2.152   5.364   2.414
 4217SOL     OW13549   0.533   0.297   2.991
 4217SOL    HW113550   0.577   0.376   3.035
 4217SOL    HW213551   0.602   0.242   2.945
 4218SOL     OW13552   2.784   0.522   1.664
 4218SOL    HW113553   2.749   0.551   1.575
 4218SOL    HW213554   2.714   0.472   1.713
 4219SOL     OW13555   3.228   5.421   2.744
 4219SOL    HW113556   3.243   5.355   2.818
 4219SOL    HW213557   3.163   5.490   2.774
 4220SOL     OW13558   5.695   1.885   1.484
 4220SOL    HW113559   5.723   1.943   1.407
 4220SOL    HW213560   5.732   1.793   1.471
 4221SOL     OW13561   0.562   6.599   1.343
 4221SOL    HW113562   0.603   6.540   1.274
 4221SOL    HW213563   0.465   6.575   1.354
 4222SOL     OW13564   4.913   3.519   4.338
 4222SOL    HW113565   4.823   3.554   4.312
 4222SOL    HW213566   4.911   3.491   4.434
 4223SOL     OW13567   3.433   4.090   3.017
 4223SOL    HW113568   3.357   4.103   2.954
 4223SOL    HW213569   3.518   4.079   2.965
 4224SOL     OW13570   4.695   4.281   4.639
 4224SOL    HW113571   4.677   4.290   4.541
 4224SOL    HW213572   4.662   4.363   4.686
 4225SOL     OW13573   0.618   1.696   6.276
 4225SOL    HW113574   0.534   1.724   6.230
 4225SOL    HW213575   0.689   1.679   6.208
 4226SOL     OW13576   5.433   4.539   4.493
 4226SOL    HW113577   5.456   4.585   4.579
 4226SOL    HW213578   5.354   4.480   4.507
 4227SOL     OW13579   5.717   5.569   1.075
 4227SOL    HW113580   5.666   5.485   1.092
 4227SOL    HW213581   5.800   5.569   1.131
 4228SOL     OW13582   1.848   3.849   3.736
 4228SOL    HW113583   1.829   3.872   3.641
 4228SOL    HW213584   1.946   3.839   3.749
 4229SOL     OW13585   6.222   6.328   5.420
 4229SOL    HW113586   6.194   6.387   5.345
 4229SOL    HW213587   6.242   6.384   5.501
 4230SOL     OW13588   0.418   0.938   2.325
 4230SOL    HW113589   0.452   0.958   2.233
 4230SOL    HW213590   0.490   0.895   2.379
 4231SOL     OW13591   0.388   0.553   5.891
 4231SOL    HW113592   0.331   0.475   5.867
 4231SOL    HW213593   0.483   0.534   5.865
 4232SOL     OW13594   1.605   4.550   2.816
 4232SOL    HW113595   1.664   4.583   2.743
 4232SOL    HW213596   1.510   4.578   2.798
 4233SOL     OW13597   4.075   5.427   2.507
 4233SOL    HW113598   4.088   5.526   2.500
 4233SOL    HW213599   4.002   5.408   2.573
 4234SOL     OW13600   3.587   5.243   6.310
 4234SOL    HW113601   3.515   5.301   6.349
 4234SOL    HW213602   3.577   5.150   6.345
 4235SOL     OW13603   6.945   5.969   6.670
 4235SOL    HW113604   6.852   5.982   6.704
 4235SOL    HW213605   6.947   5.892   6.606
 4236SOL     OW13606   6.936   5.012   3.249
 4236SOL    HW113607   6.879   5.091   3.269
 4236SOL    HW213608   7.029   5.027   3.282
 4237SOL     OW13609   6.668   4.394   3.676
 4237SOL    HW113610   6.601   4.346   3.619
 4237SOL    HW213611   6.636   4.396   3.771
 4238SOL     OW13612   2.321   5.480   2.622
 4238SOL    HW113613   2.319   5.570   2.667
 4238SOL    HW213614   2.229   5.457   2.592
 4239SOL     OW13615   4.180   1.130   3.161
 4239SOL    HW113616   4.223   1.047   3.197
 4239SOL    HW213617   4.080   1.118   3.162
 4240SOL     OW13618   5.035   0.005   1.885
 4240SOL    HW113619   5.008   0.101   1.884
 4240SOL    HW213620   5.064   7.006   1.794
 4241SOL     OW13621   0.339   4.445   6.892
 4241SOL    HW113622   0.369   4.540   6.899
 4241SOL    HW213623   0.239   4.440   6.896
 4242SOL     OW13624   3.609   2.133   2.787
 4242SOL    HW113625   3.660   2.117   2.871
 4242SOL    HW213626   3.663   2.192   2.726
 4243SOL     OW13627   3.344   2.132   2.808
 4243SOL    HW113628   3.444   2.130   2.801
 4243SOL    HW213629   3.307   2.047   2.773
 4244SOL     OW13630   2.944   3.525   5.092
 4244SOL    HW113631   2.898   3.613   5.104
 4244SOL    HW213632   3.034   3.529   5.136
 4245SOL     OW13633   6.771   0.983   5.542
 4245SOL    HW113634   6.762   1.019   5.635
 4245SOL    HW213635   6.840   0.911   5.541
 4246SOL     OW13636   0.966   4.706   5.792
 4246SOL    HW113637   0.941   4.624   5.844
 4246SOL    HW213638   1.049   4.746   5.830
 4247SOL     OW13639   0.187   4.853   5.208
 4247SOL    HW113640   0.238   4.771   5.235
 4247SOL    HW213641   0.131   4.884   5.284
 4248SOL     OW13642   1.936   3.507   6.878
 4248SOL    HW113643   1.952   3.430   6.816
 4248SOL    HW213644   1.858   3.488   6.937
 4249SOL     OW13645   5.329   3.082   6.115
 4249SOL    HW113646   5.301   2.991   6.082
 4249SOL    HW213647   5.284   3.102   6.201
 4250SOL     OW13648   6.967   4.102   3.838
 4250SOL    HW113649   7.018   4.187   3.826
 4250SOL    HW213650   6.937   4.069   3.748
 4251SOL     OW13651   6.158   4.677   6.046
 4251SOL    HW113652   6.107   4.730   5.978
 4251SOL    HW213653   6.176   4.585   6.011
 4252SOL     OW13654   6.868   4.965   5.188
 4252SOL    HW113655   6.790   5.021   5.161
 4252SOL    HW213656   6.926   5.015   5.252
 4253SOL     OW13657   3.153   6.693   3.016
 4253SOL    HW113658   3.212   6.630   2.967
 4253SOL    HW213659   3.150   6.781   2.968
 4254SOL     OW13660   3.171   2.968   2.495
 4254SOL    HW113661   3.151   2.880   2.453
 4254SOL    HW213662   3.265   2.968   2.529
 4255SOL     OW13663   0.637   2.418   3.995
 4255SOL    HW113664   0.657   2.322   4.016
 4255SOL    HW213665   0.622   2.428   3.897
 4256SOL     OW13666   1.245   0.972   2.059
 4256SOL    HW113667   1.315   0.906   2.087
 4256SOL    HW213668   1.288   1.059   2.037
 4257SOL     OW13669   4.404   2.265   5.209
 4257SOL    HW113670   4.380   2.210   5.129
 4257SOL    HW213671   4.472   2.334   5.182
 4258SOL     OW13672   5.329   5.804   1.919
 4258SOL    HW113673   5.314   5.803   1.821
 4258SOL    HW213674   5.336   5.899   1.951
 4259SOL     OW13675   2.787   2.964   1.458
 4259SOL    HW113676   2.873   2.916   1.476
 4259SOL    HW213677   2.713   2.897   1.446
 4260SOL     OW13678   4.000   6.178   5.001
 4260SOL    HW113679   3.979   6.138   4.912
 4260SOL    HW213680   3.979   6.112   5.073
 4261SOL     OW13681   1.205   1.333   3.259
 4261SOL    HW113682   1.209   1.244   3.305
 4261SOL    HW213683   1.278   1.392   3.295
 4262SOL     OW13684   0.853   6.585   5.284
 4262SOL    HW113685   0.855   6.673   5.333
 4262SOL    HW213686   0.768   6.577   5.233
 4263SOL     OW13687   4.605   5.087   6.948
 4263SOL    HW113688   4.619   5.117   6.854
 4263SOL    HW213689   4.694   5.080   6.994
 4264SOL     OW13690   1.278   0.117   1.446
 4264SOL    HW113691   1.213   0.155   1.380
 4264SOL    HW213692   1.371   0.144   1.422
 4265SOL     OW13693   1.842   1.285   0.534
 4265SOL    HW113694   1.934   1.247   0.541
 4265SOL    HW213695   1.814   1.288   0.438
 4266SOL     OW13696   2.970   4.517   0.504
 4266SOL    HW113697   2.876   4.485   0.511
 4266SOL    HW213698   3.010   4.485   0.418
 4267SOL     OW13699   1.928   3.885   5.645
 4267SOL    HW113700   1.989   3.843   5.712
 4267SOL    HW213701   1.978   3.903   5.560
 4268SOL     OW13702   0.805   1.381   1.105
 4268SOL    HW113703   0.772   1.359   1.013
 4268SOL    HW213704   0.883   1.443   1.098
 4269SOL     OW13705   2.807   3.495   0.374
 4269SOL    HW113706   2.846   3.555   0.305
 4269SOL    HW213707   2.821   3.400   0.348
 4270SOL     OW13708   3.657   2.739   6.961
 4270SOL    HW113709   3.709   2.811   7.006
 4270SOL    HW213710   3.699   2.715   6.874
 4271SOL     OW13711   1.527   0.449   1.271
 4271SOL    HW113712   1.488   0.396   1.196
 4271SOL    HW213713   1.454   0.478   1.332
 4272SOL     OW13714   0.801   3.987   3.707
 4272SOL    HW113715   0.880   4.025   3.659
 4272SOL    HW213716   0.796   4.026   3.799
 4273SOL     OW13717   5.957   6.984   3.234
 4273SOL    HW113718   5.991   6.895   3.205
 4273SOL    HW213719   5.947   6.986   3.333
 4274SOL     OW13720   2.486   0.272   3.673
 4274SOL    HW113721   2.480   0.220   3.758
 4274SOL    HW213722   2.484   0.210   3.595
 4275SOL     OW13723   0.741   0.307   5.273
 4275SOL    HW113724   0.796   0.360   5.338
 4275SOL    HW213725   0.702   0.369   5.205
 4276SOL     OW13726   2.066   3.762   3.021
 4276SOL    HW113727   2.054   3.669   2.988
 4276SOL    HW213728   2.115   3.815   2.951
 4277SOL     OW13729   1.115   5.555   5.370
 4277SOL    HW113730   1.090   5.648   5.345
 4277SOL    HW213731   1.082   5.492   5.300
 4278SOL     OW13732   1.064   6.285   6.531
 4278SOL    HW113733   0.977   6.242   6.555
 4278SOL    HW213734   1.132   6.264   6.601
 4279SOL     OW13735   3.329   5.976   3.129
 4279SOL    HW113736   3.314   5.904   3.061
 4279SOL    HW213737   3.419   6.018   3.114
 4280SOL     OW13738   5.130   2.683   3.478
 4280SOL    HW113739   5.179   2.596   3.488
 4280SOL    HW213740   5.101   2.694   3.383
 4281SOL     OW13741   1.766   4.092   5.309
 4281SOL    HW113742   1.808   4.052   5.228
 4281SOL    HW213743   1.823   4.074   5.389
 4282SOL     OW13744   0.751   1.658   0.295
 4282SOL    HW113745   0.761   1.638   0.392
 4282SOL    HW213746   0.762   1.757   0.280
 4283SOL     OW13747   2.842   1.103   4.170
 4283SOL    HW113748   2.932   1.088   4.128
 4283SOL    HW213749   2.843   1.068   4.264
 4284SOL     OW13750   7.022   1.988   3.249
 4284SOL    HW113751   0.005   1.918   3.178
 4284SOL    HW213752   0.006   1.946   3.339
 4285SOL     OW13753   1.069   6.282   4.256
 4285SOL    HW113754   1.081   6.263   4.158
 4285SOL    HW213755   1.128   6.359   4.282
 4286SOL     OW13756   4.548   5.617   6.507
 4286SOL    HW113757   4.599   5.563   6.440
 4286SOL    HW213758   4.565   5.714   6.491
 4287SOL     OW13759   3.820   5.437   5.654
 4287SOL    HW113760   3.867   5.349   5.657
 4287SOL    HW213761   3.782   5.458   5.744
 4288SOL     OW13762   1.460   6.098   3.776
 4288SOL    HW113763   1.486   6.048   3.859
 4288SOL    HW213764   1.403   6.176   3.801
 4289SOL     OW13765   0.024   4.137   6.643
 4289SOL    HW113766   0.042   4.100   6.734
 4289SOL    HW213767   6.985   4.210   6.649
 4290SOL     OW13768   1.751   1.866   2.897
 4290SOL    HW113769   1.764   1.964   2.908
 4290SOL    HW213770   1.813   1.817   2.958
 4291SOL     OW13771   0.221   4.067   1.310
 4291SOL    HW113772   0.197   4.158   1.275
 4291SOL    HW213773   0.142   4.007   1.303
 4292SOL     OW13774   5.593   5.228   5.009
 4292SOL    HW113775   5.660   5.157   4.989
 4292SOL    HW213776   5.571   5.225   5.107
 4293SOL     OW13777   0.389   2.208   0.457
 4293SOL    HW113778   0.420   2.220   0.551
 4293SOL    HW213779   0.291   2.225   0.452
 4294SOL     OW13780   4.872   1.839   6.130
 4294SOL    HW113781   4.902   1.795   6.215
 4294SOL    HW213782   4.888   1.777   6.054
 4295SOL     OW13783   3.674   5.832   5.666
 4295SOL    HW113784   3.701   5.754   5.722
 4295SOL    HW213785   3.617   5.894   5.720
 4296SOL     OW13786   2.498   1.346   2.400
 4296SOL    HW113787   2.424   1.279   2.407
 4296SOL    HW213788   2.506   1.396   2.486
 4297SOL     OW13789   6.007   0.378   0.497
 4297SOL    HW113790   6.075   0.326   0.548
 4297SOL    HW213791   5.961   0.318   0.431
 4298SOL     OW13792   1.449   4.581   1.977
 4298SOL    HW113793   1.479   4.660   2.030
 4298SOL    HW213794   1.396   4.611   1.898
 4299SOL     OW13795   1.389   5.611   5.216
 4299SOL    HW113796   1.398   5.550   5.295
 4299SOL    HW213797   1.352   5.699   5.247
 4300SOL     OW13798   6.068   0.200   5.640
 4300SOL    HW113799   5.980   0.201   5.687
 4300SOL    HW213800   6.053   0.186   5.542
 4301SOL     OW13801   3.330   1.317   1.120
 4301SOL    HW113802   3.282   1.249   1.177
 4301SOL    HW213803   3.263   1.376   1.075
 4302SOL     OW13804   0.713   0.444   6.772
 4302SOL    HW113805   0.622   0.464   6.809
 4302SOL    HW213806   0.764   0.389   6.838
 4303SOL     OW13807   0.702   3.921   1.509
 4303SOL    HW113808   0.603   3.906   1.518
 4303SOL    HW213809   0.722   4.018   1.525
 4304SOL     OW13810   3.076   3.710   5.738
 4304SOL    HW113811   3.144   3.778   5.709
 4304SOL    HW213812   3.116   3.653   5.811
 4305SOL     OW13813   0.211   1.657   4.974
 4305SOL    HW113814   0.254   1.576   5.014
 4305SOL    HW213815   0.146   1.628   4.904
 4306SOL     OW13816   6.476   5.721   5.547
 4306SOL    HW113817   6.437   5.812   5.562
 4306SOL    HW213818   6.476   5.671   5.634
 4307SOL     OW13819   5.845   3.501   0.776
 4307SOL    HW113820   5.909   3.565   0.733
 4307SOL    HW213821   5.814   3.539   0.863
 4308SOL     OW13822   3.188   0.156   5.094
 4308SOL    HW113823   3.252   0.182   5.167
 4308SOL    HW213824   3.225   0.078   5.044
 4309SOL     OW13825   1.035   6.653   1.844
 4309SOL    HW113826   1.104   6.720   1.874
 4309SOL    HW213827   0.949   6.700   1.824
 4310SOL     OW13828   1.733   6.656   2.884
 4310SOL    HW113829   1.744   6.696   2.793
 4310SOL    HW213830   1.795   6.578   2.894
 4311SOL     OW13831   1.081   5.207   4.164
 4311SOL    HW113832   1.050   5.302   4.175
 4311SOL    HW213833   1.006   5.151   4.129
 4312SOL     OW13834   1.450   5.476   2.147
 4312SOL    HW113835   1.409   5.387   2.126
 4312SOL    HW213836   1.425   5.503   2.240
 4313SOL     OW13837   4.958   0.946   1.615
 4313SOL    HW113838   5.007   0.861   1.637
 4313SOL    HW213839   4.912   0.980   1.696
 4314SOL     OW13840   5.953   3.372   1.052
 4314SOL    HW113841   5.877   3.391   1.114
 4314SOL    HW213842   5.917   3.342   0.964
 4315SOL     OW13843   2.151   1.003   2.723
 4315SOL    HW113844   2.139   1.056   2.639
 4315SOL    HW213845   2.248   0.993   2.742
 4316SOL     OW13846   0.388   1.316   2.459
 4316SOL    HW113847   0.362   1.269   2.543
 4316SOL    HW213848   0.481   1.351   2.468
 4317SOL     OW13849   4.381   0.514   3.197
 4317SOL    HW113850   4.307   0.568   3.156
 4317SOL    HW213851   4.468   0.561   3.184
 4318SOL     OW13852   6.776   2.325   5.186
 4318SOL    HW113853   6.722   2.351   5.105
 4318SOL    HW213854   6.807   2.231   5.175
 4319SOL     OW13855   3.736   2.264   6.479
 4319SOL    HW113856   3.825   2.249   6.522
 4319SOL    HW213857   3.697   2.350   6.511
 4320SOL     OW13858   6.717   6.573   3.414
 4320SOL    HW113859   6.653   6.496   3.420
 4320SOL    HW213860   6.752   6.595   3.506
 4321SOL     OW13861   0.602   0.436   4.787
 4321SOL    HW113862   0.527   0.502   4.778
 4321SOL    HW213863   0.566   0.350   4.823
 4322SOL     OW13864   6.487   1.113   1.257
 4322SOL    HW113865   6.504   1.072   1.167
 4322SOL    HW213866   6.398   1.159   1.256
 4323SOL     OW13867   6.909   1.942   3.941
 4323SOL    HW113868   6.854   2.004   3.885
 4323SOL    HW213869   6.849   1.880   3.992
 4324SOL     OW13870   5.820   2.702   5.455
 4324SOL    HW113871   5.896   2.753   5.413
 4324SOL    HW213872   5.734   2.747   5.432
 4325SOL     OW13873   1.800   2.695   6.680
 4325SOL    HW113874   1.846   2.606   6.687
 4325SOL    HW213875   1.708   2.681   6.641
 4326SOL     OW13876   6.586   2.418   4.994
 4326SOL    HW113877   6.623   2.474   4.920
 4326SOL    HW213878   6.489   2.436   5.004
 4327SOL     OW13879   4.580   0.835   2.982
 4327SOL    HW113880   4.600   0.931   3.001
 4327SOL    HW213881   4.580   0.820   2.883
 4328SOL     OW13882   6.285   4.999   0.304
 4328SOL    HW113883   6.225   4.979   0.227
 4328SOL    HW213884   6.330   4.914   0.334
 4329SOL     OW13885   5.087   1.473   6.763
 4329SOL    HW113886   5.013   1.407   6.770
 4329SOL    HW213887   5.149   1.463   6.841
 4330SOL     OW13888   0.962   0.965   6.502
 4330SOL    HW113889   0.998   0.903   6.433
 4330SOL    HW213890   1.013   0.954   6.587
 4331SOL     OW13891   5.002   2.610   6.449
 4331SOL    HW113892   4.935   2.657   6.391
 4331SOL    HW213893   5.093   2.649   6.433
 4332SOL     OW13894   6.050   4.085   1.793
 4332SOL    HW113895   6.000   4.089   1.880
 4332SOL    HW213896   6.014   4.009   1.738
 4333SOL     OW13897   6.384   1.385   4.806
 4333SOL    HW113898   6.377   1.484   4.823
 4333SOL    HW213899   6.481   1.359   4.800
 4334SOL     OW13900   3.841   0.580   1.823
 4334SOL    HW113901   3.866   0.535   1.737
 4334SOL    HW213902   3.751   0.623   1.813
 4335SOL     OW13903   3.976   4.300   5.897
 4335SOL    HW113904   3.952   4.249   5.814
 4335SOL    HW213905   3.952   4.246   5.977
 4336SOL     OW13906   1.007   6.870   5.778
 4336SOL    HW113907   1.033   6.905   5.868
 4336SOL    HW213908   0.935   6.927   5.740
 4337SOL     OW13909   0.888   5.473   6.485
 4337SOL    HW113910   0.901   5.546   6.418
 4337SOL    HW213911   0.884   5.512   6.577
 4338SOL     OW13912   5.652   6.701   3.304
 4338SOL    HW113913   5.604   6.738   3.225
 4338SOL    HW213914   5.730   6.758   3.326
 4339SOL     OW13915   6.508   0.962   6.993
 4339SOL    HW113916   6.526   1.023   6.916
 4339SOL    HW213917   6.591   0.952   0.019
 4340SOL     OW13918   4.716   3.804   1.771
 4340SOL    HW113919   4.664   3.888   1.756
 4340SOL    HW213920   4.761   3.776   1.686
 4341SOL     OW13921   0.977   3.294   0.755
 4341SOL    HW113922   0.926   3.316   0.839
 4341SOL    HW213923   1.041   3.367   0.734
 4342SOL     OW13924   0.032   2.171   2.890
 4342SOL    HW113925   7.007   2.171   2.975
 4342SOL    HW213926   0.063   2.265   2.871
 4343SOL     OW13927   3.274   2.422   0.960
 4343SOL    HW113928   3.311   2.426   0.867
 4343SOL    HW213929   3.347   2.398   1.024
 4344SOL     OW13930   2.091   3.240   1.693
 4344SOL    HW113931   2.058   3.213   1.603
 4344SOL    HW213932   2.155   3.171   1.727
 4345SOL     OW13933   2.845   1.056   5.991
 4345SOL    HW113934   2.853   0.978   5.929
 4345SOL    HW213935   2.848   1.141   5.938
 4346SOL     OW13936   0.104   3.733   1.132
 4346SOL    HW113937   0.198   3.738   1.166
 4346SOL    HW213938   0.097   3.779   1.044
 4347SOL     OW13939   4.839   5.705   2.601
 4347SOL    HW113940   4.930   5.725   2.636
 4347SOL    HW213941   4.808   5.781   2.543
 4348SOL     OW13942   1.475   3.630   0.432
 4348SOL    HW113943   1.547   3.609   0.498
 4348SOL    HW213944   1.511   3.620   0.339
 4349SOL     OW13945   6.700   0.961   1.724
 4349SOL    HW113946   6.782   0.929   1.772
 4349SOL    HW213947   6.695   0.919   1.634
 4350SOL     OW13948   3.891   0.653   2.618
 4350SOL    HW113949   3.791   0.658   2.622
 4350SOL    HW213950   3.919   0.557   2.621
 4351SOL     OW13951   3.088   6.659   6.830
 4351SOL    HW113952   3.173   6.608   6.817
 4351SOL    HW213953   3.094   6.714   6.913
 4352SOL     OW13954   6.692   2.169   2.194
 4352SOL    HW113955   6.593   2.161   2.178
 4352SOL    HW213956   6.733   2.079   2.195
 4353SOL     OW13957   3.422   5.406   1.246
 4353SOL    HW113958   3.447   5.498   1.277
 4353SOL    HW213959   3.342   5.374   1.296
 4354SOL     OW13960   2.920   0.778   1.400
 4354SOL    HW113961   2.964   0.800   1.313
 4354SOL    HW213962   2.848   0.711   1.385
 4355SOL     OW13963   4.897   6.650   6.652
 4355SOL    HW113964   4.906   6.731   6.710
 4355SOL    HW213965   4.805   6.648   6.612
 4356SOL     OW13966   3.245   3.770   0.903
 4356SOL    HW113967   3.157   3.767   0.948
 4356SOL    HW213968   3.316   3.733   0.964
 4357SOL     OW13969   5.941   0.677   0.487
 4357SOL    HW113970   5.924   0.582   0.516
 4357SOL    HW213971   5.989   0.677   0.399
 4358SOL     OW13972   6.051   0.721   1.202
 4358SOL    HW113973   6.148   0.732   1.178
 4358SOL    HW213974   5.994   0.750   1.125
 4359SOL     OW13975   0.437   4.033   4.631
 4359SOL    HW113976   0.527   4.003   4.662
 4359SOL    HW213977   0.381   3.952   4.610
 4360SOL     OW13978   2.276   3.367   1.219
 4360SOL    HW113979   2.197   3.421   1.248
 4360SOL    HW213980   2.313   3.317   1.298
 4361SOL     OW13981   5.705   2.354   2.708
 4361SOL    HW113982   5.755   2.336   2.624
 4361SOL    HW213983   5.642   2.278   2.728
 4362SOL     OW13984   5.040   4.189   2.785
 4362SOL    HW113985   4.942   4.187   2.766
 4362SOL    HW213986   5.092   4.164   2.703
 4363SOL     OW13987   4.851   0.964   6.591
 4363SOL    HW113988   4.904   0.969   6.676
 4363SOL    HW213989   4.893   1.023   6.522
 4364SOL     OW13990   3.824   3.938   4.691
 4364SOL    HW113991   3.909   3.899   4.656
 4364SOL    HW213992   3.747   3.881   4.662
 4365SOL     OW13993   4.594   2.079   0.114
 4365SOL    HW113994   4.632   2.166   0.142
 4365SOL    HW213995   4.508   2.063   0.162
 4366SOL     OW13996   4.161   5.233   0.377
 4366SOL    HW113997   4.201   5.147   0.346
 4366SOL    HW213998   4.223   5.278   0.441
 4367SOL     OW13999   6.507   6.834   0.946
 4367SOL    HW114000   6.493   6.758   1.009
 4367SOL    HW214001   6.582   6.813   0.883
 4368SOL     OW14002   4.217   5.157   2.045
 4368SOL    HW114003   4.304   5.202   2.065
 4368SOL    HW214004   4.179   5.119   2.130
 4369SOL     OW14005   3.170   5.450   1.996
 4369SOL    HW114006   3.145   5.542   1.966
 4369SOL    HW214007   3.269   5.445   2.008
 4370SOL     OW14008   5.020   4.277   1.797
 4370SOL    HW114009   4.976   4.188   1.808
 4370SOL    HW214010   4.994   4.317   1.709
 4371SOL     OW14011   1.189   1.587   2.523
 4371SOL    HW114012   1.268   1.642   2.550
 4371SOL    HW214013   1.108   1.646   2.517
 4372SOL     OW14014   5.044   6.905   4.015
 4372SOL    HW114015   5.011   6.997   4.034
 4372SOL    HW214016   5.144   6.904   4.014
 4373SOL     OW14017   0.298   1.783   5.949
 4373SOL    HW114018   0.282   1.695   5.903
 4373SOL    HW214019   0.361   1.769   6.025
 4374SOL     OW14020   3.391   1.265   6.929
 4374SOL    HW114021   3.337   1.350   6.932
 4374SOL    HW214022   3.470   1.278   6.870
 4375SOL     OW14023   3.605   5.463   4.119
 4375SOL    HW114024   3.659   5.388   4.157
 4375SOL    HW214025   3.575   5.524   4.192
 4376SOL     OW14026   0.007   2.750   3.570
 4376SOL    HW114027   6.978   2.831   3.571
 4376SOL    HW214028   0.103   2.777   3.556
 4377SOL     OW14029   6.918   4.756   6.132
 4377SOL    HW114030   6.927   4.695   6.054
 4377SOL    HW214031   6.842   4.819   6.117
 4378SOL     OW14032   3.184   1.866   4.083
 4378SOL    HW114033   3.186   1.796   4.155
 4378SOL    HW214034   3.181   1.957   4.124
 4379SOL     OW14035   3.654   1.723   6.288
 4379SOL    HW114036   3.592   1.786   6.334
 4379SOL    HW214037   3.728   1.774   6.244
 4380SOL     OW14038   0.366   2.542   3.037
 4380SOL    HW114039   0.358   2.451   3.079
 4380SOL    HW214040   0.311   2.545   2.953
 4381SOL     OW14041   1.349   5.193   6.746
 4381SOL    HW114042   1.259   5.226   6.775
 4381SOL    HW214043   1.342   5.159   6.651
 4382SOL     OW14044   1.070   4.934   4.611
 4382SOL    HW114045   1.052   5.016   4.557
 4382SOL    HW214046   1.002   4.864   4.588
 4383SOL     OW14047   0.528   4.657   0.621
 4383SOL    HW114048   0.563   4.673   0.713
 4383SOL    HW214049   0.437   4.616   0.626
 4384SOL     OW14050   4.947   0.117   3.354
 4384SOL    HW114051   4.950   0.054   3.277
 4384SOL    HW214052   5.031   0.110   3.407
 4385SOL     OW14053   4.624   0.336   5.607
 4385SOL    HW114054   4.671   0.389   5.536
 4385SOL    HW214055   4.555   0.393   5.651
 4386SOL     OW14056   2.170   3.286   4.401
 4386SOL    HW114057   2.237   3.219   4.371
 4386SOL    HW214058   2.145   3.346   4.325
 4387SOL     OW14059   5.247   2.418   1.341
 4387SOL    HW114060   5.281   2.338   1.391
 4387SOL    HW214061   5.266   2.501   1.393
 4388SOL     OW14062   5.616   3.440   0.669
 4388SOL    HW114063   5.708   3.479   0.671
 4388SOL    HW214064   5.604   3.378   0.746
 4389SOL     OW14065   2.740   1.489   0.167
 4389SOL    HW114066   2.784   1.421   0.108
 4389SOL    HW214067   2.649   1.510   0.133
 4390SOL     OW14068   0.034   1.757   0.778
 4390SOL    HW114069   0.132   1.755   0.759
 4390SOL    HW214070   0.014   1.831   0.843
 4391SOL     OW14071   0.262   6.015   1.681
 4391SOL    HW114072   0.234   6.053   1.593
 4391SOL    HW214073   0.311   6.085   1.733
 4392SOL     OW14074   1.305   2.844   5.999
 4392SOL    HW114075   1.339   2.937   5.984
 4392SOL    HW214076   1.377   2.778   5.977
 4393SOL     OW14077   6.204   0.306   2.147
 4393SOL    HW114078   6.165   0.325   2.237
 4393SOL    HW214079   6.238   0.212   2.145
 4394SOL     OW14080   6.876   0.421   2.797
 4394SOL    HW114081   6.966   0.409   2.755
 4394SOL    HW214082   6.820   0.340   2.777
 4395SOL     OW14083   1.331   3.748   1.780
 4395SOL    HW114084   1.328   3.658   1.738
 4395SOL    HW214085   1.414   3.756   1.836
 4396SOL     OW14086   2.553   1.372   2.787
 4396SOL    HW114087   2.548   1.383   2.887
 4396SOL    HW214088   2.580   1.459   2.745
 4397SOL     OW14089   3.636   0.415   5.421
 4397SOL    HW114090   3.548   0.455   5.396
 4397SOL    HW214091   3.667   0.355   5.347
 4398SOL     OW14092   2.291   3.149   5.769
 4398SOL    HW114093   2.372   3.208   5.775
 4398SOL    HW214094   2.264   3.140   5.673
 4399SOL     OW14095   3.214   5.881   1.608
 4399SOL    HW114096   3.237   5.916   1.517
 4399SOL    HW214097   3.279   5.809   1.633
 4400SOL     OW14098   1.525   5.946   5.250
 4400SOL    HW114099   1.554   6.037   5.280
 4400SOL    HW214100   1.500   5.949   5.153
 4401SOL     OW14101   2.991   6.689   6.565
 4401SOL    HW114102   2.933   6.626   6.513
 4401SOL    HW214103   3.025   6.643   6.647
 4402SOL     OW14104   1.066   0.872   2.834
 4402SOL    HW114105   0.987   0.909   2.884
 4402SOL    HW214106   1.053   0.774   2.820
 4403SOL     OW14107   6.335   5.867   3.349
 4403SOL    HW114108   6.346   5.966   3.356
 4403SOL    HW214109   6.347   5.838   3.253
 4404SOL     OW14110   0.604   6.612   5.155
 4404SOL    HW114111   0.530   6.545   5.151
 4404SOL    HW214112   0.621   6.649   5.064
 4405SOL     OW14113   1.250   5.031   2.597
 4405SOL    HW114114   1.290   5.034   2.506
 4405SOL    HW214115   1.272   5.116   2.646
 4406SOL     OW14116   6.192   4.626   2.408
 4406SOL    HW114117   6.204   4.539   2.455
 4406SOL    HW214118   6.205   4.701   2.473
 4407SOL     OW14119   5.602   6.780   1.081
 4407SOL    HW114120   5.603   6.859   1.021
 4407SOL    HW214121   5.509   6.764   1.113
 4408SOL     OW14122   4.756   0.708   0.761
 4408SOL    HW114123   4.779   0.791   0.711
 4408SOL    HW214124   4.658   0.690   0.753
 4409SOL     OW14125   3.481   0.722   3.881
 4409SOL    HW114126   3.474   0.669   3.966
 4409SOL    HW214127   3.577   0.745   3.865
 4410SOL     OW14128   0.982   0.244   1.249
 4410SOL    HW114129   1.023   0.213   1.163
 4410SOL    HW214130   0.926   0.172   1.288
 4411SOL     OW14131   4.478   4.824   5.102
 4411SOL    HW114132   4.576   4.815   5.123
 4411SOL    HW214133   4.452   4.753   5.037
 4412SOL     OW14134   4.435   5.912   1.502
 4412SOL    HW114135   4.338   5.893   1.520
 4412SOL    HW214136   4.479   5.943   1.587
 4413SOL     OW14137   5.202   6.416   4.380
 4413SOL    HW114138   5.244   6.335   4.339
 4413SOL    HW214139   5.105   6.420   4.355
 4414SOL     OW14140   5.375   4.269   0.951
 4414SOL    HW114141   5.385   4.170   0.940
 4414SOL    HW214142   5.464   4.313   0.944
 4415SOL     OW14143   1.576   4.026   1.310
 4415SOL    HW114144   1.646   4.060   1.374
 4415SOL    HW214145   1.620   3.978   1.235
 4416SOL     OW14146   4.946   3.434   4.591
 4416SOL    HW114147   4.914   3.425   4.686
 4416SOL    HW214148   5.042   3.406   4.586
 4417SOL     OW14149   0.597   4.248   2.015
 4417SOL    HW114150   0.653   4.204   1.944
 4417SOL    HW214151   0.652   4.263   2.097
 4418SOL     OW14152   6.596   1.465   5.361
 4418SOL    HW114153   6.633   1.417   5.440
 4418SOL    HW214154   6.643   1.553   5.350
 4419SOL     OW14155   6.462   6.601   6.473
 4419SOL    HW114156   6.371   6.601   6.514
 4419SOL    HW214157   6.530   6.626   6.543
 4420SOL     OW14158   3.765   1.288   0.538
 4420SOL    HW114159   3.833   1.327   0.600
 4420SOL    HW214160   3.709   1.361   0.500
 4421SOL     OW14161   2.779   2.854   0.140
 4421SOL    HW114162   2.738   2.915   0.073
 4421SOL    HW214163   2.779   2.761   0.104
 4422SOL     OW14164   0.811   3.057   6.239
 4422SOL    HW114165   0.875   3.134   6.235
 4422SOL    HW214166   0.858   2.975   6.271
 4423SOL     OW14167   5.463   4.418   4.222
 4423SOL    HW114168   5.479   4.320   4.214
 4423SOL    HW214169   5.464   4.445   4.318
 4424SOL     OW14170   4.214   5.858   2.751
 4424SOL    HW114171   4.255   5.915   2.822
 4424SOL    HW214172   4.206   5.764   2.784
 4425SOL     OW14173   0.087   6.385   1.438
 4425SOL    HW114174   0.054   6.300   1.479
 4425SOL    HW214175   0.018   6.422   1.375
 4426SOL     OW14176   0.642   0.804   4.511
 4426SOL    HW114177   0.612   0.710   4.529
 4426SOL    HW214178   0.564   0.860   4.486
 4427SOL     OW14179   3.566   5.871   2.017
 4427SOL    HW114180   3.574   5.791   1.958
 4427SOL    HW214181   3.623   5.859   2.098
 4428SOL     OW14182   6.060   6.609   3.348
 4428SOL    HW114183   6.126   6.536   3.359
 4428SOL    HW214184   6.037   6.647   3.438
 4429SOL     OW14185   2.610   5.853   2.935
 4429SOL    HW114186   2.604   5.926   3.003
 4429SOL    HW214187   2.520   5.838   2.895
 4430SOL     OW14188   6.090   4.021   4.546
 4430SOL    HW114189   6.055   3.974   4.465
 4430SOL    HW214190   6.049   3.982   4.628
 4431SOL     OW14191   4.009   6.765   4.889
 4431SOL    HW114192   3.928   6.804   4.847
 4431SOL    HW214193   4.058   6.710   4.822
 4432SOL     OW14194   1.560   3.674   6.446
 4432SOL    HW114195   1.638   3.687   6.384
 4432SOL    HW214196   1.541   3.760   6.493
 4433SOL     OW14197   0.741   0.169   4.733
 4433SOL    HW114198   0.809   0.233   4.696
 4433SOL    HW214199   0.662   0.220   4.767
 4434SOL     OW14200   6.558   1.124   2.364
 4434SOL    HW114201   6.614   1.084   2.437
 4434SOL    HW214202   6.618   1.156   2.291
 4435SOL     OW14203   2.540   4.504   1.187
 4435SOL    HW114204   2.614   4.470   1.245
 4435SOL    HW214205   2.515   4.434   1.120
 4436SOL     OW14206   4.590   2.364   1.714
 4436SOL    HW114207   4.661   2.434   1.701
 4436SOL    HW214208   4.610   2.312   1.797
 4437SOL     OW14209   6.558   5.261   6.803
 4437SOL    HW114210   6.491   5.205   6.755
 4437SOL    HW214211   6.568   5.228   6.897
 4438SOL     OW14212   4.522   1.448   4.637
 4438SOL    HW114213   4.454   1.519   4.618
 4438SOL    HW214214   4.513   1.375   4.570
 4439SOL     OW14215   2.676   4.824   1.948
 4439SOL    HW114216   2.721   4.889   1.887
 4439SOL    HW214217   2.715   4.733   1.935
 4440SOL     OW14218   2.164   5.317   5.604
 4440SOL    HW114219   2.152   5.370   5.688
 4440SOL    HW214220   2.123   5.366   5.527
 4441SOL     OW14221   6.377   1.424   1.083
 4441SOL    HW114222   6.432   1.384   1.010
 4441SOL    HW214223   6.437   1.464   1.152
 4442SOL     OW14224   1.739   4.892   1.021
 4442SOL    HW114225   1.736   4.830   1.100
 4442SOL    HW214226   1.823   4.875   0.970
 4443SOL     OW14227   1.136   6.077   5.142
 4443SOL    HW114228   1.201   6.135   5.192
 4443SOL    HW214229   1.058   6.056   5.201
 4444SOL     OW14230   4.888   6.030   6.913
 4444SOL    HW114231   4.966   5.977   6.881
 4444SOL    HW214232   4.807   6.005   6.860
 4445SOL     OW14233   1.920   3.647   0.488
 4445SOL    HW114234   1.886   3.680   0.576
 4445SOL    HW214235   1.847   3.600   0.439
 4446SOL     OW14236   5.319   1.841   2.144
 4446SOL    HW114237   5.250   1.777   2.109
 4446SOL    HW214238   5.355   1.895   2.068
 4447SOL     OW14239   4.740   5.835   5.252
 4447SOL    HW114240   4.684   5.836   5.335
 4447SOL    HW214241   4.745   5.742   5.216
 4448SOL     OW14242   2.986   6.611   2.613
 4448SOL    HW114243   2.888   6.622   2.627
 4448SOL    HW214244   3.003   6.536   2.550
 4449SOL     OW14245   3.961   1.658   5.840
 4449SOL    HW114246   3.873   1.698   5.868
 4449SOL    HW214247   3.985   1.690   5.748
 4450SOL     OW14248   2.095   6.005   0.786
 4450SOL    HW114249   2.180   5.952   0.782
 4450SOL    HW214250   2.017   5.942   0.783
 4451SOL     OW14251   4.993   6.016   3.732
 4451SOL    HW114252   4.904   6.042   3.768
 4451SOL    HW214253   5.060   6.088   3.752
 4452SOL     OW14254   5.289   4.408   3.510
 4452SOL    HW114255   5.325   4.464   3.436
 4452SOL    HW214256   5.194   4.434   3.529
 4453SOL     OW14257   0.202   5.761   1.556
 4453SOL    HW114258   0.214   5.855   1.587
 4453SOL    HW214259   0.285   5.708   1.575
 4454SOL     OW14260   0.825   1.239   0.185
 4454SOL    HW114261   0.738   1.219   0.141
 4454SOL    HW214262   0.899   1.191   0.138
 4455SOL     OW14263   1.116   0.557   4.238
 4455SOL    HW114264   1.067   0.643   4.227
 4455SOL    HW214265   1.190   0.552   4.171
 4456SOL     OW14266   1.294   5.976   4.154
 4456SOL    HW114267   1.307   6.033   4.236
 4456SOL    HW214268   1.199   5.979   4.126
 4457SOL     OW14269   1.483   2.009   4.452
 4457SOL    HW114270   1.576   2.012   4.416
 4457SOL    HW214271   1.446   2.101   4.458
 4458SOL     OW14272   2.124   1.969   6.218
 4458SOL    HW114273   2.164   1.968   6.310
 4458SOL    HW214274   2.119   2.063   6.185
 4459SOL     OW14275   0.712   4.420   3.024
 4459SOL    HW114276   0.768   4.372   3.091
 4459SOL    HW214277   0.616   4.394   3.036
 4460SOL     OW14278   6.869   2.979   4.940
 4460SOL    HW114279   6.910   3.012   4.855
 4460SOL    HW214280   6.914   3.023   5.018
 4461SOL     OW14281   2.090   0.107   0.776
 4461SOL    HW114282   2.157   0.091   0.704
 4461SOL    HW214283   2.010   0.154   0.738
 4462SOL     OW14284   6.888   4.514   1.998
 4462SOL    HW114285   6.797   4.540   2.030
 4462SOL    HW214286   6.926   4.588   1.941
 4463SOL     OW14287   5.783   2.207   0.067
 4463SOL    HW114288   5.707   2.160   0.112
 4463SOL    HW214289   5.773   2.306   0.082
 4464SOL     OW14290   0.571   3.570   1.262
 4464SOL    HW114291   0.483   3.558   1.309
 4464SOL    HW214292   0.565   3.532   1.170
 4465SOL     OW14293   4.421   4.958   1.936
 4465SOL    HW114294   4.504   4.975   1.989
 4465SOL    HW214295   4.359   4.900   1.988
 4466SOL     OW14296   0.605   3.171   2.751
 4466SOL    HW114297   0.531   3.167   2.683
 4466SOL    HW214298   0.677   3.232   2.718
 4467SOL     OW14299   5.150   4.658   1.159
 4467SOL    HW114300   5.134   4.704   1.247
 4467SOL    HW214301   5.147   4.726   1.085
 4468SOL     OW14302   1.773   3.205   0.756
 4468SOL    HW114303   1.777   3.218   0.657
 4468SOL    HW214304   1.678   3.205   0.785
 4469SOL     OW14305   1.886   5.827   1.860
 4469SOL    HW114306   1.828   5.843   1.780
 4469SOL    HW214307   1.830   5.832   1.943
 4470SOL     OW14308   0.903   7.015   2.855
 4470SOL    HW114309   0.949   6.942   2.906
 4470SOL    HW214310   0.968   0.028   2.791
 4471SOL     OW14311   1.026   0.856   6.787
 4471SOL    HW114312   1.075   0.772   6.811
 4471SOL    HW214313   0.930   0.846   6.812
 4472SOL     OW14314   1.623   2.749   0.613
 4472SOL    HW114315   1.570   2.834   0.618
 4472SOL    HW214316   1.562   2.672   0.598
 4473SOL     OW14317   0.186   2.399   5.128
 4473SOL    HW114318   0.208   2.455   5.048
 4473SOL    HW214319   0.088   2.404   5.146
 4474SOL     OW14320   2.432   6.597   1.269
 4474SOL    HW114321   2.393   6.601   1.177
 4474SOL    HW214322   2.474   6.507   1.283
 4475SOL     OW14323   0.709   3.555   0.651
 4475SOL    HW114324   0.637   3.575   0.586
 4475SOL    HW214325   0.672   3.557   0.744
 4476SOL     OW14326   4.928   0.709   3.639
 4476SOL    HW114327   4.900   0.736   3.547
 4476SOL    HW214328   4.915   0.611   3.651
 4477SOL     OW14329   0.290   1.394   4.503
 4477SOL    HW114330   0.337   1.308   4.487
 4477SOL    HW214331   0.348   1.470   4.472
 4478SOL     OW14332   1.133   0.726   2.415
 4478SOL    HW114333   1.198   0.749   2.486
 4478SOL    HW214334   1.174   0.659   2.353
 4479SOL     OW14335   2.661   3.056   7.005
 4479SOL    HW114336   2.593   3.103   0.032
 4479SOL    HW214337   2.615   3.005   6.932
 4480SOL     OW14338   6.755   0.061   3.064
 4480SOL    HW114339   6.664   0.022   3.054
 4480SOL    HW214340   6.779   0.066   3.161
 4481SOL     OW14341   2.319   3.752   6.165
 4481SOL    HW114342   2.327   3.653   6.157
 4481SOL    HW214343   2.407   3.794   6.140
 4482SOL     OW14344   2.560   0.080   1.469
 4482SOL    HW114345   2.568   7.022   1.418
 4482SOL    HW214346   2.618   0.076   1.550
 4483SOL     OW14347   0.638   3.190   1.082
 4483SOL    HW114348   0.646   3.234   1.172
 4483SOL    HW214349   0.574   3.243   1.025
 4484SOL     OW14350   3.862   0.554   0.964
 4484SOL    HW114351   3.934   0.546   0.895
 4484SOL    HW214352   3.797   0.625   0.935
 4485SOL     OW14353   0.188   2.949   5.222
 4485SOL    HW114354   0.114   2.959   5.288
 4485SOL    HW214355   0.254   3.024   5.235
 4486SOL     OW14356   5.153   4.820   3.853
 4486SOL    HW114357   5.088   4.890   3.825
 4486SOL    HW214358   5.118   4.770   3.933
 4487SOL     OW14359   0.244   2.587   6.552
 4487SOL    HW114360   0.161   2.639   6.531
 4487SOL    HW214361   0.299   2.637   6.619
 4488SOL     OW14362   5.664   4.820   3.895
 4488SOL    HW114363   5.717   4.862   3.821
 4488SOL    HW214364   5.636   4.890   3.960
 4489SOL     OW14365   3.612   6.067   6.262
 4489SOL    HW114366   3.547   5.994   6.240
 4489SOL    HW214367   3.627   6.123   6.181
 4490SOL     OW14368   5.579   1.835   2.201
 4490SOL    HW114369   5.607   1.904   2.268
 4490SOL    HW214370   5.480   1.821   2.206
 4491SOL     OW14371   0.347   4.283   2.791
 4491SOL    HW114372   0.428   4.230   2.767
 4491SOL    HW214373   0.349   4.306   2.888
 4492SOL     OW14374   6.806   1.328   2.177
 4492SOL    HW114375   6.843   1.275   2.101
 4492SOL    HW214376   6.877   1.341   2.246
 4493SOL     OW14377   5.316   1.271   6.122
 4493SOL    HW114378   5.401   1.249   6.171
 4493SOL    HW214379   5.338   1.293   6.027
 4494SOL     OW14380   1.430   1.709   2.552
 4494SOL    HW114381   1.443   1.803   2.585
 4494SOL    HW214382   1.517   1.660   2.556
 4495SOL     OW14383   3.987   6.358   1.130
 4495SOL    HW114384   3.920   6.349   1.204
 4495SOL    HW214385   4.033   6.270   1.116
 4496SOL     OW14386   2.167   5.051   5.732
 4496SOL    HW114387   2.090   5.002   5.692
 4496SOL    HW214388   2.180   5.138   5.683
 4497SOL     OW14389   4.291   6.944   5.516
 4497SOL    HW114390   4.230   7.014   5.551
 4497SOL    HW214391   4.248   6.899   5.437
 4498SOL     OW14392   1.675   4.632   4.347
 4498SOL    HW114393   1.759   4.588   4.316
 4498SOL    HW214394   1.683   4.731   4.334
 4499SOL     OW14395   5.664   2.197   2.185
 4499SOL    HW114396   5.733   2.181   2.114
 4499SOL    HW214397   5.651   2.114   2.239
 4500SOL     OW14398   3.324   6.872   0.046
 4500SOL    HW114399   3.237   6.904   0.008
 4500SOL    HW214400   3.370   6.813   7.009
 4501SOL     OW14401   5.978   0.184   2.913
 4501SOL    HW114402   6.040   0.172   2.991
 4501SOL    HW214403   5.945   0.095   2.883
 4502SOL     OW14404   1.265   4.128   0.003
 4502SOL    HW114405   1.194   4.088   0.061
 4502SOL    HW214406   1.264   4.084   6.942
 4503SOL     OW14407   3.669   1.341   3.001
 4503SOL    HW114408   3.730   1.266   3.026
 4503SOL    HW214409   3.628   1.321   2.912
 4504SOL     OW14410   1.243   2.441   3.862
 4504SOL    HW114411   1.240   2.519   3.924
 4504SOL    HW214412   1.151   2.418   3.832
 4505SOL     OW14413   6.809   3.370   3.334
 4505SOL    HW114414   6.796   3.451   3.392
 4505SOL    HW214415   6.864   3.302   3.382
 4506SOL     OW14416   4.360   3.936   0.180
 4506SOL    HW114417   4.276   3.989   0.192
 4506SOL    HW214418   4.353   3.850   0.231
 4507SOL     OW14419   6.206   2.618   3.020
 4507SOL    HW114420   6.155   2.563   2.954
 4507SOL    HW214421   6.173   2.599   3.112
 4508SOL     OW14422   5.744   5.236   0.191
 4508SOL    HW114423   5.836   5.223   0.153
 4508SOL    HW214424   5.713   5.151   0.233
 4509SOL     OW14425   4.634   2.013   2.803
 4509SOL    HW114426   4.564   2.066   2.755
 4509SOL    HW214427   4.623   1.916   2.780
 4510SOL     OW14428   4.917   1.891   3.744
 4510SOL    HW114429   4.843   1.862   3.683
 4510SOL    HW214430   4.881   1.899   3.837
 4511SOL     OW14431   0.698   4.567   6.743
 4511SOL    HW114432   0.735   4.601   6.656
 4511SOL    HW214433   0.756   4.599   6.818
 4512SOL     OW14434   2.803   3.770   5.700
 4512SOL    HW114435   2.755   3.735   5.620
 4512SOL    HW214436   2.897   3.737   5.700
 4513SOL     OW14437   0.635   1.139   1.286
 4513SOL    HW114438   0.598   1.199   1.356
 4513SOL    HW214439   0.613   1.176   1.195
 4514SOL     OW14440   4.701   4.427   6.821
 4514SOL    HW114441   4.787   4.407   6.869
 4514SOL    HW214442   4.625   4.419   6.885
 4515SOL     OW14443   4.373   0.160   5.794
 4515SOL    HW114444   4.451   0.098   5.784
 4515SOL    HW214445   4.381   0.235   5.729
 4516SOL     OW14446   3.492   1.706   5.368
 4516SOL    HW114447   3.500   1.779   5.436
 4516SOL    HW214448   3.483   1.747   5.276
 4517SOL     OW14449   3.649   0.421   3.986
 4517SOL    HW114450   3.703   0.375   4.056
 4517SOL    HW214451   3.592   0.492   4.028
 4518SOL     OW14452   6.943   0.232   0.806
 4518SOL    HW114453   6.859   0.212   0.857
 4518SOL    HW214454   6.981   0.147   0.770
 4519SOL     OW14455   5.139   0.136   6.423
 4519SOL    HW114456   5.195   0.216   6.445
 4519SOL    HW214457   5.145   0.117   6.325
 4520SOL     OW14458   4.653   5.373   4.828
 4520SOL    HW114459   4.682   5.365   4.733
 4520SOL    HW214460   4.707   5.312   4.886
 4521SOL     OW14461   4.478   2.482   4.363
 4521SOL    HW114462   4.437   2.392   4.351
 4521SOL    HW214463   4.485   2.527   4.274
 4522SOL     OW14464   5.711   4.059   3.180
 4522SOL    HW114465   5.734   3.987   3.115
 4522SOL    HW214466   5.711   4.021   3.273
 4523SOL     OW14467   0.345   2.760   6.992
 4523SOL    HW114468   0.282   2.837   6.982
 4523SOL    HW214469   0.421   2.787   0.023
 4524SOL     OW14470   2.145   3.764   1.894
 4524SOL    HW114471   2.145   3.676   1.942
 4524SOL    HW214472   2.233   3.809   1.905
 4525SOL     OW14473   3.516   1.393   5.868
 4525SOL    HW114474   3.464   1.313   5.900
 4525SOL    HW214475   3.593   1.410   5.930
 4526SOL     OW14476   0.910   6.814   5.443
 4526SOL    HW114477   0.981   6.885   5.437
 4526SOL    HW214478   0.826   6.855   5.478
 4527SOL     OW14479   0.819   2.474   2.271
 4527SOL    HW114480   0.897   2.448   2.328
 4527SOL    HW214481   0.811   2.411   2.194
 4528SOL     OW14482   5.780   1.895   4.652
 4528SOL    HW114483   5.702   1.836   4.673
 4528SOL    HW214484   5.827   1.918   4.737
 4529SOL     OW14485   1.620   2.744   3.970
 4529SOL    HW114486   1.608   2.725   4.068
 4529SOL    HW214487   1.623   2.658   3.919
 4530SOL     OW14488   3.929   4.516   6.056
 4530SOL    HW114489   3.949   4.447   5.987
 4530SOL    HW214490   3.991   4.503   6.134
 4531SOL     OW14491   1.725   6.708   5.333
 4531SOL    HW114492   1.630   6.681   5.317
 4531SOL    HW214493   1.729   6.804   5.360
 4532SOL     OW14494   5.620   1.175   2.231
 4532SOL    HW114495   5.570   1.237   2.291
 4532SOL    HW214496   5.609   1.204   2.136
 4533SOL     OW14497   2.847   5.446   1.337
 4533SOL    HW114498   2.771   5.501   1.301
 4533SOL    HW214499   2.830   5.350   1.316
 4534SOL     OW14500   5.813   1.533   4.402
 4534SOL    HW114501   5.824   1.434   4.397
 4534SOL    HW214502   5.838   1.564   4.494
 4535SOL     OW14503   1.707   0.046   0.438
 4535SOL    HW114504   1.669   6.982   0.435
 4535SOL    HW214505   1.643   0.107   0.483
 4536SOL     OW14506   3.779   0.647   5.451
 4536SOL    HW114507   3.715   0.717   5.418
 4536SOL    HW214508   3.731   0.559   5.458
 4537SOL     OW14509   3.308   3.723   3.491
 4537SOL    HW114510   3.219   3.759   3.518
 4537SOL    HW214511   3.378   3.793   3.506
 4538SOL     OW14512   1.119   2.972   0.374
 4538SOL    HW114513   1.201   2.916   0.376
 4538SOL    HW214514   1.134   3.054   0.429
 4539SOL     OW14515   0.840   4.782   5.009
 4539SOL    HW114516   0.789   4.865   4.989
 4539SOL    HW214517   0.921   4.778   4.950
 4540SOL     OW14518   2.095   2.139   0.542
 4540SOL    HW114519   2.180   2.092   0.567
 4540SOL    HW214520   2.098   2.162   0.444
 4541SOL     OW14521   4.120   2.960   0.250
 4541SOL    HW114522   4.037   2.953   0.306
 4541SOL    HW214523   4.097   2.944   0.154
 4542SOL     OW14524   6.831   1.570   0.244
 4542SOL    HW114525   6.870   1.521   0.322
 4542SOL    HW214526   6.876   1.659   0.234
 4543SOL     OW14527   4.171   1.086   0.963
 4543SOL    HW114528   4.128   0.997   0.978
 4543SOL    HW214529   4.211   1.089   0.871
 4544SOL     OW14530   4.893   5.993   0.298
 4544SOL    HW114531   4.981   5.947   0.281
 4544SOL    HW214532   4.878   6.063   0.228
 4545SOL     OW14533   3.113   3.326   5.524
 4545SOL    HW114534   3.171   3.311   5.444
 4545SOL    HW214535   3.020   3.349   5.495
 4546SOL     OW14536   4.657   6.619   5.629
 4546SOL    HW114537   4.715   6.692   5.592
 4546SOL    HW214538   4.637   6.639   5.725
 4547SOL     OW14539   6.768   1.252   0.250
 4547SOL    HW114540   6.770   1.343   0.292
 4547SOL    HW214541   6.684   1.242   0.197
 4548SOL     OW14542   3.222   1.318   1.929
 4548SOL    HW114543   3.291   1.381   1.893
 4548SOL    HW214544   3.133   1.364   1.932
 4549SOL     OW14545   6.875   4.860   3.724
 4549SOL    HW114546   6.824   4.925   3.667
 4549SOL    HW214547   6.973   4.871   3.708
 4550SOL     OW14548   2.626   5.619   0.009
 4550SOL    HW114549   2.551   5.559   0.036
 4550SOL    HW214550   2.635   5.693   0.076
 4551SOL     OW14551   3.760   3.101   5.891
 4551SOL    HW114552   3.838   3.131   5.946
 4551SOL    HW214553   3.789   3.094   5.795
 4552SOL     OW14554   4.798   0.518   0.081
 4552SOL    HW114555   4.707   0.526   0.041
 4552SOL    HW214556   4.834   0.609   0.101
 4553SOL     OW14557   0.324   0.091   0.518
 4553SOL    HW114558   0.308   0.055   0.610
 4553SOL    HW214559   0.281   0.181   0.509
 4554SOL     OW14560   5.665   6.341   2.734
 4554SOL    HW114561   5.657   6.245   2.707
 4554SOL    HW214562   5.678   6.398   2.652
 4555SOL     OW14563   0.380   0.069   3.045
 4555SOL    HW114564   0.410   0.161   3.022
 4555SOL    HW214565   0.456   0.005   3.037
 4556SOL     OW14566   5.054   4.267   4.953
 4556SOL    HW114567   5.013   4.276   4.862
 4556SOL    HW214568   5.062   4.357   4.996
 4557SOL     OW14569   0.114   5.402   4.769
 4557SOL    HW114570   0.122   5.303   4.782
 4557SOL    HW214571   0.108   5.447   4.858
 4558SOL     OW14572   1.026   4.369   3.718
 4558SOL    HW114573   0.970   4.434   3.667
 4558SOL    HW214574   0.982   4.347   3.805
 4559SOL     OW14575   0.272   3.655   4.303
 4559SOL    HW114576   0.247   3.578   4.361
 4559SOL    HW214577   0.372   3.659   4.294
 4560SOL     OW14578   6.914   3.861   3.372
 4560SOL    HW114579   6.878   3.861   3.279
 4560SOL    HW214580   6.922   3.767   3.405
 4561SOL     OW14581   5.035   3.263   4.327
 4561SOL    HW114582   5.112   3.284   4.387
 4561SOL    HW214583   4.977   3.343   4.318
 4562SOL     OW14584   4.656   1.114   0.990
 4562SOL    HW114585   4.610   1.044   1.043
 4562SOL    HW214586   4.711   1.171   1.050
 4563SOL     OW14587   0.893   4.209   1.874
 4563SOL    HW114588   0.896   4.196   1.973
 4563SOL    HW214589   0.938   4.295   1.850
 4564SOL     OW14590   2.099   3.608   2.233
 4564SOL    HW114591   2.145   3.580   2.149
 4564SOL    HW214592   2.087   3.707   2.233
 4565SOL     OW14593   1.975   6.509   4.773
 4565SOL    HW114594   1.996   6.587   4.832
 4565SOL    HW214595   1.913   6.447   4.820
 4566SOL     OW14596   6.969   4.772   3.143
 4566SOL    HW114597   6.927   4.772   3.052
 4566SOL    HW214598   6.972   4.866   3.177
 4567SOL     OW14599   1.022   0.176   0.425
 4567SOL    HW114600   0.922   0.177   0.422
 4567SOL    HW214601   1.059   0.197   0.335
 4568SOL     OW14602   0.116   4.348   3.800
 4568SOL    HW114603   0.138   4.379   3.708
 4568SOL    HW214604   0.056   4.415   3.844
 4569SOL     OW14605   0.450   2.749   3.782
 4569SOL    HW114606   0.398   2.664   3.775
 4569SOL    HW214607   0.469   2.784   3.690
 4570SOL     OW14608   5.041   6.318   1.571
 4570SOL    HW114609   5.104   6.243   1.592
 4570SOL    HW214610   4.947   6.290   1.593
 4571SOL     OW14611   1.979   2.478   5.036
 4571SOL    HW114612   1.973   2.477   5.136
 4571SOL    HW214613   1.950   2.389   5.000
 4572SOL     OW14614   4.790   3.427   1.690
 4572SOL    HW114615   4.764   3.501   1.629
 4572SOL    HW214616   4.723   3.353   1.684
 4573SOL     OW14617   2.007   5.200   0.996
 4573SOL    HW114618   1.989   5.238   1.086
 4573SOL    HW214619   1.991   5.102   0.996
 4574SOL     OW14620   5.207   0.503   1.758
 4574SOL    HW114621   5.303   0.475   1.761
 4574SOL    HW214622   5.182   0.546   1.845
 4575SOL     OW14623   0.161   1.804   5.225
 4575SOL    HW114624   0.064   1.799   5.203
 4575SOL    HW214625   0.214   1.760   5.153
 4576SOL     OW14626   2.835   3.725   6.727
 4576SOL    HW114627   2.740   3.759   6.732
 4576SOL    HW214628   2.867   3.732   6.633
 4577SOL     OW14629   0.553   2.293   1.978
 4577SOL    HW114630   0.475   2.352   1.956
 4577SOL    HW214631   0.584   2.248   1.894
 4578SOL     OW14632   1.436   0.618   3.251
 4578SOL    HW114633   1.368   0.603   3.179
 4578SOL    HW214634   1.512   0.554   3.238
 4579SOL     OW14635   4.256   0.791   2.667
 4579SOL    HW114636   4.236   0.694   2.677
 4579SOL    HW214637   4.250   0.835   2.757
 4580SOL     OW14638   1.035   0.367   1.615
 4580SOL    HW114639   1.067   0.429   1.544
 4580SOL    HW214640   0.970   0.414   1.674
 4581SOL     OW14641   3.139   0.689   1.596
 4581SOL    HW114642   3.060   0.695   1.535
 4581SOL    HW214643   3.109   0.694   1.691
 4582SOL     OW14644   5.826   0.920   4.569
 4582SOL    HW114645   5.771   0.868   4.504
 4582SOL    HW214646   5.901   0.863   4.603
 4583SOL     OW14647   1.924   6.148   6.754
 4583SOL    HW114648   1.958   6.110   6.840
 4583SOL    HW214649   1.960   6.241   6.742
 4584SOL     OW14650   7.025   1.098   4.558
 4584SOL    HW114651   0.055   1.027   4.518
 4584SOL    HW214652   7.013   1.172   4.492
 4585SOL     OW14653   0.886   2.871   2.784
 4585SOL    HW114654   0.792   2.840   2.771
 4585SOL    HW214655   0.924   2.830   2.867
 4586SOL     OW14656   6.998   5.077   5.774
 4586SOL    HW114657   6.967   5.015   5.702
 4586SOL    HW214658   0.027   5.026   5.838
 4587SOL     OW14659   4.391   3.218   6.354
 4587SOL    HW114660   4.336   3.301   6.356
 4587SOL    HW214661   4.412   3.190   6.448
 4588SOL     OW14662   2.265   4.697   6.553
 4588SOL    HW114663   2.268   4.794   6.528
 4588SOL    HW214664   2.296   4.642   6.475
 4589SOL     OW14665   4.718   5.982   2.122
 4589SOL    HW114666   4.648   5.935   2.068
 4589SOL    HW214667   4.675   6.051   2.180
 4590SOL     OW14668   2.257   4.973   1.683
 4590SOL    HW114669   2.316   5.021   1.748
 4590SOL    HW214670   2.303   4.891   1.650
 4591SOL     OW14671   2.244   1.734   4.925
 4591SOL    HW114672   2.249   1.665   4.997
 4591SOL    HW214673   2.219   1.690   4.838
 4592SOL     OW14674   2.691   2.442   3.167
 4592SOL    HW114675   2.614   2.380   3.185
 4592SOL    HW214676   2.777   2.395   3.186
 4593SOL     OW14677   1.536   5.812   4.743
 4593SOL    HW114678   1.500   5.794   4.835
 4593SOL    HW214679   1.475   5.875   4.695
 4594SOL     OW14680   0.909   6.406   3.873
 4594SOL    HW114681   0.939   6.461   3.950
 4594SOL    HW214682   0.816   6.372   3.890
 4595SOL     OW14683   5.702   1.962   6.646
 4595SOL    HW114684   5.749   1.952   6.734
 4595SOL    HW214685   5.760   1.928   6.573
 4596SOL     OW14686   0.569   1.623   2.750
 4596SOL    HW114687   0.494   1.558   2.768
 4596SOL    HW214688   0.534   1.699   2.695
 4597SOL     OW14689   1.921   5.526   0.575
 4597SOL    HW114690   1.884   5.618   0.566
 4597SOL    HW214691   1.885   5.468   0.501
 4598SOL     OW14692   0.512   2.851   0.151
 4598SOL    HW114693   0.438   2.915   0.170
 4598SOL    HW214694   0.595   2.881   0.200
 4599SOL     OW14695   3.282   6.447   3.440
 4599SOL    HW114696   3.306   6.514   3.510
 4599SOL    HW214697   3.307   6.356   3.470
 4600SOL     OW14698   0.684   6.755   5.946
 4600SOL    HW114699   0.727   6.806   6.021
 4600SOL    HW214700   0.755   6.718   5.886
 4601SOL     OW14701   1.934   0.710   5.104
 4601SOL    HW114702   1.907   0.693   5.199
 4601SOL    HW214703   1.924   0.807   5.083
 4602SOL     OW14704   4.335   0.523   6.299
 4602SOL    HW114705   4.331   0.472   6.213
 4602SOL    HW214706   4.426   0.561   6.312
 4603SOL     OW14707   4.578   6.770   1.146
 4603SOL    HW114708   4.484   6.803   1.159
 4603SOL    HW214709   4.600   6.773   1.048
 4604SOL     OW14710   0.681   6.332   3.494
 4604SOL    HW114711   0.700   6.349   3.397
 4604SOL    HW214712   0.764   6.347   3.547
 4605SOL     OW14713   4.775   1.543   1.866
 4605SOL    HW114714   4.831   1.523   1.786
 4605SOL    HW214715   4.806   1.487   1.943
 4606SOL     OW14716   6.978   0.053   4.592
 4606SOL    HW114717   6.922   0.001   4.656
 4606SOL    HW214718   6.974   0.150   4.616
 4607SOL     OW14719   2.823   1.778   0.956
 4607SOL    HW114720   2.770   1.859   0.929
 4607SOL    HW214721   2.918   1.805   0.973
 4608SOL     OW14722   0.599   2.071   5.611
 4608SOL    HW114723   0.673   2.093   5.674
 4608SOL    HW214724   0.526   2.138   5.619
 4609SOL     OW14725   6.289   5.143   6.150
 4609SOL    HW114726   6.376   5.193   6.143
 4609SOL    HW214727   6.220   5.201   6.193
 4610SOL     OW14728   5.266   4.095   6.556
 4610SOL    HW114729   5.340   4.155   6.585
 4610SOL    HW214730   5.240   4.117   6.462
 4611SOL     OW14731   6.996   0.278   6.089
 4611SOL    HW114732   6.957   0.278   6.181
 4611SOL    HW214733   0.039   0.347   6.082
 4612SOL     OW14734   1.661   0.889   2.705
 4612SOL    HW114735   1.617   0.970   2.667
 4612SOL    HW214736   1.709   0.914   2.789
 4613SOL     OW14737   1.772   4.892   3.393
 4613SOL    HW114738   1.846   4.958   3.404
 4613SOL    HW214739   1.685   4.938   3.411
 4614SOL     OW14740   7.025   5.025   2.423
 4614SOL    HW114741   0.065   5.096   2.436
 4614SOL    HW214742   0.034   4.936   2.446
 4615SOL     OW14743   0.817   4.656   6.966
 4615SOL    HW114744   0.798   4.632   0.032
 4615SOL    HW214745   0.910   4.694   6.959
 4616SOL     OW14746   1.473   4.103   6.351
 4616SOL    HW114747   1.403   4.175   6.345
 4616SOL    HW214748   1.445   4.034   6.417
 4617SOL     OW14749   0.558   4.180   4.198
 4617SOL    HW114750   0.649   4.207   4.229
 4617SOL    HW214751   0.554   4.182   4.098
 4618SOL     OW14752   2.054   4.230   5.221
 4618SOL    HW114753   2.040   4.135   5.248
 4618SOL    HW214754   2.151   4.247   5.206
 4619SOL     OW14755   4.248   5.876   6.741
 4619SOL    HW114756   4.247   5.884   6.841
 4619SOL    HW214757   4.167   5.826   6.711
 4620SOL     OW14758   1.407   4.339   1.805
 4620SOL    HW114759   1.405   4.402   1.883
 4620SOL    HW214760   1.313   4.320   1.776
 4621SOL     OW14761   2.871   0.155   2.955
 4621SOL    HW114762   2.968   0.165   2.977
 4621SOL    HW214763   2.829   0.245   2.945
 4622SOL     OW14764   6.283   0.253   0.285
 4622SOL    HW114765   6.374   0.224   0.256
 4622SOL    HW214766   6.239   0.177   0.334
 4623SOL     OW14767   2.866   4.784   2.873
 4623SOL    HW114768   2.827   4.709   2.927
 4623SOL    HW214769   2.801   4.860   2.871
 4624SOL     OW14770   5.531   1.861   0.643
 4624SOL    HW114771   5.592   1.912   0.582
 4624SOL    HW214772   5.538   1.763   0.623
 4625SOL     OW14773   0.649   6.414   2.096
 4625SOL    HW114774   0.705   6.392   2.015
 4625SOL    HW214775   0.699   6.476   2.156
 4626SOL     OW14776   4.145   3.793   2.097
 4626SOL    HW114777   4.120   3.733   2.173
 4626SOL    HW214778   4.227   3.844   2.120
 4627SOL     OW14779   5.675   6.708   4.373
 4627SOL    HW114780   5.585   6.667   4.354
 4627SOL    HW214781   5.680   6.734   4.469
 4628SOL     OW14782   6.686   4.615   3.078
 4628SOL    HW114783   6.590   4.641   3.090
 4628SOL    HW214784   6.707   4.611   2.980
 4629SOL     OW14785   1.427   5.391   1.030
 4629SOL    HW114786   1.513   5.429   0.998
 4629SOL    HW214787   1.443   5.335   1.111
 4630SOL     OW14788   1.725   3.954   1.099
 4630SOL    HW114789   1.802   3.896   1.125
 4630SOL    HW214790   1.758   4.047   1.081
 4631SOL     OW14791   6.509   1.968   2.230
 4631SOL    HW114792   6.551   1.938   2.315
 4631SOL    HW214793   6.477   1.888   2.179
 4632SOL     OW14794   3.008   4.844   3.614
 4632SOL    HW114795   2.922   4.796   3.632
 4632SOL    HW214796   2.995   4.942   3.626
 4633SOL     OW14797   5.414   3.325   3.822
 4633SOL    HW114798   5.414   3.254   3.893
 4633SOL    HW214799   5.498   3.319   3.768
 4634SOL     OW14800   3.702   3.058   5.241
 4634SOL    HW114801   3.612   3.042   5.202
 4634SOL    HW214802   3.706   3.016   5.332
 4635SOL     OW14803   4.082   0.364   2.290
 4635SOL    HW114804   4.143   0.285   2.285
 4635SOL    HW214805   4.026   0.369   2.207
 4636SOL     OW14806   1.860   5.355   6.658
 4636SOL    HW114807   1.898   5.403   6.737
 4636SOL    HW214808   1.776   5.308   6.685
 4637SOL     OW14809   1.868   2.637   2.994
 4637SOL    HW114810   1.901   2.553   3.036
 4637SOL    HW214811   1.769   2.645   3.010
 4638SOL     OW14812   4.337   4.391   6.786
 4638SOL    HW114813   4.254   4.335   6.795
 4638SOL    HW214814   4.382   4.397   6.875
 4639SOL     OW14815   4.342   2.595   1.617
 4639SOL    HW114816   4.334   2.498   1.640
 4639SOL    HW214817   4.383   2.604   1.526
 4640SOL     OW14818   0.113   2.362   0.503
 4640SOL    HW114819   0.045   2.299   0.465
 4640SOL    HW214820   0.072   2.415   0.577
 4641SOL     OW14821   1.146   5.963   4.909
 4641SOL    HW114822   1.128   6.003   5.000
 4641SOL    HW214823   1.106   5.872   4.904
 4642SOL     OW14824   5.864   1.557   6.292
 4642SOL    HW114825   5.884   1.623   6.365
 4642SOL    HW214826   5.847   1.606   6.206
 4643SOL     OW14827   0.503   2.064   0.205
 4643SOL    HW114828   0.468   1.985   0.156
 4643SOL    HW214829   0.494   2.050   0.304
 4644SOL     OW14830   1.024   1.624   0.708
 4644SOL    HW114831   0.973   1.698   0.753
 4644SOL    HW214832   1.045   1.554   0.776
 4645SOL     OW14833   5.842   2.254   5.854
 4645SOL    HW114834   5.764   2.308   5.888
 4645SOL    HW214835   5.926   2.306   5.866
 4646SOL     OW14836   1.315   4.020   2.339
 4646SOL    HW114837   1.395   3.973   2.302
 4646SOL    HW214838   1.270   3.961   2.405
 4647SOL     OW14839   2.184   6.037   2.566
 4647SOL    HW114840   2.121   6.090   2.510
 4647SOL    HW214841   2.256   6.097   2.601
 4648SOL     OW14842   2.571   0.698   4.115
 4648SOL    HW114843   2.596   0.769   4.050
 4648SOL    HW214844   2.516   0.737   4.189
 4649SOL     OW14845   4.575   3.440   0.620
 4649SOL    HW114846   4.495   3.456   0.563
 4649SOL    HW214847   4.651   3.499   0.590
 4650SOL     OW14848   3.642   5.192   0.692
 4650SOL    HW114849   3.673   5.234   0.777
 4650SOL    HW214850   3.601   5.263   0.634
 4651SOL     OW14851   1.351   3.464   0.087
 4651SOL    HW114852   1.282   3.467   0.161
 4651SOL    HW214853   1.424   3.402   0.113
 4652SOL     OW14854   0.293   0.167   5.327
 4652SOL    HW114855   0.237   0.084   5.329
 4652SOL    HW214856   0.349   0.171   5.409
 4653SOL     OW14857   0.578   6.544   0.631
 4653SOL    HW114858   0.594   6.643   0.623
 4653SOL    HW214859   0.643   6.495   0.573
 4654SOL     OW14860   0.988   1.298   5.066
 4654SOL    HW114861   0.921   1.364   5.031
 4654SOL    HW214862   1.080   1.325   5.036
 4655SOL     OW14863   5.497   5.149   2.891
 4655SOL    HW114864   5.453   5.066   2.925
 4655SOL    HW214865   5.550   5.191   2.965
 4656SOL     OW14866   5.843   0.867   1.669
 4656SOL    HW114867   5.904   0.853   1.591
 4656SOL    HW214868   5.769   0.928   1.642
 4657SOL     OW14869   3.820   1.852   2.674
 4657SOL    HW114870   3.777   1.775   2.626
 4657SOL    HW214871   3.808   1.935   2.620
 4658SOL     OW14872   1.575   1.712   0.458
 4658SOL    HW114873   1.571   1.738   0.554
 4658SOL    HW214874   1.489   1.734   0.413
 4659SOL     OW14875   2.207   4.761   0.684
 4659SOL    HW114876   2.109   4.779   0.683
 4659SOL    HW214877   2.226   4.680   0.740
 4660SOL     OW14878   0.379   5.156   4.486
 4660SOL    HW114879   0.363   5.232   4.549
 4660SOL    HW214880   0.359   5.069   4.533
 4661SOL     OW14881   0.939   0.738   5.988
 4661SOL    HW114882   1.039   0.739   5.990
 4661SOL    HW214883   0.907   0.648   5.957
 4662SOL     OW14884   2.753   0.691   5.950
 4662SOL    HW114885   2.653   0.686   5.950
 4662SOL    HW214886   2.791   0.599   5.937
 4663SOL     OW14887   0.485   0.853   1.474
 4663SOL    HW114888   0.442   0.764   1.457
 4663SOL    HW214889   0.515   0.857   1.570
 4664SOL     OW14890   5.687   6.361   4.965
 4664SOL    HW114891   5.641   6.323   5.044
 4664SOL    HW214892   5.773   6.314   4.950
 4665SOL     OW14893   0.101   1.048   3.014
 4665SOL    HW114894   0.179   0.990   2.989
 4665SOL    HW214895   0.024   1.028   2.954
 4666SOL     OW14896   1.531   2.344   5.994
 4666SOL    HW114897   1.497   2.438   5.994
 4666SOL    HW214898   1.527   2.307   5.902
 4667SOL     OW14899   6.726   2.701   1.001
 4667SOL    HW114900   6.668   2.778   0.973
 4667SOL    HW214901   6.785   2.729   1.077
 4668SOL     OW14902   4.818   1.508   5.505
 4668SOL    HW114903   4.791   1.537   5.414
 4668SOL    HW214904   4.808   1.583   5.570
 4669SOL     OW14905   5.236   6.511   6.145
 4669SOL    HW114906   5.281   6.461   6.218
 4669SOL    HW214907   5.188   6.590   6.184
 4670SOL     OW14908   0.830   2.925   0.201
 4670SOL    HW114909   0.824   2.857   0.128
 4670SOL    HW214910   0.925   2.936   0.229
 4671SOL     OW14911   6.973   1.962   1.845
 4671SOL    HW114912   6.876   1.985   1.835
 4671SOL    HW214913   7.025   2.046   1.864
 4672SOL     OW14914   3.622   3.019   0.830
 4672SOL    HW114915   3.592   2.944   0.889
 4672SOL    HW214916   3.695   2.987   0.770
 4673SOL     OW14917   5.230   0.863   1.191
 4673SOL    HW114918   5.205   0.897   1.100
 4673SOL    HW214919   5.150   0.821   1.234
 4674SOL     OW14920   0.916   3.197   0.237
 4674SOL    HW114921   0.820   3.182   0.213
 4674SOL    HW214922   0.975   3.153   0.170
 4675SOL     OW14923   2.102   6.177   0.525
 4675SOL    HW114924   2.080   6.139   0.615
 4675SOL    HW214925   2.199   6.202   0.522
 4676SOL     OW14926   1.044   5.679   4.931
 4676SOL    HW114927   1.018   5.653   4.838
 4676SOL    HW214928   1.112   5.615   4.966
 4677SOL     OW14929   4.413   0.017   6.776
 4677SOL    HW114930   4.499   0.066   6.763
 4677SOL    HW214931   4.391   6.993   6.695
 4678SOL     OW14932   2.396   4.450   0.333
 4678SOL    HW114933   2.434   4.357   0.338
 4678SOL    HW214934   2.460   4.508   0.282
 4679SOL     OW14935   2.444   0.057   5.406
 4679SOL    HW114936   2.374   7.023   5.371
 4679SOL    HW214937   2.531   0.009   5.412
 4680SOL     OW14938   1.133   5.328   6.118
 4680SOL    HW114939   1.124   5.424   6.145
 4680SOL    HW214940   1.167   5.322   6.025
 4681SOL     OW14941   6.762   5.823   5.062
 4681SOL    HW114942   6.789   5.919   5.073
 4681SOL    HW214943   6.663   5.817   5.055
 4682SOL     OW14944   3.222   0.642   0.803
 4682SOL    HW114945   3.174   0.573   0.858
 4682SOL    HW214946   3.162   0.674   0.729
 4683SOL     OW14947   0.641   4.786   3.556
 4683SOL    HW114948   0.716   4.729   3.588
 4683SOL    HW214949   0.649   4.802   3.458
 4684SOL     OW14950   1.862   1.598   4.887
 4684SOL    HW114951   1.787   1.594   4.953
 4684SOL    HW214952   1.910   1.685   4.897
 4685SOL     OW14953   5.421   4.218   3.905
 4685SOL    HW114954   5.494   4.267   3.857
 4685SOL    HW214955   5.434   4.119   3.894
 4686SOL     OW14956   5.273   5.357   6.475
 4686SOL    HW114957   5.179   5.388   6.460
 4686SOL    HW214958   5.284   5.327   6.569
 4687SOL     OW14959   4.890   0.399   4.635
 4687SOL    HW114960   4.976   0.444   4.659
 4687SOL    HW214961   4.875   0.321   4.695
 4688SOL     OW14962   6.858   1.007   1.076
 4688SOL    HW114963   6.888   1.099   1.101
 4688SOL    HW214964   6.913   0.939   1.126
 4689SOL     OW14965   1.810   5.573   4.268
 4689SOL    HW114966   1.723   5.590   4.222
 4689SOL    HW214967   1.839   5.656   4.315
 4690SOL     OW14968   2.403   1.530   0.693
 4690SOL    HW114969   2.384   1.435   0.669
 4690SOL    HW214970   2.346   1.557   0.771
 4691SOL     OW14971   3.221   4.427   0.305
 4691SOL    HW114972   3.148   4.462   0.246
 4691SOL    HW214973   3.309   4.438   0.260
 4692SOL     OW14974   1.214   5.023   3.379
 4692SOL    HW114975   1.243   5.051   3.471
 4692SOL    HW214976   1.139   4.957   3.387
 4693SOL     OW14977   0.643   1.881   2.204
 4693SOL    HW114978   0.692   1.934   2.136
 4693SOL    HW214979   0.694   1.882   2.290
 4694SOL     OW14980   1.696   1.144   5.145
 4694SOL    HW114981   1.657   1.130   5.236
 4694SOL    HW214982   1.623   1.140   5.077
 4695SOL     OW14983   3.046   3.845   3.190
 4695SOL    HW114984   3.039   3.911   3.115
 4695SOL    HW214985   2.986   3.767   3.172
 4696SOL     OW14986   6.764   2.990   0.613
 4696SOL    HW114987   6.811   2.907   0.583
 4696SOL    HW214988   6.829   3.048   0.664
 4697SOL     OW14989   1.001   5.812   6.447
 4697SOL    HW114990   1.032   5.897   6.404
 4697SOL    HW214991   0.961   5.833   6.537
 4698SOL     OW14992   5.641   3.363   2.335
 4698SOL    HW114993   5.601   3.320   2.416
 4698SOL    HW214994   5.600   3.453   2.321
 4699SOL     OW14995   6.770   7.010   3.349
 4699SOL    HW114996   6.679   0.024   3.353
 4699SOL    HW214997   6.763   6.922   3.301
 4700SOL     OW14998   4.832   6.835   6.098
 4700SOL    HW114999   4.832   6.930   6.129
 4700SOL    HW215000   4.741   6.811   6.064
 4701SOL     OW15001   2.006   0.632   6.666
 4701SOL    HW115002   1.954   0.715   6.685
 4701SOL    HW215003   1.964   0.555   6.714
 4702SOL     OW15004   3.364   2.908   1.118
 4702SOL    HW115005   3.297   2.838   1.091
 4702SOL    HW215006   3.368   2.978   1.047
 4703SOL     OW15007   0.839   6.536   2.372
 4703SOL    HW115008   0.890   6.565   2.291
 4703SOL    HW215009   0.890   6.465   2.420
 4704SOL     OW15010   4.700   6.580   6.394
 4704SOL    HW115011   4.642   6.500   6.408
 4704SOL    HW215012   4.648   6.663   6.415
 4705SOL     OW15013   3.436   2.930   4.794
 4705SOL    HW115014   3.360   2.920   4.859
 4705SOL    HW215015   3.416   2.878   4.711
 4706SOL     OW15016   5.858   3.669   0.009
 4706SOL    HW115017   5.881   3.754   0.056
 4706SOL    HW215018   5.864   3.592   0.073
 4707SOL     OW15019   2.625   4.964   0.483
 4707SOL    HW115020   2.559   4.938   0.553
 4707SOL    HW215021   2.577   4.983   0.397
 4708SOL     OW15022   1.775   3.157   2.371
 4708SOL    HW115023   1.758   3.205   2.285
 4708SOL    HW215024   1.729   3.068   2.368
 4709SOL     OW15025   2.856   4.022   0.867
 4709SOL    HW115026   2.873   3.941   0.810
 4709SOL    HW215027   2.870   4.105   0.812
 4710SOL     OW15028   4.703   3.071   1.456
 4710SOL    HW115029   4.782   3.024   1.493
 4710SOL    HW215030   4.631   3.004   1.436
 4711SOL     OW15031   2.829   6.780   3.447
 4711SOL    HW115032   2.783   6.706   3.496
 4711SOL    HW215033   2.927   6.775   3.465
 4712SOL     OW15034   1.669   3.549   0.024
 4712SOL    HW115035   1.650   3.471   6.993
 4712SOL    HW215036   1.591   3.563   0.085
 4713SOL     OW15037   0.550   5.216   1.042
 4713SOL    HW115038   0.483   5.205   0.969
 4713SOL    HW215039   0.504   5.249   1.125
 4714SOL     OW15040   4.078   2.308   1.093
 4714SOL    HW115041   4.127   2.292   1.179
 4714SOL    HW215042   4.111   2.393   1.051
 4715SOL     OW15043   4.914   3.805   4.847
 4715SOL    HW115044   4.843   3.874   4.832
 4715SOL    HW215045   4.874   3.725   4.891
 4716SOL     OW15046   2.312   5.363   6.519
 4716SOL    HW115047   2.241   5.296   6.541
 4716SOL    HW215048   2.296   5.400   6.428
 4717SOL     OW15049   2.401   5.352   4.826
 4717SOL    HW115050   2.473   5.285   4.810
 4717SOL    HW215051   2.440   5.431   4.874
 4718SOL     OW15052   5.064   6.927   0.125
 4718SOL    HW115053   5.095   6.949   0.218
 4718SOL    HW215054   5.004   6.847   0.128
 4719SOL     OW15055   4.521   3.621   1.676
 4719SOL    HW115056   4.563   3.572   1.599
 4719SOL    HW215057   4.590   3.679   1.719
 4720SOL     OW15058   2.163   1.635   2.928
 4720SOL    HW115059   2.245   1.638   2.871
 4720SOL    HW215060   2.165   1.551   2.984
 4721SOL     OW15061   1.606   1.310   1.520
 4721SOL    HW115062   1.695   1.347   1.548
 4721SOL    HW215063   1.603   1.212   1.541
 4722SOL     OW15064   2.649   0.688   2.939
 4722SOL    HW115065   2.614   0.624   3.008
 4722SOL    HW215066   2.739   0.721   2.967
 4723SOL     OW15067   3.077   6.925   5.377
 4723SOL    HW115068   3.030   6.862   5.439
 4723SOL    HW215069   3.039   6.915   5.285
 4724SOL     OW15070   4.707   5.353   1.162
 4724SOL    HW115071   4.667   5.403   1.238
 4724SOL    HW215072   4.674   5.258   1.163
 4725SOL     OW15073   6.011   5.499   3.032
 4725SOL    HW115074   5.964   5.422   3.075
 4725SOL    HW215075   5.966   5.523   2.947
 4726SOL     OW15076   0.004   6.422   4.556
 4726SOL    HW115077   0.012   6.515   4.593
 4726SOL    HW215078   6.964   6.422   4.483
 4727SOL     OW15079   5.700   6.602   1.942
 4727SOL    HW115080   5.642   6.678   1.913
 4727SOL    HW215081   5.772   6.637   2.004
 4728SOL     OW15082   6.621   0.431   6.828
 4728SOL    HW115083   6.605   0.485   6.745
 4728SOL    HW215084   6.556   0.459   6.899
 4729SOL     OW15085   3.182   1.010   1.043
 4729SOL    HW115086   3.122   1.071   0.992
 4729SOL    HW215087   3.223   1.060   1.119
 4730SOL     OW15088   1.896   0.530   6.284
 4730SOL    HW115089   1.845   0.446   6.302
 4730SOL    HW215090   1.864   0.603   6.344
 4731SOL     OW15091   4.692   1.326   5.663
 4731SOL    HW115092   4.734   1.402   5.615
 4731SOL    HW215093   4.594   1.324   5.643
 4732SOL     OW15094   0.672   6.827   0.213
 4732SOL    HW115095   0.753   6.775   0.185
 4732SOL    HW215096   0.596   6.764   0.228
 4733SOL     OW15097   6.203   3.897   3.493
 4733SOL    HW115098   6.243   3.845   3.568
 4733SOL    HW215099   6.139   3.965   3.529
 4734SOL     OW15100   6.652   3.877   5.579
 4734SOL    HW115101   6.572   3.830   5.617
 4734SOL    HW215102   6.735   3.838   5.616
 4735SOL     OW15103   0.800   4.242   3.225
 4735SOL    HW115104   0.886   4.283   3.256
 4735SOL    HW215105   0.810   4.143   3.222
 4736SOL     OW15106   1.862   0.010   2.500
 4736SOL    HW115107   1.891   6.959   2.446
 4736SOL    HW215108   1.811   0.073   2.441
 4737SOL     OW15109   3.562   5.041   2.000
 4737SOL    HW115110   3.585   4.944   1.995
 4737SOL    HW215111   3.581   5.085   1.912
 4738SOL     OW15112   1.075   0.136   2.703
 4738SOL    HW115113   1.164   0.092   2.688
 4738SOL    HW215114   1.078   0.229   2.666
 4739SOL     OW15115   3.849   0.534   1.544
 4739SOL    HW115116   3.757   0.499   1.525
 4739SOL    HW215117   3.846   0.634   1.547
 4740SOL     OW15118   0.792   1.845   4.079
 4740SOL    HW115119   0.789   1.755   4.124
 4740SOL    HW215120   0.830   1.835   3.988
 4741SOL     OW15121   3.818   3.905   3.076
 4741SOL    HW115122   3.734   3.949   3.044
 4741SOL    HW215123   3.811   3.884   3.173
 4742SOL     OW15124   5.248   1.179   2.401
 4742SOL    HW115125   5.325   1.237   2.373
 4742SOL    HW215126   5.221   1.203   2.494
 4743SOL     OW15127   1.066   5.150   1.074
 4743SOL    HW115128   1.157   5.111   1.087
 4743SOL    HW215129   1.055   5.230   1.134
 4744SOL     OW15130   1.795   5.534   1.576
 4744SOL    HW115131   1.871   5.542   1.640
 4744SOL    HW215132   1.805   5.602   1.503
 4745SOL     OW15133   1.709   3.126   0.187
 4745SOL    HW115134   1.704   3.042   0.241
 4745SOL    HW215135   1.750   3.106   0.098
 4746SOL     OW15136   5.293   5.600   4.631
 4746SOL    HW115137   5.290   5.528   4.700
 4746SOL    HW215138   5.205   5.608   4.586
 4747SOL     OW15139   4.184   0.958   0.658
 4747SOL    HW115140   4.099   0.988   0.702
 4747SOL    HW215141   4.162   0.919   0.569
 4748SOL     OW15142   2.101   6.541   3.488
 4748SOL    HW115143   2.184   6.517   3.539
 4748SOL    HW215144   2.107   6.504   3.396
 4749SOL     OW15145   2.139   1.146   1.017
 4749SOL    HW115146   2.217   1.099   0.976
 4749SOL    HW215147   2.063   1.082   1.028
 4750SOL     OW15148   5.288   3.332   6.792
 4750SOL    HW115149   5.222   3.407   6.795
 4750SOL    HW215150   5.314   3.314   6.697
 4751SOL     OW15151   4.343   1.252   2.611
 4751SOL    HW115152   4.314   1.345   2.630
 4751SOL    HW215153   4.280   1.209   2.546
 4752SOL     OW15154   5.800   0.483   6.935
 4752SOL    HW115155   5.898   0.465   6.937
 4752SOL    HW215156   5.754   0.416   6.877
 4753SOL     OW15157   2.715   5.721   5.349
 4753SOL    HW115158   2.632   5.769   5.377
 4753SOL    HW215159   2.697   5.622   5.352
 4754SOL     OW15160   5.469   4.586   0.174
 4754SOL    HW115161   5.532   4.566   0.250
 4754SOL    HW215162   5.521   4.593   0.089
 4755SOL     OW15163   0.243   0.941   1.359
 4755SOL    HW115164   0.338   0.910   1.367
 4755SOL    HW215165   0.239   1.040   1.368
 4756SOL     OW15166   0.022   3.976   5.143
 4756SOL    HW115167   0.015   3.895   5.085
 4756SOL    HW215168   0.092   4.037   5.107
 4757SOL     OW15169   2.289   3.009   0.914
 4757SOL    HW115170   2.256   2.927   0.868
 4757SOL    HW215171   2.336   3.068   0.848
 4758SOL     OW15172   2.080   4.816   2.136
 4758SOL    HW115173   2.161   4.831   2.192
 4758SOL    HW215174   2.073   4.889   2.068
 4759SOL     OW15175   0.614   6.735   2.612
 4759SOL    HW115176   0.633   6.830   2.588
 4759SOL    HW215177   0.580   6.686   2.531
 4760SOL     OW15178   1.149   6.868   1.969
 4760SOL    HW115179   1.248   6.860   1.983
 4760SOL    HW215180   1.102   6.851   2.056
 4761SOL     OW15181   4.583   6.302   2.069
 4761SOL    HW115182   4.637   6.333   2.147
 4761SOL    HW215183   4.516   6.372   2.045
 4762SOL     OW15184   0.852   1.182   2.359
 4762SOL    HW115185   0.891   1.271   2.335
 4762SOL    HW215186   0.757   1.178   2.330
 4763SOL     OW15187   5.155   5.282   1.469
 4763SOL    HW115188   5.079   5.216   1.474
 4763SOL    HW215189   5.137   5.347   1.396
 4764SOL     OW15190   4.927   2.888   6.313
 4764SOL    HW115191   4.855   2.928   6.369
 4764SOL    HW215192   4.919   2.921   6.219
 4765SOL     OW15193   3.631   0.985   6.119
 4765SOL    HW115194   3.705   0.991   6.186
 4765SOL    HW215195   3.653   0.913   6.053
 4766SOL     OW15196   1.122   0.885   4.222
 4766SOL    HW115197   1.023   0.901   4.216
 4766SOL    HW215198   1.167   0.921   4.141
 4767SOL     OW15199   2.627   4.761   3.460
 4767SOL    HW115200   2.638   4.720   3.369
 4767SOL    HW215201   2.540   4.730   3.499
 4768SOL     OW15202   4.610   1.920   6.296
 4768SOL    HW115203   4.616   2.013   6.331
 4768SOL    HW215204   4.695   1.895   6.251
 4769SOL     OW15205   2.454   3.278   0.438
 4769SOL    HW115206   2.366   3.270   0.391
 4769SOL    HW215207   2.517   3.209   0.404
 4770SOL     OW15208   6.568   1.827   3.932
 4770SOL    HW115209   6.554   1.828   3.833
 4770SOL    HW215210   6.635   1.757   3.956
 4771SOL     OW15211   3.039   0.744   4.441
 4771SOL    HW115212   3.046   0.842   4.424
 4771SOL    HW215213   2.971   0.705   4.379
 4772SOL     OW15214   2.662   4.978   2.885
 4772SOL    HW115215   2.618   5.006   2.970
 4772SOL    HW215216   2.695   5.058   2.836
 4773SOL     OW15217   3.006   5.281   4.266
 4773SOL    HW115218   3.100   5.256   4.241
 4773SOL    HW215219   2.945   5.259   4.190
 4774SOL     OW15220   0.891   4.877   0.747
 4774SOL    HW115221   0.922   4.942   0.678
 4774SOL    HW215222   0.919   4.908   0.838
 4775SOL     OW15223   5.834   5.072   4.495
 4775SOL    HW115224   5.777   5.056   4.415
 4775SOL    HW215225   5.920   5.021   4.486
 4776SOL     OW15226   6.937   1.782   5.125
 4776SOL    HW115227   6.957   1.685   5.114
 4776SOL    HW215228   6.920   1.823   5.035
 4777SOL     OW15229   1.759   6.667   3.805
 4777SOL    HW115230   1.774   6.751   3.856
 4777SOL    HW215231   1.728   6.595   3.868
 4778SOL     OW15232   1.581   6.854   0.678
 4778SOL    HW115233   1.508   6.917   0.651
 4778SOL    HW215234   1.633   6.894   0.754
 4779SOL     OW15235   4.683   1.867   4.635
 4779SOL    HW115236   4.734   1.927   4.574
 4779SOL    HW215237   4.701   1.771   4.611
 4780SOL     OW15238   4.904   2.779   4.974
 4780SOL    HW115239   4.929   2.869   5.009
 4780SOL    HW215240   4.816   2.785   4.927
 4781SOL     OW15241   2.404   5.166   2.290
 4781SOL    HW115242   2.338   5.238   2.311
 4781SOL    HW215243   2.466   5.196   2.218
 4782SOL     OW15244   1.153   6.186   3.324
 4782SOL    HW115245   1.182   6.281   3.312
 4782SOL    HW215246   1.232   6.126   3.310
 4783SOL     OW15247   0.964   4.101   0.002
 4783SOL    HW115248   0.977   4.197   7.004
 4783SOL    HW215249   0.875   4.090   0.045
 4784SOL     OW15250   6.073   2.856   0.213
 4784SOL    HW115251   6.115   2.769   0.190
 4784SOL    HW215252   5.981   2.840   0.250
 4785SOL     OW15253   6.856   0.602   4.013
 4785SOL    HW115254   6.887   0.526   3.956
 4785SOL    HW215255   6.763   0.626   3.988
 4786SOL     OW15256   1.894   5.875   0.240
 4786SOL    HW115257   1.904   5.961   0.190
 4786SOL    HW215258   1.822   5.820   0.198
 4787SOL     OW15259   5.224   1.145   4.964
 4787SOL    HW115260   5.288   1.206   4.916
 4787SOL    HW215261   5.145   1.127   4.906
 4788SOL     OW15262   6.597   6.381   1.093
 4788SOL    HW115263   6.696   6.386   1.096
 4788SOL    HW215264   6.567   6.370   0.998
 4789SOL     OW15265   6.304   1.382   2.594
 4789SOL    HW115266   6.248   1.330   2.530
 4789SOL    HW215267   6.385   1.418   2.546
 4790SOL     OW15268   0.191   2.488   5.670
 4790SOL    HW115269   0.094   2.495   5.696
 4790SOL    HW215270   0.199   2.495   5.570
 4791SOL     OW15271   0.465   0.440   6.907
 4791SOL    HW115272   0.467   0.535   6.940
 4791SOL    HW215273   0.447   0.379   6.984
 4792SOL     OW15274   0.323   3.577   1.382
 4792SOL    HW115275   0.259   3.502   1.366
 4792SOL    HW215276   0.342   3.584   1.480
 4793SOL     OW15277   0.963   2.956   5.275
 4793SOL    HW115278   0.896   2.977   5.204
 4793SOL    HW215279   1.045   3.011   5.260
 4794SOL     OW15280   5.482   0.841   6.568
 4794SOL    HW115281   5.580   0.831   6.588
 4794SOL    HW215282   5.448   0.924   6.610
 4795SOL     OW15283   6.903   0.349   6.861
 4795SOL    HW115284   6.921   0.402   6.944
 4795SOL    HW215285   6.805   0.336   6.850
 4796SOL     OW15286   6.022   1.076   5.544
 4796SOL    HW115287   6.088   1.017   5.497
 4796SOL    HW215288   5.930   1.040   5.532
 4797SOL     OW15289   2.922   4.828   5.520
 4797SOL    HW115290   2.994   4.831   5.589
 4797SOL    HW215291   2.860   4.905   5.533
 4798SOL     OW15292   3.328   5.939   0.155
 4798SOL    HW115293   3.355   5.847   0.124
 4798SOL    HW215294   3.308   5.996   0.075
 4799SOL     OW15295   4.192   3.801   1.083
 4799SOL    HW115296   4.210   3.718   1.030
 4799SOL    HW215297   4.255   3.806   1.161
 4800SOL     OW15298   0.624   4.990   0.678
 4800SOL    HW115299   0.663   5.082   0.669
 4800SOL    HW215300   0.698   4.925   0.697
 4801SOL     OW15301   4.846   3.122   3.858
 4801SOL    HW115302   4.923   3.181   3.837
 4801SOL    HW215303   4.770   3.141   3.796
 4802SOL     OW15304   7.004   0.946   5.302
 4802SOL    HW115305   0.028   0.863   5.316
 4802SOL    HW215306   0.037   1.025   5.297
 4803SOL     OW15307   5.275   3.260   5.493
 4803SOL    HW115308   5.352   3.199   5.513
 4803SOL    HW215309   5.223   3.277   5.576
 4804SOL     OW15310   5.392   3.142   0.967
 4804SOL    HW115311   5.354   3.227   1.003
 4804SOL    HW215312   5.433   3.160   0.877
 4805SOL     OW15313   5.757   0.765   6.581
 4805SOL    HW115314   5.794   0.748   6.672
 4805SOL    HW215315   5.800   0.846   6.541
 4806SOL     OW15316   1.469   3.052   3.565
 4806SOL    HW115317   1.457   3.088   3.472
 4806SOL    HW215318   1.386   3.068   3.618
 4807SOL     OW15319   1.326   3.839   0.237
 4807SOL    HW115320   1.236   3.860   0.275
 4807SOL    HW215321   1.318   3.816   0.140
 4808SOL     OW15322   3.249   6.567   2.777
 4808SOL    HW115323   3.171   6.587   2.717
 4808SOL    HW215324   3.262   6.468   2.783
 4809SOL     OW15325   2.736   3.877   0.480
 4809SOL    HW115326   2.763   3.879   0.383
 4809SOL    HW215327   2.637   3.870   0.487
 4810SOL     OW15328   2.001   4.934   4.834
 4810SOL    HW115329   1.926   4.953   4.896
 4810SOL    HW215330   2.078   4.995   4.855
 4811SOL     OW15331   2.995   3.329   4.685
 4811SOL    HW115332   2.939   3.371   4.614
 4811SOL    HW215333   3.027   3.399   4.749
 4812SOL     OW15334   2.495   6.454   1.786
 4812SOL    HW115335   2.562   6.394   1.743
 4812SOL    HW215336   2.407   6.407   1.793
 4813SOL     OW15337   1.102   2.494   4.451
 4813SOL    HW115338   1.193   2.498   4.492
 4813SOL    HW215339   1.091   2.408   4.401
 4814SOL     OW15340   5.192   0.996   0.944
 4814SOL    HW115341   5.263   1.048   0.897
 4814SOL    HW215342   5.102   1.029   0.916
 4815SOL     OW15343   6.417   4.570   3.380
 4815SOL    HW115344   6.367   4.483   3.371
 4815SOL    HW215345   6.477   4.581   3.301
 4816SOL     OW15346   2.255   0.620   2.874
 4816SOL    HW115347   2.249   0.720   2.867
 4816SOL    HW215348   2.284   0.582   2.787
 4817SOL     OW15349   3.679   2.783   0.442
 4817SOL    HW115350   3.599   2.739   0.484
 4817SOL    HW215351   3.733   2.713   0.394
 4818SOL     OW15352   4.900   6.538   5.114
 4818SOL    HW115353   4.819   6.587   5.147
 4818SOL    HW215354   4.979   6.600   5.117
 4819SOL     OW15355   3.571   0.675   0.283
 4819SOL    HW115356   3.533   0.605   0.343
 4819SOL    HW215357   3.622   0.742   0.338
 4820SOL     OW15358   0.192   4.958   1.769
 4820SOL    HW115359   0.185   4.994   1.862
 4820SOL    HW215360   0.142   5.017   1.706
 4821SOL     OW15361   7.004   6.190   1.600
 4821SOL    HW115362   0.002   6.112   1.657
 4821SOL    HW215363   6.919   6.169   1.552
 4822SOL     OW15364   0.470   3.817   1.589
 4822SOL    HW115365   0.409   3.869   1.648
 4822SOL    HW215366   0.453   3.719   1.601
 4823SOL     OW15367   0.049   1.906   2.894
 4823SOL    HW115368   0.019   1.868   2.807
 4823SOL    HW215369   0.031   2.005   2.895
 4824SOL     OW15370   4.862   1.973   2.388
 4824SOL    HW115371   4.959   1.961   2.366
 4824SOL    HW215372   4.809   1.897   2.349
 4825SOL     OW15373   1.772   3.312   4.520
 4825SOL    HW115374   1.691   3.323   4.578
 4825SOL    HW215375   1.802   3.401   4.488
 4826SOL     OW15376   0.326   6.708   0.369
 4826SOL    HW115377   0.353   6.661   0.285
 4826SOL    HW215378   0.406   6.746   0.414
 4827SOL     OW15379   5.066   1.206   0.040
 4827SOL    HW115380   5.123   1.287   0.050
 4827SOL    HW215381   5.011   1.193   0.122
 4828SOL     OW15382   6.245   3.156   6.710
 4828SOL    HW115383   6.282   3.156   6.618
 4828SOL    HW215384   6.148   3.131   6.708
 4829SOL     OW15385   2.449   0.444   5.773
 4829SOL    HW115386   2.535   0.404   5.805
 4829SOL    HW215387   2.372   0.391   5.809
 4830SOL     OW15388   4.821   4.601   4.581
 4830SOL    HW115389   4.769   4.615   4.665
 4830SOL    HW215390   4.770   4.636   4.503
 4831SOL     OW15391   6.356   2.143   6.387
 4831SOL    HW115392   6.417   2.204   6.438
 4831SOL    HW215393   6.410   2.077   6.336
 4832SOL     OW15394   1.404   2.699   6.400
 4832SOL    HW115395   1.397   2.601   6.379
 4832SOL    HW215396   1.334   2.749   6.349
 4833SOL     OW15397   6.599   3.008   3.133
 4833SOL    HW115398   6.657   3.089   3.125
 4833SOL    HW215399   6.642   2.931   3.087
 4834SOL     OW15400   5.673   0.968   3.021
 4834SOL    HW115401   5.574   0.979   3.028
 4834SOL    HW215402   5.694   0.882   2.975
 4835SOL     OW15403   2.200   1.637   6.255
 4835SOL    HW115404   2.116   1.611   6.208
 4835SOL    HW215405   2.186   1.632   6.354
 4836SOL     OW15406   5.974   4.297   3.253
 4836SOL    HW115407   5.995   4.201   3.271
 4836SOL    HW215408   5.904   4.329   3.317
 4837SOL     OW15409   0.071   5.131   1.569
 4837SOL    HW115410   0.052   5.218   1.615
 4837SOL    HW215411   7.013   5.086   1.547
 4838SOL     OW15412   2.621   6.114   2.667
 4838SOL    HW115413   2.642   6.187   2.732
 4838SOL    HW215414   2.697   6.049   2.665
 4839SOL     OW15415   0.888   0.083   6.416
 4839SOL    HW115416   0.946   0.061   6.337
 4839SOL    HW215417   0.907   0.019   6.490
 4840SOL     OW15418   6.631   5.864   5.963
 4840SOL    HW115419   6.641   5.779   6.014
 4840SOL    HW215420   6.695   5.865   5.887
 4841SOL     OW15421   1.950   5.765   1.434
 4841SOL    HW115422   1.868   5.822   1.437
 4841SOL    HW215423   2.012   5.800   1.363
 4842SOL     OW15424   3.454   6.592   0.477
 4842SOL    HW115425   3.411   6.682   0.476
 4842SOL    HW215426   3.542   6.598   0.525
 4843SOL     OW15427   1.608   3.750   0.206
 4843SOL    HW115428   1.650   3.799   0.129
 4843SOL    HW215429   1.556   3.815   0.262
 4844SOL     OW15430   0.427   1.463   5.100
 4844SOL    HW115431   0.448   1.392   5.032
 4844SOL    HW215432   0.502   1.529   5.103
 4845SOL     OW15433   5.458   6.639   3.501
 4845SOL    HW115434   5.521   6.666   3.429
 4845SOL    HW215435   5.398   6.716   3.524
 4846SOL     OW15436   6.416   4.783   6.083
 4846SOL    HW115437   6.388   4.836   6.003
 4846SOL    HW215438   6.379   4.690   6.076
 4847SOL     OW15439   4.919   3.175   4.922
 4847SOL    HW115440   5.004   3.135   4.889
 4847SOL    HW215441   4.842   3.120   4.891
 4848SOL     OW15442   3.075   3.298   1.288
 4848SOL    HW115443   2.977   3.311   1.303
 4848SOL    HW215444   3.098   3.201   1.293
 4849SOL     OW15445   2.235   6.292   6.407
 4849SOL    HW115446   2.304   6.263   6.341
 4849SOL    HW215447   2.266   6.268   6.500
 4850SOL     OW15448   3.356   6.956   2.608
 4850SOL    HW115449   3.450   6.929   2.629
 4850SOL    HW215450   3.307   6.975   2.693
 4851SOL     OW15451   5.301   1.169   5.488
 4851SOL    HW115452   5.306   1.142   5.391
 4851SOL    HW215453   5.213   1.140   5.526
 4852SOL     OW15454   1.361   1.839   1.495
 4852SOL    HW115455   1.372   1.867   1.400
 4852SOL    HW215456   1.421   1.894   1.554
 4853SOL     OW15457   3.703   1.200   1.613
 4853SOL    HW115458   3.780   1.136   1.611
 4853SOL    HW215459   3.670   1.210   1.707
 4854SOL     OW15460   4.124   0.088   5.855
 4854SOL    HW115461   4.222   0.105   5.860
 4854SOL    HW215462   4.074   0.168   5.887
 4855SOL     OW15463   0.316   2.448   2.494
 4855SOL    HW115464   0.407   2.445   2.451
 4855SOL    HW215465   0.302   2.537   2.537
 4856SOL     OW15466   0.345   4.920   2.687
 4856SOL    HW115467   0.400   4.836   2.682
 4856SOL    HW215468   0.273   4.916   2.617
 4857SOL     OW15469   0.343   0.863   5.383
 4857SOL    HW115470   0.438   0.893   5.379
 4857SOL    HW215471   0.314   0.858   5.479
 4858SOL     OW15472   1.580   0.636   3.754
 4858SOL    HW115473   1.500   0.656   3.698
 4858SOL    HW215474   1.578   0.691   3.837
 4859SOL     OW15475   3.657   6.270   6.059
 4859SOL    HW115476   3.617   6.353   6.097
 4859SOL    HW215477   3.736   6.294   6.002
 4860SOL     OW15478   3.123   5.153   0.160
 4860SOL    HW115479   3.117   5.203   0.074
 4860SOL    HW215480   3.043   5.093   0.171
 4861SOL     OW15481   4.039   4.122   6.217
 4861SOL    HW115482   3.948   4.158   6.200
 4861SOL    HW215483   4.062   4.132   6.314
 4862SOL     OW15484   2.291   0.034   0.581
 4862SOL    HW115485   2.328   6.995   0.517
 4862SOL    HW215486   2.322   0.125   0.555
 4863SOL     OW15487   5.486   3.787   5.914
 4863SOL    HW115488   5.506   3.884   5.924
 4863SOL    HW215489   5.409   3.762   5.973
 4864SOL     OW15490   3.240   1.219   4.026
 4864SOL    HW115491   3.202   1.312   4.029
 4864SOL    HW215492   3.283   1.204   3.937
 4865SOL     OW15493   1.444   6.337   5.465
 4865SOL    HW115494   1.418   6.297   5.553
 4865SOL    HW215495   1.420   6.434   5.463
 4866SOL     OW15496   0.372   4.372   5.938
 4866SOL    HW115497   0.420   4.298   5.987
 4866SOL    HW215498   0.303   4.332   5.878
 4867SOL     OW15499   3.693   0.995   3.284
 4867SOL    HW115500   3.708   0.904   3.244
 4867SOL    HW215501   3.687   0.986   3.384
 4868SOL     OW15502   0.439   5.383   1.255
 4868SOL    HW115503   0.355   5.368   1.306
 4868SOL    HW215504   0.444   5.478   1.226
 4869SOL     OW15505   0.143   1.539   0.994
 4869SOL    HW115506   0.055   1.543   0.946
 4869SOL    HW215507   0.160   1.628   1.038
 4870SOL     OW15508   0.272   6.785   1.446
 4870SOL    HW115509   0.231   6.865   1.403
 4870SOL    HW215510   0.345   6.815   1.509
 4871SOL     OW15511   0.568   2.037   3.605
 4871SOL    HW115512   0.557   2.012   3.701
 4871SOL    HW215513   0.554   2.136   3.595
 4872SOL     OW15514   5.735   0.282   3.245
 4872SOL    HW115515   5.824   0.322   3.268
 4872SOL    HW215516   5.749   0.190   3.208
 4873SOL     OW15517   0.002   5.690   3.819
 4873SOL    HW115518   7.008   5.788   3.819
 4873SOL    HW215519   6.956   5.639   3.776
 4874SOL     OW15520   5.943   4.487   2.059
 4874SOL    HW115521   5.871   4.549   2.026
 4874SOL    HW215522   5.957   4.502   2.157
 4875SOL     OW15523   6.356   6.562   4.465
 4875SOL    HW115524   6.444   6.569   4.511
 4875SOL    HW215525   6.301   6.490   4.508
 4876SOL     OW15526   6.542   1.353   2.164
 4876SOL    HW115527   6.641   1.349   2.167
 4876SOL    HW215528   6.510   1.338   2.071
 4877SOL     OW15529   0.338   1.482   6.914
 4877SOL    HW115530   0.333   1.565   6.859
 4877SOL    HW215531   0.426   1.477   6.961
 4878SOL     OW15532   6.170   4.456   3.976
 4878SOL    HW115533   6.264   4.488   3.972
 4878SOL    HW215534   6.109   4.526   3.937
 4879SOL     OW15535   5.721   0.736   2.888
 4879SOL    HW115536   5.760   0.657   2.935
 4879SOL    HW215537   5.632   0.712   2.850
 4880SOL     OW15538   0.105   2.982   6.708
 4880SOL    HW115539   0.115   2.894   6.754
 4880SOL    HW215540   0.011   2.991   6.674
 4881SOL     OW15541   6.942   3.611   2.085
 4881SOL    HW115542   6.993   3.539   2.038
 4881SOL    HW215543   6.981   3.700   2.062
 4882SOL     OW15544   5.296   2.428   4.781
 4882SOL    HW115545   5.387   2.387   4.780
 4882SOL    HW215546   5.299   2.516   4.735
 4883SOL     OW15547   0.287   4.176   6.588
 4883SOL    HW115548   0.334   4.151   6.673
 4883SOL    HW215549   0.189   4.160   6.599
 4884SOL     OW15550   1.967   1.957   2.229
 4884SOL    HW115551   1.962   1.885   2.159
 4884SOL    HW215552   1.900   2.028   2.209
 4885SOL     OW15553   1.211   5.426   6.688
 4885SOL    HW115554   1.207   5.335   6.648
 4885SOL    HW215555   1.256   5.489   6.624
 4886SOL     OW15556   2.956   0.754   2.480
 4886SOL    HW115557   2.961   0.756   2.580
 4886SOL    HW215558   2.938   0.846   2.446
 4887SOL     OW15559   4.724   5.450   0.412
 4887SOL    HW115560   4.627   5.466   0.427
 4887SOL    HW215561   4.747   5.356   0.437
 4888SOL     OW15562   4.275   0.287   2.573
 4888SOL    HW115563   4.343   0.334   2.630
 4888SOL    HW215564   4.225   0.221   2.629
 4889SOL     OW15565   5.724   3.594   3.620
 4889SOL    HW115566   5.764   3.651   3.691
 4889SOL    HW215567   5.787   3.587   3.542
 4890SOL     OW15568   6.456   2.003   4.546
 4890SOL    HW115569   6.441   2.044   4.456
 4890SOL    HW215570   6.488   2.073   4.610
 4891SOL     OW15571   2.140   5.405   0.431
 4891SOL    HW115572   2.111   5.434   0.522
 4891SOL    HW215573   2.093   5.460   0.362
 4892SOL     OW15574   4.966   5.210   2.129
 4892SOL    HW115575   4.893   5.236   2.192
 4892SOL    HW215576   5.015   5.292   2.100
 4893SOL     OW15577   1.995   2.290   1.536
 4893SOL    HW115578   2.070   2.340   1.492
 4893SOL    HW215579   2.005   2.192   1.518
 4894SOL     OW15580   5.155   6.532   0.602
 4894SOL    HW115581   5.201   6.456   0.555
 4894SOL    HW215582   5.130   6.504   0.694
 4895SOL     OW15583   6.310   3.614   5.128
 4895SOL    HW115584   6.371   3.674   5.182
 4895SOL    HW215585   6.320   3.635   5.031
 4896SOL     OW15586   2.583   5.189   4.645
 4896SOL    HW115587   2.614   5.281   4.619
 4896SOL    HW215588   2.631   5.161   4.728
 4897SOL     OW15589   2.211   1.528   5.647
 4897SOL    HW115590   2.258   1.595   5.705
 4897SOL    HW215591   2.255   1.525   5.557
 4898SOL     OW15592   4.197   2.186   3.669
 4898SOL    HW115593   4.158   2.265   3.716
 4898SOL    HW215594   4.277   2.153   3.719
 4899SOL     OW15595   6.670   6.955   1.584
 4899SOL    HW115596   6.761   6.944   1.545
 4899SOL    HW215597   6.608   6.886   1.545
 4900SOL     OW15598   3.456   5.850   6.310
 4900SOL    HW115599   3.467   5.804   6.222
 4900SOL    HW215600   3.459   5.782   6.384
 4901SOL     OW15601   1.989   0.683   0.296
 4901SOL    HW115602   2.038   0.690   0.383
 4901SOL    HW215603   1.976   0.586   0.274
 4902SOL     OW15604   2.061   0.299   5.570
 4902SOL    HW115605   2.138   0.336   5.622
 4902SOL    HW215606   2.094   0.231   5.505
 4903SOL     OW15607   4.992   3.925   2.254
 4903SOL    HW115608   4.969   3.836   2.216
 4903SOL    HW215609   4.913   3.986   2.244
 4904SOL     OW15610   2.097   0.740   1.800
 4904SOL    HW115611   2.103   0.648   1.839
 4904SOL    HW215612   2.189   0.780   1.797
 4905SOL     OW15613   2.214   1.472   2.297
 4905SOL    HW115614   2.205   1.439   2.391
 4905SOL    HW215615   2.302   1.443   2.260
 4906SOL     OW15616   5.110   3.047   4.766
 4906SOL    HW115617   5.056   3.066   4.684
 4906SOL    HW215618   5.207   3.043   4.742
 4907SOL     OW15619   3.745   2.502   0.792
 4907SOL    HW115620   3.820   2.510   0.726
 4907SOL    HW215621   3.781   2.512   0.885
 4908SOL     OW15622   2.625   6.548   6.045
 4908SOL    HW115623   2.648   6.530   5.949
 4908SOL    HW215624   2.530   6.579   6.051
 4909SOL     OW15625   4.940   5.841   4.655
 4909SOL    HW115626   4.881   5.777   4.704
 4909SOL    HW215627   5.030   5.843   4.699
 4910SOL     OW15628   4.527   1.661   6.892
 4910SOL    HW115629   4.451   1.721   6.919
 4910SOL    HW215630   4.560   1.688   6.801
 4911SOL     OW15631   6.774   4.238   3.459
 4911SOL    HW115632   6.725   4.302   3.518
 4911SOL    HW215633   6.786   4.279   3.369
 4912SOL     OW15634   5.821   2.949   4.238
 4912SOL    HW115635   5.788   2.957   4.144
 4912SOL    HW215636   5.886   2.874   4.244
 4913SOL     OW15637   0.837   3.716   5.545
 4913SOL    HW115638   0.797   3.793   5.595
 4913SOL    HW215639   0.856   3.641   5.608
 4914SOL     OW15640   3.374   6.961   3.618
 4914SOL    HW115641   3.419   7.027   3.679
 4914SOL    HW215642   3.286   6.997   3.589
 4915SOL     OW15643   4.178   5.675   5.273
 4915SOL    HW115644   4.228   5.623   5.343
 4915SOL    HW215645   4.081   5.648   5.275
 4916SOL     OW15646   5.641   2.676   3.644
 4916SOL    HW115647   5.565   2.733   3.612
 4916SOL    HW215648   5.604   2.589   3.677
 4917SOL     OW15649   5.161   6.597   6.684
 4917SOL    HW115650   5.206   6.616   6.771
 4917SOL    HW215651   5.064   6.619   6.691
 4918SOL     OW15652   5.172   6.212   3.785
 4918SOL    HW115653   5.256   6.196   3.733
 4918SOL    HW215654   5.194   6.225   3.882
 4919SOL     OW15655   4.315   3.999   1.642
 4919SOL    HW115656   4.226   4.030   1.606
 4919SOL    HW215657   4.337   4.053   1.724
 4920SOL     OW15658   6.447   1.141   5.740
 4920SOL    HW115659   6.431   1.057   5.792
 4920SOL    HW215660   6.415   1.129   5.646
 4921SOL     OW15661   6.684   6.993   2.398
 4921SOL    HW115662   6.637   0.052   2.391
 4921SOL    HW215663   6.780   7.008   2.422
 4922SOL     OW15664   3.860   0.441   6.114
 4922SOL    HW115665   3.775   0.422   6.064
 4922SOL    HW215666   3.860   0.390   6.200
 4923SOL     OW15667   4.108   1.375   1.349
 4923SOL    HW115668   4.027   1.376   1.407
 4923SOL    HW215669   4.087   1.329   1.263
 4924SOL     OW15670   2.960   1.590   5.259
 4924SOL    HW115671   2.998   1.515   5.312
 4924SOL    HW215672   2.911   1.653   5.319
 4925SOL     OW15673   4.920   0.502   4.306
 4925SOL    HW115674   4.979   0.454   4.370
 4925SOL    HW215675   4.855   0.438   4.266
 4926SOL     OW15676   4.886   2.580   1.958
 4926SOL    HW115677   4.807   2.573   1.898
 4926SOL    HW215678   4.899   2.493   2.006
 4927SOL     OW15679   2.580   1.205   0.540
 4927SOL    HW115680   2.652   1.238   0.602
 4927SOL    HW215681   2.623   1.165   0.459
 4928SOL     OW15682   0.568   1.774   1.038
 4928SOL    HW115683   0.531   1.846   1.097
 4928SOL    HW215684   0.574   1.807   0.944
 4929SOL     OW15685   6.504   0.209   4.915
 4929SOL    HW115686   6.549   0.135   4.864
 4929SOL    HW215687   6.556   0.229   4.997
 4930SOL     OW15688   4.615   5.946   2.958
 4930SOL    HW115689   4.684   6.019   2.960
 4930SOL    HW215690   4.660   5.858   2.967
 4931SOL     OW15691   5.143   6.897   1.657
 4931SOL    HW115692   5.217   6.870   1.718
 4931SOL    HW215693   5.126   6.825   1.590
 4932SOL     OW15694   3.465   4.169   3.291
 4932SOL    HW115695   3.477   4.268   3.283
 4932SOL    HW215696   3.437   4.131   3.203
 4933SOL     OW15697   1.856   0.194   5.193
 4933SOL    HW115698   1.816   0.272   5.241
 4933SOL    HW215699   1.855   0.211   5.095
 4934SOL     OW15700   2.135   6.917   3.038
 4934SOL    HW115701   2.080   6.953   2.962
 4934SOL    HW215702   2.075   6.885   3.111
 4935SOL     OW15703   6.190   7.010   4.678
 4935SOL    HW115704   6.162   0.052   4.614
 4935SOL    HW215705   6.163   6.920   4.643
 4936SOL     OW15706   4.655   3.300   0.227
 4936SOL    HW115707   4.688   3.250   0.146
 4936SOL    HW215708   4.656   3.240   0.306
 4937SOL     OW15709   3.740   2.535   5.328
 4937SOL    HW115710   3.717   2.633   5.326
 4937SOL    HW215711   3.837   2.523   5.308
 4938SOL     OW15712   3.009   4.477   0.144
 4938SOL    HW115713   2.962   4.565   0.143
 4938SOL    HW215714   2.944   4.404   0.122
 4939SOL     OW15715   5.088   3.695   6.475
 4939SOL    HW115716   5.023   3.625   6.506
 4939SOL    HW215717   5.116   3.674   6.381
 4940SOL     OW15718   1.245   5.777   3.681
 4940SOL    HW115719   1.284   5.714   3.748
 4940SOL    HW215720   1.319   5.819   3.628
 4941SOL     OW15721   6.144   1.024   1.104
 4941SOL    HW115722   6.183   0.935   1.128
 4941SOL    HW215723   6.072   1.011   1.036
 4942SOL     OW15724   5.486   2.564   5.672
 4942SOL    HW115725   5.542   2.487   5.702
 4942SOL    HW215726   5.457   2.549   5.577
 4943SOL     OW15727   5.990   3.165   1.307
 4943SOL    HW115728   5.918   3.230   1.329
 4943SOL    HW215729   5.966   3.116   1.223
 4944SOL     OW15730   1.693   3.176   2.105
 4944SOL    HW115731   1.618   3.234   2.074
 4944SOL    HW215732   1.715   3.108   2.035
 4945SOL     OW15733   6.977   5.935   4.402
 4945SOL    HW115734   6.985   6.034   4.394
 4945SOL    HW215735   6.973   5.894   4.311
 4946SOL     OW15736   0.446   4.420   1.831
 4946SOL    HW115737   0.496   4.372   1.903
 4946SOL    HW215738   0.398   4.498   1.871
 4947SOL     OW15739   5.733   0.404   0.595
 4947SOL    HW115740   5.785   0.433   0.675
 4947SOL    HW215741   5.793   0.399   0.515
 4948SOL     OW15742   2.551   1.603   2.008
 4948SOL    HW115743   2.517   1.697   2.010
 4948SOL    HW215744   2.497   1.549   1.945
 4949SOL     OW15745   6.060   2.244   5.606
 4949SOL    HW115746   6.090   2.218   5.698
 4949SOL    HW215747   5.985   2.185   5.577
 4950SOL     OW15748   3.382   5.385   3.960
 4950SOL    HW115749   3.478   5.409   3.974
 4950SOL    HW215750   3.353   5.322   4.032
 4951SOL     OW15751   4.439   2.455   3.770
 4951SOL    HW115752   4.490   2.541   3.764
 4951SOL    HW215753   4.447   2.406   3.683
 4952SOL     OW15754   6.349   4.766   4.173
 4952SOL    HW115755   6.257   4.744   4.206
 4952SOL    HW215756   6.396   4.682   4.146
 4953SOL     OW15757   1.203   4.722   2.300
 4953SOL    HW115758   1.152   4.661   2.240
 4953SOL    HW215759   1.148   4.744   2.380
 4954SOL     OW15760   6.895   6.364   6.404
 4954SOL    HW115761   6.797   6.358   6.388
 4954SOL    HW215762   6.935   6.434   6.344
 4955SOL     OW15763   1.978   0.235   2.043
 4955SOL    HW115764   2.047   0.223   1.972
 4955SOL    HW215765   1.919   0.312   2.020
 4956SOL     OW15766   6.051   6.769   3.111
 4956SOL    HW115767   6.064   6.708   3.189
 4956SOL    HW215768   6.048   6.715   3.027
 4957SOL     OW15769   1.001   5.470   4.210
 4957SOL    HW115770   1.041   5.518   4.132
 4957SOL    HW215771   0.901   5.474   4.204
 4958SOL     OW15772   6.951   0.093   6.805
 4958SOL    HW115773   7.012   0.076   6.728
 4958SOL    HW215774   6.942   0.191   6.820
 4959SOL     OW15775   1.233   1.997   0.288
 4959SOL    HW115776   1.296   1.957   0.222
 4959SOL    HW215777   1.271   1.990   0.380
 4960SOL     OW15778   3.331   6.953   5.284
 4960SOL    HW115779   3.353   6.859   5.310
 4960SOL    HW215780   3.239   6.976   5.314
 4961SOL     OW15781   4.588   6.942   5.172
 4961SOL    HW115782   4.603   6.915   5.267
 4961SOL    HW215783   4.525   7.020   5.170
 4962SOL     OW15784   6.306   2.262   2.211
 4962SOL    HW115785   6.245   2.220   2.145
 4962SOL    HW215786   6.286   2.360   2.218
 4963SOL     OW15787   1.012   4.253   1.287
 4963SOL    HW115788   1.059   4.342   1.288
 4963SOL    HW215789   0.918   4.266   1.317
 4964SOL     OW15790   3.164   0.072   3.061
 4964SOL    HW115791   3.247   0.125   3.079
 4964SOL    HW215792   3.139   0.022   3.144
 4965SOL     OW15793   0.298   6.106   5.498
 4965SOL    HW115794   0.389   6.091   5.538
 4965SOL    HW215795   0.234   6.133   5.569
 4966SOL     OW15796   5.360   5.600   5.549
 4966SOL    HW115797   5.367   5.654   5.465
 4966SOL    HW215798   5.339   5.505   5.525
 4967SOL     OW15799   5.716   0.975   6.852
 4967SOL    HW115800   5.796   0.916   6.861
 4967SOL    HW215801   5.633   0.924   6.876
 4968SOL     OW15802   5.750   3.721   6.431
 4968SOL    HW115803   5.715   3.731   6.524
 4968SOL    HW215804   5.674   3.706   6.368
 4969SOL     OW15805   1.445   0.890   1.394
 4969SOL    HW115806   1.428   0.966   1.332
 4969SOL    HW215807   1.415   0.804   1.352
 4970SOL     OW15808   1.848   2.127   6.376
 4970SOL    HW115809   1.852   2.129   6.476
 4970SOL    HW215810   1.866   2.034   6.343
 4971SOL     OW15811   6.398   5.532   3.755
 4971SOL    HW115812   6.486   5.493   3.782
 4971SOL    HW215813   6.324   5.469   3.779
 4972SOL     OW15814   1.547   2.322   4.851
 4972SOL    HW115815   1.609   2.289   4.921
 4972SOL    HW215816   1.549   2.422   4.849
 4973SOL     OW15817   5.071   5.485   3.182
 4973SOL    HW115818   5.031   5.453   3.096
 4973SOL    HW215819   5.099   5.581   3.172
 4974SOL     OW15820   3.840   6.800   6.008
 4974SOL    HW115821   3.793   6.731   5.954
 4974SOL    HW215822   3.798   6.806   6.099
 4975SOL     OW15823   4.097   6.116   0.062
 4975SOL    HW115824   4.145   6.034   0.031
 4975SOL    HW215825   4.118   6.133   0.158
 4976SOL     OW15826   2.312   1.475   4.991
 4976SOL    HW115827   2.337   1.409   4.921
 4976SOL    HW215828   2.243   1.435   5.052
 4977SOL     OW15829   4.077   3.624   1.874
 4977SOL    HW115830   4.123   3.675   1.947
 4977SOL    HW215831   4.137   3.617   1.795
 4978SOL     OW15832   6.503   3.665   6.351
 4978SOL    HW115833   6.581   3.727   6.360
 4978SOL    HW215834   6.487   3.646   6.254
 4979SOL     OW15835   1.875   2.060   3.554
 4979SOL    HW115836   1.966   2.083   3.517
 4979SOL    HW215837   1.865   1.961   3.560
 4980SOL     OW15838   2.345   4.822   2.672
 4980SOL    HW115839   2.426   4.764   2.673
 4980SOL    HW215840   2.371   4.915   2.649
 4981SOL     OW15841   5.394   5.439   5.185
 4981SOL    HW115842   5.326   5.427   5.257
 4981SOL    HW215843   5.486   5.437   5.225
 4982SOL     OW15844   2.557   0.853   6.967
 4982SOL    HW115845   2.586   0.886   0.028
 4982SOL    HW215846   2.464   0.885   6.948
 4983SOL     OW15847   6.999   2.248   4.056
 4983SOL    HW115848   7.025   2.195   4.137
 4983SOL    HW215849   6.963   2.337   4.084
 4984SOL     OW15850   5.144   5.137   3.666
 4984SOL    HW115851   5.142   5.224   3.617
 4984SOL    HW215852   5.104   5.150   3.757
 4985SOL     OW15853   5.691   3.616   1.724
 4985SOL    HW115854   5.744   3.599   1.808
 4985SOL    HW215855   5.603   3.658   1.748
 4986SOL     OW15856   4.309   4.969   3.484
 4986SOL    HW115857   4.338   4.873   3.484
 4986SOL    HW215858   4.389   5.028   3.492
 4987SOL     OW15859   1.034   2.544   6.918
 4987SOL    HW115860   0.992   2.630   6.889
 4987SOL    HW215861   0.979   2.504   6.991
 4988SOL     OW15862   2.297   2.262   5.012
 4988SOL    HW115863   2.320   2.165   5.005
 4988SOL    HW215864   2.245   2.277   5.096
 4989SOL     OW15865   0.073   0.918   0.746
 4989SOL    HW115866   0.076   0.846   0.815
 4989SOL    HW215867   0.136   0.896   0.672
 4990SOL     OW15868   2.136   2.059   0.108
 4990SOL    HW115869   2.093   2.130   0.164
 4990SOL    HW215870   2.139   1.974   0.161
 4991SOL     OW15871   2.468   1.558   6.012
 4991SOL    HW115872   2.498   1.514   6.097
 4991SOL    HW215873   2.369   1.570   6.014
 4992SOL     OW15874   4.178   7.013   4.674
 4992SOL    HW115875   4.228   6.940   4.721
 4992SOL    HW215876   4.206   0.073   4.711
 4993SOL     OW15877   1.369   6.491   4.806
 4993SOL    HW115878   1.448   6.513   4.748
 4993SOL    HW215879   1.291   6.465   4.749
 4994SOL     OW15880   0.441   5.688   3.399
 4994SOL    HW115881   0.449   5.655   3.493
 4994SOL    HW215882   0.349   5.670   3.365
 4995SOL     OW15883   5.633   2.820   4.878
 4995SOL    HW115884   5.569   2.764   4.826
 4995SOL    HW215885   5.666   2.769   4.957
 4996SOL     OW15886   0.535   1.919   4.112
 4996SOL    HW115887   0.631   1.890   4.113
 4996SOL    HW215888   0.478   1.851   4.158
 4997SOL     OW15889   6.944   2.379   3.824
 4997SOL    HW115890   6.977   2.303   3.880
 4997SOL    HW215891   6.847   2.366   3.804
 4998SOL     OW15892   1.368   5.752   5.946
 4998SOL    HW115893   1.297   5.819   5.924
 4998SOL    HW215894   1.451   5.799   5.974
 4999SOL     OW15895   5.833   4.967   0.911
 4999SOL    HW115896   5.784   4.900   0.966
 4999SOL    HW215897   5.789   5.057   0.921
 5000SOL     OW15898   6.148   5.398   3.840
 5000SOL    HW115899   6.086   5.463   3.796
 5000SOL    HW215900   6.113   5.305   3.827
 5001SOL     OW15901   4.896   3.541   5.450
 5001SOL    HW115902   4.950   3.546   5.535
 5001SOL    HW215903   4.827   3.469   5.459
 5002SOL     OW15904   1.541   1.990   1.616
 5002SOL    HW115905   1.624   2.001   1.670
 5002SOL    HW215906   1.515   2.077   1.576
 5003SOL     OW15907   6.549   5.465   4.440
 5003SOL    HW115908   6.627   5.419   4.481
 5003SOL    HW215909   6.491   5.398   4.394
 5004SOL     OW15910   2.230   4.100   6.048
 5004SOL    HW115911   2.307   4.154   6.016
 5004SOL    HW215912   2.261   4.008   6.072
 5005SOL     OW15913   5.064   2.344   0.574
 5005SOL    HW115914   5.043   2.435   0.610
 5005SOL    HW215915   5.153   2.314   0.608
 5006SOL     OW15916   4.649   4.728   2.303
 5006SOL    HW115917   4.601   4.670   2.369
 5006SOL    HW215918   4.673   4.673   2.222
 5007SOL     OW15919   4.073   0.942   4.447
 5007SOL    HW115920   4.031   0.906   4.531
 5007SOL    HW215921   4.105   1.036   4.464
 5008SOL     OW15922   6.113   2.024   3.971
 5008SOL    HW115923   6.096   2.053   4.065
 5008SOL    HW215924   6.212   2.026   3.953
 5009SOL     OW15925   2.622   6.350   2.080
 5009SOL    HW115926   2.539   6.361   2.134
 5009SOL    HW215927   2.633   6.254   2.054
 5010SOL     OW15928   3.288   3.321   6.252
 5010SOL    HW115929   3.340   3.293   6.171
 5010SOL    HW215930   3.293   3.249   6.321
 5011SOL     OW15931   1.496   1.714   4.381
 5011SOL    HW115932   1.466   1.658   4.458
 5011SOL    HW215933   1.471   1.810   4.399
 5012SOL     OW15934   6.202   2.285   7.028
 5012SOL    HW115935   6.136   2.335   0.055
 5012SOL    HW215936   6.276   2.346   7.001
 5013SOL     OW15937   5.100   1.547   5.190
 5013SOL    HW115938   5.104   1.567   5.288
 5013SOL    HW215939   5.049   1.462   5.176
 5014SOL     OW15940   6.943   5.019   6.542
 5014SOL    HW115941   6.986   5.100   6.502
 5014SOL    HW215942   7.013   4.948   6.555
 5015SOL     OW15943   5.044   1.825   4.068
 5015SOL    HW115944   5.058   1.824   4.167
 5015SOL    HW215945   5.097   1.751   4.025
 5016SOL     OW15946   2.759   5.519   1.636
 5016SOL    HW115947   2.799   5.605   1.668
 5016SOL    HW215948   2.758   5.517   1.536
 5017SOL     OW15949   0.164   2.496   1.690
 5017SOL    HW115950   0.103   2.420   1.709
 5017SOL    HW215951   0.198   2.488   1.596
 5018SOL     OW15952   6.441   5.149   3.867
 5018SOL    HW115953   6.369   5.089   3.903
 5018SOL    HW215954   6.448   5.137   3.768
 5019SOL     OW15955   3.265   5.343   4.794
 5019SOL    HW115956   3.213   5.357   4.878
 5019SOL    HW215957   3.209   5.292   4.728
 5020SOL     OW15958   4.360   5.182   7.002
 5020SOL    HW115959   4.295   5.138   0.037
 5020SOL    HW215960   4.431   5.116   6.977
 5021SOL     OW15961   2.270   4.779   5.850
 5021SOL    HW115962   2.289   4.848   5.780
 5021SOL    HW215963   2.354   4.729   5.870
 5022SOL     OW15964   1.462   3.074   6.811
 5022SOL    HW115965   1.548   3.027   6.832
 5022SOL    HW215966   1.456   3.092   6.713
 5023SOL     OW15967   6.736   3.425   3.939
 5023SOL    HW115968   6.802   3.358   3.908
 5023SOL    HW215969   6.784   3.507   3.970
 5024SOL     OW15970   4.786   3.902   5.259
 5024SOL    HW115971   4.709   3.927   5.319
 5024SOL    HW215972   4.789   3.964   5.181
 5025SOL     OW15973   5.667   0.385   5.135
 5025SOL    HW115974   5.765   0.406   5.132
 5025SOL    HW215975   5.651   0.306   5.194
 5026SOL     OW15976   1.313   5.723   2.850
 5026SOL    HW115977   1.370   5.775   2.787
 5026SOL    HW215978   1.288   5.780   2.929
 5027SOL     OW15979   1.239   5.337   3.512
 5027SOL    HW115980   1.309   5.401   3.480
 5027SOL    HW215981   1.283   5.251   3.540
 5028SOL     OW15982   1.187   6.505   3.015
 5028SOL    HW115983   1.280   6.503   3.050
 5028SOL    HW215984   1.182   6.566   2.936
 5029SOL     OW15985   6.008   0.290   4.680
 5029SOL    HW115986   6.074   0.321   4.613
 5029SOL    HW215987   5.963   0.207   4.647
 5030SOL     OW15988   1.239   5.980   0.448
 5030SOL    HW115989   1.266   6.072   0.473
 5030SOL    HW215990   1.191   5.982   0.360
 5031SOL     OW15991   5.384   0.249   6.985
 5031SOL    HW115992   5.402   0.298   0.041
 5031SOL    HW215993   5.342   0.311   6.919
 5032SOL     OW15994   1.818   5.420   2.271
 5032SOL    HW115995   1.779   5.441   2.181
 5032SOL    HW215996   1.775   5.338   2.308
 5033SOL     OW15997   0.768   4.389   4.528
 5033SOL    HW115998   0.862   4.386   4.560
 5033SOL    HW215999   0.707   4.412   4.604
 5034SOL     OW16000   0.730   2.825   6.076
 5034SOL    HW116001   0.717   2.898   6.143
 5034SOL    HW216002   0.801   2.852   6.011
 5035SOL     OW16003   6.599   4.827   1.030
 5035SOL    HW116004   6.659   4.867   1.099
 5035SOL    HW216005   6.514   4.797   1.073
 5036SOL     OW16006   1.088   1.626   3.009
 5036SOL    HW116007   1.049   1.702   3.062
 5036SOL    HW216008   1.182   1.610   3.039
 5037SOL     OW16009   5.148   4.417   0.957
 5037SOL    HW116010   5.131   4.458   1.046
 5037SOL    HW216011   5.236   4.369   0.958
 5038SOL     OW16012   3.188   5.726   5.866
 5038SOL    HW116013   3.254   5.727   5.790
 5038SOL    HW216014   3.095   5.724   5.829
 5039SOL     OW16015   1.345   2.775   3.511
 5039SOL    HW116016   1.262   2.749   3.561
 5039SOL    HW216017   1.365   2.871   3.528
 5040SOL     OW16018   2.323   3.474   6.165
 5040SOL    HW116019   2.383   3.428   6.230
 5040SOL    HW216020   2.228   3.444   6.180
 5041SOL     OW16021   0.257   5.898   0.561
 5041SOL    HW116022   0.211   5.823   0.515
 5041SOL    HW216023   0.277   5.872   0.655
 5042SOL     OW16024   6.144   1.237   6.367
 5042SOL    HW116025   6.053   1.255   6.330
 5042SOL    HW216026   6.199   1.187   6.300
 5043SOL     OW16027   5.734   6.081   3.887
 5043SOL    HW116028   5.648   6.051   3.846
 5043SOL    HW216029   5.796   6.002   3.896
 5044SOL     OW16030   6.299   4.112   1.933
 5044SOL    HW116031   6.320   4.017   1.954
 5044SOL    HW216032   6.217   4.117   1.876
 5045SOL     OW16033   4.708   3.014   5.590
 5045SOL    HW116034   4.641   3.088   5.591
 5045SOL    HW216035   4.687   2.948   5.661
 5046SOL     OW16036   3.861   2.766   5.904
 5046SOL    HW116037   3.820   2.839   5.960
 5046SOL    HW216038   3.933   2.721   5.957
 5047SOL     OW16039   0.387   2.260   2.234
 5047SOL    HW116040   0.376   2.354   2.268
 5047SOL    HW216041   0.442   2.261   2.150
 5048SOL     OW16042   5.861   3.935   0.919
 5048SOL    HW116043   5.871   3.978   1.008
 5048SOL    HW216044   5.835   4.004   0.851
 5049SOL     OW16045   0.805   0.940   1.401
 5049SOL    HW116046   0.758   0.852   1.407
 5049SOL    HW216047   0.749   1.004   1.348
 5050SOL     OW16048   1.638   3.983   0.628
 5050SOL    HW116049   1.618   4.040   0.707
 5050SOL    HW216050   1.569   4.000   0.557
 5051SOL     OW16051   2.239   3.940   6.364
 5051SOL    HW116052   2.152   3.975   6.329
 5051SOL    HW216053   2.261   3.985   6.450
 5052SOL     OW16054   6.061   2.934   1.135
 5052SOL    HW116055   6.109   2.851   1.104
 5052SOL    HW216056   6.007   2.913   1.217
 5053SOL     OW16057   1.140   3.837   1.266
 5053SOL    HW116058   1.094   3.778   1.199
 5053SOL    HW216059   1.082   3.846   1.348
 5054SOL     OW16060   3.627   6.056   5.045
 5054SOL    HW116061   3.633   6.045   5.145
 5054SOL    HW216062   3.707   6.013   5.003
 5055SOL     OW16063   0.502   0.732   3.923
 5055SOL    HW116064   0.412   0.765   3.951
 5055SOL    HW216065   0.497   0.634   3.902
 5056SOL     OW16066   2.821   1.490   6.311
 5056SOL    HW116067   2.800   1.573   6.258
 5056SOL    HW216068   2.743   1.428   6.306
 5057SOL     OW16069   0.599   3.864   2.304
 5057SOL    HW116070   0.574   3.782   2.252
 5057SOL    HW216071   0.687   3.850   2.348
 5058SOL     OW16072   3.971   1.933   6.869
 5058SOL    HW116073   3.961   1.863   6.939
 5058SOL    HW216074   4.059   1.978   6.879
 5059SOL     OW16075   5.794   2.894   2.548
 5059SOL    HW116076   5.744   2.845   2.476
 5059SOL    HW216077   5.838   2.828   2.609
 5060SOL     OW16078   6.405   2.970   4.883
 5060SOL    HW116079   6.336   3.034   4.850
 5060SOL    HW216080   6.428   2.992   4.978
 5061SOL     OW16081   3.740   2.576   5.723
 5061SOL    HW116082   3.774   2.656   5.772
 5061SOL    HW216083   3.676   2.604   5.651
 5062SOL     OW16084   5.841   1.084   3.474
 5062SOL    HW116085   5.933   1.059   3.506
 5062SOL    HW216086   5.816   1.025   3.397
 5063SOL     OW16087   1.008   1.085   0.365
 5063SOL    HW116088   0.999   1.103   0.267
 5063SOL    HW216089   0.961   1.158   0.416
 5064SOL     OW16090   6.547   5.237   0.545
 5064SOL    HW116091   6.561   5.256   0.642
 5064SOL    HW216092   6.622   5.180   0.511
 5065SOL     OW16093   1.719   2.178   2.606
 5065SOL    HW116094   1.805   2.213   2.570
 5065SOL    HW216095   1.650   2.176   2.534
 5066SOL     OW16096   1.366   5.112   4.234
 5066SOL    HW116097   1.287   5.154   4.189
 5066SOL    HW216098   1.350   5.014   4.245
 5067SOL     OW16099   5.051   2.817   0.819
 5067SOL    HW116100   5.008   2.849   0.904
 5067SOL    HW216101   5.128   2.878   0.797
 5068SOL     OW16102   1.844   0.017   1.297
 5068SOL    HW116103   1.826   6.960   1.248
 5068SOL    HW216104   1.918   0.066   1.250
 5069SOL     OW16105   4.109   4.470   6.247
 5069SOL    HW116106   4.124   4.531   6.325
 5069SOL    HW216107   4.113   4.375   6.277
 5070SOL     OW16108   0.529   3.482   6.741
 5070SOL    HW116109   0.563   3.406   6.797
 5070SOL    HW216110   0.482   3.548   6.799
 5071SOL     OW16111   1.809   6.387   2.646
 5071SOL    HW116112   1.841   6.380   2.741
 5071SOL    HW216113   1.709   6.380   2.644
 5072SOL     OW16114   0.442   1.721   2.507
 5072SOL    HW116115   0.408   1.763   2.423
 5072SOL    HW216116   0.365   1.694   2.565
 5073SOL     OW16117   1.611   1.388   3.881
 5073SOL    HW116118   1.682   1.343   3.935
 5073SOL    HW216119   1.650   1.465   3.831
 5074SOL     OW16120   3.693   2.059   1.339
 5074SOL    HW116121   3.747   2.097   1.264
 5074SOL    HW216122   3.660   2.133   1.398
 5075SOL     OW16123   6.173   2.018   6.966
 5075SOL    HW116124   6.177   2.116   6.981
 5075SOL    HW216125   6.133   1.973   0.018
 5076SOL     OW16126   0.288   1.238   6.021
 5076SOL    HW116127   0.387   1.244   6.015
 5076SOL    HW216128   0.262   1.167   6.085
 5077SOL     OW16129   0.383   4.450   4.611
 5077SOL    HW116130   0.365   4.373   4.550
 5077SOL    HW216131   0.474   4.441   4.651
 5078SOL     OW16132   6.464   1.731   2.985
 5078SOL    HW116133   6.478   1.654   2.922
 5078SOL    HW216134   6.552   1.756   3.026
 5079SOL     OW16135   1.677   3.834   5.563
 5079SOL    HW116136   1.757   3.871   5.609
 5079SOL    HW216137   1.614   3.796   5.631
 5080SOL     OW16138   6.379   5.771   6.809
 5080SOL    HW116139   6.424   5.709   6.745
 5080SOL    HW216140   6.317   5.831   6.759
 5081SOL     OW16141   3.128   4.770   5.715
 5081SOL    HW116142   3.118   4.712   5.796
 5081SOL    HW216143   3.208   4.829   5.727
 5082SOL     OW16144   5.592   6.984   2.739
 5082SOL    HW116145   5.650   6.940   2.670
 5082SOL    HW216146   5.610   0.054   2.739
 5083SOL     OW16147   0.675   0.509   3.419
 5083SOL    HW116148   0.659   0.472   3.510
 5083SOL    HW216149   0.640   0.445   3.350
 5084SOL     OW16150   3.524   5.632   5.853
 5084SOL    HW116151   3.497   5.536   5.846
 5084SOL    HW216152   3.469   5.686   5.788
 5085SOL     OW16153   0.717   3.889   6.727
 5085SOL    HW116154   0.646   3.838   6.678
 5085SOL    HW216155   0.676   3.966   6.775
 5086SOL     OW16156   1.145   4.476   2.152
 5086SOL    HW116157   1.117   4.381   2.166
 5086SOL    HW216158   1.103   4.511   2.069
 5087SOL     OW16159   6.557   5.521   1.479
 5087SOL    HW116160   6.457   5.525   1.469
 5087SOL    HW216161   6.593   5.447   1.422
 5088SOL     OW16162   4.274   4.786   2.106
 5088SOL    HW116163   4.321   4.712   2.059
 5088SOL    HW216164   4.288   4.777   2.205
 5089SOL     OW16165   5.213   6.051   5.847
 5089SOL    HW116166   5.310   6.076   5.841
 5089SOL    HW216167   5.204   5.963   5.893
 5090SOL     OW16168   2.208   6.603   4.201
 5090SOL    HW116169   2.263   6.686   4.209
 5090SOL    HW216170   2.264   6.531   4.160
 5091SOL     OW16171   6.493   6.130   5.983
 5091SOL    HW116172   6.535   6.039   5.990
 5091SOL    HW216173   6.401   6.128   6.022
 5092SOL     OW16174   3.817   3.003   4.497
 5092SOL    HW116175   3.876   2.938   4.545
 5092SOL    HW216176   3.728   2.960   4.479
 5093SOL     OW16177   3.342   2.106   3.664
 5093SOL    HW116178   3.358   2.179   3.597
 5093SOL    HW216179   3.305   2.026   3.618
 5094SOL     OW16180   2.525   5.567   4.927
 5094SOL    HW116181   2.506   5.620   5.010
 5094SOL    HW216182   2.526   5.628   4.848
 5095SOL     OW16183   5.891   2.113   3.168
 5095SOL    HW116184   5.878   2.147   3.262
 5095SOL    HW216185   5.858   2.182   3.104
 5096SOL     OW16186   5.846   2.662   5.741
 5096SOL    HW116187   5.758   2.634   5.779
 5096SOL    HW216188   5.836   2.680   5.643
 5097SOL     OW16189   0.946   0.651   5.565
 5097SOL    HW116190   0.938   0.616   5.659
 5097SOL    HW216191   1.025   0.711   5.558
 5098SOL     OW16192   2.700   2.173   1.113
 5098SOL    HW116193   2.726   2.227   1.034
 5098SOL    HW216194   2.701   2.231   1.195
 5099SOL     OW16195   1.998   5.599   2.055
 5099SOL    HW116196   1.974   5.684   2.102
 5099SOL    HW216197   1.928   5.579   1.987
 5100SOL     OW16198   6.122   3.934   1.132
 5100SOL    HW116199   6.099   3.838   1.119
 5100SOL    HW216200   6.135   3.952   1.230
 5101SOL     OW16201   3.722   1.820   5.195
 5101SOL    HW116202   3.702   1.918   5.188
 5101SOL    HW216203   3.719   1.793   5.291
 5102SOL     OW16204   5.530   4.484   5.185
 5102SOL    HW116205   5.507   4.387   5.198
 5102SOL    HW216206   5.470   4.523   5.115
 5103SOL     OW16207   0.503   0.394   5.585
 5103SOL    HW116208   0.584   0.337   5.594
 5103SOL    HW216209   0.530   0.489   5.568
 5104SOL     OW16210   3.947   3.491   3.763
 5104SOL    HW116211   4.008   3.429   3.714
 5104SOL    HW216212   3.889   3.439   3.825
 5105SOL     OW16213   4.377   2.861   0.090
 5105SOL    HW116214   4.281   2.861   0.063
 5105SOL    HW216215   4.403   2.771   0.124
 5106SOL     OW16216   4.266   1.007   1.264
 5106SOL    HW116217   4.224   1.052   1.185
 5106SOL    HW216218   4.263   0.908   1.252
 5107SOL     OW16219   6.298   4.860   6.538
 5107SOL    HW116220   6.295   4.772   6.584
 5107SOL    HW216221   6.239   4.857   6.457
 5108SOL     OW16222   3.791   4.045   0.709
 5108SOL    HW116223   3.891   4.043   0.709
 5108SOL    HW216224   3.759   4.099   0.788
 5109SOL     OW16225   2.162   2.398   2.284
 5109SOL    HW116226   2.160   2.302   2.311
 5109SOL    HW216227   2.209   2.452   2.354
 5110SOL     OW16228   3.648   6.307   4.643
 5110SOL    HW116229   3.674   6.399   4.614
 5110SOL    HW216230   3.550   6.294   4.631
 5111SOL     OW16231   2.458   5.672   6.313
 5111SOL    HW116232   2.503   5.621   6.240
 5111SOL    HW216233   2.403   5.745   6.274
 5112SOL     OW16234   0.994   4.495   2.389
 5112SOL    HW116235   0.955   4.551   2.315
 5112SOL    HW216236   1.067   4.438   2.352
 5113SOL     OW16237   2.480   4.310   0.998
 5113SOL    HW116238   2.486   4.237   1.065
 5113SOL    HW216239   2.558   4.304   0.935
 5114SOL     OW16240   4.621   4.959   1.495
 5114SOL    HW116241   4.524   4.984   1.491
 5114SOL    HW216242   4.660   4.992   1.582
 5115SOL     OW16243   1.409   4.328   0.125
 5115SOL    HW116244   1.362   4.252   0.080
 5115SOL    HW216245   1.369   4.414   0.096
 5116SOL     OW16246   0.231   6.940   5.677
 5116SOL    HW116247   0.167   7.012   5.703
 5116SOL    HW216248   0.323   6.979   5.667
 5117SOL     OW16249   0.266   4.075   4.078
 5117SOL    HW116250   0.174   4.110   4.063
 5117SOL    HW216251   0.304   4.115   4.161
 5118SOL     OW16252   4.413   4.859   0.158
 5118SOL    HW116253   4.461   4.945   0.174
 5118SOL    HW216254   4.470   4.800   0.100
 5119SOL     OW16255   5.238   1.678   0.888
 5119SOL    HW116256   5.273   1.772   0.896
 5119SOL    HW216257   5.311   1.613   0.909
 5120SOL     OW16258   5.943   6.441   6.466
 5120SOL    HW116259   5.859   6.487   6.495
 5120SOL    HW216260   6.000   6.506   6.416
 5121SOL     OW16261   1.803   3.239   0.486
 5121SOL    HW116262   1.799   3.336   0.463
 5121SOL    HW216263   1.793   3.184   0.403
 5122SOL     OW16264   5.137   5.421   3.644
 5122SOL    HW116265   5.063   5.485   3.625
 5122SOL    HW216266   5.130   5.388   3.738
 5123SOL     OW16267   4.713   2.114   1.385
 5123SOL    HW116268   4.794   2.172   1.379
 5123SOL    HW216269   4.705   2.078   1.478
 5124SOL     OW16270   0.592   5.769   4.553
 5124SOL    HW116271   0.494   5.773   4.568
 5124SOL    HW216272   0.640   5.804   4.633
 5125SOL     OW16273   5.342   2.592   3.781
 5125SOL    HW116274   5.433   2.559   3.808
 5125SOL    HW216275   5.282   2.514   3.766
 5126SOL     OW16276   2.556   0.823   1.984
 5126SOL    HW116277   2.512   0.895   1.930
 5126SOL    HW216278   2.556   0.849   2.081
 5127SOL     OW16279   2.467   6.499   0.813
 5127SOL    HW116280   2.385   6.487   0.757
 5127SOL    HW216281   2.440   6.538   0.901
 5128SOL     OW16282   4.336   0.239   1.897
 5128SOL    HW116283   4.399   0.297   1.949
 5128SOL    HW216284   4.266   0.297   1.855
 5129SOL     OW16285   6.042   5.886   0.251
 5129SOL    HW116286   6.025   5.792   0.221
 5129SOL    HW216287   5.994   5.950   0.191
 5130SOL     OW16288   6.002   4.967   2.228
 5130SOL    HW116289   5.964   5.060   2.237
 5130SOL    HW216290   5.989   4.918   2.314
 5131SOL     OW16291   2.666   2.215   2.208
 5131SOL    HW116292   2.732   2.267   2.154
 5131SOL    HW216293   2.579   2.265   2.211
 5132SOL     OW16294   2.595   6.420   5.449
 5132SOL    HW116295   2.556   6.347   5.392
 5132SOL    HW216296   2.574   6.509   5.409
 5133SOL     OW16297   3.600   6.289   4.916
 5133SOL    HW116298   3.625   6.198   4.949
 5133SOL    HW216299   3.636   6.301   4.823
 5134SOL     OW16300   0.923   3.197   6.624
 5134SOL    HW116301   0.829   3.172   6.646
 5134SOL    HW216302   0.970   3.228   6.706
 5135SOL     OW16303   6.476   2.240   3.650
 5135SOL    HW116304   6.387   2.226   3.692
 5135SOL    HW216305   6.489   2.174   3.576
 5136SOL     OW16306   3.314   2.062   6.005
 5136SOL    HW116307   3.281   2.064   6.099
 5136SOL    HW216308   3.283   1.978   5.960
 5137SOL     OW16309   3.844   3.330   0.037
 5137SOL    HW116310   3.924   3.312   0.095
 5137SOL    HW216311   3.772   3.264   0.059
 5138SOL     OW16312   2.313   2.874   5.976
 5138SOL    HW116313   2.385   2.916   5.921
 5138SOL    HW216314   2.262   2.946   6.024
 5139SOL     OW16315   0.767   0.070   3.698
 5139SOL    HW116316   0.680   0.118   3.685
 5139SOL    HW216317   0.751   7.000   3.696
 5140SOL     OW16318   3.363   3.128   2.176
 5140SOL    HW116319   3.328   3.136   2.269
 5140SOL    HW216320   3.307   3.062   2.125
 5141SOL     OW16321   0.870   3.488   5.678
 5141SOL    HW116322   0.801   3.427   5.638
 5141SOL    HW216323   0.913   3.442   5.756
 5142SOL     OW16324   5.341   3.491   1.956
 5142SOL    HW116325   5.344   3.406   1.904
 5142SOL    HW216326   5.273   3.482   2.029
 5143SOL     OW16327   0.268   5.068   6.029
 5143SOL    HW116328   0.235   5.162   6.026
 5143SOL    HW216329   0.361   5.064   5.992
 5144SOL     OW16330   1.679   1.574   5.088
 5144SOL    HW116331   1.739   1.516   5.142
 5144SOL    HW216332   1.592   1.527   5.073
 5145SOL     OW16333   3.690   5.286   6.057
 5145SOL    HW116334   3.623   5.310   5.987
 5145SOL    HW216335   3.645   5.276   6.145
 5146SOL     OW16336   3.384   5.012   1.045
 5146SOL    HW116337   3.414   4.932   1.097
 5146SOL    HW216338   3.464   5.057   1.005
 5147SOL     OW16339   0.361   5.009   6.356
 5147SOL    HW116340   0.288   5.058   6.404
 5147SOL    HW216341   0.321   4.941   6.294
 5148SOL     OW16342   7.021   0.421   1.605
 5148SOL    HW116343   6.927   0.427   1.637
 5148SOL    HW216344   0.046   0.365   1.668
 5149SOL     OW16345   0.067   0.699   5.571
 5149SOL    HW116346   0.101   0.790   5.591
 5149SOL    HW216347   0.144   0.634   5.571
 5150SOL     OW16348   2.611   5.228   5.593
 5150SOL    HW116349   2.697   5.277   5.579
 5150SOL    HW216350   2.630   5.131   5.608
 5151SOL     OW16351   4.689   0.575   5.926
 5151SOL    HW116352   4.788   0.561   5.914
 5151SOL    HW216353   4.656   0.516   5.999
 5152SOL     OW16354   6.707   4.842   6.536
 5152SOL    HW116355   6.647   4.892   6.474
 5152SOL    HW216356   6.787   4.898   6.559
 5153SOL     OW16357   2.641   3.261   1.038
 5153SOL    HW116358   2.557   3.302   1.072
 5153SOL    HW216359   2.688   3.215   1.113
 5154SOL     OW16360   1.192   4.783   5.147
 5154SOL    HW116361   1.214   4.688   5.127
 5154SOL    HW216362   1.195   4.836   5.063
 5155SOL     OW16363   4.067   0.862   1.889
 5155SOL    HW116364   4.110   0.799   1.825
 5155SOL    HW216365   4.004   0.812   1.949
 5156SOL     OW16366   5.273   3.074   5.772
 5156SOL    HW116367   5.203   3.073   5.702
 5156SOL    HW216368   5.338   3.000   5.755
 5157SOL     OW16369   6.292   2.270   3.345
 5157SOL    HW116370   6.241   2.215   3.280
 5157SOL    HW216371   6.351   2.334   3.296
 5158SOL     OW16372   3.389   0.463   1.696
 5158SOL    HW116373   3.437   0.424   1.775
 5158SOL    HW216374   3.305   0.508   1.726
 5159SOL     OW16375   2.081   2.927   5.136
 5159SOL    HW116376   2.010   2.989   5.104
 5159SOL    HW216377   2.159   2.932   5.073
 5160SOL     OW16378   2.812   2.283   3.800
 5160SOL    HW116379   2.759   2.368   3.791
 5160SOL    HW216380   2.902   2.304   3.837
 5161SOL     OW16381   1.845   3.120   6.968
 5161SOL    HW116382   1.860   3.056   6.892
 5161SOL    HW216383   1.782   3.192   6.938
 5162SOL     OW16384   6.353   5.832   4.703
 5162SOL    HW116385   6.294   5.785   4.638
 5162SOL    HW216386   6.440   5.782   4.710
 5163SOL     OW16387   5.927   4.136   0.638
 5163SOL    HW116388   5.831   4.108   0.649
 5163SOL    HW216389   5.932   4.206   0.566
 5164SOL     OW16390   6.957   6.242   4.743
 5164SOL    HW116391   6.901   6.309   4.791
 5164SOL    HW216392   6.984   6.279   4.654
 5165SOL     OW16393   5.826   4.352   5.571
 5165SOL    HW116394   5.825   4.318   5.477
 5165SOL    HW216395   5.756   4.305   5.625
 5166SOL     OW16396   0.615   6.925   2.912
 5166SOL    HW116397   0.607   6.918   3.012
 5166SOL    HW216398   0.710   6.946   2.888
 5167SOL     OW16399   1.762   0.415   5.327
 5167SOL    HW116400   1.839   0.474   5.353
 5167SOL    HW216401   1.685   0.472   5.299
 5168SOL     OW16402   3.348   2.069   2.433
 5168SOL    HW116403   3.435   2.097   2.393
 5168SOL    HW216404   3.280   2.141   2.420
 5169SOL     OW16405   3.791   5.242   6.708
 5169SOL    HW116406   3.812   5.241   6.611
 5169SOL    HW216407   3.814   5.154   6.749
 5170SOL     OW16408   4.200   5.301   4.422
 5170SOL    HW116409   4.171   5.287   4.328
 5170SOL    HW216410   4.223   5.212   4.463
 5171SOL     OW16411   2.712   4.797   5.181
 5171SOL    HW116412   2.785   4.729   5.171
 5171SOL    HW216413   2.652   4.793   5.101
 5172SOL     OW16414   1.986   4.043   6.244
 5172SOL    HW116415   1.910   4.067   6.305
 5172SOL    HW216416   1.977   4.095   6.159
 5173SOL     OW16417   0.207   2.548   4.390
 5173SOL    HW116418   0.163   2.459   4.400
 5173SOL    HW216419   0.289   2.538   4.333
 5174SOL     OW16420   2.947   4.597   6.858
 5174SOL    HW116421   2.907   4.688   6.872
 5174SOL    HW216422   2.896   4.529   6.910
 5175SOL     OW16423   0.594   5.233   6.583
 5175SOL    HW116424   0.653   5.249   6.504
 5175SOL    HW216425   0.505   5.276   6.567
 5176SOL     OW16426   5.467   3.249   6.574
 5176SOL    HW116427   5.526   3.285   6.645
 5176SOL    HW216428   5.494   3.287   6.485
 5177SOL     OW16429   4.638   4.724   6.466
 5177SOL    HW116430   4.565   4.698   6.403
 5177SOL    HW216431   4.607   4.708   6.560
 5178SOL     OW16432   3.548   4.427   0.556
 5178SOL    HW116433   3.546   4.332   0.588
 5178SOL    HW216434   3.455   4.463   0.555
 5179SOL     OW16435   3.309   6.468   5.319
 5179SOL    HW116436   3.381   6.421   5.268
 5179SOL    HW216437   3.225   6.414   5.316
 5180SOL     OW16438   4.758   1.585   6.995
 5180SOL    HW116439   4.798   1.672   7.024
 5180SOL    HW216440   4.668   1.601   6.955
 5181SOL     OW16441   3.022   6.405   2.425
 5181SOL    HW116442   2.974   6.346   2.360
 5181SOL    HW216443   3.051   6.351   2.504
 5182SOL     OW16444   4.857   4.056   1.061
 5182SOL    HW116445   4.870   4.139   1.114
 5182SOL    HW216446   4.807   3.988   1.115
 5183SOL     OW16447   3.518   0.377   3.754
 5183SOL    HW116448   3.431   0.426   3.750
 5183SOL    HW216449   3.574   0.415   3.828
 5184SOL     OW16450   0.786   2.120   2.895
 5184SOL    HW116451   0.778   2.156   2.988
 5184SOL    HW216452   0.717   2.049   2.880
 5185SOL     OW16453   3.593   0.186   2.051
 5185SOL    HW116454   3.590   0.285   2.062
 5185SOL    HW216455   3.615   0.143   2.139
 5186SOL     OW16456   5.603   3.802   0.061
 5186SOL    HW116457   5.654   3.857   0.127
 5186SOL    HW216458   5.660   3.728   0.027
 5187SOL     OW16459   5.127   3.685   4.273
 5187SOL    HW116460   5.093   3.754   4.208
 5187SOL    HW216461   5.060   3.612   4.280
 5188SOL     OW16462   6.703   1.210   3.392
 5188SOL    HW116463   6.773   1.266   3.437
 5188SOL    HW216464   6.738   1.117   3.379
 5189SOL     OW16465   5.187   5.268   6.116
 5189SOL    HW116466   5.221   5.356   6.150
 5189SOL    HW216467   5.121   5.230   6.181
 5190SOL     OW16468   2.544   2.160   2.675
 5190SOL    HW116469   2.589   2.240   2.635
 5190SOL    HW216470   2.568   2.079   2.622
 5191SOL     OW16471   5.229   0.902   2.139
 5191SOL    HW116472   5.196   0.984   2.092
 5191SOL    HW216473   5.317   0.875   2.098
 5192SOL     OW16474   6.782   4.192   1.458
 5192SOL    HW116475   6.762   4.120   1.524
 5192SOL    HW216476   6.698   4.242   1.436
 5193SOL     OW16477   3.859   4.901   2.696
 5193SOL    HW116478   3.936   4.915   2.635
 5193SOL    HW216479   3.774   4.898   2.643
 5194SOL     OW16480   4.904   1.010   0.289
 5194SOL    HW116481   4.913   1.053   0.379
 5194SOL    HW216482   4.843   1.065   0.232
 5195SOL     OW16483   0.453   5.571   5.153
 5195SOL    HW116484   0.389   5.577   5.229
 5195SOL    HW216485   0.414   5.618   5.073
 5196SOL     OW16486   0.787   3.122   3.458
 5196SOL    HW116487   0.825   3.033   3.483
 5196SOL    HW216488   0.698   3.110   3.413
 5197SOL     OW16489   3.639   5.958   5.302
 5197SOL    HW116490   3.549   5.927   5.331
 5197SOL    HW216491   3.699   5.965   5.382
 5198SOL     OW16492   4.143   1.002   5.685
 5198SOL    HW116493   4.115   0.960   5.598
 5198SOL    HW216494   4.062   1.026   5.738
 5199SOL     OW16495   0.405   6.150   2.257
 5199SOL    HW116496   0.377   6.086   2.329
 5199SOL    HW216497   0.486   6.200   2.287
 5200SOL     OW16498   5.827   6.660   5.526
 5200SOL    HW116499   5.744   6.676   5.579
 5200SOL    HW216500   5.826   6.567   5.490
 5201SOL     OW16501   0.185   3.996   5.403
 5201SOL    HW116502   0.102   3.977   5.351
 5201SOL    HW216503   0.259   4.020   5.340
 5202SOL     OW16504   3.829   2.031   5.837
 5202SOL    HW116505   3.850   1.998   5.746
 5202SOL    HW216506   3.790   2.123   5.831
 5203SOL     OW16507   0.868   0.393   6.240
 5203SOL    HW116508   0.946   0.355   6.190
 5203SOL    HW216509   0.869   0.359   6.334
 5204SOL     OW16510   2.306   0.598   2.151
 5204SOL    HW116511   2.352   0.513   2.174
 5204SOL    HW216512   2.314   0.615   2.053
 5205SOL     OW16513   6.915   0.001   1.850
 5205SOL    HW116514   6.943   0.038   1.938
 5205SOL    HW216515   6.852   6.954   1.865
 5206SOL     OW16516   1.181   5.302   4.766
 5206SOL    HW116517   1.137   5.244   4.834
 5206SOL    HW216518   1.261   5.346   4.807
 5207SOL     OW16519   4.719   1.613   4.567
 5207SOL    HW116520   4.651   1.553   4.609
 5207SOL    HW216521   4.761   1.566   4.490
 5208SOL     OW16522   6.535   1.553   0.154
 5208SOL    HW116523   6.633   1.542   0.173
 5208SOL    HW216524   6.518   1.646   0.122
 5209SOL     OW16525   5.321   6.074   2.346
 5209SOL    HW116526   5.340   6.069   2.248
 5209SOL    HW216527   5.230   6.036   2.364
 5210SOL     OW16528   6.049   4.261   1.550
 5210SOL    HW116529   6.043   4.358   1.574
 5210SOL    HW216530   6.012   4.206   1.625
 5211SOL     OW16531   4.777   2.993   4.761
 5211SOL    HW116532   4.849   2.980   4.693
 5211SOL    HW216533   4.691   2.957   4.726
 5212SOL     OW16534   6.283   3.601   0.084
 5212SOL    HW116535   6.313   3.688   0.044
 5212SOL    HW216536   6.217   3.618   0.157
 5213SOL     OW16537   3.788   3.325   3.939
 5213SOL    HW116538   3.699   3.317   3.893
 5213SOL    HW216539   3.783   3.282   4.029
 5214SOL     OW16540   6.268   2.816   5.732
 5214SOL    HW116541   6.232   2.741   5.789
 5214SOL    HW216542   6.365   2.802   5.716
 5215SOL     OW16543   0.390   4.727   5.012
 5215SOL    HW116544   0.372   4.814   4.965
 5215SOL    HW216545   0.304   4.681   5.029
 5216SOL     OW16546   6.590   4.500   0.561
 5216SOL    HW116547   6.651   4.578   0.570
 5216SOL    HW216548   6.629   4.435   0.495
 5217SOL     OW16549   3.214   0.548   2.519
 5217SOL    HW116550   3.122   0.551   2.481
 5217SOL    HW216551   3.215   0.489   2.600
 5218SOL     OW16552   6.060   0.165   0.676
 5218SOL    HW116553   6.130   0.118   0.622
 5218SOL    HW216554   6.104   0.231   0.736
 5219SOL     OW16555   4.317   2.058   4.994
 5219SOL    HW116556   4.351   2.115   4.920
 5219SOL    HW216557   4.222   2.083   5.015
 5220SOL     OW16558   1.931   3.963   4.529
 5220SOL    HW116559   1.866   3.939   4.456
 5220SOL    HW216560   2.014   3.908   4.519
 5221SOL     OW16561   4.024   6.327   0.778
 5221SOL    HW116562   4.004   6.288   0.868
 5221SOL    HW216563   3.973   6.277   0.708
 5222SOL     OW16564   5.893   3.335   2.386
 5222SOL    HW116565   5.947   3.367   2.308
 5222SOL    HW216566   5.796   3.350   2.368
 5223SOL     OW16567   6.810   2.221   0.560
 5223SOL    HW116568   6.861   2.219   0.646
 5223SOL    HW216569   6.719   2.183   0.574
 5224SOL     OW16570   1.888   1.839   4.580
 5224SOL    HW116571   1.848   1.840   4.672
 5224SOL    HW216572   1.829   1.785   4.519
 5225SOL     OW16573   6.873   2.160   5.965
 5225SOL    HW116574   6.856   2.061   5.972
 5225SOL    HW216575   6.966   2.179   5.995
 5226SOL     OW16576   0.041   0.064   4.159
 5226SOL    HW116577   0.062   0.160   4.182
 5226SOL    HW216578   0.112   0.005   4.196
 5227SOL     OW16579   2.225   2.703   6.258
 5227SOL    HW116580   2.313   2.750   6.257
 5227SOL    HW216581   2.151   2.770   6.256
 5228SOL     OW16582   0.627   2.370   5.338
 5228SOL    HW116583   0.651   2.397   5.245
 5228SOL    HW216584   0.709   2.338   5.386
 5229SOL     OW16585   4.042   1.505   0.381
 5229SOL    HW116586   3.943   1.492   0.379
 5229SOL    HW216587   4.087   1.416   0.395
 5230SOL     OW16588   6.624   0.397   2.080
 5230SOL    HW116589   6.625   0.379   1.982
 5230SOL    HW216590   6.530   0.416   2.110
 5231SOL     OW16591   6.496   3.963   1.596
 5231SOL    HW116592   6.451   4.052   1.596
 5231SOL    HW216593   6.471   3.912   1.678
 5232SOL     OW16594   1.569   1.616   5.931
 5232SOL    HW116595   1.483   1.661   5.907
 5232SOL    HW216596   1.612   1.579   5.849
 5233SOL     OW16597   2.448   6.946   3.569
 5233SOL    HW116598   2.425   0.006   3.530
 5233SOL    HW216599   2.364   6.901   3.599
 5234SOL     OW16600   3.691   2.215   6.202
 5234SOL    HW116601   3.593   2.237   6.198
 5234SOL    HW216602   3.721   2.215   6.297
 5235SOL     OW16603   2.360   2.979   1.453
 5235SOL    HW116604   2.455   2.953   1.434
 5235SOL    HW216605   2.346   3.074   1.427
 5236SOL     OW16606   2.856   4.991   1.787
 5236SOL    HW116607   2.899   5.028   1.705
 5236SOL    HW216608   2.922   4.934   1.836
 5237SOL     OW16609   1.414   1.378   1.333
 5237SOL    HW116610   1.492   1.346   1.386
 5237SOL    HW216611   1.427   1.358   1.236
 5238SOL     OW16612   6.115   0.750   3.225
 5238SOL    HW116613   6.067   0.759   3.138
 5238SOL    HW216614   6.051   0.761   3.300
 5239SOL     OW16615   2.351   3.682   0.092
 5239SOL    HW116616   2.270   3.690   0.034
 5239SOL    HW216617   2.344   3.746   0.168
 5240SOL     OW16618   1.927   4.201   5.730
 5240SOL    HW116619   1.945   4.238   5.639
 5240SOL    HW216620   1.918   4.101   5.725
 5241SOL     OW16621   2.190   5.294   3.588
 5241SOL    HW116622   2.209   5.285   3.490
 5241SOL    HW216623   2.276   5.310   3.637
 5242SOL     OW16624   4.113   5.893   5.552
 5242SOL    HW116625   4.204   5.904   5.512
 5242SOL    HW216626   4.106   5.801   5.592
 5243SOL     OW16627   1.993   5.425   4.105
 5243SOL    HW116628   1.914   5.451   4.161
 5243SOL    HW216629   2.043   5.506   4.078
 5244SOL     OW16630   5.520   0.560   6.470
 5244SOL    HW116631   5.500   0.553   6.372
 5244SOL    HW216632   5.534   0.655   6.495
 5245SOL     OW16633   3.203   3.684   1.664
 5245SOL    HW116634   3.121   3.633   1.688
 5245SOL    HW216635   3.283   3.624   1.672
 5246SOL     OW16636   6.562   2.682   5.616
 5246SOL    HW116637   6.649   2.657   5.574
 5246SOL    HW216638   6.563   2.779   5.641
 5247SOL     OW16639   4.669   1.018   5.426
 5247SOL    HW116640   4.726   1.072   5.364
 5247SOL    HW216641   4.602   1.077   5.471
 5248SOL     OW16642   4.274   1.033   2.221
 5248SOL    HW116643   4.289   1.107   2.156
 5248SOL    HW216644   4.290   0.945   2.176
 5249SOL     OW16645   6.769   6.056   2.131
 5249SOL    HW116646   6.801   5.962   2.119
 5249SOL    HW216647   6.846   6.115   2.151
 5250SOL     OW16648   1.108   5.205   0.191
 5250SOL    HW116649   1.043   5.158   0.252
 5250SOL    HW216650   1.128   5.296   0.227
 5251SOL     OW16651   1.270   4.291   6.340
 5251SOL    HW116652   1.225   4.272   6.252
 5251SOL    HW216653   1.292   4.388   6.345
 5252SOL     OW16654   4.183   6.303   3.224
 5252SOL    HW116655   4.117   6.229   3.238
 5252SOL    HW216656   4.221   6.332   3.312
 5253SOL     OW16657   0.547   5.998   4.767
 5253SOL    HW116658   0.558   6.029   4.672
 5253SOL    HW216659   0.637   5.994   4.811
 5254SOL     OW16660   4.326   6.170   2.069
 5254SOL    HW116661   4.405   6.228   2.090
 5254SOL    HW216662   4.244   6.226   2.061
 5255SOL     OW16663   0.460   1.513   6.443
 5255SOL    HW116664   0.519   1.588   6.412
 5255SOL    HW216665   0.507   1.426   6.429
 5256SOL     OW16666   4.202   1.801   2.676
 5256SOL    HW116667   4.285   1.828   2.626
 5256SOL    HW216668   4.173   1.877   2.735
 5257SOL     OW16669   5.612   1.034   0.105
 5257SOL    HW116670   5.707   1.033   0.074
 5257SOL    HW216671   5.562   0.959   0.062
 5258SOL     OW16672   5.886   2.083   5.494
 5258SOL    HW116673   5.800   2.080   5.545
 5258SOL    HW216674   5.943   2.006   5.521
 5259SOL     OW16675   4.374   6.046   4.683
 5259SOL    HW116676   4.460   6.091   4.660
 5259SOL    HW216677   4.298   6.110   4.671
 5260SOL     OW16678   1.448   6.906   2.023
 5260SOL    HW116679   1.485   6.819   2.056
 5260SOL    HW216680   1.519   6.957   1.976
 5261SOL     OW16681   6.306   4.514   0.432
 5261SOL    HW116682   6.389   4.478   0.474
 5261SOL    HW216683   6.228   4.492   0.490
 5262SOL     OW16684   2.230   2.156   2.022
 5262SOL    HW116685   2.301   2.120   2.082
 5262SOL    HW216686   2.168   2.214   2.075
 5263SOL     OW16687   0.437   6.110   2.732
 5263SOL    HW116688   0.412   6.206   2.723
 5263SOL    HW216689   0.444   6.086   2.829
 5264SOL     OW16690   6.835   2.430   2.207
 5264SOL    HW116691   6.778   2.351   2.185
 5264SOL    HW216692   6.863   2.426   2.303
 5265SOL     OW16693   0.942   5.868   5.629
 5265SOL    HW116694   0.884   5.808   5.575
 5265SOL    HW216695   0.890   5.907   5.705
 5266SOL     OW16696   1.012   0.074   6.178
 5266SOL    HW116697   1.058   0.020   6.107
 5266SOL    HW216698   1.046   0.168   6.175
 5267SOL     OW16699   5.978   1.068   4.946
 5267SOL    HW116700   6.040   1.130   4.993
 5267SOL    HW216701   5.889   1.112   4.934
 5268SOL     OW16702   5.633   0.399   5.893
 5268SOL    HW116703   5.585   0.428   5.810
 5268SOL    HW216704   5.575   0.416   5.973
 5269SOL     OW16705   1.115   0.524   4.527
 5269SOL    HW116706   1.205   0.558   4.553
 5269SOL    HW216707   1.105   0.528   4.428
 5270SOL     OW16708   1.294   1.771   0.017
 5270SOL    HW116709   1.355   1.700   7.009
 5270SOL    HW216710   1.341   1.859   0.012
 5271SOL     OW16711   1.414   5.919   6.327
 5271SOL    HW116712   1.446   5.883   6.415
 5271SOL    HW216713   1.360   5.849   6.281
 5272SOL     OW16714   4.126   0.346   5.901
 5272SOL    HW116715   4.200   0.324   5.837
 5272SOL    HW216716   4.056   0.400   5.855
 5273SOL     OW16717   2.176   1.512   3.533
 5273SOL    HW116718   2.164   1.592   3.474
 5273SOL    HW216719   2.088   1.468   3.546
 5274SOL     OW16720   6.291   4.460   1.043
 5274SOL    HW116721   6.343   4.482   1.126
 5274SOL    HW216722   6.194   4.477   1.060
 5275SOL     OW16723   5.617   0.878   6.262
 5275SOL    HW116724   5.579   0.785   6.263
 5275SOL    HW216725   5.714   0.874   6.286
 5276SOL     OW16726   3.463   6.131   1.609
 5276SOL    HW116727   3.384   6.168   1.658
 5276SOL    HW216728   3.488   6.194   1.535
 5277SOL     OW16729   1.641   3.377   1.697
 5277SOL    HW116730   1.614   3.433   1.618
 5277SOL    HW216731   1.672   3.288   1.665
 5278SOL     OW16732   4.065   3.839   3.516
 5278SOL    HW116733   4.035   3.810   3.607
 5278SOL    HW216734   4.161   3.814   3.503
 5279SOL     OW16735   1.468   6.518   3.117
 5279SOL    HW116736   1.524   6.546   3.039
 5279SOL    HW216737   1.513   6.443   3.165
 5280SOL     OW16738   3.875   0.411   3.816
 5280SOL    HW116739   3.915   0.324   3.784
 5280SOL    HW216740   3.785   0.393   3.854
 5281SOL     OW16741   6.686   2.855   3.653
 5281SOL    HW116742   6.621   2.789   3.691
 5281SOL    HW216743   6.641   2.907   3.581
 5282SOL     OW16744   5.588   2.485   1.198
 5282SOL    HW116745   5.676   2.529   1.180
 5282SOL    HW216746   5.525   2.504   1.122
 5283SOL     OW16747   5.077   5.181   5.194
 5283SOL    HW116748   5.094   5.148   5.286
 5283SOL    HW216749   5.005   5.126   5.151
 5284SOL     OW16750   5.466   2.942   4.313
 5284SOL    HW116751   5.434   2.864   4.258
 5284SOL    HW216752   5.520   2.907   4.390
 5285SOL     OW16753   4.310   6.100   2.553
 5285SOL    HW116754   4.270   6.190   2.575
 5285SOL    HW216755   4.245   6.048   2.498
 5286SOL     OW16756   1.878   4.734   2.274
 5286SOL    HW116757   1.916   4.756   2.364
 5286SOL    HW216758   1.952   4.727   2.207
 5287SOL     OW16759   0.523   0.561   2.614
 5287SOL    HW116760   0.524   0.461   2.617
 5287SOL    HW216761   0.552   0.597   2.703
 5288SOL     OW16762   3.558   0.508   0.939
 5288SOL    HW116763   3.519   0.578   0.999
 5288SOL    HW216764   3.636   0.465   0.985
 5289SOL     OW16765   1.717   6.720   1.869
 5289SOL    HW116766   1.650   6.770   1.814
 5289SOL    HW216767   1.774   6.784   1.920
 5290SOL     OW16768   5.891   6.748   6.598
 5290SOL    HW116769   5.935   6.728   6.685
 5290SOL    HW216770   5.822   6.679   6.578
 5291SOL     OW16771   1.229   5.550   7.025
 5291SOL    HW116772   1.318   5.530   6.985
 5291SOL    HW216773   1.159   5.491   6.985
 5292SOL     OW16774   5.722   1.537   1.590
 5292SOL    HW116775   5.646   1.477   1.617
 5292SOL    HW216776   5.791   1.538   1.662
 5293SOL     OW16777   2.092   1.387   4.124
 5293SOL    HW116778   2.125   1.471   4.167
 5293SOL    HW216779   2.123   1.384   4.029
 5294SOL     OW16780   3.588   2.064   6.654
 5294SOL    HW116781   3.647   2.107   6.586
 5294SOL    HW216782   3.640   2.045   6.737
 5295SOL     OW16783   0.252   1.555   3.255
 5295SOL    HW116784   0.310   1.524   3.179
 5295SOL    HW216785   0.310   1.574   3.335
 5296SOL     OW16786   0.367   3.006   6.602
 5296SOL    HW116787   0.270   3.001   6.624
 5296SOL    HW216788   0.381   3.067   6.524
 5297SOL     OW16789   0.728   1.881   1.590
 5297SOL    HW116790   0.770   1.831   1.666
 5297SOL    HW216791   0.796   1.941   1.549
 5298SOL     OW16792   0.937   4.066   2.091
 5298SOL    HW116793   1.030   4.047   2.057
 5298SOL    HW216794   0.875   3.993   2.062
 5299SOL     OW16795   4.165   0.197   7.028
 5299SOL    HW116796   4.153   0.296   7.023
 5299SOL    HW216797   4.164   0.158   6.936
 5300SOL     OW16798   6.860   5.106   4.768
 5300SOL    HW116799   6.786   5.057   4.813
 5300SOL    HW216800   6.880   5.064   4.679
 5301SOL     OW16801   5.320   0.327   6.510
 5301SOL    HW116802   5.289   0.314   6.604
 5301SOL    HW216803   5.382   0.405   6.506
 5302SOL     OW16804   0.121   3.759   2.955
 5302SOL    HW116805   0.179   3.694   3.006
 5302SOL    HW216806   0.164   3.780   2.868
 5303SOL     OW16807   2.310   4.396   2.378
 5303SOL    HW116808   2.320   4.495   2.388
 5303SOL    HW216809   2.324   4.370   2.283
 5304SOL     OW16810   4.738   1.688   5.689
 5304SOL    HW116811   4.659   1.660   5.743
 5304SOL    HW216812   4.725   1.781   5.655
 5305SOL     OW16813   4.071   1.677   4.588
 5305SOL    HW116814   4.122   1.748   4.540
 5305SOL    HW216815   3.979   1.710   4.609
 5306SOL     OW16816   2.563   6.939   2.851
 5306SOL    HW116817   2.658   6.920   2.876
 5306SOL    HW216818   2.518   6.988   2.926
 5307SOL     OW16819   4.913   6.339   6.791
 5307SOL    HW116820   4.836   6.282   6.817
 5307SOL    HW216821   4.973   6.353   6.871
 5308SOL     OW16822   6.833   1.427   1.649
 5308SOL    HW116823   6.889   1.460   1.572
 5308SOL    HW216824   6.859   1.476   1.732
 5309SOL     OW16825   3.488   3.791   5.857
 5309SOL    HW116826   3.542   3.717   5.897
 5309SOL    HW216827   3.412   3.814   5.918
 5310SOL     OW16828   5.170   2.975   0.328
 5310SOL    HW116829   5.095   3.037   0.354
 5310SOL    HW216830   5.138   2.881   0.334
 5311SOL     OW16831   6.848   5.850   0.176
 5311SOL    HW116832   6.911   5.838   0.099
 5311SOL    HW216833   6.755   5.860   0.143
 5312SOL     OW16834   0.697   4.035   1.790
 5312SOL    HW116835   0.786   4.078   1.808
 5312SOL    HW216836   0.706   3.935   1.800
 5313SOL     OW16837   0.474   5.928   6.604
 5313SOL    HW116838   0.508   5.852   6.548
 5313SOL    HW216839   0.380   5.908   6.634
 5314SOL     OW16840   3.836   4.714   0.706
 5314SOL    HW116841   3.818   4.755   0.796
 5314SOL    HW216842   3.820   4.616   0.710
 5315SOL     OW16843   5.582   1.302   2.660
 5315SOL    HW116844   5.550   1.278   2.752
 5315SOL    HW216845   5.638   1.228   2.623
 5316SOL     OW16846   5.401   4.880   4.602
 5316SOL    HW116847   5.364   4.970   4.578
 5316SOL    HW216848   5.335   4.830   4.657
 5317SOL     OW16849   0.232   4.725   1.441
 5317SOL    HW116850   0.215   4.819   1.412
 5317SOL    HW216851   0.327   4.715   1.470
 5318SOL     OW16852   6.489   2.618   3.736
 5318SOL    HW116853   6.578   2.616   3.782
 5318SOL    HW216854   6.445   2.707   3.751
 5319SOL     OW16855   2.755   6.286   2.815
 5319SOL    HW116856   2.707   6.368   2.847
 5319SOL    HW216857   2.811   6.308   2.735
 5320SOL     OW16858   5.981   1.922   0.165
 5320SOL    HW116859   5.982   1.826   0.139
 5320SOL    HW216860   5.944   1.932   0.257
 5321SOL     OW16861   2.836   4.841   6.915
 5321SOL    HW116862   2.772   4.917   6.900
 5321SOL    HW216863   2.838   4.819   7.013
 5322SOL     OW16864   2.930   6.419   0.293
 5322SOL    HW116865   2.937   6.482   0.215
 5322SOL    HW216866   2.989   6.452   0.367
 5323SOL     OW16867   6.494   3.041   0.565
 5323SOL    HW116868   6.589   3.022   0.588
 5323SOL    HW216869   6.476   3.139   0.571
 5324SOL     OW16870   4.143   3.459   2.537
 5324SOL    HW116871   4.217   3.521   2.562
 5324SOL    HW216872   4.179   3.387   2.478
 5325SOL     OW16873   2.952   0.010   5.756
 5325SOL    HW116874   2.999   0.047   5.837
 5325SOL    HW216875   2.999   6.956   5.726
 5326SOL     OW16876   6.063   0.845   4.056
 5326SOL    HW116877   6.006   0.901   3.995
 5326SOL    HW216878   6.007   0.774   4.098
 5327SOL     OW16879   6.180   6.702   4.161
 5327SOL    HW116880   6.220   6.615   4.190
 5327SOL    HW216881   6.083   6.689   4.140
 5328SOL     OW16882   2.562   4.804   6.322
 5328SOL    HW116883   2.515   4.892   6.312
 5328SOL    HW216884   2.495   4.731   6.337
 5329SOL     OW16885   0.227   6.734   6.065
 5329SOL    HW116886   0.143   6.686   6.089
 5329SOL    HW216887   0.291   6.728   6.141
 5330SOL     OW16888   4.716   4.374   0.475
 5330SOL    HW116889   4.669   4.296   0.434
 5330SOL    HW216890   4.815   4.366   0.458
 5331SOL     OW16891   6.021   1.169   6.859
 5331SOL    HW116892   5.935   1.217   6.841
 5331SOL    HW216893   6.045   1.111   6.782
 5332SOL     OW16894   6.780   3.347   0.101
 5332SOL    HW116895   6.710   3.397   0.153
 5332SOL    HW216896   6.818   3.407   0.031
 5333SOL     OW16897   0.004   6.668   4.365
 5333SOL    HW116898   6.969   6.594   4.340
 5333SOL    HW216899   7.020   6.692   4.461
 5334SOL     OW16900   3.189   5.734   0.955
 5334SOL    HW116901   3.213   5.813   1.011
 5334SOL    HW216902   3.235   5.652   0.990
 5335SOL     OW16903   0.008   5.654   1.973
 5335SOL    HW116904   0.093   5.645   2.025
 5335SOL    HW216905   6.972   5.584   2.003
 5336SOL     OW16906   1.171   3.249   5.362
 5336SOL    HW116907   1.174   3.297   5.450
 5336SOL    HW216908   1.123   3.305   5.295
 5337SOL     OW16909   6.355   2.266   1.081
 5337SOL    HW116910   6.367   2.304   0.989
 5337SOL    HW216911   6.317   2.174   1.074
 5338SOL     OW16912   6.944   3.203   1.724
 5338SOL    HW116913   6.900   3.184   1.636
 5338SOL    HW216914   6.915   3.134   1.790
 5339SOL     OW16915   4.942   3.926   3.078
 5339SOL    HW116916   5.041   3.945   3.076
 5339SOL    HW216917   4.893   4.002   3.037
 5340SOL     OW16918   5.542   3.672   1.263
 5340SOL    HW116919   5.525   3.755   1.317
 5340SOL    HW216920   5.538   3.694   1.166
 5341SOL     OW16921   4.852   5.380   3.377
 5341SOL    HW116922   4.920   5.401   3.307
 5341SOL    HW216923   4.881   5.419   3.464
 5342SOL     OW16924   6.088   4.863   4.774
 5342SOL    HW116925   6.038   4.797   4.718
 5342SOL    HW216926   6.055   4.859   4.868
 5343SOL     OW16927   3.383   3.675   0.074
 5343SOL    HW116928   3.322   3.625   0.012
 5343SOL    HW216929   3.471   3.628   0.080
 5344SOL     OW16930   5.696   1.798   6.943
 5344SOL    HW116931   5.681   1.776   0.011
 5344SOL    HW216932   5.748   1.883   6.936
 5345SOL     OW16933   3.647   1.046   6.854
 5345SOL    HW116934   3.567   0.989   6.836
 5345SOL    HW216935   3.663   1.107   6.776
 5346SOL     OW16936   2.327   5.901   2.884
 5346SOL    HW116937   2.266   5.980   2.876
 5346SOL    HW216938   2.389   5.915   2.962
 5347SOL     OW16939   6.107   2.456   5.269
 5347SOL    HW116940   6.098   2.546   5.227
 5347SOL    HW216941   6.016   2.422   5.296
 5348SOL     OW16942   4.933   2.609   5.378
 5348SOL    HW116943   4.869   2.685   5.376
 5348SOL    HW216944   4.896   2.536   5.436
 5349SOL     OW16945   0.758   3.942   0.309
 5349SOL    HW116946   0.711   3.955   0.396
 5349SOL    HW216947   0.832   3.876   0.320
 5350SOL     OW16948   1.442   0.224   6.816
 5350SOL    HW116949   1.379   0.152   6.849
 5350SOL    HW216950   1.424   0.241   6.719
 5351SOL     OW16951   0.621   5.650   3.814
 5351SOL    HW116952   0.694   5.629   3.749
 5351SOL    HW216953   0.627   5.747   3.841
 5352SOL     OW16954   0.506   2.727   5.927
 5352SOL    HW116955   0.459   2.649   5.967
 5352SOL    HW216956   0.564   2.769   5.997
 5353SOL     OW16957   2.152   6.454   3.003
 5353SOL    HW116958   2.224   6.386   2.988
 5353SOL    HW216959   2.191   6.537   3.042
 5354SOL     OW16960   3.252   5.909   1.890
 5354SOL    HW116961   3.262   5.905   1.791
 5354SOL    HW216962   3.272   6.002   1.922
 5355SOL     OW16963   4.949   4.314   5.548
 5355SOL    HW116964   4.907   4.309   5.639
 5355SOL    HW216965   4.913   4.240   5.491
 5356SOL     OW16966   0.047   7.000   1.637
 5356SOL    HW116967   7.012   6.998   1.560
 5356SOL    HW216968   7.024   7.003   1.723
 5357SOL     OW16969   6.046   3.709   2.605
 5357SOL    HW116970   6.088   3.629   2.649
 5357SOL    HW216971   5.965   3.737   2.657
 5358SOL     OW16972   5.766   0.016   6.413
 5358SOL    HW116973   5.862   7.020   6.426
 5358SOL    HW216974   5.737   0.079   6.485
 5359SOL     OW16975   3.649   2.067   0.117
 5359SOL    HW116976   3.645   1.967   0.125
 5359SOL    HW216977   3.558   2.103   0.098
 5360SOL     OW16978   5.350   5.743   3.156
 5360SOL    HW116979   5.394   5.688   3.227
 5360SOL    HW216980   5.406   5.823   3.135
 5361SOL     OW16981   1.421   3.971   2.735
 5361SOL    HW116982   1.460   4.056   2.770
 5361SOL    HW216983   1.378   3.920   2.809
 5362SOL     OW16984   5.786   2.018   3.980
 5362SOL    HW116985   5.834   1.934   4.004
 5362SOL    HW216986   5.834   2.064   3.905
 5363SOL     OW16987   6.666   4.909   6.124
 5363SOL    HW116988   6.602   4.835   6.145
 5363SOL    HW216989   6.662   4.978   6.197
 5364SOL     OW16990   4.829   2.772   1.447
 5364SOL    HW116991   4.822   2.819   1.535
 5364SOL    HW216992   4.855   2.677   1.462
 5365SOL     OW16993   3.480   3.268   6.064
 5365SOL    HW116994   3.520   3.353   6.099
 5365SOL    HW216995   3.493   3.264   5.965
 5366SOL     OW16996   6.983   4.509   3.947
 5366SOL    HW116997   0.017   4.509   4.025
 5366SOL    HW216998   6.924   4.428   3.952
 5367SOL     OW16999   5.992   6.147   0.891
 5367SOL    HW117000   6.050   6.228   0.895
 5367SOL    HW217001   5.896   6.174   0.906
 5368SOL     OW17002   0.146   5.893   5.312
 5368SOL    HW117003   0.207   5.953   5.364
 5368SOL    HW217004   0.057   5.889   5.358
 5369SOL     OW17005   3.394   0.213   2.610
 5369SOL    HW117006   3.362   0.119   2.603
 5369SOL    HW217007   3.326   0.268   2.660
 5370SOL     OW17008   2.507   1.936   0.310
 5370SOL    HW117009   2.597   1.901   0.287
 5370SOL    HW217010   2.475   1.895   0.395
 5371SOL     OW17011   6.124   5.172   3.300
 5371SOL    HW117012   6.211   5.151   3.258
 5371SOL    HW217013   6.132   5.164   3.400
 5372SOL     OW17014   0.232   0.767   4.021
 5372SOL    HW117015   0.199   0.696   4.084
 5372SOL    HW217016   0.156   0.797   3.962
 5373SOL     OW17017   3.993   6.947   0.540
 5373SOL    HW117018   3.982   6.850   0.516
 5373SOL    HW217019   3.928   7.002   0.489
 5374SOL     OW17020   1.485   3.872   1.012
 5374SOL    HW117021   1.436   3.821   1.084
 5374SOL    HW217022   1.577   3.894   1.043
 5375SOL     OW17023   2.907   5.298   4.726
 5375SOL    HW117024   2.860   5.386   4.724
 5375SOL    HW217025   2.876   5.242   4.649
 5376SOL     OW17026   0.212   6.794   2.584
 5376SOL    HW117027   0.123   6.825   2.617
 5376SOL    HW217028   0.216   6.802   2.485
 5377SOL     OW17029   0.918   2.461   1.370
 5377SOL    HW117030   0.922   2.366   1.341
 5377SOL    HW217031   0.855   2.471   1.447
 5378SOL     OW17032   4.808   0.057   3.926
 5378SOL    HW117033   4.723   0.046   3.875
 5378SOL    HW217034   4.844   6.995   3.950
 5379SOL     OW17035   3.192   2.123   4.183
 5379SOL    HW117036   3.149   2.111   4.273
 5379SOL    HW217037   3.291   2.133   4.195
 5380SOL     OW17038   4.685   0.024   1.720
 5380SOL    HW117039   4.640   6.964   1.732
 5380SOL    HW217040   4.769   0.012   1.668
 5381SOL     OW17041   2.880   1.840   2.745
 5381SOL    HW117042   2.901   1.867   2.839
 5381SOL    HW217043   2.956   1.865   2.685
 5382SOL     OW17044   4.619   0.678   2.735
 5382SOL    HW117045   4.584   0.700   2.644
 5382SOL    HW217046   4.603   0.581   2.755
 5383SOL     OW17047   2.472   4.129   5.341
 5383SOL    HW117048   2.449   4.044   5.291
 5383SOL    HW217049   2.443   4.208   5.287
 5384SOL     OW17050   5.444   6.172   5.834
 5384SOL    HW117051   5.489   6.235   5.771
 5384SOL    HW217052   5.513   6.124   5.888
 5385SOL     OW17053   3.299   3.951   0.662
 5385SOL    HW117054   3.287   3.866   0.713
 5385SOL    HW217055   3.316   3.931   0.566
 5386SOL     OW17056   4.262   4.922   3.173
 5386SOL    HW117057   4.272   4.839   3.227
 5386SOL    HW217058   4.233   4.997   3.232
 5387SOL     OW17059   0.608   2.686   5.288
 5387SOL    HW117060   0.663   2.603   5.297
 5387SOL    HW217061   0.532   2.682   5.353
 5388SOL     OW17062   6.495   6.770   3.329
 5388SOL    HW117063   6.571   6.713   3.362
 5388SOL    HW217064   6.441   6.718   3.263
 5389SOL     OW17065   6.187   1.604   4.648
 5389SOL    HW117066   6.149   1.522   4.606
 5389SOL    HW217067   6.270   1.581   4.698
 5390SOL     OW17068   5.729   3.121   3.057
 5390SOL    HW117069   5.785   3.102   3.138
 5390SOL    HW217070   5.758   3.061   2.982
 5391SOL     OW17071   4.710   3.356   1.064
 5391SOL    HW117072   4.716   3.262   1.031
 5391SOL    HW217073   4.757   3.365   1.152
 5392SOL     OW17074   5.288   0.972   3.978
 5392SOL    HW117075   5.370   0.954   4.032
 5392SOL    HW217076   5.273   1.071   3.973
 5393SOL     OW17077   4.980   3.408   2.657
 5393SOL    HW117078   5.014   3.501   2.673
 5393SOL    HW217079   4.966   3.362   2.744
 5394SOL     OW17080   0.500   2.882   3.109
 5394SOL    HW117081   0.499   2.868   3.010
 5394SOL    HW217082   0.413   2.920   3.139
 5395SOL     OW17083   0.453   0.867   1.771
 5395SOL    HW117084   0.370   0.823   1.736
 5395SOL    HW217085   0.433   0.962   1.796
 5396SOL     OW17086   3.909   1.933   0.495
 5396SOL    HW117087   3.900   2.004   0.565
 5396SOL    HW217088   3.989   1.876   0.515
 5397SOL     OW17089   0.730   6.333   3.214
 5397SOL    HW117090   0.827   6.355   3.223
 5397SOL    HW217091   0.697   6.368   3.126
 5398SOL     OW17092   5.232   2.349   3.089
 5398SOL    HW117093   5.310   2.291   3.110
 5398SOL    HW217094   5.160   2.295   3.044
 5399SOL     OW17095   2.604   2.438   0.217
 5399SOL    HW117096   2.592   2.366   0.149
 5399SOL    HW217097   2.702   2.457   0.229
 5400SOL     OW17098   4.909   2.886   0.610
 5400SOL    HW117099   4.876   2.980   0.622
 5400SOL    HW217100   4.961   2.859   0.691
 5401SOL     OW17101   4.922   4.290   1.187
 5401SOL    HW117102   5.020   4.302   1.205
 5401SOL    HW217103   4.900   4.332   1.099
 5402SOL     OW17104   2.251   5.471   1.835
 5402SOL    HW117105   2.233   5.394   1.896
 5402SOL    HW217106   2.254   5.556   1.888
 5403SOL     OW17107   6.295   2.665   5.454
 5403SOL    HW117108   6.379   2.654   5.506
 5403SOL    HW217109   6.231   2.722   5.505
 5404SOL     OW17110   4.960   6.472   0.282
 5404SOL    HW117111   5.028   6.421   0.335
 5404SOL    HW217112   4.898   6.519   0.345
 5405SOL     OW17113   6.524   5.170   5.975
 5405SOL    HW117114   6.527   5.075   6.006
 5405SOL    HW217115   6.449   5.182   5.911
 5406SOL     OW17116   1.660   1.207   5.406
 5406SOL    HW117117   1.750   1.247   5.425
 5406SOL    HW217118   1.600   1.276   5.367
 5407SOL     OW17119   1.995   1.655   2.712
 5407SOL    HW117120   2.051   1.680   2.790
 5407SOL    HW217121   1.979   1.735   2.655
 5408SOL     OW17122   2.083   2.746   4.197
 5408SOL    HW117123   2.009   2.733   4.131
 5408SOL    HW217124   2.107   2.659   4.239
 5409SOL     OW17125   0.140   4.126   3.292
 5409SOL    HW117126   0.219   4.100   3.347
 5409SOL    HW217127   0.057   4.088   3.334
 5410SOL     OW17128   5.785   1.319   6.980
 5410SOL    HW117129   5.807   1.265   0.033
 5410SOL    HW217130   5.689   1.346   6.983
 5411SOL     OW17131   3.245   6.300   1.743
 5411SOL    HW117132   3.278   6.355   1.819
 5411SOL    HW217133   3.147   6.317   1.729
 5412SOL     OW17134   2.220   1.814   5.978
 5412SOL    HW117135   2.188   1.837   6.070
 5412SOL    HW217136   2.192   1.721   5.956
 5413SOL     OW17137   6.844   5.455   5.582
 5413SOL    HW117138   6.861   5.358   5.598
 5413SOL    HW217139   6.890   5.509   5.652
 5414SOL     OW17140   6.042   5.850   5.704
 5414SOL    HW117141   6.097   5.805   5.775
 5414SOL    HW217142   6.034   5.791   5.624
 5415SOL     OW17143   1.985   0.906   0.704
 5415SOL    HW117144   2.073   0.953   0.692
 5415SOL    HW217145   1.969   0.891   0.802
 5416SOL     OW17146   4.224   4.852   6.186
 5416SOL    HW117147   4.162   4.833   6.263
 5416SOL    HW217148   4.309   4.892   6.222
 5417SOL     OW17149   5.427   0.485   1.344
 5417SOL    HW117150   5.345   0.430   1.360
 5417SOL    HW217151   5.450   0.482   1.247
 5418SOL     OW17152   0.124   2.680   5.405
 5418SOL    HW117153   0.093   2.751   5.342
 5418SOL    HW217154   0.049   2.616   5.422
 5419SOL     OW17155   3.903   2.337   6.082
 5419SOL    HW117156   3.860   2.354   5.993
 5419SOL    HW217157   3.837   2.294   6.143
 5420SOL     OW17158   1.737   1.685   1.298
 5420SOL    HW117159   1.685   1.719   1.220
 5420SOL    HW217160   1.675   1.665   1.373
 5421SOL     OW17161   3.822   5.846   1.077
 5421SOL    HW117162   3.739   5.822   1.027
 5421SOL    HW217163   3.799   5.867   1.172
 5422SOL     OW17164   2.579   6.649   3.096
 5422SOL    HW117165   2.647   6.613   3.160
 5422SOL    HW217166   2.488   6.641   3.136
 5423SOL     OW17167   4.090   6.736   2.687
 5423SOL    HW117168   4.173   6.699   2.729
 5423SOL    HW217169   4.012   6.679   2.712
 5424SOL     OW17170   3.921   3.549   5.787
 5424SOL    HW117171   3.929   3.530   5.885
 5424SOL    HW217172   3.932   3.464   5.736
 5425SOL     OW17173   2.093   5.605   5.127
 5425SOL    HW117174   2.051   5.659   5.055
 5425SOL    HW217175   2.061   5.510   5.121
 5426SOL     OW17176   1.634   3.905   6.983
 5426SOL    HW117177   1.638   4.001   7.011
 5426SOL    HW217178   1.680   3.895   6.895
 5427SOL     OW17179   4.749   1.697   0.737
 5427SOL    HW117180   4.711   1.789   0.725
 5427SOL    HW217181   4.681   1.639   0.782
 5428SOL     OW17182   4.689   5.673   2.820
 5428SOL    HW117183   4.734   5.692   2.732
 5428SOL    HW217184   4.607   5.730   2.828
 5429SOL     OW17185   2.605   6.279   3.785
 5429SOL    HW117186   2.633   6.196   3.736
 5429SOL    HW217187   2.680   6.311   3.842
 5430SOL     OW17188   0.822   3.689   5.262
 5430SOL    HW117189   0.729   3.682   5.225
 5430SOL    HW217190   0.817   3.705   5.361
 5431SOL     OW17191   5.747   4.637   0.762
 5431SOL    HW117192   5.709   4.725   0.789
 5431SOL    HW217193   5.844   4.649   0.738
 5432SOL     OW17194   2.056   5.448   5.867
 5432SOL    HW117195   2.049   5.427   5.965
 5432SOL    HW217196   1.967   5.436   5.823
 5433SOL     OW17197   2.240   6.796   1.320
 5433SOL    HW117198   2.181   6.717   1.342
 5433SOL    HW217199   2.331   6.764   1.295
 5434SOL     OW17200   5.203   5.903   4.401
 5434SOL    HW117201   5.148   5.820   4.411
 5434SOL    HW217202   5.299   5.877   4.392
 5435SOL     OW17203   0.467   3.309   0.210
 5435SOL    HW117204   0.437   3.219   0.178
 5435SOL    HW217205   0.404   3.342   0.280
 5436SOL     OW17206   1.044   4.373   0.968
 5436SOL    HW117207   1.086   4.444   0.911
 5436SOL    HW217208   1.091   4.286   0.953
 5437SOL     OW17209   3.049   6.625   6.083
 5437SOL    HW117210   3.036   6.570   6.001
 5437SOL    HW217211   3.093   6.569   6.154
 5438SOL     OW17212   5.059   6.456   2.862
 5438SOL    HW117213   5.145   6.464   2.912
 5438SOL    HW217214   5.002   6.537   2.880
 5439SOL     OW17215   1.219   3.685   2.090
 5439SOL    HW117216   1.206   3.694   2.189
 5439SOL    HW217217   1.202   3.590   2.063
 5440SOL     OW17218   5.468   6.205   3.059
 5440SOL    HW117219   5.552   6.200   3.004
 5440SOL    HW217220   5.478   6.277   3.128
 5441SOL     OW17221   5.555   0.078   5.287
 5441SOL    HW117222   5.538   0.043   5.195
 5441SOL    HW217223   5.620   0.019   5.334
 5442SOL     OW17224   2.581   6.517   0.154
 5442SOL    HW117225   2.600   6.512   0.253
 5442SOL    HW217226   2.585   6.612   0.124
 5443SOL     OW17227   6.092   1.357   3.543
 5443SOL    HW117228   6.034   1.420   3.595
 5443SOL    HW217229   6.109   1.395   3.452
 5444SOL     OW17230   1.776   1.655   6.350
 5444SOL    HW117231   1.821   1.741   6.325
 5444SOL    HW217232   1.752   1.605   6.267
 5445SOL     OW17233   5.952   6.271   4.897
 5445SOL    HW117234   5.996   6.329   4.830
 5445SOL    HW217235   5.935   6.181   4.857
 5446SOL     OW17236   2.277   3.875   0.276
 5446SOL    HW117237   2.304   3.821   0.355
 5446SOL    HW217238   2.177   3.871   0.265
 5447SOL     OW17239   5.553   2.343   1.626
 5447SOL    HW117240   5.520   2.348   1.720
 5447SOL    HW217241   5.622   2.415   1.612
 5448SOL     OW17242   5.918   5.560   1.277
 5448SOL    HW117243   5.987   5.629   1.300
 5448SOL    HW217244   5.872   5.530   1.360
 5449SOL     OW17245   1.924   0.193   2.679
 5449SOL    HW117246   1.929   0.135   2.597
 5449SOL    HW217247   1.845   0.254   2.672
 5450SOL     OW17248   4.291   4.785   1.754
 5450SOL    HW117249   4.326   4.869   1.796
 5450SOL    HW217250   4.228   4.809   1.679
 5451SOL     OW17251   0.835   5.704   3.640
 5451SOL    HW117252   0.917   5.693   3.585
 5451SOL    HW217253   0.833   5.795   3.681
 5452SOL     OW17254   2.144   3.721   3.346
 5452SOL    HW117255   2.098   3.705   3.258
 5452SOL    HW217256   2.189   3.810   3.344
 5453SOL     OW17257   6.036   5.764   4.073
 5453SOL    HW117258   5.957   5.751   4.132
 5453SOL    HW217259   6.007   5.807   3.988
 5454SOL     OW17260   6.463   3.774   1.781
 5454SOL    HW117261   6.545   3.751   1.833
 5454SOL    HW217262   6.408   3.691   1.767
 5455SOL     OW17263   2.292   2.769   2.750
 5455SOL    HW117264   2.263   2.677   2.721
 5455SOL    HW217265   2.358   2.761   2.824
 5456SOL     OW17266   5.428   2.853   0.191
 5456SOL    HW117267   5.331   2.877   0.198
 5456SOL    HW217268   5.442   2.761   0.228
 5457SOL     OW17269   5.780   1.233   0.480
 5457SOL    HW117270   5.763   1.293   0.558
 5457SOL    HW217271   5.836   1.280   0.413
 5458SOL     OW17272   6.613   4.369   6.011
 5458SOL    HW117273   6.645   4.440   6.073
 5458SOL    HW217274   6.678   4.293   6.010
 5459SOL     OW17275   2.324   3.608   5.875
 5459SOL    HW117276   2.343   3.558   5.790
 5459SOL    HW217277   2.359   3.556   5.953
 5460SOL     OW17278   6.916   1.287   1.167
 5460SOL    HW117279   6.990   1.351   1.190
 5460SOL    HW217280   6.836   1.308   1.223
 5461SOL     OW17281   5.866   0.514   6.432
 5461SOL    HW117282   5.936   0.531   6.361
 5461SOL    HW217283   5.834   0.601   6.467
 5462SOL     OW17284   5.477   4.918   0.109
 5462SOL    HW117285   5.435   4.828   0.109
 5462SOL    HW217286   5.411   4.986   0.076
 5463SOL     OW17287   2.835   4.686   0.119
 5463SOL    HW117288   2.777   4.635   0.056
 5463SOL    HW217289   2.799   4.676   0.212
 5464SOL     OW17290   2.312   5.642   4.310
 5464SOL    HW117291   2.262   5.681   4.233
 5464SOL    HW217292   2.349   5.717   4.366
 5465SOL     OW17293   0.758   1.185   4.871
 5465SOL    HW117294   0.857   1.174   4.881
 5465SOL    HW217295   0.717   1.098   4.844
 5466SOL     OW17296   5.235   2.275   5.000
 5466SOL    HW117297   5.150   2.309   5.040
 5466SOL    HW217298   5.270   2.341   4.934
 5467SOL     OW17299   5.244   4.132   3.589
 5467SOL    HW117300   5.258   4.219   3.542
 5467SOL    HW217301   5.298   4.130   3.673
 5468SOL     OW17302   0.250   2.369   1.236
 5468SOL    HW117303   0.294   2.347   1.323
 5468SOL    HW217304   0.153   2.388   1.252
 5469SOL     OW17305   4.617   1.114   3.075
 5469SOL    HW117306   4.677   1.192   3.091
 5469SOL    HW217307   4.529   1.146   3.039
 5470SOL     OW17308   2.731   4.711   3.712
 5470SOL    HW117309   2.732   4.612   3.710
 5470SOL    HW217310   2.687   4.746   3.630
 5471SOL     OW17311   5.147   0.533   4.162
 5471SOL    HW117312   5.067   0.490   4.204
 5471SOL    HW217313   5.224   0.528   4.225
 5472SOL     OW17314   2.680   3.816   0.013
 5472SOL    HW117315   2.626   3.788   6.962
 5472SOL    HW217316   2.776   3.821   7.017
 5473SOL     OW17317   3.047   4.835   1.915
 5473SOL    HW117318   3.052   4.747   1.962
 5473SOL    HW217319   3.122   4.894   1.947
 5474SOL     OW17320   0.922   5.222   2.056
 5474SOL    HW117321   0.856   5.236   1.983
 5474SOL    HW217322   1.013   5.250   2.025
 5475SOL     OW17323   0.951   0.956   5.550
 5475SOL    HW117324   0.929   1.039   5.602
 5475SOL    HW217325   0.870   0.897   5.547
 5476SOL     OW17326   3.042   1.112   4.674
 5476SOL    HW117327   2.960   1.162   4.703
 5476SOL    HW217328   3.114   1.177   4.650
 5477SOL     OW17329   2.036   4.135   3.361
 5477SOL    HW117330   2.098   4.130   3.283
 5477SOL    HW217331   1.950   4.176   3.333
 5478SOL     OW17332   6.642   3.512   5.782
 5478SOL    HW117333   6.713   3.488   5.716
 5478SOL    HW217334   6.652   3.456   5.864
 5479SOL     OW17335   5.333   3.805   4.645
 5479SOL    HW117336   5.280   3.864   4.583
 5479SOL    HW217337   5.373   3.861   4.717
 5480SOL     OW17338   1.516   2.670   6.010
 5480SOL    HW117339   1.572   2.717   6.078
 5480SOL    HW217340   1.560   2.677   5.921
 5481SOL     OW17341   4.069   1.222   0.527
 5481SOL    HW117342   4.132   1.145   0.519
 5481SOL    HW217343   3.987   1.205   0.472
 5482SOL     OW17344   5.406   4.691   2.298
 5482SOL    HW117345   5.457   4.770   2.263
 5482SOL    HW217346   5.385   4.629   2.222
 5483SOL     OW17347   5.562   1.590   0.536
 5483SOL    HW117348   5.559   1.565   0.439
 5483SOL    HW217349   5.643   1.550   0.579
 5484SOL     OW17350   5.872   0.264   5.814
 5484SOL    HW117351   5.931   0.272   5.894
 5484SOL    HW217352   5.801   0.334   5.817
 5485SOL     OW17353   2.722   0.910   3.998
 5485SOL    HW117354   2.764   0.985   4.050
 5485SOL    HW217355   2.793   0.853   3.958
 5486SOL     OW17356   6.901   0.361   3.897
 5486SOL    HW117357   6.985   0.344   3.948
 5486SOL    HW217358   6.919   0.356   3.799
 5487SOL     OW17359   4.089   5.329   1.360
 5487SOL    HW117360   4.142   5.245   1.352
 5487SOL    HW217361   4.104   5.386   1.279
 5488SOL     OW17362   4.701   0.783   6.145
 5488SOL    HW117363   4.721   0.743   6.055
 5488SOL    HW217364   4.665   0.712   6.205
 5489SOL     OW17365   6.691   4.145   2.452
 5489SOL    HW117366   6.682   4.243   2.436
 5489SOL    HW217367   6.628   4.117   2.525
 5490SOL     OW17368   2.776   0.868   6.802
 5490SOL    HW117369   2.781   0.778   6.758
 5490SOL    HW217370   2.700   0.869   6.867
 5491SOL     OW17371   6.420   6.557   1.461
 5491SOL    HW117372   6.385   6.476   1.507
 5491SOL    HW217373   6.520   6.555   1.461
 5492SOL     OW17374   1.379   1.699   4.958
 5492SOL    HW117375   1.315   1.702   4.881
 5492SOL    HW217376   1.442   1.623   4.945
 5493SOL     OW17377   4.140   1.178   0.212
 5493SOL    HW117378   4.234   1.211   0.208
 5493SOL    HW217379   4.127   1.123   0.294
 5494SOL     OW17380   5.367   3.467   2.560
 5494SOL    HW117381   5.392   3.428   2.471
 5494SOL    HW217382   5.296   3.536   2.548
 5495SOL     OW17383   3.476   3.232   4.532
 5495SOL    HW117384   3.470   3.260   4.628
 5495SOL    HW217385   3.399   3.172   4.510
 5496SOL     OW17386   4.359   5.038   2.308
 5496SOL    HW117387   4.259   5.032   2.310
 5496SOL    HW217388   4.396   5.019   2.399
 5497SOL     OW17389   5.286   7.001   6.999
 5497SOL    HW117390   5.301   0.064   6.964
 5497SOL    HW217391   5.200   6.998   0.021
 5498SOL     OW17392   4.176   1.138   4.116
 5498SOL    HW117393   4.171   1.076   4.037
 5498SOL    HW217394   4.089   1.185   4.128
 5499SOL     OW17395   0.410   0.313   5.141
 5499SOL    HW117396   0.422   0.405   5.179
 5499SOL    HW217397   0.356   0.258   5.205
 5500SOL     OW17398   2.213   6.425   0.679
 5500SOL    HW117399   2.231   6.399   0.585
 5500SOL    HW217400   2.235   6.349   0.740
 5501SOL     OW17401   2.493   1.105   1.953
 5501SOL    HW117402   2.549   1.168   1.898
 5501SOL    HW217403   2.504   1.128   2.050
 5502SOL     OW17404   5.211   4.494   0.202
 5502SOL    HW117405   5.298   4.521   0.160
 5502SOL    HW217406   5.208   4.526   0.297
 5503SOL     OW17407   6.625   0.423   4.057
 5503SOL    HW117408   6.724   0.424   4.048
 5503SOL    HW217409   6.585   0.490   3.994
 5504SOL     OW17410   2.638   2.404   4.546
 5504SOL    HW117411   2.648   2.499   4.514
 5504SOL    HW217412   2.552   2.395   4.595
 5505SOL     OW17413   3.216   4.844   0.483
 5505SOL    HW117414   3.292   4.890   0.438
 5505SOL    HW217415   3.195   4.890   0.570
 5506SOL     OW17416   1.052   6.669   5.018
 5506SOL    HW117417   0.978   6.717   5.065
 5506SOL    HW217418   1.069   6.714   4.930
 5507SOL     OW17419   2.771   5.508   5.034
 5507SOL    HW117420   2.748   5.457   5.117
 5507SOL    HW217421   2.688   5.525   4.981
 5508SOL     OW17422   2.149   1.079   5.103
 5508SOL    HW117423   2.072   1.033   5.148
 5508SOL    HW217424   2.204   1.126   5.172
 5509SOL     OW17425   6.919   0.377   5.795
 5509SOL    HW117426   6.850   0.309   5.820
 5509SOL    HW217427   6.929   0.379   5.695
 5510SOL     OW17428   0.595   0.095   5.339
 5510SOL    HW117429   0.648   0.180   5.336
 5510SOL    HW217430   0.501   0.114   5.308
 5511SOL     OW17431   0.041   2.332   1.053
 5511SOL    HW117432   6.975   2.364   1.048
 5511SOL    HW217433   0.104   2.409   1.044
 5512SOL     OW17434   6.460   0.026   0.516
 5512SOL    HW117435   6.497   0.083   0.589
 5512SOL    HW217436   6.492   0.059   0.428
 5513SOL     OW17437   3.018   5.846   4.413
 5513SOL    HW117438   3.089   5.776   4.403
 5513SOL    HW217439   2.938   5.806   4.459
 5514SOL     OW17440   5.859   5.842   3.346
 5514SOL    HW117441   5.873   5.940   3.335
 5514SOL    HW217442   5.761   5.824   3.359
 5515SOL     OW17443   0.641   3.724   3.340
 5515SOL    HW117444   0.574   3.694   3.408
 5515SOL    HW217445   0.700   3.794   3.381
 5516SOL     OW17446   2.103   2.726   0.134
 5516SOL    HW117447   2.021   2.726   0.192
 5516SOL    HW217448   2.168   2.659   0.169
 5517SOL     OW17449   3.046   0.850   2.139
 5517SOL    HW117450   2.965   0.834   2.082
 5517SOL    HW217451   3.024   0.919   2.209
 5518SOL     OW17452   5.856   3.389   5.970
 5518SOL    HW117453   5.857   3.359   5.874
 5518SOL    HW217454   5.793   3.466   5.980
 5519SOL     OW17455   5.716   4.848   2.436
 5519SOL    HW117456   5.767   4.819   2.516
 5519SOL    HW217457   5.643   4.910   2.464
 5520SOL     OW17458   1.511   2.926   0.881
 5520SOL    HW117459   1.426   2.889   0.843
 5520SOL    HW217460   1.542   3.003   0.825
 5521SOL     OW17461   5.486   4.061   5.959
 5521SOL    HW117462   5.418   4.130   5.934
 5521SOL    HW217463   5.577   4.103   5.964
 5522SOL     OW17464   1.399   2.757   1.514
 5522SOL    HW117465   1.382   2.839   1.569
 5522SOL    HW217466   1.482   2.712   1.547
 5523SOL     OW17467   2.945   5.984   1.619
 5523SOL    HW117468   3.044   5.975   1.627
 5523SOL    HW217469   2.918   6.079   1.637
 5524SOL     OW17470   6.244   6.719   5.795
 5524SOL    HW117471   6.174   6.779   5.757
 5524SOL    HW217472   6.201   6.643   5.844
 5525SOL     OW17473   6.501   6.357   3.302
 5525SOL    HW117474   6.564   6.313   3.366
 5525SOL    HW217475   6.538   6.353   3.209
 5526SOL     OW17476   5.608   3.210   4.644
 5526SOL    HW117477   5.677   3.202   4.572
 5526SOL    HW217478   5.621   3.296   4.693
 5527SOL     OW17479   2.792   3.327   7.017
 5527SOL    HW117480   2.763   3.240   6.977
 5527SOL    HW217481   2.713   3.372   0.032
 5528SOL     OW17482   6.500   2.963   2.582
 5528SOL    HW117483   6.406   2.975   2.552
 5528SOL    HW217484   6.556   2.932   2.505
 5529SOL     OW17485   1.370   0.592   4.097
 5529SOL    HW117486   1.422   0.678   4.092
 5529SOL    HW217487   1.434   0.516   4.104
 5530SOL     OW17488   6.823   3.130   6.838
 5530SOL    HW117489   6.863   3.046   6.875
 5530SOL    HW217490   6.733   3.145   6.879
 5531SOL     OW17491   2.836   3.210   0.316
 5531SOL    HW117492   2.803   3.154   0.240
 5531SOL    HW217493   2.919   3.169   0.355
 5532SOL     OW17494   2.647   2.506   1.841
 5532SOL    HW117495   2.577   2.440   1.867
 5532SOL    HW217496   2.732   2.485   1.890
 5533SOL     OW17497   3.007   0.513   1.072
 5533SOL    HW117498   3.006   0.606   1.109
 5533SOL    HW217499   3.030   0.449   1.145
 5534SOL     OW17500   0.522   3.344   5.148
 5534SOL    HW117501   0.470   3.274   5.195
 5534SOL    HW217502   0.598   3.302   5.098
 5535SOL     OW17503   4.802   4.468   3.938
 5535SOL    HW117504   4.829   4.489   4.032
 5535SOL    HW217505   4.828   4.373   3.917
 5536SOL     OW17506   2.262   1.325   4.492
 5536SOL    HW117507   2.259   1.280   4.403
 5536SOL    HW217508   2.185   1.295   4.548
 5537SOL     OW17509   3.735   1.034   3.558
 5537SOL    HW117510   3.642   1.033   3.594
 5537SOL    HW217511   3.756   1.126   3.525
 5538SOL     OW17512   4.933   2.368   2.129
 5538SOL    HW117513   4.841   2.329   2.135
 5538SOL    HW217514   4.992   2.322   2.195
 5539SOL     OW17515   1.424   0.614   6.410
 5539SOL    HW117516   1.473   0.582   6.492
 5539SOL    HW217517   1.491   0.640   6.340
 5540SOL     OW17518   5.018   0.008   5.154
 5540SOL    HW117519   4.947   0.077   5.170
 5540SOL    HW217520   5.063   7.015   5.240
 5541SOL     OW17521   4.224   2.757   5.779
 5541SOL    HW117522   4.246   2.795   5.689
 5541SOL    HW217523   4.191   2.663   5.769
 5542SOL     OW17524   4.981   4.263   6.228
 5542SOL    HW117525   4.925   4.249   6.308
 5542SOL    HW217526   5.073   4.228   6.245
 5543SOL     OW17527   0.529   0.124   6.218
 5543SOL    HW117528   0.430   0.118   6.228
 5543SOL    HW217529   0.573   0.061   6.282
 5544SOL     OW17530   3.384   5.225   0.286
 5544SOL    HW117531   3.426   5.150   0.336
 5544SOL    HW217532   3.294   5.196   0.251
 5545SOL     OW17533   5.545   1.862   3.012
 5545SOL    HW117534   5.535   1.807   2.929
 5545SOL    HW217535   5.640   1.859   3.043
 5546SOL     OW17536   0.598   6.045   4.492
 5546SOL    HW117537   0.610   5.947   4.507
 5546SOL    HW217538   0.542   6.060   4.411
 5547SOL     OW17539   5.207   1.551   4.542
 5547SOL    HW117540   5.154   1.593   4.615
 5547SOL    HW217541   5.303   1.576   4.552
 5548SOL     OW17542   0.904   3.415   5.255
 5548SOL    HW117543   0.828   3.364   5.294
 5548SOL    HW217544   0.882   3.512   5.252
 5549SOL     OW17545   3.802   2.868   0.691
 5549SOL    HW117546   3.889   2.820   0.701
 5549SOL    HW217547   3.768   2.855   0.597
 5550SOL     OW17548   2.514   3.903   1.665
 5550SOL    HW117549   2.465   3.981   1.625
 5550SOL    HW217550   2.590   3.938   1.720
 5551SOL     OW17551   1.431   4.634   2.497
 5551SOL    HW117552   1.344   4.654   2.452
 5551SOL    HW217553   1.503   4.626   2.428
 5552SOL     OW17554   0.781   0.716   0.170
 5552SOL    HW117555   0.856   0.779   0.150
 5552SOL    HW217556   0.818   0.634   0.214
 5553SOL     OW17557   5.719   6.158   0.725
 5553SOL    HW117558   5.784   6.200   0.662
 5553SOL    HW217559   5.722   6.205   0.813
 5554SOL     OW17560   6.487   2.570   1.593
 5554SOL    HW117561   6.451   2.657   1.626
 5554SOL    HW217562   6.553   2.586   1.520
 5555SOL     OW17563   1.554   4.869   2.390
 5555SOL    HW117564   1.625   4.920   2.439
 5555SOL    HW217565   1.516   4.799   2.450
 5556SOL     OW17566   0.130   1.578   4.675
 5556SOL    HW117567   0.225   1.586   4.646
 5556SOL    HW217568   0.100   1.483   4.666
 5557SOL     OW17569   3.515   6.977   2.916
 5557SOL    HW117570   3.503   6.977   3.015
 5557SOL    HW217571   3.517   0.043   2.883
 5558SOL     OW17572   4.205   3.424   6.381
 5558SOL    HW117573   4.231   3.466   6.468
 5558SOL    HW217574   4.143   3.347   6.398
 5559SOL     OW17575   3.530   0.584   3.008
 5559SOL    HW117576   3.555   0.535   3.091
 5559SOL    HW217577   3.585   0.550   2.931
 5560SOL     OW17578   0.172   5.881   3.603
 5560SOL    HW117579   0.081   5.912   3.630
 5560SOL    HW217580   0.188   5.789   3.638
 5561SOL     OW17581   3.312   0.496   3.463
 5561SOL    HW117582   3.373   0.573   3.444
 5561SOL    HW217583   3.330   0.422   3.398
 5562SOL     OW17584   4.424   3.484   0.402
 5562SOL    HW117585   4.510   3.481   0.351
 5562SOL    HW217586   4.374   3.568   0.378
 5563SOL     OW17587   2.311   4.306   2.114
 5563SOL    HW117588   2.236   4.339   2.057
 5563SOL    HW217589   2.300   4.207   2.130
 5564SOL     OW17590   4.437   6.885   6.220
 5564SOL    HW117591   4.491   6.813   6.176
 5564SOL    HW217592   4.363   6.914   6.160
 5565SOL     OW17593   3.507   1.417   6.319
 5565SOL    HW117594   3.585   1.475   6.341
 5565SOL    HW217595   3.434   1.472   6.279
 5566SOL     OW17596   1.740   5.218   5.535
 5566SOL    HW117597   1.799   5.266   5.470
 5566SOL    HW217598   1.648   5.210   5.498
 5567SOL     OW17599   0.899   5.021   6.509
 5567SOL    HW117600   0.858   5.016   6.418
 5567SOL    HW217601   0.827   5.013   6.578
 5568SOL     OW17602   5.107   5.440   2.087
 5568SOL    HW117603   5.074   5.508   2.022
 5568SOL    HW217604   5.203   5.458   2.108
 5569SOL     OW17605   2.202   1.963   2.632
 5569SOL    HW117606   2.177   1.877   2.587
 5569SOL    HW217607   2.193   2.038   2.566
 5570SOL     OW17608   6.737   4.074   1.683
 5570SOL    HW117609   6.730   4.114   1.774
 5570SOL    HW217610   6.648   4.040   1.654
 5571SOL     OW17611   6.898   4.693   0.032
 5571SOL    HW117612   6.853   4.698   6.972
 5571SOL    HW217613   6.878   4.776   0.085
 5572SOL     OW17614   1.318   4.523   5.160
 5572SOL    HW117615   1.225   4.487   5.163
 5572SOL    HW217616   1.368   4.480   5.085
 5573SOL     OW17617   3.753   4.983   3.473
 5573SOL    HW117618   3.815   4.984   3.552
 5573SOL    HW217619   3.795   4.931   3.398
 5574SOL     OW17620   1.078   1.289   6.342
 5574SOL    HW117621   1.050   1.211   6.286
 5574SOL    HW217622   1.169   1.319   6.313
 5575SOL     OW17623   0.043   0.456   1.964
 5575SOL    HW117624   0.130   0.426   2.003
 5575SOL    HW217625   0.010   0.386   1.901
 5576SOL     OW17626   1.767   4.766   3.627
 5576SOL    HW117627   1.800   4.831   3.696
 5576SOL    HW217628   1.764   4.812   3.538
 5577SOL     OW17629   2.483   2.474   6.353
 5577SOL    HW117630   2.392   2.456   6.316
 5577SOL    HW217631   2.549   2.410   6.311
 5578SOL     OW17632   3.770   4.106   4.174
 5578SOL    HW117633   3.866   4.082   4.185
 5578SOL    HW217634   3.756   4.143   4.082
 5579SOL     OW17635   6.085   3.012   1.733
 5579SOL    HW117636   6.136   3.025   1.818
 5579SOL    HW217637   6.144   3.037   1.656
 5580SOL     OW17638   5.507   2.217   5.848
 5580SOL    HW117639   5.553   2.230   5.760
 5580SOL    HW217640   5.515   2.122   5.876
 5581SOL     OW17641   1.471   1.218   6.288
 5581SOL    HW117642   1.432   1.281   6.355
 5581SOL    HW217643   1.422   1.227   6.201
 5582SOL     OW17644   2.721   2.317   5.918
 5582SOL    HW117645   2.754   2.237   5.867
 5582SOL    HW217646   2.789   2.390   5.915
 5583SOL     OW17647   6.215   6.720   0.466
 5583SOL    HW117648   6.291   6.737   0.529
 5583SOL    HW217649   6.134   6.769   0.497
 5584SOL     OW17650   1.505   3.151   5.039
 5584SOL    HW117651   1.584   3.207   5.014
 5584SOL    HW217652   1.422   3.189   4.996
 5585SOL     OW17653   5.638   4.808   1.284
 5585SOL    HW117654   5.595   4.899   1.279
 5585SOL    HW217655   5.711   4.810   1.352
 5586SOL     OW17656   1.000   5.422   1.209
 5586SOL    HW117657   1.070   5.389   1.272
 5586SOL    HW217658   1.043   5.475   1.135
 5587SOL     OW17659   5.921   0.604   5.448
 5587SOL    HW117660   5.906   0.516   5.405
 5587SOL    HW217661   5.952   0.591   5.542
 5588SOL     OW17662   2.956   6.783   0.648
 5588SOL    HW117663   2.890   6.747   0.714
 5588SOL    HW217664   2.908   6.804   0.562
 5589SOL     OW17665   7.017   4.259   5.984
 5589SOL    HW117666   6.946   4.197   5.951
 5589SOL    HW217667   0.076   4.236   5.942
 5590SOL     OW17668   5.689   5.254   3.476
 5590SOL    HW117669   5.649   5.270   3.386
 5590SOL    HW217670   5.621   5.211   3.536
 5591SOL     OW17671   5.361   1.400   2.796
 5591SOL    HW117672   5.320   1.458   2.866
 5591SOL    HW217673   5.440   1.447   2.756
 5592SOL     OW17674   0.397   5.542   4.188
 5592SOL    HW117675   0.365   5.551   4.094
 5592SOL    HW217676   0.326   5.576   4.250
 5593SOL     OW17677   1.272   3.944   0.680
 5593SOL    HW117678   1.311   4.001   0.607
 5593SOL    HW217679   1.233   4.003   0.751
 5594SOL     OW17680   6.300   1.390   5.748
 5594SOL    HW117681   6.350   1.309   5.777
 5594SOL    HW217682   6.302   1.458   5.821
 5595SOL     OW17683   0.300   2.037   0.909
 5595SOL    HW117684   0.293   1.953   0.856
 5595SOL    HW217685   0.285   2.018   1.006
 5596SOL     OW17686   3.856   6.200   3.049
 5596SOL    HW117687   3.915   6.163   3.120
 5596SOL    HW217688   3.800   6.126   3.011
 5597SOL     OW17689   5.285   3.185   2.093
 5597SOL    HW117690   5.254   3.247   2.166
 5597SOL    HW217691   5.320   3.101   2.135
 5598SOL     OW17692   3.820   0.851   4.148
 5598SOL    HW117693   3.828   0.842   4.048
 5598SOL    HW217694   3.902   0.815   4.191
 5599SOL     OW17695   0.957   1.429   3.304
 5599SOL    HW117696   1.032   1.418   3.238
 5599SOL    HW217697   0.995   1.435   3.396
 5600SOL     OW17698   2.577   2.796   5.280
 5600SOL    HW117699   2.550   2.892   5.267
 5600SOL    HW217700   2.653   2.792   5.345
 5601SOL     OW17701   2.163   0.600   6.444
 5601SOL    HW117702   2.121   0.580   6.356
 5601SOL    HW217703   2.093   0.603   6.515
 5602SOL     OW17704   2.311   0.878   0.204
 5602SOL    HW117705   2.302   0.971   0.237
 5602SOL    HW217706   2.223   0.831   0.210
 5603SOL     OW17707   6.506   4.035   5.192
 5603SOL    HW117708   6.425   4.077   5.232
 5603SOL    HW217709   6.574   4.105   5.172
 5604SOL     OW17710   5.288   0.810   6.210
 5604SOL    HW117711   5.267   0.852   6.299
 5604SOL    HW217712   5.250   0.868   6.137
 5605SOL     OW17713   0.753   1.763   6.502
 5605SOL    HW117714   0.694   1.749   6.423
 5605SOL    HW217715   0.816   1.685   6.511
 5606SOL     OW17716   5.770   0.512   3.061
 5606SOL    HW117717   5.866   0.495   3.083
 5606SOL    HW217718   5.711   0.455   3.119
 5607SOL     OW17719   4.988   0.759   1.295
 5607SOL    HW117720   4.972   0.771   1.197
 5607SOL    HW217721   4.930   0.684   1.329
 5608SOL     OW17722   3.766   6.614   4.945
 5608SOL    HW117723   3.701   6.555   4.993
 5608SOL    HW217724   3.859   6.578   4.957
 5609SOL     OW17725   1.310   6.281   5.234
 5609SOL    HW117726   1.367   6.262   5.314
 5609SOL    HW217727   1.236   6.342   5.260
 5610SOL     OW17728   4.521   0.309   6.510
 5610SOL    HW117729   4.539   0.361   6.594
 5610SOL    HW217730   4.424   0.285   6.507
 5611SOL     OW17731   1.877   4.257   4.510
 5611SOL    HW117732   1.900   4.293   4.419
 5611SOL    HW217733   1.921   4.168   4.522
 5612SOL     OW17734   3.420   6.110   4.408
 5612SOL    HW117735   3.406   6.017   4.441
 5612SOL    HW217736   3.340   6.139   4.354
 5613SOL     OW17737   2.832   5.121   2.013
 5613SOL    HW117738   2.897   5.088   2.081
 5613SOL    HW217739   2.848   5.075   1.926
 5614SOL     OW17740   5.160   2.317   4.547
 5614SOL    HW117741   5.237   2.280   4.495
 5614SOL    HW217742   5.194   2.370   4.624
 5615SOL     OW17743   0.671   1.490   1.843
 5615SOL    HW117744   0.752   1.460   1.793
 5615SOL    HW217745   0.629   1.567   1.796
 5616SOL     OW17746   2.265   6.679   5.117
 5616SOL    HW117747   2.349   6.660   5.066
 5616SOL    HW217748   2.236   6.596   5.165
 5617SOL     OW17749   0.760   1.243   6.107
 5617SOL    HW117750   0.755   1.154   6.153
 5617SOL    HW217751   0.671   1.265   6.067
 5618SOL     OW17752   6.013   4.924   3.264
 5618SOL    HW117753   6.035   5.013   3.305
 5618SOL    HW217754   5.950   4.937   3.188
 5619SOL     OW17755   2.201   3.809   5.219
 5619SOL    HW117756   2.293   3.849   5.217
 5619SOL    HW217757   2.177   3.776   5.128
 5620SOL     OW17758   5.070   1.713   6.606
 5620SOL    HW117759   5.081   1.621   6.643
 5620SOL    HW217760   5.158   1.760   6.604
 5621SOL     OW17761   2.350   1.823   6.816
 5621SOL    HW117762   2.352   1.824   6.716
 5621SOL    HW217763   2.333   1.916   6.850
 5622SOL     OW17764   5.770   0.112   5.544
 5622SOL    HW117765   5.788   0.017   5.520
 5622SOL    HW217766   5.675   0.122   5.574
 5623SOL     OW17767   0.129   6.066   6.962
 5623SOL    HW117768   0.044   6.074   6.909
 5623SOL    HW217769   0.136   5.974   6.999
 5624SOL     OW17770   0.788   4.452   2.107
 5624SOL    HW117771   0.863   4.505   2.069
 5624SOL    HW217772   0.728   4.511   2.160
 5625SOL     OW17773   6.594   1.841   5.522
 5625SOL    HW117774   6.551   1.921   5.481
 5625SOL    HW217775   6.636   1.786   5.450
 5626SOL     OW17776   5.758   6.933   5.367
 5626SOL    HW117777   5.831   6.965   5.307
 5626SOL    HW217778   5.765   6.834   5.378
 5627SOL     OW17779   1.425   0.226   1.147
 5627SOL    HW117780   1.345   0.266   1.103
 5627SOL    HW217781   1.428   0.128   1.129
 5628SOL     OW17782   1.761   1.763   4.331
 5628SOL    HW117783   1.753   1.852   4.286
 5628SOL    HW217784   1.672   1.716   4.329
 5629SOL     OW17785   3.842   3.313   3.521
 5629SOL    HW117786   3.831   3.351   3.613
 5629SOL    HW217787   3.940   3.302   3.501
 5630SOL     OW17788   6.549   3.846   0.615
 5630SOL    HW117789   6.486   3.913   0.654
 5630SOL    HW217790   6.633   3.892   0.588
 5631SOL     OW17791   5.784   1.284   6.201
 5631SOL    HW117792   5.851   1.222   6.160
 5631SOL    HW217793   5.814   1.378   6.189
 5632SOL     OW17794   3.099   2.047   0.676
 5632SOL    HW117795   3.092   2.029   0.774
 5632SOL    HW217796   3.090   2.146   0.660
 5633SOL     OW17797   7.009   2.959   5.399
 5633SOL    HW117798   6.975   2.902   5.474
 5633SOL    HW217799   6.934   2.979   5.336
 5634SOL     OW17800   4.400   6.377   4.779
 5634SOL    HW117801   4.463   6.318   4.829
 5634SOL    HW217802   4.349   6.323   4.712
 5635SOL     OW17803   3.176   1.637   5.959
 5635SOL    HW117804   3.084   1.602   5.977
 5635SOL    HW217805   3.221   1.578   5.892
 5636SOL     OW17806   4.541   6.666   4.480
 5636SOL    HW117807   4.627   6.695   4.522
 5636SOL    HW217808   4.548   6.571   4.452
 5637SOL     OW17809   5.681   7.024   3.133
 5637SOL    HW117810   5.777   7.018   3.162
 5637SOL    HW217811   5.650   6.935   3.102
 5638SOL     OW17812   0.229   3.650   0.026
 5638SOL    HW117813   0.327   3.667   0.037
 5638SOL    HW217814   0.216   3.558   7.016
 5639SOL     OW17815   4.399   6.606   0.011
 5639SOL    HW117816   4.479   6.646   0.057
 5639SOL    HW217817   4.324   6.673   0.011
 5640SOL     OW17818   1.587   6.947   3.509
 5640SOL    HW117819   1.587   6.981   3.415
 5640SOL    HW217820   1.659   6.992   3.561
 5641SOL     OW17821   6.967   5.368   4.557
 5641SOL    HW117822   6.908   5.300   4.599
 5641SOL    HW217823   0.005   5.402   4.623
 5642SOL     OW17824   1.584   1.002   0.357
 5642SOL    HW117825   1.516   0.941   0.397
 5642SOL    HW217826   1.566   1.096   0.386
 5643SOL     OW17827   5.577   2.057   6.112
 5643SOL    HW117828   5.483   2.028   6.128
 5643SOL    HW217829   5.592   2.146   6.155
 5644SOL     OW17830   2.823   0.582   5.685
 5644SOL    HW117831   2.756   0.509   5.671
 5644SOL    HW217832   2.913   0.542   5.704
 5645SOL     OW17833   5.622   3.836   3.994
 5645SOL    HW117834   5.641   3.872   3.903
 5645SOL    HW217835   5.526   3.848   4.016
 5646SOL     OW17836   0.563   4.193   2.646
 5646SOL    HW117837   0.630   4.262   2.618
 5646SOL    HW217838   0.529   4.146   2.565
 5647SOL     OW17839   5.105   5.907   2.900
 5647SOL    HW117840   5.062   5.957   2.825
 5647SOL    HW217841   5.145   5.973   2.965
 5648SOL     OW17842   5.289   6.288   3.406
 5648SOL    HW117843   5.373   6.329   3.370
 5648SOL    HW217844   5.213   6.309   3.344
 5649SOL     OW17845   0.330   0.266   4.566
 5649SOL    HW117846   0.390   0.327   4.514
 5649SOL    HW217847   0.253   0.319   4.602
 5650SOL     OW17848   0.217   3.476   6.394
 5650SOL    HW117849   0.295   3.509   6.341
 5650SOL    HW217850   0.221   3.514   6.486
 5651SOL     OW17851   2.785   1.358   1.200
 5651SOL    HW117852   2.759   1.262   1.201
 5651SOL    HW217853   2.740   1.404   1.123
 5652SOL     OW17854   0.508   6.001   2.959
 5652SOL    HW117855   0.537   5.912   2.997
 5652SOL    HW217856   0.477   6.060   3.034
 5653SOL     OW17857   6.758   0.709   2.785
 5653SOL    HW117858   6.806   0.647   2.723
 5653SOL    HW217859   6.680   0.662   2.826
 5654SOL     OW17860   3.571   6.066   5.764
 5654SOL    HW117861   3.503   6.123   5.811
 5654SOL    HW217862   3.645   6.124   5.730
 5655SOL     OW17863   5.470   3.424   4.295
 5655SOL    HW117864   5.421   3.476   4.364
 5655SOL    HW217865   5.454   3.326   4.308
 5656SOL     OW17866   0.490   3.974   0.997
 5656SOL    HW117867   0.581   4.011   1.015
 5656SOL    HW217868   0.462   3.916   1.073
 5657SOL     OW17869   5.786   5.812   4.743
 5657SOL    HW117870   5.842   5.893   4.762
 5657SOL    HW217871   5.835   5.730   4.775
 5658SOL     OW17872   2.466   2.344   5.856
 5658SOL    HW117873   2.563   2.351   5.882
 5658SOL    HW217874   2.436   2.430   5.815
 5659SOL     OW17875   2.174   4.283   6.631
 5659SOL    HW117876   2.173   4.368   6.683
 5659SOL    HW217877   2.183   4.303   6.534
 5660SOL     OW17878   3.595   0.051   4.253
 5660SOL    HW117879   3.663   0.055   4.327
 5660SOL    HW217880   3.510   0.093   4.285
 5661SOL     OW17881   0.849   5.651   6.023
 5661SOL    HW117882   0.750   5.641   6.032
 5661SOL    HW217883   0.871   5.673   5.927
 5662SOL     OW17884   2.812   6.152   0.913
 5662SOL    HW117885   2.716   6.177   0.898
 5662SOL    HW217886   2.870   6.201   0.847
 5663SOL     OW17887   3.322   2.309   6.638
 5663SOL    HW117888   3.386   2.240   6.673
 5663SOL    HW217889   3.340   2.397   6.683
 5664SOL     OW17890   5.252   5.153   4.593
 5664SOL    HW117891   5.235   5.240   4.639
 5664SOL    HW217892   5.226   5.160   4.497
 5665SOL     OW17893   1.926   0.751   0.948
 5665SOL    HW117894   1.900   0.807   1.027
 5665SOL    HW217895   1.852   0.687   0.927
 5666SOL     OW17896   6.055   3.073   4.561
 5666SOL    HW117897   5.961   3.044   4.549
 5666SOL    HW217898   6.066   3.167   4.527
 5667SOL     OW17899   2.961   4.845   4.111
 5667SOL    HW117900   2.884   4.798   4.067
 5667SOL    HW217901   2.945   4.850   4.209
 5668SOL     OW17902   4.389   4.677   3.929
 5668SOL    HW117903   4.328   4.695   3.851
 5668SOL    HW217904   4.375   4.747   3.999
 5669SOL     OW17905   6.184   3.868   5.734
 5669SOL    HW117906   6.132   3.799   5.784
 5669SOL    HW217907   6.130   3.899   5.655
 5670SOL     OW17908   1.155   2.796   4.306
 5670SOL    HW117909   1.150   2.712   4.359
 5670SOL    HW217910   1.237   2.794   4.248
 5671SOL     OW17911   6.249   5.934   2.540
 5671SOL    HW117912   6.225   5.965   2.632
 5671SOL    HW217913   6.307   6.003   2.496
 5672SOL     OW17914   5.358   3.138   4.722
 5672SOL    HW117915   5.448   3.162   4.684
 5672SOL    HW217916   5.332   3.207   4.790
 5673SOL     OW17917   0.151   2.116   0.342
 5673SOL    HW117918   0.188   2.078   0.257
 5673SOL    HW217919   0.073   2.174   0.322
 5674SOL     OW17920   2.472   5.442   5.701
 5674SOL    HW117921   2.408   5.410   5.771
 5674SOL    HW217922   2.528   5.366   5.669
 5675SOL     OW17923   3.042   2.307   1.048
 5675SOL    HW117924   3.125   2.342   1.005
 5675SOL    HW217925   3.063   2.280   1.142
 5676SOL     OW17926   3.916   1.492   1.699
 5676SOL    HW117927   3.919   1.510   1.601
 5676SOL    HW217928   3.843   1.547   1.741
 5677SOL     OW17929   1.025   1.552   6.210
 5677SOL    HW117930   1.124   1.566   6.205
 5677SOL    HW217931   1.006   1.473   6.268
 5678SOL     OW17932   3.920   1.781   2.031
 5678SOL    HW117933   4.015   1.784   2.002
 5678SOL    HW217934   3.897   1.690   2.064
 5679SOL     OW17935   0.297   3.662   6.086
 5679SOL    HW117936   0.338   3.748   6.056
 5679SOL    HW217937   0.206   3.653   6.047
 5680SOL     OW17938   0.722   5.526   5.146
 5680SOL    HW117939   0.634   5.561   5.177
 5680SOL    HW217940   0.716   5.503   5.049
 5681SOL     OW17941   1.253   3.486   3.183
 5681SOL    HW117942   1.258   3.449   3.090
 5681SOL    HW217943   1.295   3.577   3.185
 5682SOL     OW17944   1.923   4.878   0.701
 5682SOL    HW117945   1.932   4.958   0.641
 5682SOL    HW217946   1.865   4.810   0.656
 5683SOL     OW17947   0.013   0.056   5.620
 5683SOL    HW117948   0.023   0.150   5.586
 5683SOL    HW217949   7.006   0.058   5.714
 5684SOL     OW17950   1.843   2.998   5.040
 5684SOL    HW117951   1.820   2.903   5.022
 5684SOL    HW217952   1.837   3.051   4.955
 5685SOL     OW17953   1.743   1.741   1.854
 5685SOL    HW117954   1.646   1.716   1.866
 5685SOL    HW217955   1.755   1.784   1.764
 5686SOL     OW17956   6.019   5.705   5.494
 5686SOL    HW117957   6.001   5.736   5.401
 5686SOL    HW217958   6.027   5.605   5.495
 5687SOL     OW17959   1.548   6.896   6.750
 5687SOL    HW117960   1.461   6.933   6.781
 5687SOL    HW217961   1.607   6.880   6.829
 5688SOL     OW17962   1.474   2.214   2.864
 5688SOL    HW117963   1.413   2.157   2.919
 5688SOL    HW217964   1.569   2.187   2.881
 5689SOL     OW17965   6.745   2.253   0.901
 5689SOL    HW117966   6.749   2.311   0.983
 5689SOL    HW217967   6.836   2.243   0.863
 5690SOL     OW17968   3.085   5.312   6.963
 5690SOL    HW117969   3.139   5.395   6.957
 5690SOL    HW217970   2.994   5.327   6.924
 5691SOL     OW17971   4.799   2.879   3.648
 5691SOL    HW117972   4.884   2.889   3.699
 5691SOL    HW217973   4.789   2.955   3.584
 5692SOL     OW17974   6.399   4.959   1.719
 5692SOL    HW117975   6.336   4.882   1.730
 5692SOL    HW217976   6.445   4.951   1.631
 5693SOL     OW17977   3.102   1.186   2.785
 5693SOL    HW117978   3.160   1.239   2.723
 5693SOL    HW217979   3.146   1.100   2.807
 5694SOL     OW17980   0.175   0.194   0.917
 5694SOL    HW117981   0.190   0.113   0.860
 5694SOL    HW217982   0.111   0.256   0.871
 5695SOL     OW17983   2.141   1.217   1.923
 5695SOL    HW117984   2.218   1.252   1.975
 5695SOL    HW217985   2.111   1.130   1.962
 5696SOL     OW17986   6.963   0.327   3.625
 5696SOL    HW117987   0.012   0.278   3.586
 5696SOL    HW217988   6.912   0.371   3.551
 5697SOL     OW17989   6.179   1.904   0.619
 5697SOL    HW117990   6.167   1.964   0.698
 5697SOL    HW217991   6.162   1.810   0.646
 5698SOL     OW17992   3.092   2.092   3.260
 5698SOL    HW117993   3.169   2.081   3.323
 5698SOL    HW217994   3.126   2.102   3.167
 5699SOL     OW17995   2.568   2.495   2.464
 5699SOL    HW117996   2.565   2.493   2.364
 5699SOL    HW217997   2.640   2.433   2.496
 5700SOL     OW17998   5.665   6.816   2.328
 5700SOL    HW117999   5.621   6.901   2.298
 5700SOL    HW218000   5.595   6.746   2.344
 5701SOL     OW18001   1.777   0.301   0.797
 5701SOL    HW118002   1.785   0.229   0.865
 5701SOL    HW218003   1.795   0.264   0.706
 5702SOL     OW18004   1.327   6.630   5.033
 5702SOL    HW118005   1.355   6.571   4.958
 5702SOL    HW218006   1.228   6.635   5.037
 5703SOL     OW18007   1.161   2.804   6.242
 5703SOL    HW118008   1.205   2.809   6.152
 5703SOL    HW218009   1.162   2.894   6.285
 5704SOL     OW18010   4.246   5.976   4.313
 5704SOL    HW118011   4.313   6.023   4.370
 5704SOL    HW218012   4.213   5.894   4.361
 5705SOL     OW18013   5.626   0.989   4.733
 5705SOL    HW118014   5.705   0.977   4.672
 5705SOL    HW218015   5.544   0.952   4.690
 5706SOL     OW18016   5.360   1.192   1.071
 5706SOL    HW118017   5.261   1.205   1.076
 5706SOL    HW218018   5.380   1.098   1.046
 5707SOL     OW18019   5.685   5.826   1.321
 5707SOL    HW118020   5.780   5.841   1.296
 5707SOL    HW218021   5.625   5.870   1.254
 5708SOL     OW18022   5.013   6.555   2.407
 5708SOL    HW118023   4.958   6.514   2.480
 5708SOL    HW218024   4.956   6.569   2.326
 5709SOL     OW18025   0.520   2.951   2.082
 5709SOL    HW118026   0.607   2.906   2.061
 5709SOL    HW218027   0.533   3.013   2.159
 5710SOL     OW18028   5.406   1.441   0.952
 5710SOL    HW118029   5.457   1.493   1.021
 5710SOL    HW218030   5.392   1.348   0.986
 5711SOL     OW18031   4.528   1.471   2.128
 5711SOL    HW118032   4.583   1.474   2.044
 5711SOL    HW218033   4.566   1.402   2.190
 5712SOL     OW18034   6.610   6.586   6.719
 5712SOL    HW118035   6.691   6.582   6.778
 5712SOL    HW218036   6.553   6.506   6.736
 5713SOL     OW18037   1.062   1.723   0.448
 5713SOL    HW118038   1.054   1.823   0.450
 5713SOL    HW218039   1.036   1.686   0.537
 5714SOL     OW18040   5.691   0.263   1.002
 5714SOL    HW118041   5.637   0.194   1.051
 5714SOL    HW218042   5.783   0.266   1.041
 5715SOL     OW18043   6.947   6.559   1.305
 5715SOL    HW118044   6.993   6.639   1.344
 5715SOL    HW218045   6.863   6.588   1.260
 5716SOL     OW18046   0.590   4.999   5.592
 5716SOL    HW118047   0.668   4.982   5.651
 5716SOL    HW218048   0.620   5.046   5.509
 5717SOL     OW18049   0.307   5.304   3.278
 5717SOL    HW118050   0.390   5.332   3.230
 5717SOL    HW218051   0.269   5.223   3.235
 5718SOL     OW18052   0.954   4.222   0.377
 5718SOL    HW118053   0.954   4.224   0.477
 5718SOL    HW218054   0.877   4.168   0.345
 5719SOL     OW18055   2.996   3.181   0.756
 5719SOL    HW118056   2.896   3.186   0.752
 5719SOL    HW218057   3.031   3.139   0.672
 5720SOL     OW18058   3.114   4.588   6.510
 5720SOL    HW118059   3.153   4.654   6.574
 5720SOL    HW218060   3.080   4.509   6.560
 5721SOL     OW18061   0.835   3.179   0.554
 5721SOL    HW118062   0.909   3.154   0.491
 5721SOL    HW218063   0.872   3.235   0.628
 5722SOL     OW18064   1.497   0.404   5.971
 5722SOL    HW118065   1.451   0.413   6.059
 5722SOL    HW218066   1.523   0.308   5.957
 5723SOL     OW18067   4.081   3.234   0.188
 5723SOL    HW118068   4.077   3.141   0.225
 5723SOL    HW218069   4.103   3.298   0.261
 5724SOL     OW18070   6.533   1.770   6.034
 5724SOL    HW118071   6.490   1.751   6.122
 5724SOL    HW218072   6.560   1.684   5.990
 5725SOL     OW18073   0.177   4.566   4.742
 5725SOL    HW118074   0.257   4.542   4.686
 5725SOL    HW218075   0.175   4.665   4.758
 5726SOL     OW18076   4.031   4.772   1.988
 5726SOL    HW118077   4.122   4.776   2.030
 5726SOL    HW218078   4.035   4.716   1.906
 5727SOL     OW18079   1.298   3.320   5.747
 5727SOL    HW118080   1.379   3.345   5.694
 5727SOL    HW218081   1.281   3.222   5.736
 5728SOL     OW18082   2.864   6.341   4.570
 5728SOL    HW118083   2.818   6.254   4.555
 5728SOL    HW218084   2.825   6.388   4.649
 5729SOL     OW18085   2.996   1.864   4.676
 5729SOL    HW118086   2.931   1.823   4.612
 5729SOL    HW218087   2.975   1.961   4.688
 5730SOL     OW18088   6.665   4.246   5.126
 5730SOL    HW118089   6.708   4.223   5.038
 5730SOL    HW218090   6.632   4.340   5.123
 5731SOL     OW18091   0.387   6.598   2.757
 5731SOL    HW118092   0.317   6.662   2.727
 5731SOL    HW218093   0.470   6.610   2.702
 5732SOL     OW18094   5.343   0.763   3.389
 5732SOL    HW118095   5.320   0.686   3.448
 5732SOL    HW218096   5.407   0.824   3.436
 5733SOL     OW18097   2.929   1.355   4.886
 5733SOL    HW118098   2.919   1.454   4.892
 5733SOL    HW218099   2.865   1.319   4.819
 5734SOL     OW18100   1.875   6.547   4.154
 5734SOL    HW118101   1.917   6.633   4.125
 5734SOL    HW218102   1.925   6.511   4.233
 5735SOL     OW18103   2.714   1.097   1.255
 5735SOL    HW118104   2.738   1.000   1.261
 5735SOL    HW218105   2.615   1.107   1.246
 5736SOL     OW18106   1.527   5.115   0.641
 5736SOL    HW118107   1.573   5.100   0.728
 5736SOL    HW218108   1.510   5.027   0.596
 5737SOL     OW18109   5.989   4.069   6.941
 5737SOL    HW118110   5.946   4.129   6.874
 5737SOL    HW218111   6.075   4.110   6.972
 5738SOL     OW18112   0.508   5.306   4.247
 5738SOL    HW118113   0.448   5.260   4.312
 5738SOL    HW218114   0.483   5.403   4.241
 5739SOL     OW18115   0.523   2.529   0.906
 5739SOL    HW118116   0.612   2.492   0.932
 5739SOL    HW218117   0.460   2.525   0.983
 5740SOL     OW18118   3.868   5.517   0.230
 5740SOL    HW118119   3.893   5.437   0.285
 5740SOL    HW218120   3.793   5.493   0.168
 5741SOL     OW18121   0.241   2.884   2.382
 5741SOL    HW118122   0.145   2.898   2.408
 5741SOL    HW218123   0.246   2.817   2.308
 5742SOL     OW18124   0.660   5.199   3.626
 5742SOL    HW118125   0.724   5.139   3.675
 5742SOL    HW218126   0.707   5.284   3.601
 5743SOL     OW18127   0.662   6.942   5.529
 5743SOL    HW118128   0.622   6.953   5.620
 5743SOL    HW218129   0.634   7.019   5.471
 5744SOL     OW18130   6.302   0.105   1.788
 5744SOL    HW118131   6.283   0.197   1.823
 5744SOL    HW218132   6.401   0.092   1.782
 5745SOL     OW18133   6.697   3.441   2.506
 5745SOL    HW118134   6.768   3.399   2.562
 5745SOL    HW218135   6.703   3.540   2.511
 5746SOL     OW18136   6.960   4.215   6.254
 5746SOL    HW118137   6.995   4.136   6.304
 5746SOL    HW218138   6.964   4.196   6.156
 5747SOL     OW18139   0.057   6.155   3.761
 5747SOL    HW118140   0.014   6.187   3.677
 5747SOL    HW218141   0.156   6.148   3.747
 5748SOL     OW18142   1.345   0.827   4.400
 5748SOL    HW118143   1.265   0.828   4.340
 5748SOL    HW218144   1.427   0.846   4.347
 5749SOL     OW18145   0.518   0.692   3.200
 5749SOL    HW118146   0.506   0.738   3.288
 5749SOL    HW218147   0.485   0.751   3.126
 5750SOL     OW18148   5.269   6.620   2.360
 5750SOL    HW118149   5.187   6.574   2.395
 5750SOL    HW218150   5.297   6.692   2.424
 5751SOL     OW18151   0.852   2.149   6.833
 5751SOL    HW118152   0.850   2.103   6.744
 5751SOL    HW218153   0.880   2.084   6.904
 5752SOL     OW18154   1.750   1.038   6.614
 5752SOL    HW118155   1.707   1.089   6.539
 5752SOL    HW218156   1.694   0.958   6.636
 5753SOL     OW18157   4.456   1.239   6.967
 5753SOL    HW118158   4.436   1.334   6.992
 5753SOL    HW218159   4.413   1.218   6.880
 5754SOL     OW18160   6.204   5.822   0.758
 5754SOL    HW118161   6.216   5.887   0.832
 5754SOL    HW218162   6.148   5.745   0.790
 5755SOL     OW18163   3.430   3.572   1.734
 5755SOL    HW118164   3.434   3.472   1.732
 5755SOL    HW218165   3.465   3.605   1.822
 5756SOL     OW18166   6.588   6.775   4.455
 5756SOL    HW118167   6.553   6.853   4.403
 5756SOL    HW218168   6.600   6.697   4.394
 5757SOL     OW18169   6.443   6.293   1.584
 5757SOL    HW118170   6.375   6.220   1.593
 5757SOL    HW218171   6.530   6.254   1.555
 5758SOL     OW18172   3.101   0.600   5.410
 5758SOL    HW118173   3.042   0.523   5.434
 5758SOL    HW218174   3.049   0.685   5.417
 5759SOL     OW18175   1.069   1.042   5.906
 5759SOL    HW118176   1.155   1.091   5.899
 5759SOL    HW218177   1.085   0.943   5.899
 5760SOL     OW18178   6.813   6.141   1.406
 5760SOL    HW118179   6.868   6.065   1.371
 5760SOL    HW218180   6.718   6.130   1.375
 5761SOL     OW18181   4.276   0.502   4.301
 5761SOL    HW118182   4.258   0.582   4.358
 5761SOL    HW218183   4.298   0.532   4.208
 5762SOL     OW18184   4.838   6.507   1.246
 5762SOL    HW118185   4.740   6.520   1.259
 5762SOL    HW218186   4.857   6.410   1.231
 5763SOL     OW18187   3.492   1.059   0.356
 5763SOL    HW118188   3.513   1.066   0.453
 5763SOL    HW218189   3.539   0.980   0.317
 5764SOL     OW18190   3.431   2.661   6.829
 5764SOL    HW118191   3.434   2.736   6.762
 5764SOL    HW218192   3.495   2.681   6.904
 5765SOL     OW18193   6.733   5.594   6.683
 5765SOL    HW118194   6.745   5.663   6.755
 5765SOL    HW218195   6.675   5.520   6.717
 5766SOL     OW18196   2.340   1.651   2.719
 5766SOL    HW118197   2.309   1.693   2.633
 5766SOL    HW218198   2.435   1.624   2.710
 5767SOL     OW18199   5.222   6.339   0.418
 5767SOL    HW118200   5.239   6.250   0.461
 5767SOL    HW218201   5.239   6.333   0.320
 5768SOL     OW18202   6.176   6.451   1.676
 5768SOL    HW118203   6.227   6.437   1.761
 5768SOL    HW218204   6.110   6.377   1.664
 5769SOL     OW18205   0.398   4.609   3.064
 5769SOL    HW118206   0.341   4.539   3.108
 5769SOL    HW218207   0.340   4.681   3.027
 5770SOL     OW18208   4.918   2.239   1.614
 5770SOL    HW118209   4.896   2.326   1.569
 5770SOL    HW218210   4.937   2.256   1.711
 5771SOL     OW18211   1.301   0.282   1.702
 5771SOL    HW118212   1.213   0.284   1.655
 5771SOL    HW218213   1.331   0.376   1.719
 5772SOL     OW18214   6.548   5.616   5.796
 5772SOL    HW118215   6.551   5.531   5.744
 5772SOL    HW218216   6.637   5.663   5.789
 5773SOL     OW18217   5.576   6.298   4.653
 5773SOL    HW118218   5.618   6.312   4.743
 5773SOL    HW218219   5.647   6.298   4.583
 5774SOL     OW18220   1.946   5.055   2.285
 5774SOL    HW118221   1.940   4.958   2.262
 5774SOL    HW218222   2.012   5.067   2.360
 5775SOL     OW18223   0.621   0.712   1.094
 5775SOL    HW118224   0.605   0.725   1.191
 5775SOL    HW218225   0.706   0.758   1.068
 5776SOL     OW18226   5.060   1.087   5.595
 5776SOL    HW118227   4.998   1.024   5.549
 5776SOL    HW218228   5.014   1.128   5.674
 5777SOL     OW18229   5.933   6.632   4.447
 5777SOL    HW118230   5.878   6.679   4.377
 5777SOL    HW218231   5.890   6.642   4.536
 5778SOL     OW18232   2.542   6.716   4.041
 5778SOL    HW118233   2.641   6.714   4.030
 5778SOL    HW218234   2.519   6.743   4.135
 5779SOL     OW18235   3.903   0.117   2.212
 5779SOL    HW118236   3.808   0.091   2.227
 5779SOL    HW218237   3.953   0.113   2.299
 5780SOL     OW18238   6.674   4.373   6.909
 5780SOL    HW118239   6.642   4.305   6.843
 5780SOL    HW218240   6.609   4.449   6.913
 5781SOL     OW18241   4.228   4.353   5.913
 5781SOL    HW118242   4.266   4.348   5.821
 5781SOL    HW218243   4.129   4.349   5.909
 5782SOL     OW18244   5.070   1.588   2.733
 5782SOL    HW118245   5.001   1.516   2.742
 5782SOL    HW218246   5.026   1.677   2.745
 5783SOL     OW18247   3.182   6.315   3.081
 5783SOL    HW118248   3.101   6.263   3.053
 5783SOL    HW218249   3.209   6.287   3.173
 5784SOL     OW18250   0.888   6.650   2.102
 5784SOL    HW118251   0.937   6.594   2.035
 5784SOL    HW218252   0.948   6.724   2.132
 5785SOL     OW18253   2.579   1.485   6.659
 5785SOL    HW118254   2.649   1.445   6.600
 5785SOL    HW218255   2.599   1.463   6.755
 5786SOL     OW18256   2.135   1.718   6.532
 5786SOL    HW118257   2.127   1.812   6.565
 5786SOL    HW218258   2.222   1.680   6.562
 5787SOL     OW18259   0.727   1.883   6.043
 5787SOL    HW118260   0.752   1.955   5.979
 5787SOL    HW218261   0.807   1.828   6.066
 5788SOL     OW18262   0.677   2.608   1.577
 5788SOL    HW118263   0.688   2.635   1.481
 5788SOL    HW218264   0.723   2.675   1.635
 5789SOL     OW18265   3.141   0.289   0.611
 5789SOL    HW118266   3.061   0.305   0.552
 5789SOL    HW218267   3.113   0.293   0.706
 5790SOL     OW18268   6.528   6.291   2.515
 5790SOL    HW118269   6.599   6.303   2.446
 5790SOL    HW218270   6.528   6.369   2.577
 5791SOL     OW18271   3.913   0.971   0.729
 5791SOL    HW118272   3.846   1.034   0.767
 5791SOL    HW218273   3.870   0.881   0.716
 5792SOL     OW18274   4.373   2.090   2.773
 5792SOL    HW118275   4.377   2.160   2.843
 5792SOL    HW218276   4.333   2.128   2.689
 5793SOL     OW18277   4.607   2.207   0.794
 5793SOL    HW118278   4.678   2.214   0.724
 5793SOL    HW218279   4.645   2.164   0.876
 5794SOL     OW18280   3.333   6.212   6.850
 5794SOL    HW118281   3.403   6.214   6.921
 5794SOL    HW218282   3.260   6.149   6.876
 5795SOL     OW18283   1.217   1.184   1.722
 5795SOL    HW118284   1.200   1.224   1.631
 5795SOL    HW218285   1.247   1.089   1.712
 5796SOL     OW18286   4.615   0.720   5.706
 5796SOL    HW118287   4.589   0.670   5.789
 5796SOL    HW218288   4.611   0.818   5.724
 5797SOL     OW18289   5.894   1.685   0.362
 5797SOL    HW118290   5.836   1.637   0.296
 5797SOL    HW218291   5.981   1.637   0.372
 5798SOL     OW18292   2.042   2.800   4.794
 5798SOL    HW118293   2.060   2.895   4.819
 5798SOL    HW218294   1.974   2.760   4.857
 5799SOL     OW18295   2.758   0.372   3.935
 5799SOL    HW118296   2.744   0.273   3.931
 5799SOL    HW218297   2.673   0.416   3.966
 5800SOL     OW18298   1.740   6.219   1.806
 5800SOL    HW118299   1.786   6.144   1.758
 5800SOL    HW218300   1.743   6.203   1.904
 5801SOL     OW18301   1.571   2.636   3.123
 5801SOL    HW118302   1.520   2.702   3.068
 5801SOL    HW218303   1.513   2.557   3.142
 5802SOL     OW18304   0.178   6.902   2.863
 5802SOL    HW118305   0.169   6.898   2.963
 5802SOL    HW218306   0.270   6.934   2.839
 5803SOL     OW18307   0.314   6.477   4.545
 5803SOL    HW118308   0.316   6.403   4.478
 5803SOL    HW218309   0.231   6.472   4.599
 5804SOL     OW18310   5.631   2.448   3.082
 5804SOL    HW118311   5.717   2.428   3.035
 5804SOL    HW218312   5.635   2.414   3.176
 5805SOL     OW18313   0.902   2.616   1.150
 5805SOL    HW118314   0.986   2.663   1.125
 5805SOL    HW218315   0.913   2.570   1.238
 5806SOL     OW18316   6.539   4.272   1.421
 5806SOL    HW118317   6.488   4.242   1.502
 5806SOL    HW218318   6.477   4.277   1.343
 5807SOL     OW18319   0.628   0.591   2.850
 5807SOL    HW118320   0.579   0.667   2.892
 5807SOL    HW218321   0.646   0.521   2.919
 5808SOL     OW18322   6.753   5.826   5.741
 5808SOL    HW118323   6.843   5.799   5.709
 5808SOL    HW218324   6.728   5.914   5.701
 5809SOL     OW18325   6.691   3.295   4.632
 5809SOL    HW118326   6.758   3.232   4.670
 5809SOL    HW218327   6.622   3.244   4.580
 5810SOL     OW18328   1.058   6.407   5.052
 5810SOL    HW118329   1.058   6.386   5.149
 5810SOL    HW218330   1.049   6.506   5.039
 5811SOL     OW18331   3.115   4.783   0.244
 5811SOL    HW118332   3.137   4.785   0.342
 5811SOL    HW218333   3.030   4.832   0.227
 5812SOL     OW18334   6.556   2.049   6.218
 5812SOL    HW118335   6.531   1.988   6.143
 5812SOL    HW218336   6.584   2.137   6.181
 5813SOL     OW18337   6.152   5.780   1.116
 5813SOL    HW118338   6.233   5.780   1.058
 5813SOL    HW218339   6.175   5.739   1.204
 5814SOL     OW18340   4.703   1.669   2.364
 5814SOL    HW118341   4.797   1.667   2.328
 5814SOL    HW218342   4.687   1.585   2.416
 5815SOL     OW18343   6.864   4.628   5.043
 5815SOL    HW118344   6.870   4.592   5.136
 5815SOL    HW218345   6.945   4.685   5.024
 5816SOL     OW18346   6.944   4.176   1.211
 5816SOL    HW118347   6.987   4.089   1.234
 5816SOL    HW218348   6.910   4.219   1.295
 5817SOL     OW18349   6.136   2.921   3.808
 5817SOL    HW118350   6.051   2.974   3.812
 5817SOL    HW218351   6.184   2.928   3.895
 5818SOL     OW18352   2.458   0.450   4.407
 5818SOL    HW118353   2.372   0.437   4.357
 5818SOL    HW218354   2.533   0.407   4.358
 5819SOL     OW18355   3.953   3.832   1.246
 5819SOL    HW118356   3.932   3.927   1.222
 5819SOL    HW218357   4.010   3.791   1.174
 5820SOL     OW18358   0.413   6.407   2.487
 5820SOL    HW118359   0.462   6.484   2.446
 5820SOL    HW218360   0.411   6.418   2.587
 5821SOL     OW18361   5.052   6.112   2.141
 5821SOL    HW118362   5.057   6.194   2.084
 5821SOL    HW218363   4.957   6.099   2.172
 5822SOL     OW18364   0.925   3.739   3.716
 5822SOL    HW118365   0.999   3.788   3.762
 5822SOL    HW218366   0.845   3.798   3.710
 5823SOL     OW18367   2.770   6.515   4.764
 5823SOL    HW118368   2.683   6.466   4.757
 5823SOL    HW218369   2.752   6.613   4.775
 5824SOL     OW18370   2.413   5.629   2.350
 5824SOL    HW118371   2.494   5.590   2.305
 5824SOL    HW218372   2.401   5.586   2.440
 5825SOL     OW18373   3.584   2.048   4.469
 5825SOL    HW118374   3.654   2.084   4.531
 5825SOL    HW218375   3.499   2.034   4.519
 5826SOL     OW18376   1.623   6.066   5.690
 5826SOL    HW118377   1.648   6.001   5.619
 5826SOL    HW218378   1.664   6.155   5.671
 5827SOL     OW18379   2.132   4.065   3.924
 5827SOL    HW118380   2.203   4.095   3.861
 5827SOL    HW218381   2.157   3.976   3.964
 5828SOL     OW18382   4.589   0.241   5.341
 5828SOL    HW118383   4.506   0.187   5.325
 5828SOL    HW218384   4.605   0.248   5.440
 5829SOL     OW18385   1.873   1.425   2.784
 5829SOL    HW118386   1.785   1.409   2.739
 5829SOL    HW218387   1.905   1.517   2.760
 5830SOL     OW18388   5.144   4.764   4.742
 5830SOL    HW118389   5.077   4.692   4.759
 5830SOL    HW218390   5.148   4.826   4.820
 5831SOL     OW18391   2.733   1.797   4.240
 5831SOL    HW118392   2.698   1.885   4.209
 5831SOL    HW218393   2.810   1.769   4.183
 5832SOL     OW18394   2.741   5.043   3.433
 5832SOL    HW118395   2.714   4.948   3.418
 5832SOL    HW218396   2.701   5.075   3.519
 5833SOL     OW18397   2.208   4.655   1.555
 5833SOL    HW118398   2.292   4.622   1.599
 5833SOL    HW218399   2.231   4.730   1.493
 5834SOL     OW18400   5.815   1.967   6.165
 5834SOL    HW118401   5.852   2.010   6.247
 5834SOL    HW218402   5.719   1.992   6.154
 5835SOL     OW18403   3.720   0.880   3.787
 5835SOL    HW118404   3.776   0.900   3.707
 5835SOL    HW218405   3.679   0.965   3.821
 5836SOL     OW18406   5.376   4.927   0.994
 5836SOL    HW118407   5.414   4.929   1.087
 5836SOL    HW218408   5.281   4.898   0.998
 5837SOL     OW18409   1.864   4.052   0.167
 5837SOL    HW118410   1.931   4.066   0.240
 5837SOL    HW218411   1.785   4.111   0.184
 5838SOL     OW18412   2.721   3.035   0.525
 5838SOL    HW118413   2.776   3.115   0.498
 5838SOL    HW218414   2.655   3.014   0.452
 5839SOL     OW18415   2.659   1.755   1.230
 5839SOL    HW118416   2.613   1.827   1.179
 5839SOL    HW218417   2.741   1.726   1.181
 5840SOL     OW18418   6.078   4.241   2.413
 5840SOL    HW118419   6.018   4.218   2.336
 5840SOL    HW218420   6.173   4.231   2.384
 5841SOL     OW18421   5.025   1.989   0.798
 5841SOL    HW118422   4.965   2.059   0.758
 5841SOL    HW218423   5.102   1.971   0.736
 5842SOL     OW18424   3.625   2.102   2.319
 5842SOL    HW118425   3.602   2.009   2.289
 5842SOL    HW218426   3.632   2.162   2.238
 5843SOL     OW18427   2.914   2.669   1.215
 5843SOL    HW118428   2.874   2.586   1.253
 5843SOL    HW218429   2.969   2.715   1.285
 5844SOL     OW18430   6.683   5.438   5.358
 5844SOL    HW118431   6.702   5.472   5.450
 5844SOL    HW218432   6.764   5.392   5.322
 5845SOL     OW18433   2.148   6.129   2.873
 5845SOL    HW118434   2.108   6.073   2.801
 5845SOL    HW218435   2.085   6.134   2.950
 5846SOL     OW18436   1.028   4.473   5.204
 5846SOL    HW118437   1.037   4.444   5.299
 5846SOL    HW218438   0.933   4.492   5.183
 5847SOL     OW18439   2.455   3.862   5.505
 5847SOL    HW118440   2.490   3.898   5.419
 5847SOL    HW218441   2.451   3.762   5.500
 5848SOL     OW18442   3.200   6.525   1.274
 5848SOL    HW118443   3.170   6.432   1.295
 5848SOL    HW218444   3.252   6.524   1.188
 5849SOL     OW18445   2.752   5.933   6.591
 5849SOL    HW118446   2.754   5.861   6.660
 5849SOL    HW218447   2.845   5.951   6.559
 5850SOL     OW18448   5.463   2.163   1.217
 5850SOL    HW118449   5.446   2.213   1.301
 5850SOL    HW218450   5.397   2.088   1.209
 5851SOL     OW18451   1.403   2.848   5.630
 5851SOL    HW118452   1.442   2.836   5.721
 5851SOL    HW218453   1.458   2.798   5.563
 5852SOL     OW18454   4.052   5.038   3.376
 5852SOL    HW118455   4.126   4.998   3.429
 5852SOL    HW218456   4.021   5.122   3.421
 5853SOL     OW18457   4.059   4.551   6.968
 5853SOL    HW118458   4.150   4.570   7.004
 5853SOL    HW218459   4.054   4.580   6.872
 5854SOL     OW18460   2.765   4.406   5.344
 5854SOL    HW118461   2.678   4.422   5.297
 5854SOL    HW218462   2.832   4.474   5.314
 5855SOL     OW18463   1.714   2.272   4.576
 5855SOL    HW118464   1.622   2.236   4.588
 5855SOL    HW218465   1.762   2.270   4.664
 5856SOL     OW18466   0.487   0.948   2.045
 5856SOL    HW118467   0.578   0.987   2.031
 5856SOL    HW218468   0.469   0.880   1.974
 5857SOL     OW18469   6.383   5.540   6.656
 5857SOL    HW118470   6.403   5.445   6.680
 5857SOL    HW218471   6.284   5.553   6.652
 5858SOL     OW18472   2.808   1.476   1.853
 5858SOL    HW118473   2.872   1.474   1.777
 5858SOL    HW218474   2.809   1.566   1.896
 5859SOL     OW18475   6.086   5.129   1.646
 5859SOL    HW118476   6.009   5.128   1.582
 5859SOL    HW218477   6.065   5.072   1.725
 5860SOL     OW18478   1.868   3.051   1.856
 5860SOL    HW118479   1.960   3.024   1.883
 5860SOL    HW218480   1.801   2.992   1.902
 5861SOL     OW18481   5.545   0.106   4.448
 5861SOL    HW118482   5.533   0.163   4.529
 5861SOL    HW218483   5.483   0.137   4.376
 5862SOL     OW18484   0.448   5.003   1.667
 5862SOL    HW118485   0.471   5.099   1.654
 5862SOL    HW218486   0.363   4.995   1.719
 5863SOL     OW18487   4.169   6.630   5.981
 5863SOL    HW118488   4.128   6.719   6.002
 5863SOL    HW218489   4.203   6.588   6.065
 5864SOL     OW18490   3.711   3.451   3.311
 5864SOL    HW118491   3.620   3.486   3.333
 5864SOL    HW218492   3.755   3.418   3.395
 5865SOL     OW18493   6.682   6.498   1.445
 5865SOL    HW118494   6.718   6.434   1.377
 5865SOL    HW218495   6.756   6.525   1.507
 5866SOL     OW18496   2.919   3.555   4.520
 5866SOL    HW118497   2.998   3.602   4.479
 5866SOL    HW218498   2.883   3.611   4.595
 5867SOL     OW18499   4.852   0.770   1.025
 5867SOL    HW118500   4.770   0.726   1.062
 5867SOL    HW218501   4.865   0.741   0.930
 5868SOL     OW18502   1.972   0.932   1.161
 5868SOL    HW118503   1.913   1.012   1.168
 5868SOL    HW218504   2.051   0.943   1.222
 5869SOL     OW18505   1.942   5.179   3.994
 5869SOL    HW118506   1.951   5.278   4.004
 5869SOL    HW218507   1.865   5.147   4.051
 5870SOL     OW18508   3.964   6.498   3.380
 5870SOL    HW118509   3.870   6.484   3.412
 5870SOL    HW218510   4.006   6.410   3.362
 5871SOL     OW18511   3.584   3.018   3.169
 5871SOL    HW118512   3.637   2.992   3.249
 5871SOL    HW218513   3.614   2.964   3.090
 5872SOL     OW18514   3.748   4.975   1.349
 5872SOL    HW118515   3.699   5.059   1.324
 5872SOL    HW218516   3.841   4.998   1.376
 5873SOL     OW18517   4.014   6.972   2.562
 5873SOL    HW118518   4.088   6.998   2.499
 5873SOL    HW218519   4.035   6.883   2.603
 5874SOL     OW18520   0.270   4.096   4.835
 5874SOL    HW118521   0.178   4.085   4.798
 5874SOL    HW218522   0.337   4.074   4.763
 5875SOL     OW18523   4.476   2.901   1.375
 5875SOL    HW118524   4.492   2.803   1.391
 5875SOL    HW218525   4.382   2.924   1.399
 5876SOL     OW18526   3.369   3.450   2.632
 5876SOL    HW118527   3.315   3.444   2.716
 5876SOL    HW218528   3.331   3.520   2.572
 5877SOL     OW18529   4.745   4.337   1.582
 5877SOL    HW118530   4.712   4.262   1.639
 5877SOL    HW218531   4.689   4.342   1.499
 5878SOL     OW18532   0.477   3.557   1.632
 5878SOL    HW118533   0.529   3.490   1.579
 5878SOL    HW218534   0.415   3.509   1.695
 5879SOL     OW18535   1.899   4.384   5.024
 5879SOL    HW118536   1.904   4.307   4.960
 5879SOL    HW218537   1.967   4.371   5.096
 5880SOL     OW18538   2.519   4.961   0.249
 5880SOL    HW118539   2.527   5.034   0.181
 5880SOL    HW218540   2.428   4.921   0.243
 5881SOL     OW18541   1.533   6.381   4.275
 5881SOL    HW118542   1.516   6.353   4.181
 5881SOL    HW218543   1.490   6.469   4.292
 5882SOL     OW18544   4.781   1.066   3.306
 5882SOL    HW118545   4.748   1.073   3.212
 5882SOL    HW218546   4.817   0.974   3.322
 5883SOL     OW18547   1.220   3.072   5.638
 5883SOL    HW118548   1.285   2.997   5.630
 5883SOL    HW218549   1.188   3.097   5.546
 5884SOL     OW18550   6.754   1.264   3.805
 5884SOL    HW118551   6.786   1.254   3.899
 5884SOL    HW218552   6.811   1.208   3.745
 5885SOL     OW18553   5.983   6.375   0.541
 5885SOL    HW118554   5.961   6.421   0.455
 5885SOL    HW218555   5.997   6.278   0.525
 5886SOL     OW18556   5.728   1.737   5.445
 5886SOL    HW118557   5.792   1.680   5.496
 5886SOL    HW218558   5.669   1.787   5.509
 5887SOL     OW18559   2.971   6.867   2.715
 5887SOL    HW118560   2.948   6.924   2.636
 5887SOL    HW218561   2.989   6.774   2.685
 5888SOL     OW18562   6.196   6.010   1.881
 5888SOL    HW118563   6.255   6.050   1.810
 5888SOL    HW218564   6.145   6.083   1.926
 5889SOL     OW18565   3.148   6.801   0.438
 5889SOL    HW118566   3.125   6.777   0.532
 5889SOL    HW218567   3.245   6.820   0.431
 5890SOL     OW18568   4.372   4.774   5.956
 5890SOL    HW118569   4.454   4.829   5.971
 5890SOL    HW218570   4.319   4.769   6.041
 5891SOL     OW18571   2.067   2.947   6.519
 5891SOL    HW118572   2.102   3.039   6.535
 5891SOL    HW218573   2.053   2.933   6.420
 5892SOL     OW18574   3.083   5.681   1.887
 5892SOL    HW118575   3.002   5.676   1.829
 5892SOL    HW218576   3.123   5.772   1.881
 5893SOL     OW18577   1.114   3.144   2.354
 5893SOL    HW118578   1.070   3.136   2.444
 5893SOL    HW218579   1.213   3.134   2.364
 5894SOL     OW18580   1.602   3.723   3.862
 5894SOL    HW118581   1.626   3.654   3.930
 5894SOL    HW218582   1.684   3.773   3.835
 5895SOL     OW18583   5.042   5.100   2.704
 5895SOL    HW118584   5.038   5.053   2.792
 5895SOL    HW218585   5.108   5.054   2.644
 5896SOL     OW18586   5.318   1.465   5.592
 5896SOL    HW118587   5.404   1.511   5.615
 5896SOL    HW218588   5.336   1.370   5.567
 5897SOL     OW18589   4.295   4.065   0.983
 5897SOL    HW118590   4.285   3.983   1.039
 5897SOL    HW218591   4.320   4.143   1.041
 5898SOL     OW18592   1.576   5.930   3.140
 5898SOL    HW118593   1.514   5.986   3.085
 5898SOL    HW218594   1.657   5.907   3.087
 5899SOL     OW18595   5.029   0.956   3.651
 5899SOL    HW118596   5.000   0.861   3.662
 5899SOL    HW218597   5.122   0.959   3.614
 5900SOL     OW18598   3.891   4.984   1.869
 5900SOL    HW118599   3.907   5.083   1.874
 5900SOL    HW218600   3.945   4.939   1.941
 5901SOL     OW18601   2.986   6.101   3.630
 5901SOL    HW118602   2.914   6.051   3.679
 5901SOL    HW218603   3.072   6.050   3.634
 5902SOL     OW18604   5.865   2.575   0.333
 5902SOL    HW118605   5.816   2.541   0.414
 5902SOL    HW218606   5.851   2.674   0.325
 5903SOL     OW18607   0.460   1.921   6.843
 5903SOL    HW118608   0.531   1.876   6.790
 5903SOL    HW218609   0.487   2.015   6.862
 5904SOL     OW18610   1.056   2.979   1.888
 5904SOL    HW118611   0.961   2.997   1.862
 5904SOL    HW218612   1.070   2.881   1.898
 5905SOL     OW18613   6.372   3.710   2.204
 5905SOL    HW118614   6.274   3.718   2.222
 5905SOL    HW218615   6.403   3.791   2.155
 5906SOL     OW18616   6.468   1.355   3.336
 5906SOL    HW118617   6.493   1.447   3.364
 5906SOL    HW218618   6.542   1.292   3.357
 5907SOL     OW18619   1.564   1.144   2.803
 5907SOL    HW118620   1.550   1.182   2.711
 5907SOL    HW218621   1.488   1.084   2.827
 5908SOL     OW18622   0.886   2.738   5.668
 5908SOL    HW118623   0.797   2.691   5.665
 5908SOL    HW218624   0.889   2.806   5.595
 5909SOL     OW18625   6.426   4.609   6.330
 5909SOL    HW118626   6.447   4.665   6.410
 5909SOL    HW218627   6.505   4.607   6.268
 5910SOL     OW18628   1.723   1.685   3.374
 5910SOL    HW118629   1.680   1.599   3.347
 5910SOL    HW218630   1.654   1.757   3.380
 5911SOL     OW18631   6.119   5.616   6.572
 5911SOL    HW118632   6.023   5.597   6.588
 5911SOL    HW218633   6.133   5.647   6.478
 5912SOL     OW18634   0.938   1.674   2.516
 5912SOL    HW118635   0.972   1.764   2.490
 5912SOL    HW218636   0.907   1.625   2.434
 5913SOL     OW18637   6.893   3.266   1.249
 5913SOL    HW118638   6.836   3.345   1.227
 5913SOL    HW218639   6.989   3.290   1.240
 5914SOL     OW18640   1.437   6.634   0.703
 5914SOL    HW118641   1.502   6.709   0.689
 5914SOL    HW218642   1.406   6.635   0.797
 5915SOL     OW18643   4.269   0.443   5.325
 5915SOL    HW118644   4.340   0.511   5.341
 5915SOL    HW218645   4.271   0.415   5.229
 5916SOL     OW18646   0.852   0.251   2.561
 5916SOL    HW118647   0.927   0.189   2.535
 5916SOL    HW218648   0.889   0.342   2.577
 5917SOL     OW18649   3.243   3.211   0.385
 5917SOL    HW118650   3.295   3.226   0.469
 5917SOL    HW218651   3.296   3.153   0.323
 5918SOL     OW18652   3.728   6.662   4.682
 5918SOL    HW118653   3.745   6.759   4.699
 5918SOL    HW218654   3.684   6.622   4.763
 5919SOL     OW18655   2.976   3.992   4.982
 5919SOL    HW118656   2.950   3.961   4.891
 5919SOL    HW218657   3.056   4.052   4.975
 5920SOL     OW18658   1.188   0.347   5.323
 5920SOL    HW118659   1.214   0.254   5.296
 5920SOL    HW218660   1.210   0.410   5.249
 5921SOL     OW18661   2.297   4.590   0.897
 5921SOL    HW118662   2.313   4.635   0.985
 5921SOL    HW218663   2.267   4.496   0.914
 5922SOL     OW18664   4.770   2.673   2.369
 5922SOL    HW118665   4.719   2.669   2.283
 5922SOL    HW218666   4.868   2.673   2.350
 5923SOL     OW18667   6.059   0.924   2.542
 5923SOL    HW118668   5.984   0.865   2.571
 5923SOL    HW218669   6.026   0.992   2.477
 5924SOL     OW18670   0.068   6.278   3.278
 5924SOL    HW118671   0.123   6.208   3.323
 5924SOL    HW218672   0.080   6.270   3.179
 5925SOL     OW18673   4.246   0.663   1.214
 5925SOL    HW118674   4.217   0.589   1.154
 5925SOL    HW218675   4.344   0.678   1.203
 5926SOL     OW18676   4.946   3.274   3.327
 5926SOL    HW118677   4.910   3.352   3.275
 5926SOL    HW218678   4.973   3.201   3.264
 5927SOL     OW18679   1.558   0.122   1.371
 5927SOL    HW118680   1.635   0.063   1.348
 5927SOL    HW218681   1.560   0.204   1.312
 5928SOL     OW18682   2.712   0.278   0.298
 5928SOL    HW118683   2.637   0.244   0.241
 5928SOL    HW218684   2.765   0.345   0.247
 5929SOL     OW18685   0.953   1.199   1.498
 5929SOL    HW118686   0.896   1.122   1.472
 5929SOL    HW218687   1.044   1.188   1.458
 5930SOL     OW18688   0.727   4.651   2.329
 5930SOL    HW118689   0.643   4.645   2.384
 5930SOL    HW218690   0.751   4.747   2.315
 5931SOL     OW18691   5.180   0.040   4.546
 5931SOL    HW118692   5.161   7.024   4.458
 5931SOL    HW218693   5.155   7.007   4.620
 5932SOL     OW18694   3.410   5.932   0.416
 5932SOL    HW118695   3.374   5.976   0.334
 5932SOL    HW218696   3.345   5.864   0.448
 5933SOL     OW18697   6.729   5.648   4.189
 5933SOL    HW118698   6.713   5.730   4.136
 5933SOL    HW218699   6.653   5.584   4.176
 5934SOL     OW18700   3.291   4.387   6.954
 5934SOL    HW118701   3.192   4.393   6.966
 5934SOL    HW218702   3.316   4.293   6.929
 5935SOL     OW18703   1.790   0.973   5.478
 5935SOL    HW118704   1.732   1.052   5.455
 5935SOL    HW218705   1.812   0.976   5.576
 5936SOL     OW18706   3.821   2.895   2.274
 5936SOL    HW118707   3.822   2.896   2.174
 5936SOL    HW218708   3.844   2.803   2.306
 5937SOL     OW18709   1.361   2.837   0.360
 5937SOL    HW118710   1.341   2.741   0.343
 5937SOL    HW218711   1.400   2.879   0.278
 5938SOL     OW18712   0.622   3.297   4.424
 5938SOL    HW118713   0.659   3.336   4.339
 5938SOL    HW218714   0.554   3.360   4.463
 5939SOL     OW18715   4.745   1.223   6.170
 5939SOL    HW118716   4.787   1.134   6.187
 5939SOL    HW218717   4.757   1.248   6.074
 5940SOL     OW18718   4.958   5.084   1.062
 5940SOL    HW118719   4.872   5.107   1.016
 5940SOL    HW218720   5.019   5.164   1.061
 5941SOL     OW18721   1.389   1.501   3.384
 5941SOL    HW118722   1.363   1.596   3.400
 5941SOL    HW218723   1.471   1.479   3.437
 5942SOL     OW18724   4.895   2.122   6.149
 5942SOL    HW118725   4.986   2.158   6.130
 5942SOL    HW218726   4.897   2.022   6.148
 5943SOL     OW18727   2.038   4.387   2.342
 5943SOL    HW118728   2.137   4.375   2.350
 5943SOL    HW218729   2.012   4.376   2.246
 5944SOL     OW18730   6.910   3.929   6.099
 5944SOL    HW118731   6.941   3.878   6.018
 5944SOL    HW218732   6.980   3.922   6.170
 5945SOL     OW18733   0.026   6.683   4.093
 5945SOL    HW118734   6.967   6.709   4.053
 5945SOL    HW218735   0.024   6.702   4.192
 5946SOL     OW18736   3.073   2.994   6.384
 5946SOL    HW118737   3.007   2.939   6.435
 5946SOL    HW218738   3.030   3.027   6.299
 5947SOL     OW18739   3.458   3.682   5.282
 5947SOL    HW118740   3.417   3.746   5.217
 5947SOL    HW218741   3.387   3.650   5.345
 5948SOL     OW18742   4.874   4.053   1.823
 5948SOL    HW118743   4.913   3.960   1.818
 5948SOL    HW218744   4.784   4.053   1.780
 5949SOL     OW18745   1.450   4.280   4.173
 5949SOL    HW118746   1.423   4.325   4.258
 5949SOL    HW218747   1.550   4.275   4.168
 5950SOL     OW18748   1.884   6.854   5.025
 5950SOL    HW118749   1.980   6.863   4.998
 5950SOL    HW218750   1.871   6.766   5.071
 5951SOL     OW18751   0.062   2.768   6.882
 5951SOL    HW118752   7.007   2.724   6.848
 5951SOL    HW218753   0.128   2.698   6.908
 5952SOL     OW18754   3.794   4.115   1.970
 5952SOL    HW118755   3.694   4.109   1.979
 5952SOL    HW218756   3.837   4.067   2.046
 5953SOL     OW18757   6.644   2.758   6.942
 5953SOL    HW118758   6.590   2.771   7.025
 5953SOL    HW218759   6.611   2.678   6.893
 5954SOL     OW18760   2.492   4.979   3.676
 5954SOL    HW118761   2.527   4.886   3.686
 5954SOL    HW218762   2.463   4.994   3.581
 5955SOL     OW18763   4.135   2.715   0.364
 5955SOL    HW118764   4.041   2.689   0.344
 5955SOL    HW218765   4.153   2.806   0.328
 5956SOL     OW18766   3.899   2.524   6.775
 5956SOL    HW118767   3.972   2.535   6.842
 5956SOL    HW218768   3.879   2.611   6.732
 5957SOL     OW18769   6.814   2.562   3.453
 5957SOL    HW118770   6.838   2.653   3.487
 5957SOL    HW218771   6.715   2.549   3.459
 5958SOL     OW18772   2.369   6.179   2.699
 5958SOL    HW118773   2.344   6.269   2.664
 5958SOL    HW218774   2.468   6.167   2.691
 5959SOL     OW18775   4.966   4.449   2.939
 5959SOL    HW118776   4.989   4.378   2.872
 5959SOL    HW218777   5.048   4.500   2.963
 5960SOL     OW18778   6.038   6.971   6.482
 5960SOL    HW118779   6.130   6.978   6.521
 5960SOL    HW218780   5.978   6.925   6.547
 5961SOL     OW18781   2.077   2.019   3.785
 5961SOL    HW118782   2.124   1.946   3.736
 5961SOL    HW218783   2.076   2.102   3.729
 5962SOL     OW18784   5.102   4.960   0.107
 5962SOL    HW118785   5.113   5.041   0.051
 5962SOL    HW218786   5.112   4.985   0.204
 5963SOL     OW18787   1.970   3.831   0.889
 5963SOL    HW118788   2.000   3.754   0.944
 5963SOL    HW218789   1.888   3.807   0.838
 5964SOL     OW18790   1.658   6.694   3.551
 5964SOL    HW118791   1.622   6.784   3.528
 5964SOL    HW218792   1.691   6.695   3.646
 5965SOL     OW18793   2.312   0.132   1.330
 5965SOL    HW118794   2.316   0.228   1.303
 5965SOL    HW218795   2.400   0.104   1.368
 5966SOL     OW18796   3.122   1.832   5.609
 5966SOL    HW118797   3.161   1.773   5.539
 5966SOL    HW218798   3.031   1.800   5.634
 5967SOL     OW18799   4.640   2.212   5.599
 5967SOL    HW118800   4.682   2.290   5.552
 5967SOL    HW218801   4.555   2.242   5.643
 5968SOL     OW18802   6.159   2.083   3.138
 5968SOL    HW118803   6.068   2.122   3.149
 5968SOL    HW218804   6.210   2.136   3.070
 5969SOL     OW18805   5.091   6.585   1.632
 5969SOL    HW118806   5.068   6.492   1.605
 5969SOL    HW218807   5.127   6.585   1.725
 5970SOL     OW18808   5.706   2.029   0.452
 5970SOL    HW118809   5.696   2.122   0.416
 5970SOL    HW218810   5.801   2.000   0.443
 5971SOL     OW18811   6.754   5.090   3.611
 5971SOL    HW118812   6.775   5.135   3.524
 5971SOL    HW218813   6.792   5.144   3.686
 5972SOL     OW18814   6.199   5.124   0.560
 5972SOL    HW118815   6.147   5.053   0.609
 5972SOL    HW218816   6.203   5.101   0.463
 5973SOL     OW18817   3.419   1.142   2.339
 5973SOL    HW118818   3.412   1.058   2.286
 5973SOL    HW218819   3.451   1.121   2.432
 5974SOL     OW18820   5.371   1.302   4.234
 5974SOL    HW118821   5.387   1.388   4.186
 5974SOL    HW218822   5.275   1.294   4.258
 5975SOL     OW18823   3.670   4.836   0.488
 5975SOL    HW118824   3.740   4.810   0.555
 5975SOL    HW218825   3.675   4.774   0.409
 5976SOL     OW18826   0.976   2.109   6.357
 5976SOL    HW118827   1.046   2.178   6.371
 5976SOL    HW218828   1.019   2.023   6.329
 5977SOL     OW18829   0.825   5.797   1.796
 5977SOL    HW118830   0.759   5.778   1.868
 5977SOL    HW218831   0.863   5.711   1.762
 5978SOL     OW18832   2.969   3.756   6.116
 5978SOL    HW118833   2.990   3.664   6.148
 5978SOL    HW218834   3.011   3.824   6.176
 5979SOL     OW18835   5.672   0.785   1.340
 5979SOL    HW118836   5.673   0.686   1.321
 5979SOL    HW218837   5.585   0.810   1.381
 5980SOL     OW18838   3.541   2.595   0.647
 5980SOL    HW118839   3.483   2.650   0.707
 5980SOL    HW218840   3.625   2.570   0.695
 5981SOL     OW18841   3.946   2.419   0.604
 5981SOL    HW118842   4.007   2.347   0.635
 5981SOL    HW218843   3.923   2.405   0.508
 5982SOL     OW18844   5.730   2.783   1.562
 5982SOL    HW118845   5.649   2.842   1.562
 5982SOL    HW218846   5.788   2.806   1.640
 5983SOL     OW18847   6.686   1.542   3.791
 5983SOL    HW118848   6.710   1.446   3.809
 5983SOL    HW218849   6.769   1.598   3.792
 5984SOL     OW18850   6.028   6.242   1.896
 5984SOL    HW118851   5.935   6.233   1.932
 5984SOL    HW218852   6.085   6.289   1.963
 5985SOL     OW18853   0.034   4.676   2.799
 5985SOL    HW118854   0.007   4.585   2.831
 5985SOL    HW218855   7.001   4.745   2.838
 5986SOL     OW18856   3.906   3.040   3.194
 5986SOL    HW118857   3.854   3.124   3.182
 5986SOL    HW218858   3.871   2.990   3.273
 5987SOL     OW18859   7.017   6.193   4.333
 5987SOL    HW118860   6.974   6.281   4.353
 5987SOL    HW218861   0.059   6.205   4.262
 5988SOL     OW18862   1.874   2.640   0.314
 5988SOL    HW118863   1.946   2.581   0.351
 5988SOL    HW218864   1.788   2.589   0.310
 5989SOL     OW18865   2.642   6.865   5.834
 5989SOL    HW118866   2.678   6.841   5.744
 5989SOL    HW218867   2.677   6.800   5.902
 5990SOL     OW18868   2.058   3.971   1.592
 5990SOL    HW118869   2.144   3.999   1.635
 5990SOL    HW218870   2.026   4.045   1.532
 5991SOL     OW18871   5.290   1.162   0.465
 5991SOL    HW118872   5.368   1.127   0.412
 5991SOL    HW218873   5.318   1.176   0.560
 5992SOL     OW18874   2.697   4.620   3.230
 5992SOL    HW118875   2.636   4.618   3.151
 5992SOL    HW218876   2.779   4.673   3.209
 5993SOL     OW18877   5.353   1.757   0.171
 5993SOL    HW118878   5.321   1.783   0.080
 5993SOL    HW218879   5.276   1.721   0.224
 5994SOL     OW18880   0.554   4.408   1.161
 5994SOL    HW118881   0.551   4.508   1.169
 5994SOL    HW218882   0.556   4.382   1.065
 5995SOL     OW18883   5.376   4.019   0.878
 5995SOL    HW118884   5.292   3.999   0.928
 5995SOL    HW218885   5.375   3.973   0.790
 5996SOL     OW18886   2.140   0.221   1.816
 5996SOL    HW118887   2.197   0.140   1.802
 5996SOL    HW218888   2.097   0.248   1.730
 5997SOL     OW18889   6.317   0.394   4.841
 5997SOL    HW118890   6.372   0.316   4.871
 5997SOL    HW218891   6.290   0.449   4.920
 5998SOL     OW18892   6.151   6.755   6.834
 5998SOL    HW118893   6.117   6.848   6.848
 5998SOL    HW218894   6.135   6.700   6.916
 5999SOL     OW18895   5.510   3.818   1.025
 5999SOL    HW118896   5.521   3.885   1.099
 5999SOL    HW218897   5.439   3.850   0.962
 6000SOL     OW18898   1.054   4.832   1.818
 6000SOL    HW118899   1.122   4.860   1.885
 6000SOL    HW218900   0.995   4.910   1.796
 6001SOL     OW18901   0.134   6.227   5.680
 6001SOL    HW118902   0.094   6.183   5.760
 6001SOL    HW218903   0.182   6.310   5.708
 6002SOL     OW18904   5.969   4.816   5.038
 6002SOL    HW118905   5.892   4.875   5.017
 6002SOL    HW218906   5.953   4.724   5.001
 6003SOL     OW18907   2.516   1.479   5.197
 6003SOL    HW118908   2.457   1.485   5.277
 6003SOL    HW218909   2.461   1.460   5.116
 6004SOL     OW18910   5.646   3.134   5.109
 6004SOL    HW118911   5.576   3.063   5.112
 6004SOL    HW218912   5.687   3.136   5.018
 6005SOL     OW18913   4.027   4.320   0.128
 6005SOL    HW118914   3.978   4.350   0.045
 6005SOL    HW218915   4.125   4.325   0.112
 6006SOL     OW18916   2.826   6.052   6.283
 6006SOL    HW118917   2.771   6.136   6.274
 6006SOL    HW218918   2.773   5.974   6.251
 6007SOL     OW18919   3.171   6.767   4.382
 6007SOL    HW118920   3.250   6.789   4.326
 6007SOL    HW218921   3.103   6.719   4.326
 6008SOL     OW18922   2.203   3.922   6.848
 6008SOL    HW118923   2.113   3.949   6.882
 6008SOL    HW218924   2.223   3.828   6.876
 6009SOL     OW18925   2.624   5.380   2.536
 6009SOL    HW118926   2.612   5.393   2.437
 6009SOL    HW218927   2.536   5.362   2.578
 6010SOL     OW18928   0.142   5.305   6.021
 6010SOL    HW118929   0.110   5.397   6.042
 6010SOL    HW218930   0.179   5.304   5.928
 6011SOL     OW18931   5.828   1.853   3.085
 6011SOL    HW118932   5.863   1.946   3.101
 6011SOL    HW218933   5.838   1.799   3.168
 6012SOL     OW18934   6.501   0.834   5.606
 6012SOL    HW118935   6.493   0.904   5.535
 6012SOL    HW218936   6.412   0.789   5.619
 6013SOL     OW18937   6.206   1.706   2.664
 6013SOL    HW118938   6.122   1.655   2.680
 6013SOL    HW218939   6.206   1.790   2.718
 6014SOL     OW18940   4.132   3.391   4.549
 6014SOL    HW118941   4.046   3.342   4.561
 6014SOL    HW218942   4.174   3.362   4.463
 6015SOL     OW18943   6.573   0.150   3.423
 6015SOL    HW118944   6.622   0.184   3.503
 6015SOL    HW218945   6.483   0.193   3.419
 6016SOL     OW18946   4.212   1.874   4.476
 6016SOL    HW118947   4.174   1.880   4.384
 6016SOL    HW218948   4.287   1.939   4.485
 6017SOL     OW18949   1.245   2.296   5.272
 6017SOL    HW118950   1.272   2.222   5.211
 6017SOL    HW218951   1.302   2.376   5.255
 6018SOL     OW18952   2.354   0.493   3.789
 6018SOL    HW118953   2.300   0.566   3.746
 6018SOL    HW218954   2.410   0.448   3.719
 6019SOL     OW18955   6.774   3.302   6.315
 6019SOL    HW118956   6.684   3.327   6.350
 6019SOL    HW218957   6.826   3.256   6.387
 6020SOL     OW18958   0.703   5.709   4.861
 6020SOL    HW118959   0.800   5.697   4.883
 6020SOL    HW218960   0.658   5.758   4.936
 6021SOL     OW18961   4.895   0.430   3.664
 6021SOL    HW118962   4.894   0.379   3.750
 6021SOL    HW218963   4.916   0.368   3.588
 6022SOL     OW18964   6.597   4.066   1.092
 6022SOL    HW118965   6.686   4.031   1.121
 6022SOL    HW218966   6.603   4.165   1.080
 6023SOL     OW18967   4.102   0.139   2.767
 6023SOL    HW118968   4.060   0.150   2.857
 6023SOL    HW218969   4.074   0.052   2.728
 6024SOL     OW18970   0.478   6.647   0.143
 6024SOL    HW118971   0.456   6.550   0.135
 6024SOL    HW218972   0.457   6.693   0.057
 6025SOL     OW18973   3.387   0.509   5.882
 6025SOL    HW118974   3.357   0.458   5.963
 6025SOL    HW218975   3.486   0.501   5.872
 6026SOL     OW18976   5.394   6.190   3.629
 6026SOL    HW118977   5.348   6.239   3.554
 6026SOL    HW218978   5.493   6.201   3.620
 6027SOL     OW18979   6.557   4.127   5.488
 6027SOL    HW118980   6.458   4.135   5.494
 6027SOL    HW218981   6.585   4.036   5.518
 6028SOL     OW18982   5.845   5.575   6.559
 6028SOL    HW118983   5.869   5.495   6.614
 6028SOL    HW218984   5.764   5.554   6.504
 6029SOL     OW18985   2.604   1.597   2.629
 6029SOL    HW118986   2.606   1.649   2.544
 6029SOL    HW218987   2.692   1.607   2.676
 6030SOL     OW18988   6.369   3.388   4.666
 6030SOL    HW118989   6.325   3.431   4.587
 6030SOL    HW218990   6.375   3.289   4.651
 6031SOL     OW18991   6.858   0.083   3.742
 6031SOL    HW118992   6.851   0.056   3.838
 6031SOL    HW218993   6.894   0.177   3.736
 6032SOL     OW18994   2.892   6.704   3.122
 6032SOL    HW118995   2.860   6.779   3.065
 6032SOL    HW218996   2.980   6.672   3.088
 6033SOL     OW18997   0.760   1.541   2.911
 6033SOL    HW118998   0.689   1.564   2.844
 6033SOL    HW218999   0.850   1.548   2.868
 6034SOL     OW19000   0.515   0.992   0.876
 6034SOL    HW119001   0.609   0.980   0.909
 6034SOL    HW219002   0.499   1.088   0.856
 6035SOL     OW19003   1.660   1.415   2.608
 6035SOL    HW119004   1.585   1.449   2.665
 6035SOL    HW219005   1.685   1.485   2.542
 6036SOL     OW19006   6.939   3.936   0.293
 6036SOL    HW119007   6.940   3.858   0.356
 6036SOL    HW219008   7.022   3.935   0.238
 6037SOL     OW19009   4.580   0.657   6.380
 6037SOL    HW119010   4.633   0.629   6.460
 6037SOL    HW219011   4.518   0.732   6.406
 6038SOL     OW19012   2.222   1.429   0.068
 6038SOL    HW119013   2.203   1.382   7.010
 6038SOL    HW219014   2.156   1.399   0.137
 6039SOL     OW19015   3.567   2.949   4.398
 6039SOL    HW119016   3.509   2.927   4.319
 6039SOL    HW219017   3.529   3.028   4.446
 6040SOL     OW19018   6.577   1.228   0.600
 6040SOL    HW119019   6.647   1.172   0.646
 6040SOL    HW219020   6.621   1.307   0.558
 6041SOL     OW19021   0.472   3.032   4.920
 6041SOL    HW119022   0.513   2.944   4.895
 6041SOL    HW219023   0.487   3.048   5.018
 6042SOL     OW19024   2.737   6.005   3.939
 6042SOL    HW119025   2.753   5.961   3.850
 6042SOL    HW219026   2.784   5.954   4.010
 6043SOL     OW19027   2.017   5.574   1.724
 6043SOL    HW119028   2.056   5.540   1.810
 6043SOL    HW219029   2.069   5.654   1.693
 6044SOL     OW19030   6.937   3.683   0.435
 6044SOL    HW119031   6.935   3.583   0.429
 6044SOL    HW219032   6.990   3.710   0.516
 6045SOL     OW19033   5.059   1.598   4.320
 6045SOL    HW119034   5.040   1.695   4.328
 6045SOL    HW219035   5.125   1.570   4.390
 6046SOL     OW19036   3.555   3.995   2.182
 6046SOL    HW119037   3.590   3.907   2.214
 6046SOL    HW219038   3.604   4.069   2.228
 6047SOL     OW19039   6.935   1.258   6.971
 6047SOL    HW119040   6.947   1.217   0.033
 6047SOL    HW219041   7.023   1.270   6.927
 6048SOL     OW19042   6.531   5.716   3.442
 6048SOL    HW119043   6.456   5.772   3.407
 6048SOL    HW219044   6.523   5.707   3.541
 6049SOL     OW19045   5.145   4.332   6.709
 6049SOL    HW119046   5.074   4.358   6.643
 6049SOL    HW219047   5.235   4.351   6.670
 6050SOL     OW19048   2.081   5.495   3.145
 6050SOL    HW119049   2.096   5.593   3.139
 6050SOL    HW219050   2.004   5.469   3.087
 6051SOL     OW19051   0.635   1.464   2.509
 6051SOL    HW119052   0.683   1.383   2.544
 6051SOL    HW219053   0.635   1.535   2.579
 6052SOL     OW19054   5.423   5.790   6.486
 6052SOL    HW119055   5.494   5.840   6.536
 6052SOL    HW219056   5.345   5.773   6.547
 6053SOL     OW19057   3.905   2.006   5.580
 6053SOL    HW119058   3.831   1.983   5.516
 6053SOL    HW219059   3.992   1.975   5.543
 6054SOL     OW19060   4.446   3.715   7.023
 6054SOL    HW119061   4.359   3.746   0.031
 6054SOL    HW219062   4.449   3.733   6.925
 6055SOL     OW19063   2.758   4.381   1.327
 6055SOL    HW119064   2.822   4.333   1.267
 6055SOL    HW219065   2.728   4.319   1.400
 6056SOL     OW19066   5.294   6.521   2.981
 6056SOL    HW119067   5.389   6.500   2.959
 6056SOL    HW219068   5.288   6.554   3.075
 6057SOL     OW19069   6.103   1.283   3.896
 6057SOL    HW119070   6.019   1.257   3.850
 6057SOL    HW219071   6.174   1.301   3.828
 6058SOL     OW19072   6.991   3.214   6.046
 6058SOL    HW119073   6.904   3.165   6.047
 6058SOL    HW219074   7.022   3.228   6.140
 6059SOL     OW19075   4.629   2.543   6.501
 6059SOL    HW119076   4.546   2.509   6.457
 6059SOL    HW219077   4.706   2.483   6.478
 6060SOL     OW19078   1.884   1.957   1.181
 6060SOL    HW119079   1.820   1.925   1.112
 6060SOL    HW219080   1.838   1.964   1.269
 6061SOL     OW19081   2.639   4.878   6.702
 6061SOL    HW119082   2.715   4.820   6.673
 6061SOL    HW219083   2.562   4.821   6.730
 6062SOL     OW19084   2.100   2.381   5.557
 6062SOL    HW119085   2.066   2.441   5.485
 6062SOL    HW219086   2.189   2.413   5.588
 6063SOL     OW19087   4.455   3.654   6.462
 6063SOL    HW119088   4.382   3.721   6.472
 6063SOL    HW219089   4.452   3.615   6.369
 6064SOL     OW19090   5.754   6.090   0.400
 6064SOL    HW119091   5.818   6.143   0.344
 6064SOL    HW219092   5.803   6.051   0.477
 6065SOL     OW19093   1.741   5.950   1.479
 6065SOL    HW119094   1.667   5.976   1.542
 6065SOL    HW219095   1.791   6.031   1.451
 6066SOL     OW19096   5.667   5.800   2.007
 6066SOL    HW119097   5.615   5.810   2.092
 6066SOL    HW219098   5.689   5.704   1.992
 6067SOL     OW19099   6.861   4.889   5.589
 6067SOL    HW119100   6.823   4.833   5.515
 6067SOL    HW219101   6.815   4.865   5.675
 6068SOL     OW19102   3.925   2.163   3.836
 6068SOL    HW119103   3.970   2.225   3.899
 6068SOL    HW219104   3.949   2.069   3.859
 6069SOL     OW19105   0.255   5.247   5.382
 6069SOL    HW119106   0.202   5.292   5.454
 6069SOL    HW219107   0.276   5.154   5.410
 6070SOL     OW19108   2.700   0.953   0.824
 6070SOL    HW119109   2.653   0.865   0.834
 6070SOL    HW219110   2.790   0.939   0.783
 6071SOL     OW19111   6.274   0.300   6.222
 6071SOL    HW119112   6.255   0.284   6.319
 6071SOL    HW219113   6.335   0.379   6.213
 6072SOL     OW19114   6.494   2.717   0.142
 6072SOL    HW119115   6.399   2.693   0.162
 6072SOL    HW219116   6.521   2.795   0.199
 6073SOL     OW19117   4.511   4.122   0.294
 6073SOL    HW119118   4.462   4.155   0.375
 6073SOL    HW219119   4.456   4.053   0.248
 6074SOL     OW19120   1.339   6.088   3.051
 6074SOL    HW119121   1.402   6.161   3.025
 6074SOL    HW219122   1.248   6.109   3.016
 6075SOL     OW19123   6.362   0.293   6.794
 6075SOL    HW119124   6.358   0.226   6.869
 6075SOL    HW219125   6.440   0.353   6.807
 6076SOL     OW19126   7.012   6.587   3.182
 6076SOL    HW119127   6.982   6.492   3.190
 6076SOL    HW219128   0.046   6.595   3.104
 6077SOL     OW19129   5.088   6.265   2.516
 6077SOL    HW119130   5.077   6.179   2.466
 6077SOL    HW219131   5.182   6.297   2.507
 6078SOL     OW19132   5.771   4.656   0.144
 6078SOL    HW119133   5.764   4.569   0.096
 6078SOL    HW219134   5.759   4.731   0.078
 6079SOL     OW19135   3.626   1.798   0.153
 6079SOL    HW119136   3.651   1.770   0.060
 6079SOL    HW219137   3.534   1.765   0.173
 6080SOL     OW19138   6.926   3.772   5.571
 6080SOL    HW119139   6.917   3.823   5.486
 6080SOL    HW219140   7.000   3.811   5.626
 6081SOL     OW19141   2.166   3.828   4.592
 6081SOL    HW119142   2.173   3.747   4.534
 6081SOL    HW219143   2.196   3.806   4.685
 6082SOL     OW19144   4.425   0.983   0.885
 6082SOL    HW119145   4.474   0.958   0.968
 6082SOL    HW219146   4.433   0.910   0.818
 6083SOL     OW19147   4.915   0.725   5.710
 6083SOL    HW119148   4.955   0.660   5.775
 6083SOL    HW219149   4.818   0.736   5.729
 6084SOL     OW19150   6.351   5.044   3.209
 6084SOL    HW119151   6.332   4.995   3.124
 6084SOL    HW219152   6.411   4.989   3.267
 6085SOL     OW19153   0.590   6.458   1.077
 6085SOL    HW119154   0.538   6.491   0.999
 6085SOL    HW219155   0.552   6.372   1.109
 6086SOL     OW19156   4.246   3.585   0.910
 6086SOL    HW119157   4.301   3.503   0.929
 6086SOL    HW219158   4.149   3.562   0.918
 6087SOL     OW19159   4.054   0.521   0.539
 6087SOL    HW119160   4.136   0.474   0.507
 6087SOL    HW219161   4.019   0.581   0.466
 6088SOL     OW19162   3.870   6.029   2.354
 6088SOL    HW119163   3.863   6.062   2.449
 6088SOL    HW219164   3.963   5.998   2.336
 6089SOL     OW19165   6.247   5.434   3.153
 6089SOL    HW119166   6.161   5.449   3.104
 6089SOL    HW219167   6.230   5.433   3.251
 6090SOL     OW19168   3.739   6.019   4.637
 6090SOL    HW119169   3.653   5.969   4.649
 6090SOL    HW219170   3.721   6.117   4.638
 6091SOL     OW19171   0.569   2.823   2.385
 6091SOL    HW119172   0.492   2.878   2.353
 6091SOL    HW219173   0.649   2.882   2.399
 6092SOL     OW19174   2.072   6.558   0.893
 6092SOL    HW119175   2.115   6.550   0.803
 6092SOL    HW219176   1.975   6.578   0.882
 6093SOL     OW19177   2.913   3.196   1.940
 6093SOL    HW119178   2.841   3.144   1.895
 6093SOL    HW219179   2.979   3.228   1.872
 6094SOL     OW19180   0.942   0.487   5.792
 6094SOL    HW119181   1.040   0.479   5.810
 6094SOL    HW219182   0.901   0.395   5.792
 6095SOL     OW19183   4.476   5.315   2.230
 6095SOL    HW119184   4.521   5.346   2.146
 6095SOL    HW219185   4.532   5.244   2.273
 6096SOL     OW19186   5.071   5.995   2.437
 6096SOL    HW119187   5.012   5.928   2.392
 6096SOL    HW219188   5.063   5.984   2.536
 6097SOL     OW19189   2.263   5.362   1.583
 6097SOL    HW119190   2.252   5.425   1.660
 6097SOL    HW219191   2.198   5.287   1.592
 6098SOL     OW19192   6.197   1.587   5.286
 6098SOL    HW119193   6.185   1.571   5.384
 6098SOL    HW219194   6.132   1.656   5.255
 6099SOL     OW19195   3.647   7.021   5.193
 6099SOL    HW119196   3.597   7.009   5.279
 6099SOL    HW219197   3.700   6.938   5.174
 6100SOL     OW19198   0.449   5.509   5.818
 6100SOL    HW119199   0.534   5.463   5.791
 6100SOL    HW219200   0.384   5.442   5.852
 6101SOL     OW19201   0.770   2.965   1.003
 6101SOL    HW119202   0.737   3.057   1.019
 6101SOL    HW219203   0.712   2.920   0.935
 6102SOL     OW19204   2.997   0.447   3.071
 6102SOL    HW119205   3.084   0.495   3.066
 6102SOL    HW219206   2.972   0.435   3.167
 6103SOL     OW19207   5.908   0.776   2.309
 6103SOL    HW119208   5.826   0.818   2.271
 6103SOL    HW219209   5.884   0.727   2.393
 6104SOL     OW19210   6.300   0.714   5.236
 6104SOL    HW119211   6.208   0.676   5.240
 6104SOL    HW219212   6.297   0.813   5.253
 6105SOL     OW19213   3.812   4.752   6.473
 6105SOL    HW119214   3.768   4.706   6.551
 6105SOL    HW219215   3.902   4.785   6.501
 6106SOL     OW19216   6.916   3.963   5.375
 6106SOL    HW119217   6.852   4.037   5.399
 6106SOL    HW219218   6.946   3.975   5.280
 6107SOL     OW19219   6.004   5.138   5.116
 6107SOL    HW119220   5.963   5.216   5.164
 6107SOL    HW219221   5.988   5.055   5.169
 6108SOL     OW19222   3.521   0.657   6.175
 6108SOL    HW119223   3.555   0.599   6.249
 6108SOL    HW219224   3.503   0.749   6.210
 6109SOL     OW19225   6.833   6.806   3.972
 6109SOL    HW119226   6.809   6.903   3.982
 6109SOL    HW219227   6.786   6.768   3.893
 6110SOL     OW19228   1.235   1.930   3.754
 6110SOL    HW119229   1.191   1.844   3.728
 6110SOL    HW219230   1.238   1.937   3.854
 6111SOL     OW19231   2.724   2.565   0.713
 6111SOL    HW119232   2.679   2.643   0.670
 6111SOL    HW219233   2.740   2.586   0.810
 6112SOL     OW19234   4.842   6.878   3.628
 6112SOL    HW119235   4.745   6.901   3.635
 6112SOL    HW219236   4.856   6.818   3.549
 6113SOL     OW19237   3.052   5.206   1.224
 6113SOL    HW119238   3.125   5.210   1.292
 6113SOL    HW219239   3.075   5.265   1.147
 6114SOL     OW19240   4.923   3.833   1.591
 6114SOL    HW119241   4.988   3.762   1.619
 6114SOL    HW219242   4.974   3.912   1.556
 6115SOL     OW19243   6.286   0.990   5.194
 6115SOL    HW119244   6.334   1.077   5.187
 6115SOL    HW219245   6.187   1.006   5.199
 6116SOL     OW19246   6.148   2.982   0.533
 6116SOL    HW119247   6.118   3.073   0.506
 6116SOL    HW219248   6.246   2.973   0.519
 6117SOL     OW19249   1.986   2.308   1.066
 6117SOL    HW119250   2.016   2.303   0.971
 6117SOL    HW219251   1.988   2.217   1.106
 6118SOL     OW19252   6.031   0.873   1.461
 6118SOL    HW119253   6.038   0.820   1.377
 6118SOL    HW219254   6.122   0.906   1.487
 6119SOL     OW19255   0.320   0.929   6.387
 6119SOL    HW119256   0.316   0.834   6.415
 6119SOL    HW219257   0.405   0.946   6.337
 6120SOL     OW19258   3.047   1.184   3.771
 6120SOL    HW119259   2.956   1.204   3.806
 6120SOL    HW219260   3.052   1.212   3.675
 6121SOL     OW19261   3.141   1.321   5.285
 6121SOL    HW119262   3.137   1.326   5.185
 6121SOL    HW219263   3.107   1.232   5.315
 6122SOL     OW19264   4.731   4.742   5.159
 6122SOL    HW119265   4.761   4.800   5.235
 6122SOL    HW219266   4.727   4.647   5.190
 6123SOL     OW19267   6.412   1.761   5.168
 6123SOL    HW119268   6.330   1.705   5.178
 6123SOL    HW219269   6.386   1.856   5.148
 6124SOL     OW19270   2.212   5.944   4.365
 6124SOL    HW119271   2.251   6.023   4.317
 6124SOL    HW219272   2.121   5.923   4.328
 6125SOL     OW19273   3.471   1.162   5.556
 6125SOL    HW119274   3.469   1.252   5.512
 6125SOL    HW219275   3.512   1.170   5.647
 6126SOL     OW19276   5.927   2.848   6.712
 6126SOL    HW119277   5.966   2.931   6.752
 6126SOL    HW219278   5.903   2.865   6.617
 6127SOL     OW19279   4.785   2.154   2.614
 6127SOL    HW119280   4.760   2.105   2.697
 6127SOL    HW219281   4.796   2.089   2.539
 6128SOL     OW19282   5.957   5.705   5.228
 6128SOL    HW119283   6.038   5.657   5.194
 6128SOL    HW219284   5.942   5.788   5.173
 6129SOL     OW19285   2.099   5.781   3.097
 6129SOL    HW119286   2.085   5.855   3.163
 6129SOL    HW219287   2.197   5.758   3.093
 6130SOL     OW19288   6.239   2.609   0.171
 6130SOL    HW119289   6.186   2.535   0.213
 6130SOL    HW219290   6.259   2.586   0.076
 6131SOL     OW19291   6.009   3.083   2.419
 6131SOL    HW119292   5.938   3.018   2.447
 6131SOL    HW219293   5.967   3.170   2.396
 6132SOL     OW19294   4.331   6.191   6.171
 6132SOL    HW119295   4.388   6.166   6.249
 6132SOL    HW219296   4.340   6.121   6.100
 6133SOL     OW19297   0.645   2.493   3.730
 6133SOL    HW119298   0.718   2.534   3.784
 6133SOL    HW219299   0.684   2.444   3.652
 6134SOL     OW19300   0.278   6.662   5.388
 6134SOL    HW119301   0.374   6.637   5.405
 6134SOL    HW219302   0.219   6.585   5.411
 6135SOL     OW19303   6.203   6.216   0.359
 6135SOL    HW119304   6.184   6.120   0.339
 6135SOL    HW219305   6.208   6.268   0.273
 6136SOL     OW19306   1.220   2.078   3.494
 6136SOL    HW119307   1.298   2.136   3.470
 6136SOL    HW219308   1.222   2.061   3.593
 6137SOL     OW19309   6.911   4.927   1.234
 6137SOL    HW119310   6.887   4.955   1.141
 6137SOL    HW219311   6.947   4.833   1.232
 6138SOL     OW19312   5.537   0.638   2.254
 6138SOL    HW119313   5.464   0.598   2.310
 6138SOL    HW219314   5.525   0.612   2.159
 6139SOL     OW19315   2.019   2.114   5.569
 6139SOL    HW119316   2.040   2.080   5.660
 6139SOL    HW219317   2.066   2.202   5.554
 6140SOL     OW19318   2.525   0.044   3.922
 6140SOL    HW119319   2.622   0.036   3.945
 6140SOL    HW219320   2.489   6.982   3.899
 6141SOL     OW19321   1.139   0.394   0.576
 6141SOL    HW119322   1.074   0.328   0.538
 6141SOL    HW219323   1.219   0.346   0.610
 6142SOL     OW19324   0.469   0.106   1.859
 6142SOL    HW119325   0.482   0.146   1.950
 6142SOL    HW219326   0.394   0.041   1.862
 6143SOL     OW19327   0.860   2.993   5.506
 6143SOL    HW119328   0.889   3.075   5.557
 6143SOL    HW219329   0.911   2.987   5.421
 6144SOL     OW19330   3.358   5.902   2.709
 6144SOL    HW119331   3.324   5.897   2.615
 6144SOL    HW219332   3.415   5.984   2.720
 6145SOL     OW19333   5.411   3.166   4.055
 6145SOL    HW119334   5.401   3.067   4.042
 6145SOL    HW219335   5.380   3.190   4.147
 6146SOL     OW19336   5.928   1.456   5.339
 6146SOL    HW119337   5.840   1.458   5.293
 6146SOL    HW219338   5.999   1.426   5.275
 6147SOL     OW19339   1.345   1.740   5.812
 6147SOL    HW119340   1.389   1.796   5.743
 6147SOL    HW219341   1.247   1.762   5.816
 6148SOL     OW19342   4.069   5.076   6.883
 6148SOL    HW119343   4.094   5.015   6.958
 6148SOL    HW219344   3.970   5.072   6.867
 6149SOL     OW19345   3.928   1.839   1.713
 6149SOL    HW119346   3.870   1.815   1.791
 6149SOL    HW219347   3.873   1.835   1.629
 6150SOL     OW19348   0.771   4.886   4.297
 6150SOL    HW119349   0.857   4.880   4.346
 6150SOL    HW219350   0.708   4.946   4.347
 6151SOL     OW19351   4.052   5.544   3.313
 6151SOL    HW119352   3.972   5.501   3.354
 6151SOL    HW219353   4.089   5.483   3.242
 6152SOL     OW19354   0.408   4.268   3.084
 6152SOL    HW119355   0.377   4.181   3.045
 6152SOL    HW219356   0.331   4.313   3.129
 6153SOL     OW19357   5.697   6.248   0.996
 6153SOL    HW119358   5.681   6.346   0.998
 6153SOL    HW219359   5.670   6.208   1.084
 6154SOL     OW19360   4.294   4.652   2.842
 6154SOL    HW119361   4.228   4.711   2.889
 6154SOL    HW219362   4.288   4.668   2.743
 6155SOL     OW19363   1.972   1.584   3.895
 6155SOL    HW119364   1.889   1.585   3.840
 6155SOL    HW219365   1.952   1.619   3.987
 6156SOL     OW19366   4.714   4.220   2.390
 6156SOL    HW119367   4.723   4.121   2.400
 6156SOL    HW219368   4.716   4.244   2.293
 6157SOL     OW19369   0.338   2.591   1.100
 6157SOL    HW119370   0.261   2.634   1.053
 6157SOL    HW219371   0.306   2.507   1.145
 6158SOL     OW19372   3.168   0.732   5.718
 6158SOL    HW119373   3.122   0.813   5.754
 6158SOL    HW219374   3.222   0.757   5.637
 6159SOL     OW19375   5.810   1.844   0.829
 6159SOL    HW119376   5.858   1.932   0.825
 6159SOL    HW219377   5.741   1.847   0.901
 6160SOL     OW19378   0.800   7.017   1.054
 6160SOL    HW119379   0.877   6.989   0.996
 6160SOL    HW219380   0.761   0.073   1.019
 6161SOL     OW19381   5.349   3.896   0.090
 6161SOL    HW119382   5.301   3.829   0.146
 6161SOL    HW219383   5.447   3.874   0.088
 6162SOL     OW19384   5.952   6.146   1.277
 6162SOL    HW119385   5.904   6.133   1.363
 6162SOL    HW219386   5.948   6.242   1.249
 6163SOL     OW19387   5.945   6.064   3.127
 6163SOL    HW119388   5.852   6.077   3.093
 6163SOL    HW219389   5.988   5.988   3.078
 6164SOL     OW19390   3.296   3.561   4.565
 6164SOL    HW119391   3.233   3.617   4.511
 6164SOL    HW219392   3.346   3.499   4.505
 6165SOL     OW19393   3.271   0.656   0.109
 6165SOL    HW119394   3.330   0.614   0.178
 6165SOL    HW219395   3.323   0.670   0.025
 6166SOL     OW19396   3.461   1.158   5.986
 6166SOL    HW119397   3.383   1.095   5.985
 6166SOL    HW219398   3.535   1.118   6.041
 6167SOL     OW19399   1.448   3.280   2.828
 6167SOL    HW119400   1.468   3.362   2.881
 6167SOL    HW219401   1.532   3.229   2.811
 6168SOL     OW19402   0.955   3.188   4.231
 6168SOL    HW119403   1.004   3.136   4.301
 6168SOL    HW219404   0.960   3.286   4.252
 6169SOL     OW19405   2.712   0.925   0.406
 6169SOL    HW119406   2.646   0.866   0.450
 6169SOL    HW219407   2.799   0.921   0.454
 6170SOL     OW19408   2.588   4.777   1.099
 6170SOL    HW119409   2.626   4.822   1.180
 6170SOL    HW219410   2.561   4.684   1.123
 6171SOL     OW19411   2.053   4.313   1.549
 6171SOL    HW119412   2.021   4.298   1.456
 6171SOL    HW219413   2.152   4.323   1.549
 6172SOL     OW19414   2.723   4.887   1.374
 6172SOL    HW119415   2.792   4.815   1.386
 6172SOL    HW219416   2.655   4.879   1.447
 6173SOL     OW19417   1.464   5.809   2.367
 6173SOL    HW119418   1.465   5.906   2.390
 6173SOL    HW219419   1.554   5.770   2.386
 6174SOL     OW19420   5.858   4.779   1.462
 6174SOL    HW119421   5.945   4.755   1.419
 6174SOL    HW219422   5.869   4.781   1.561
 6175SOL     OW19423   5.272   0.244   3.858
 6175SOL    HW119424   5.324   0.201   3.932
 6175SOL    HW219425   5.280   0.343   3.864
 6176SOL     OW19426   5.956   3.407   0.074
 6176SOL    HW119427   5.994   3.461   7.027
 6176SOL    HW219428   6.020   3.334   0.098
 6177SOL     OW19429   6.117   2.717   2.601
 6177SOL    HW119430   6.193   2.654   2.593
 6177SOL    HW219431   6.086   2.745   2.510
 6178SOL     OW19432   6.488   3.235   1.047
 6178SOL    HW119433   6.552   3.231   1.124
 6178SOL    HW219434   6.395   3.217   1.079
 6179SOL     OW19435   0.683   1.458   5.197
 6179SOL    HW119436   0.721   1.442   5.106
 6179SOL    HW219437   0.749   1.509   5.253
 6180SOL     OW19438   2.720   0.519   6.279
 6180SOL    HW119439   2.774   0.459   6.219
 6180SOL    HW219440   2.675   0.589   6.224
 6181SOL     OW19441   4.314   6.117   6.662
 6181SOL    HW119442   4.226   6.164   6.662
 6181SOL    HW219443   4.302   6.023   6.693
 6182SOL     OW19444   4.859   6.726   5.412
 6182SOL    HW119445   4.795   6.714   5.336
 6182SOL    HW219446   4.930   6.656   5.408
 6183SOL     OW19447   2.937   0.444   2.669
 6183SOL    HW119448   2.909   0.449   2.573
 6183SOL    HW219449   2.856   0.442   2.727
 6184SOL     OW19450   6.684   0.624   5.726
 6184SOL    HW119451   6.612   0.672   5.676
 6184SOL    HW219452   6.739   0.690   5.778
 6185SOL     OW19453   2.595   2.691   6.749
 6185SOL    HW119454   2.688   2.719   6.726
 6185SOL    HW219455   2.586   2.592   6.740
 6186SOL     OW19456   4.484   1.143   4.196
 6186SOL    HW119457   4.385   1.155   4.186
 6186SOL    HW219458   4.506   1.045   4.195
 6187SOL     OW19459   3.176   4.915   4.261
 6187SOL    HW119460   3.107   4.914   4.334
 6187SOL    HW219461   3.130   4.902   4.173
 6188SOL     OW19462   2.896   6.968   2.178
 6188SOL    HW119463   2.885   6.884   2.232
 6188SOL    HW219464   2.992   6.980   2.153
 6189SOL     OW19465   5.054   4.966   2.965
 6189SOL    HW119466   5.088   4.880   2.926
 6189SOL    HW219467   5.108   4.990   3.045
 6190SOL     OW19468   5.241   2.624   5.800
 6190SOL    HW119469   5.186   2.662   5.726
 6190SOL    HW219470   5.335   2.611   5.767
 6191SOL     OW19471   6.742   1.846   6.736
 6191SOL    HW119472   6.649   1.815   6.721
 6191SOL    HW219473   6.799   1.821   6.657
 6192SOL     OW19474   3.307   1.968   0.480
 6192SOL    HW119475   3.236   1.985   0.548
 6192SOL    HW219476   3.388   1.931   0.525
 6193SOL     OW19477   6.566   0.319   1.818
 6193SOL    HW119478   6.489   0.330   1.755
 6193SOL    HW219479   6.595   0.223   1.819
 6194SOL     OW19480   2.574   0.112   0.745
 6194SOL    HW119481   2.670   0.137   0.756
 6194SOL    HW219482   2.564   0.043   0.674
 6195SOL     OW19483   2.682   0.407   5.565
 6195SOL    HW119484   2.729   0.432   5.480
 6195SOL    HW219485   2.585   0.390   5.546
 6196SOL     OW19486   0.922   1.700   5.606
 6196SOL    HW119487   0.942   1.792   5.572
 6196SOL    HW219488   0.823   1.684   5.602
 6197SOL     OW19489   2.582   2.796   1.400
 6197SOL    HW119490   2.569   2.698   1.419
 6197SOL    HW219491   2.591   2.810   1.301
 6198SOL     OW19492   3.610   5.175   3.010
 6198SOL    HW119493   3.604   5.093   3.066
 6198SOL    HW219494   3.627   5.150   2.915
 6199SOL     OW19495   0.338   0.127   6.805
 6199SOL    HW119496   0.287   0.201   6.848
 6199SOL    HW219497   0.275   0.072   6.750
 6200SOL     OW19498   3.909   0.537   5.835
 6200SOL    HW119499   3.868   0.585   5.912
 6200SOL    HW219500   3.918   0.600   5.758
 6201SOL     OW19501   1.955   4.919   4.274
 6201SOL    HW119502   1.899   5.000   4.254
 6201SOL    HW219503   1.938   4.888   4.367
 6202SOL     OW19504   2.013   2.034   1.525
 6202SOL    HW119505   2.003   1.992   1.615
 6202SOL    HW219506   2.055   1.968   1.462
 6203SOL     OW19507   5.776   2.303   3.679
 6203SOL    HW119508   5.780   2.211   3.719
 6203SOL    HW219509   5.867   2.345   3.683
 6204SOL     OW19510   1.104   6.689   5.596
 6204SOL    HW119511   1.091   6.763   5.662
 6204SOL    HW219512   1.033   6.695   5.525
 6205SOL     OW19513   5.087   6.445   7.028
 6205SOL    HW119514   5.036   6.500   0.065
 6205SOL    HW219515   5.160   6.501   6.989
 6206SOL     OW19516   5.243   0.201   3.491
 6206SOL    HW119517   5.175   0.185   3.563
 6206SOL    HW219518   5.301   0.120   3.481
 6207SOL     OW19519   2.228   4.073   4.425
 6207SOL    HW119520   2.153   4.040   4.368
 6207SOL    HW219521   2.250   4.004   4.494
 6208SOL     OW19522   5.560   5.168   5.274
 6208SOL    HW119523   5.548   5.104   5.350
 6208SOL    HW219524   5.601   5.253   5.308
 6209SOL     OW19525   2.230   5.314   0.896
 6209SOL    HW119526   2.305   5.323   0.962
 6209SOL    HW219527   2.161   5.251   0.931
 6210SOL     OW19528   6.738   4.530   2.814
 6210SOL    HW119529   6.811   4.462   2.827
 6210SOL    HW219530   6.712   4.533   2.718
 6211SOL     OW19531   2.728   1.395   5.335
 6211SOL    HW119532   2.668   1.410   5.256
 6211SOL    HW219533   2.713   1.303   5.371
 6212SOL     OW19534   6.554   0.382   3.671
 6212SOL    HW119535   6.509   0.425   3.592
 6212SOL    HW219536   6.584   0.454   3.734
 6213SOL     OW19537   6.888   0.151   0.263
 6213SOL    HW119538   6.960   0.081   0.267
 6213SOL    HW219539   6.817   0.122   0.199
 6214SOL     OW19540   5.174   4.638   1.585
 6214SOL    HW119541   5.143   4.717   1.532
 6214SOL    HW219542   5.133   4.641   1.676
 6215SOL     OW19543   2.845   4.623   1.417
 6215SOL    HW119544   2.794   4.538   1.405
 6215SOL    HW219545   2.866   4.635   1.514
 6216SOL     OW19546   6.701   2.807   2.758
 6216SOL    HW119547   6.798   2.828   2.740
 6216SOL    HW219548   6.644   2.863   2.698
 6217SOL     OW19549   4.424   1.532   1.548
 6217SOL    HW119550   4.463   1.526   1.456
 6217SOL    HW219551   4.395   1.442   1.578
 6218SOL     OW19552   4.911   5.492   4.166
 6218SOL    HW119553   4.817   5.490   4.132
 6218SOL    HW219554   4.972   5.524   4.093
 6219SOL     OW19555   0.122   1.116   4.200
 6219SOL    HW119556   0.062   1.037   4.192
 6219SOL    HW219557   0.214   1.091   4.170
 6220SOL     OW19558   1.503   3.525   5.204
 6220SOL    HW119559   1.442   3.605   5.197
 6220SOL    HW219560   1.482   3.475   5.288
 6221SOL     OW19561   4.395   4.666   4.350
 6221SOL    HW119562   4.406   4.628   4.442
 6221SOL    HW219563   4.380   4.765   4.357
 6222SOL     OW19564   6.758   1.898   1.253
 6222SOL    HW119565   6.744   1.955   1.172
 6222SOL    HW219566   6.769   1.803   1.224
 6223SOL     OW19567   5.193   4.330   4.115
 6223SOL    HW119568   5.266   4.375   4.166
 6223SOL    HW219569   5.215   4.332   4.017
 6224SOL     OW19570   2.507   6.994   4.464
 6224SOL    HW119571   2.469   7.001   4.557
 6224SOL    HW219572   2.594   6.943   4.467
 6225SOL     OW19573   3.872   1.913   6.574
 6225SOL    HW119574   3.846   1.953   6.487
 6225SOL    HW219575   3.914   1.982   6.632
 6226SOL     OW19576   6.855   6.420   4.361
 6226SOL    HW119577   6.771   6.381   4.398
 6226SOL    HW219578   6.850   6.422   4.261
 6227SOL     OW19579   2.776   4.090   6.726
 6227SOL    HW119580   2.766   4.097   6.826
 6227SOL    HW219581   2.690   4.060   6.686
 6228SOL     OW19582   6.856   2.182   2.686
 6228SOL    HW119583   6.807   2.269   2.695
 6228SOL    HW219584   6.946   2.191   2.729
 6229SOL     OW19585   1.461   1.962   1.950
 6229SOL    HW119586   1.515   1.881   1.973
 6229SOL    HW219587   1.516   2.023   1.894
 6230SOL     OW19588   2.475   2.171   3.660
 6230SOL    HW119589   2.427   2.091   3.624
 6230SOL    HW219590   2.431   2.254   3.627
 6231SOL     OW19591   6.398   5.239   1.659
 6231SOL    HW119592   6.430   5.243   1.565
 6231SOL    HW219593   6.361   5.147   1.678
 6232SOL     OW19594   1.044   0.849   0.119
 6232SOL    HW119595   1.020   0.944   0.097
 6232SOL    HW219596   1.104   0.813   0.049
 6233SOL     OW19597   4.017   1.052   6.581
 6233SOL    HW119598   4.070   0.994   6.520
 6233SOL    HW219599   3.969   0.996   6.649
 6234SOL     OW19600   2.519   2.201   3.939
 6234SOL    HW119601   2.507   2.179   3.842
 6234SOL    HW219602   2.436   2.245   3.973
 6235SOL     OW19603   2.264   5.675   2.030
 6235SOL    HW119604   2.217   5.759   2.006
 6235SOL    HW219605   2.197   5.605   2.055
 6236SOL     OW19606   0.076   4.071   6.924
 6236SOL    HW119607   0.088   4.018   7.007
 6236SOL    HW219608   0.038   4.161   6.947
 6237SOL     OW19609   3.815   5.838   6.507
 6237SOL    HW119610   3.860   5.875   6.426
 6237SOL    HW219611   3.788   5.743   6.490
 6238SOL     OW19612   5.342   3.612   0.810
 6238SOL    HW119613   5.276   3.627   0.737
 6238SOL    HW219614   5.426   3.575   0.771
 6239SOL     OW19615   3.367   6.209   3.525
 6239SOL    HW119616   3.349   6.190   3.621
 6239SOL    HW219617   3.458   6.177   3.501
 6240SOL     OW19618   2.951   3.602   0.183
 6240SOL    HW119619   3.012   3.681   0.191
 6240SOL    HW219620   2.903   3.605   0.095
 6241SOL     OW19621   4.812   0.252   2.236
 6241SOL    HW119622   4.904   0.292   2.243
 6241SOL    HW219623   4.744   0.325   2.228
 6242SOL     OW19624   3.804   2.101   2.978
 6242SOL    HW119625   3.764   2.014   3.007
 6242SOL    HW219626   3.845   2.147   3.058
 6243SOL     OW19627   6.553   5.534   3.222
 6243SOL    HW119628   6.548   5.575   3.313
 6243SOL    HW219629   6.462   5.504   3.194
 6244SOL     OW19630   1.504   1.676   1.903
 6244SOL    HW119631   1.514   1.651   1.999
 6244SOL    HW219632   1.461   1.600   1.853
 6245SOL     OW19633   2.331   3.732   0.496
 6245SOL    HW119634   2.285   3.716   0.584
 6245SOL    HW219635   2.411   3.673   0.488
 6246SOL     OW19636   4.483   6.890   0.081
 6246SOL    HW119637   4.553   6.936   0.027
 6246SOL    HW219638   4.451   6.952   0.153
 6247SOL     OW19639   6.728   6.837   2.757
 6247SOL    HW119640   6.753   6.766   2.823
 6247SOL    HW219641   6.628   6.848   2.757
 6248SOL     OW19642   0.592   5.930   0.836
 6248SOL    HW119643   0.561   5.892   0.749
 6248SOL    HW219644   0.662   5.999   0.819
 6249SOL     OW19645   6.352   3.067   6.048
 6249SOL    HW119646   6.285   2.998   6.018
 6249SOL    HW219647   6.316   3.158   6.029
 6250SOL     OW19648   7.024   4.540   5.990
 6250SOL    HW119649   0.093   4.542   6.016
 6250SOL    HW219650   6.993   4.446   5.986
 6251SOL     OW19651   4.395   1.263   0.842
 6251SOL    HW119652   4.391   1.272   0.743
 6251SOL    HW219653   4.425   1.171   0.867
 6252SOL     OW19654   1.646   6.481   4.703
 6252SOL    HW119655   1.673   6.545   4.631
 6252SOL    HW219656   1.666   6.388   4.675
 6253SOL     OW19657   2.647   3.683   1.585
 6253SOL    HW119658   2.576   3.740   1.626
 6253SOL    HW219659   2.684   3.620   1.653
 6254SOL     OW19660   5.167   0.388   0.413
 6254SOL    HW119661   5.084   0.385   0.358
 6254SOL    HW219662   5.185   0.482   0.441
 6255SOL     OW19663   0.223   3.257   3.184
 6255SOL    HW119664   0.319   3.263   3.209
 6255SOL    HW219665   0.201   3.163   3.156
 6256SOL     OW19666   3.835   5.291   4.429
 6256SOL    HW119667   3.834   5.257   4.523
 6256SOL    HW219668   3.755   5.255   4.380
 6257SOL     OW19669   4.132   2.912   6.717
 6257SOL    HW119670   4.095   2.955   6.635
 6257SOL    HW219671   4.193   2.836   6.691
 6258SOL     OW19672   4.588   2.035   3.087
 6258SOL    HW119673   4.527   1.964   3.123
 6258SOL    HW219674   4.600   2.022   2.989
 6259SOL     OW19675   3.434   2.240   1.742
 6259SOL    HW119676   3.406   2.172   1.810
 6259SOL    HW219677   3.518   2.284   1.772
 6260SOL     OW19678   3.286   4.433   1.274
 6260SOL    HW119679   3.229   4.386   1.207
 6260SOL    HW219680   3.229   4.477   1.343
 6261SOL     OW19681   5.001   6.665   6.239
 6261SOL    HW119682   5.033   6.718   6.318
 6261SOL    HW219683   4.930   6.717   6.191
 6262SOL     OW19684   0.434   5.933   5.237
 6262SOL    HW119685   0.449   6.027   5.266
 6262SOL    HW219686   0.354   5.896   5.283
 6263SOL     OW19687   6.581   0.930   1.454
 6263SOL    HW119688   6.676   0.906   1.434
 6263SOL    HW219689   6.542   0.981   1.378
 6264SOL     OW19690   2.820   1.422   0.422
 6264SOL    HW119691   2.898   1.360   0.430
 6264SOL    HW219692   2.802   1.441   0.325
 6265SOL     OW19693   5.843   3.787   0.446
 6265SOL    HW119694   5.811   3.717   0.383
 6265SOL    HW219695   5.876   3.744   0.530
 6266SOL     OW19696   2.346   0.273   2.540
 6266SOL    HW119697   2.410   0.289   2.615
 6266SOL    HW219698   2.359   0.180   2.505
 6267SOL     OW19699   2.659   6.504   0.418
 6267SOL    HW119700   2.707   6.419   0.440
 6267SOL    HW219701   2.654   6.562   0.499
 6268SOL     OW19702   1.931   5.845   2.197
 6268SOL    HW119703   2.010   5.817   2.253
 6268SOL    HW219704   1.917   5.944   2.206
 6269SOL     OW19705   6.416   4.382   6.584
 6269SOL    HW119706   6.496   4.325   6.598
 6269SOL    HW219707   6.376   4.362   6.494
 6270SOL     OW19708   0.020   1.221   3.862
 6270SOL    HW119709   6.982   1.208   3.936
 6270SOL    HW219710   0.105   1.258   3.899
 6271SOL     OW19711   6.179   1.931   1.478
 6271SOL    HW119712   6.131   1.882   1.405
 6271SOL    HW219713   6.278   1.918   1.466
 6272SOL     OW19714   2.530   2.625   3.604
 6272SOL    HW119715   2.603   2.616   3.671
 6272SOL    HW219716   2.442   2.633   3.651
 6273SOL     OW19717   4.036   0.785   2.442
 6273SOL    HW119718   3.995   0.719   2.505
 6273SOL    HW219719   4.095   0.848   2.494
 6274SOL     OW19720   2.771   6.000   0.050
 6274SOL    HW119721   2.789   5.916   0.000
 6274SOL    HW219722   2.856   6.050   0.064
 6275SOL     OW19723   3.360   1.127   4.818
 6275SOL    HW119724   3.431   1.106   4.885
 6275SOL    HW219725   3.362   1.058   4.745
 6276SOL     OW19726   1.613   5.071   3.726
 6276SOL    HW119727   1.699   5.050   3.772
 6276SOL    HW219728   1.555   4.990   3.725
 6277SOL     OW19729   6.210   3.176   4.142
 6277SOL    HW119730   6.114   3.183   4.167
 6277SOL    HW219731   6.229   3.239   4.066
 6278SOL     OW19732   4.370   1.169   3.403
 6278SOL    HW119733   4.297   1.228   3.368
 6278SOL    HW219734   4.437   1.153   3.331
 6279SOL     OW19735   4.409   1.720   6.289
 6279SOL    HW119736   4.460   1.797   6.327
 6279SOL    HW219737   4.353   1.678   6.361
 6280SOL     OW19738   1.400   5.314   5.930
 6280SOL    HW119739   1.471   5.366   5.977
 6280SOL    HW219740   1.387   5.225   5.975
 6281SOL     OW19741   3.239   5.809   4.630
 6281SOL    HW119742   3.313   5.812   4.564
 6281SOL    HW219743   3.266   5.858   4.713
 6282SOL     OW19744   0.534   0.071   4.077
 6282SOL    HW119745   0.465   0.085   4.148
 6282SOL    HW219746   0.491   0.029   3.997
 6283SOL     OW19747   1.094   2.862   4.976
 6283SOL    HW119748   1.096   2.803   5.057
 6283SOL    HW219749   1.098   2.807   4.893
 6284SOL     OW19750   2.634   5.068   6.891
 6284SOL    HW119751   2.624   5.163   6.862
 6284SOL    HW219752   2.634   5.009   6.811
 6285SOL     OW19753   2.013   3.847   2.332
 6285SOL    HW119754   2.010   3.790   2.414
 6285SOL    HW219755   1.931   3.903   2.327
 6286SOL     OW19756   6.347   6.099   4.566
 6286SOL    HW119757   6.396   6.097   4.479
 6286SOL    HW219758   6.379   6.025   4.625
 6287SOL     OW19759   3.621   4.861   2.512
 6287SOL    HW119760   3.614   4.884   2.415
 6287SOL    HW219761   3.554   4.790   2.535
 6288SOL     OW19762   5.946   3.243   0.730
 6288SOL    HW119763   5.934   3.336   0.764
 6288SOL    HW219764   6.007   3.244   0.651
 6289SOL     OW19765   0.817   6.651   2.772
 6289SOL    HW119766   0.735   6.682   2.723
 6289SOL    HW219767   0.896   6.658   2.712
 6290SOL     OW19768   6.079   4.155   3.719
 6290SOL    HW119769   6.039   4.220   3.784
 6290SOL    HW219770   6.147   4.200   3.663
 6291SOL     OW19771   3.680   4.137   3.914
 6291SOL    HW119772   3.734   4.112   3.833
 6291SOL    HW219773   3.583   4.135   3.892
 6292SOL     OW19774   0.199   0.854   1.629
 6292SOL    HW119775   0.116   0.799   1.637
 6292SOL    HW219776   0.233   0.849   1.536
 6293SOL     OW19777   6.121   5.172   5.875
 6293SOL    HW119778   6.214   5.178   5.839
 6293SOL    HW219779   6.096   5.259   5.917
 6294SOL     OW19780   3.539   6.471   1.850
 6294SOL    HW119781   3.601   6.477   1.772
 6294SOL    HW219782   3.583   6.422   1.925
 6295SOL     OW19783   0.005   5.849   5.958
 6295SOL    HW119784   0.102   5.827   5.944
 6295SOL    HW219785   7.012   5.843   6.055
 6296SOL     OW19786   6.199   1.552   3.334
 6296SOL    HW119787   6.292   1.560   3.370
 6296SOL    HW219788   6.199   1.575   3.236
 6297SOL     OW19789   5.738   1.385   5.830
 6297SOL    HW119790   5.727   1.286   5.838
 6297SOL    HW219791   5.770   1.407   5.738
 6298SOL     OW19792   6.647   2.489   4.182
 6298SOL    HW119793   6.623   2.576   4.225
 6298SOL    HW219794   6.566   2.431   4.176
 6299SOL     OW19795   6.909   2.783   0.516
 6299SOL    HW119796   6.850   2.730   0.455
 6299SOL    HW219797   7.004   2.753   0.505
 6300SOL     OW19798   5.100   1.297   3.644
 6300SOL    HW119799   5.117   1.357   3.565
 6300SOL    HW219800   5.004   1.267   3.643
 6301SOL     OW19801   3.422   0.857   1.130
 6301SOL    HW119802   3.447   0.937   1.185
 6301SOL    HW219803   3.333   0.873   1.087
 6302SOL     OW19804   6.344   0.158   2.606
 6302SOL    HW119805   6.424   0.130   2.660
 6302SOL    HW219806   6.342   0.258   2.601
 6303SOL     OW19807   2.813   5.718   4.514
 6303SOL    HW119808   2.799   5.637   4.459
 6303SOL    HW219809   2.802   5.695   4.611
 6304SOL     OW19810   4.075   0.566   4.631
 6304SOL    HW119811   4.124   0.624   4.567
 6304SOL    HW219812   4.121   0.566   4.719
 6305SOL     OW19813   5.503   0.756   2.709
 6305SOL    HW119814   5.427   0.699   2.680
 6305SOL    HW219815   5.472   0.851   2.719
 6306SOL     OW19816   6.036   2.654   3.906
 6306SOL    HW119817   6.085   2.731   3.864
 6306SOL    HW219818   5.950   2.686   3.944
 6307SOL     OW19819   1.867   4.727   0.358
 6307SOL    HW119820   1.902   4.820   0.360
 6307SOL    HW219821   1.942   4.664   0.335
 6308SOL     OW19822   4.001   2.248   6.331
 6308SOL    HW119823   3.987   2.290   6.242
 6308SOL    HW219824   4.027   2.152   6.319
 6309SOL     OW19825   5.872   2.248   5.287
 6309SOL    HW119826   5.808   2.311   5.330
 6309SOL    HW219827   5.887   2.169   5.346
 6310SOL     OW19828   6.982   5.631   4.658
 6310SOL    HW119829   6.916   5.557   4.641
 6310SOL    HW219830   6.981   5.653   4.756
 6311SOL     OW19831   6.151   6.775   4.540
 6311SOL    HW119832   6.232   6.725   4.509
 6311SOL    HW219833   6.069   6.735   4.499
 6312SOL     OW19834   5.507   3.967   5.678
 6312SOL    HW119835   5.421   3.958   5.626
 6312SOL    HW219836   5.525   3.881   5.727
 6313SOL     OW19837   2.368   5.280   4.405
 6313SOL    HW119838   2.289   5.332   4.373
 6313SOL    HW219839   2.452   5.332   4.384
 6314SOL     OW19840   1.380   0.249   3.652
 6314SOL    HW119841   1.468   0.274   3.694
 6314SOL    HW219842   1.366   0.303   3.569
 6315SOL     OW19843   2.108   3.073   0.078
 6315SOL    HW119844   2.164   3.018   0.017
 6315SOL    HW219845   2.018   3.088   0.037
 6316SOL     OW19846   4.032   1.188   4.753
 6316SOL    HW119847   4.010   1.284   4.769
 6316SOL    HW219848   4.104   1.160   4.816
 6317SOL     OW19849   6.664   5.343   4.817
 6317SOL    HW119850   6.610   5.301   4.744
 6317SOL    HW219851   6.701   5.272   4.877
 6318SOL     OW19852   1.737   2.035   4.274
 6318SOL    HW119853   1.660   2.037   4.211
 6318SOL    HW219854   1.782   2.124   4.274
 6319SOL     OW19855   1.053   1.879   3.117
 6319SOL    HW119856   1.035   1.967   3.071
 6319SOL    HW219857   1.151   1.866   3.126
 6320SOL     OW19858   0.448   2.289   2.678
 6320SOL    HW119859   0.399   2.347   2.613
 6320SOL    HW219860   0.431   2.193   2.656
 6321SOL     OW19861   2.063   3.803   6.089
 6321SOL    HW119862   2.154   3.788   6.127
 6321SOL    HW219863   2.010   3.861   6.152
 6322SOL     OW19864   2.541   0.081   6.891
 6322SOL    HW119865   2.621   0.028   6.863
 6322SOL    HW219866   2.460   0.024   6.887
 6323SOL     OW19867   4.708   1.812   1.858
 6323SOL    HW119868   4.612   1.826   1.883
 6323SOL    HW219869   4.738   1.723   1.894
 6324SOL     OW19870   3.178   1.577   0.400
 6324SOL    HW119871   3.098   1.533   0.360
 6324SOL    HW219872   3.164   1.587   0.499
 6325SOL     OW19873   1.671   3.194   3.053
 6325SOL    HW119874   1.693   3.125   2.984
 6325SOL    HW219875   1.639   3.278   3.008
 6326SOL     OW19876   4.230   6.679   1.547
 6326SOL    HW119877   4.321   6.673   1.589
 6326SOL    HW219878   4.198   6.774   1.550
 6327SOL     OW19879   3.925   5.154   5.322
 6327SOL    HW119880   3.995   5.215   5.358
 6327SOL    HW219881   3.936   5.063   5.363
 6328SOL     OW19882   2.687   4.488   6.977
 6328SOL    HW119883   2.592   4.518   6.988
 6328SOL    HW219884   2.696   4.395   7.012
 6329SOL     OW19885   0.624   1.685   3.440
 6329SOL    HW119886   0.698   1.696   3.374
 6329SOL    HW219887   0.661   1.651   3.527
 6330SOL     OW19888   3.297   0.493   6.899
 6330SOL    HW119889   3.232   0.486   6.974
 6330SOL    HW219890   3.272   0.428   6.827
 6331SOL     OW19891   5.061   3.331   1.755
 6331SOL    HW119892   4.965   3.349   1.737
 6331SOL    HW219893   5.070   3.278   1.840
 6332SOL     OW19894   4.570   6.107   2.367
 6332SOL    HW119895   4.590   6.205   2.365
 6332SOL    HW219896   4.486   6.090   2.418
 6333SOL     OW19897   2.693   5.221   2.759
 6333SOL    HW119898   2.701   5.289   2.832
 6333SOL    HW219899   2.666   5.266   2.674
 6334SOL     OW19900   2.056   1.049   2.293
 6334SOL    HW119901   2.017   1.117   2.354
 6334SOL    HW219902   2.009   1.053   2.204
 6335SOL     OW19903   6.721   0.956   0.131
 6335SOL    HW119904   6.726   0.948   0.230
 6335SOL    HW219905   6.811   0.979   0.095
 6336SOL     OW19906   1.368   2.537   5.253
 6336SOL    HW119907   1.297   2.599   5.220
 6336SOL    HW219908   1.446   2.590   5.285
 6337SOL     OW19909   0.632   4.667   4.881
 6337SOL    HW119910   0.708   4.691   4.941
 6337SOL    HW219911   0.546   4.688   4.926
 6338SOL     OW19912   3.452   1.740   4.582
 6338SOL    HW119913   3.528   1.719   4.520
 6338SOL    HW219914   3.377   1.780   4.529
 6339SOL     OW19915   0.022   2.728   4.039
 6339SOL    HW119916   0.099   2.666   4.052
 6339SOL    HW219917   7.014   2.718   3.946
 6340SOL     OW19918   2.855   5.647   3.598
 6340SOL    HW119919   2.932   5.636   3.660
 6340SOL    HW219920   2.883   5.702   3.519
 6341SOL     OW19921   6.086   5.372   2.428
 6341SOL    HW119922   6.134   5.415   2.351
 6341SOL    HW219923   6.114   5.276   2.435
 6342SOL     OW19924   1.222   3.425   0.693
 6342SOL    HW119925   1.279   3.355   0.649
 6342SOL    HW219926   1.225   3.508   0.638
 6343SOL     OW19927   4.402   1.253   0.325
 6343SOL    HW119928   4.482   1.305   0.293
 6343SOL    HW219929   4.406   1.243   0.425
 6344SOL     OW19930   6.352   4.979   4.713
 6344SOL    HW119931   6.385   4.886   4.699
 6344SOL    HW219932   6.261   4.976   4.754
 6345SOL     OW19933   1.751   2.011   1.415
 6345SOL    HW119934   1.811   2.085   1.447
 6345SOL    HW219935   1.730   1.950   1.492
 6346SOL     OW19936   0.745   5.382   3.886
 6346SOL    HW119937   0.710   5.475   3.894
 6346SOL    HW219938   0.695   5.322   3.948
 6347SOL     OW19939   3.024   0.733   0.638
 6347SOL    HW119940   2.964   0.673   0.585
 6347SOL    HW219941   2.975   0.817   0.661
 6348SOL     OW19942   0.358   2.821   4.032
 6348SOL    HW119943   0.366   2.824   3.932
 6348SOL    HW219944   0.283   2.759   4.057
 6349SOL     OW19945   1.301   0.780   0.824
 6349SOL    HW119946   1.260   0.755   0.737
 6349SOL    HW219947   1.230   0.814   0.886
 6350SOL     OW19948   6.827   5.864   3.287
 6350SOL    HW119949   6.898   5.810   3.332
 6350SOL    HW219950   6.867   5.945   3.245
 6351SOL     OW19951   0.113   2.393   3.204
 6351SOL    HW119952   0.171   2.315   3.181
 6351SOL    HW219953   0.027   2.387   3.153
 6352SOL     OW19954   6.560   4.543   2.601
 6352SOL    HW119955   6.549   4.641   2.587
 6352SOL    HW219956   6.574   4.498   2.513
 6353SOL     OW19957   6.800   6.798   1.928
 6353SOL    HW119958   6.814   6.823   2.024
 6353SOL    HW219959   6.707   6.763   1.915
 6354SOL     OW19960   6.788   6.807   4.649
 6354SOL    HW119961   6.702   6.794   4.599
 6354SOL    HW219962   6.801   6.904   4.669
 6355SOL     OW19963   1.335   1.971   1.237
 6355SOL    HW119964   1.327   1.962   1.138
 6355SOL    HW219965   1.254   2.018   1.272
 6356SOL     OW19966   3.413   3.689   1.121
 6356SOL    HW119967   3.406   3.627   1.200
 6356SOL    HW219968   3.506   3.725   1.115
 6357SOL     OW19969   4.886   1.864   1.267
 6357SOL    HW119970   4.863   1.953   1.304
 6357SOL    HW219971   4.867   1.863   1.168
 6358SOL     OW19972   1.180   2.696   5.508
 6358SOL    HW119973   1.125   2.748   5.573
 6358SOL    HW219974   1.276   2.701   5.534
 6359SOL     OW19975   6.900   0.966   6.794
 6359SOL    HW119976   6.804   0.991   6.808
 6359SOL    HW219977   6.906   0.868   6.776
 6360SOL     OW19978   2.251   5.044   4.458
 6360SOL    HW119979   2.301   5.124   4.424
 6360SOL    HW219980   2.170   5.029   4.403
 6361SOL     OW19981   2.850   6.639   5.266
 6361SOL    HW119982   2.850   6.623   5.365
 6361SOL    HW219983   2.887   6.559   5.219
 6362SOL     OW19984   6.787   5.290   5.821
 6362SOL    HW119985   6.853   5.219   5.795
 6362SOL    HW219986   6.784   5.297   5.920
 6363SOL     OW19987   0.849   5.121   3.800
 6363SOL    HW119988   0.821   5.217   3.803
 6363SOL    HW219989   0.832   5.079   3.889
 6364SOL     OW19990   2.567   1.802   6.298
 6364SOL    HW119991   2.530   1.711   6.280
 6364SOL    HW219992   2.665   1.802   6.279
 6365SOL     OW19993   3.981   5.486   2.777
 6365SOL    HW119994   4.070   5.525   2.799
 6365SOL    HW219995   3.917   5.559   2.755
 6366SOL     OW19996   0.875   4.143   5.493
 6366SOL    HW119997   0.964   4.109   5.521
 6366SOL    HW219998   0.867   4.139   5.394
 6367SOL     OW19999   5.419   5.549   1.907
 6367SOL    HW120000   5.397   5.645   1.926
 6367SOL    HW220001   5.380   5.522   1.819
 6368SOL     OW20002   2.859   1.490   2.421
 6368SOL    HW120003   2.839   1.521   2.514
 6368SOL    HW220004   2.775   1.491   2.367
 6369SOL     OW20005   2.119   6.423   5.121
 6369SOL    HW120006   2.218   6.422   5.112
 6369SOL    HW220007   2.080   6.345   5.071
 6370SOL     OW20008   5.373   2.917   2.134
 6370SOL    HW120009   5.395   2.933   2.038
 6370SOL    HW220010   5.292   2.860   2.141
 6371SOL     OW20011   4.150   1.216   3.736
 6371SOL    HW120012   4.219   1.145   3.742
 6371SOL    HW220013   4.066   1.186   3.782
 6372SOL     OW20014   2.556   0.286   2.742
 6372SOL    HW120015   2.603   0.341   2.672
 6372SOL    HW220016   2.609   0.204   2.761
 6373SOL     OW20017   3.474   4.447   0.184
 6373SOL    HW120018   3.534   4.525   0.165
 6373SOL    HW220019   3.440   4.409   0.098
 6374SOL     OW20020   3.110   3.077   4.002
 6374SOL    HW120021   3.175   3.058   3.928
 6374SOL    HW220022   3.049   3.151   3.974
 6375SOL     OW20023   2.389   6.015   1.855
 6375SOL    HW120024   2.321   5.945   1.834
 6375SOL    HW220025   2.344   6.104   1.859
 6376SOL     OW20026   1.365   1.624   5.243
 6376SOL    HW120027   1.271   1.605   5.273
 6376SOL    HW220028   1.363   1.674   5.157
 6377SOL     OW20029   1.002   2.322   3.821
 6377SOL    HW120030   0.923   2.265   3.797
 6377SOL    HW220031   0.984   2.367   3.909
 6378SOL     OW20032   4.294   5.033   3.842
 6378SOL    HW120033   4.313   4.969   3.916
 6378SOL    HW220034   4.366   5.026   3.773
 6379SOL     OW20035   2.804   4.698   1.688
 6379SOL    HW120036   2.884   4.756   1.703
 6379SOL    HW220037   2.787   4.643   1.770
 6380SOL     OW20038   1.424   0.947   6.359
 6380SOL    HW120039   1.430   1.046   6.348
 6380SOL    HW220040   1.363   0.925   6.435
 6381SOL     OW20041   3.584   3.230   2.583
 6381SOL    HW120042   3.526   3.301   2.622
 6381SOL    HW220043   3.680   3.258   2.586
 6382SOL     OW20044   1.341   4.911   4.619
 6382SOL    HW120045   1.364   4.869   4.706
 6382SOL    HW220046   1.242   4.913   4.608
 6383SOL     OW20047   3.690   1.521   4.196
 6383SOL    HW120048   3.637   1.481   4.121
 6383SOL    HW220049   3.698   1.619   4.181
 6384SOL     OW20050   0.055   4.329   2.031
 6384SOL    HW120051   0.006   4.411   2.002
 6384SOL    HW220052   7.026   4.249   2.016
 6385SOL     OW20053   1.168   5.888   5.834
 6385SOL    HW120054   1.124   5.871   5.745
 6385SOL    HW220055   1.235   5.962   5.824
 6386SOL     OW20056   2.066   5.370   2.575
 6386SOL    HW120057   1.971   5.399   2.565
 6386SOL    HW220058   2.069   5.285   2.628
 6387SOL     OW20059   6.052   0.813   4.882
 6387SOL    HW120060   6.041   0.911   4.899
 6387SOL    HW220061   6.001   0.761   4.951
 6388SOL     OW20062   2.198   4.623   2.739
 6388SOL    HW120063   2.267   4.692   2.719
 6388SOL    HW220064   2.148   4.649   2.822
 6389SOL     OW20065   1.406   4.136   1.056
 6389SOL    HW120066   1.436   4.044   1.032
 6389SOL    HW220067   1.331   4.130   1.122
 6390SOL     OW20068   0.341   3.225   4.795
 6390SOL    HW120069   0.389   3.141   4.820
 6390SOL    HW220070   0.405   3.287   4.748
 6391SOL     OW20071   3.985   0.484   0.257
 6391SOL    HW120072   4.013   0.402   0.307
 6391SOL    HW220073   3.923   0.457   0.183
 6392SOL     OW20074   1.554   5.861   4.368
 6392SOL    HW120075   1.585   5.813   4.286
 6392SOL    HW220076   1.476   5.811   4.408
 6393SOL     OW20077   4.682   1.127   6.822
 6393SOL    HW120078   4.606   1.119   6.887
 6393SOL    HW220079   4.650   1.106   6.730
 6394SOL     OW20080   3.799   5.627   1.943
 6394SOL    HW120081   3.795   5.620   2.043
 6394SOL    HW220082   3.894   5.642   1.915
 6395SOL     OW20083   5.491   2.072   0.148
 6395SOL    HW120084   5.486   2.078   0.048
 6395SOL    HW220085   5.539   1.989   0.174
 6396SOL     OW20086   6.368   2.701   6.669
 6396SOL    HW120087   6.328   2.630   6.611
 6396SOL    HW220088   6.350   2.680   6.765
 6397SOL     OW20089   6.443   0.983   0.789
 6397SOL    HW120090   6.363   1.040   0.812
 6397SOL    HW220091   6.478   1.010   0.699
 6398SOL     OW20092   4.181   0.704   1.680
 6398SOL    HW120093   4.276   0.729   1.662
 6398SOL    HW220094   4.127   0.716   1.597
 6399SOL     OW20095   1.125   6.528   6.417
 6399SOL    HW120096   1.062   6.450   6.419
 6399SOL    HW220097   1.134   6.561   6.323
 6400SOL     OW20098   2.757   4.905   4.662
 6400SOL    HW120099   2.848   4.876   4.688
 6400SOL    HW220100   2.689   4.848   4.708
 6401SOL     OW20101   0.427   5.141   5.720
 6401SOL    HW120102   0.495   5.085   5.671
 6401SOL    HW220103   0.441   5.131   5.818
 6402SOL     OW20104   1.964   2.973   3.332
 6402SOL    HW120105   1.965   2.915   3.251
 6402SOL    HW220106   2.054   2.971   3.375
 6403SOL     OW20107   0.510   6.185   1.739
 6403SOL    HW120108   0.474   6.172   1.647
 6403SOL    HW220109   0.606   6.213   1.734
 6404SOL     OW20110   5.210   0.703   2.619
 6404SOL    HW120111   5.238   0.789   2.575
 6404SOL    HW220112   5.112   0.689   2.605
 6405SOL     OW20113   3.580   0.369   1.511
 6405SOL    HW120114   3.588   0.269   1.519
 6405SOL    HW220115   3.502   0.400   1.567
 6406SOL     OW20116   2.577   1.896   3.171
 6406SOL    HW120117   2.629   1.894   3.256
 6406SOL    HW220118   2.611   1.971   3.114
 6407SOL     OW20119   4.627   6.266   6.812
 6407SOL    HW120120   4.614   6.361   6.783
 6407SOL    HW220121   4.566   6.244   6.887
 6408SOL     OW20122   5.790   2.308   0.943
 6408SOL    HW120123   5.823   2.325   1.036
 6408SOL    HW220124   5.691   2.298   0.945
 6409SOL     OW20125   1.152   5.243   1.917
 6409SOL    HW120126   1.220   5.172   1.936
 6409SOL    HW220127   1.199   5.331   1.906
 6410SOL     OW20128   0.302   0.343   1.540
 6410SOL    HW120129   0.361   0.263   1.538
 6410SOL    HW220130   0.339   0.414   1.479
 6411SOL     OW20131   1.308   1.754   3.177
 6411SOL    HW120132   1.376   1.681   3.167
 6411SOL    HW220133   1.322   1.799   3.265
 6412SOL     OW20134   5.974   2.182   4.896
 6412SOL    HW120135   5.973   2.135   4.808
 6412SOL    HW220136   5.897   2.151   4.951
 6413SOL     OW20137   0.318   5.012   1.157
 6413SOL    HW120138   0.410   4.983   1.184
 6413SOL    HW220139   0.255   4.998   1.234
 6414SOL     OW20140   5.994   0.392   3.268
 6414SOL    HW120141   5.981   0.389   3.367
 6414SOL    HW220142   6.086   0.424   3.247
 6415SOL     OW20143   1.345   1.474   1.766
 6415SOL    HW120144   1.307   1.438   1.682
 6415SOL    HW220145   1.276   1.473   1.838
 6416SOL     OW20146   2.624   6.189   6.650
 6416SOL    HW120147   2.626   6.175   6.749
 6416SOL    HW220148   2.674   6.115   6.605
 6417SOL     OW20149   0.210   5.627   4.358
 6417SOL    HW120150   0.127   5.588   4.396
 6417SOL    HW220151   0.273   5.652   4.432
 6418SOL     OW20152   6.890   5.165   2.045
 6418SOL    HW120153   6.852   5.192   2.134
 6418SOL    HW220154   6.831   5.201   1.972
 6419SOL     OW20155   2.474   2.675   0.256
 6419SOL    HW120156   2.518   2.585   0.253
 6419SOL    HW220157   2.445   2.700   0.163
 6420SOL     OW20158   0.444   2.394   0.205
 6420SOL    HW120159   0.490   2.339   0.136
 6420SOL    HW220160   0.437   2.341   0.290
 6421SOL     OW20161   5.554   1.491   0.245
 6421SOL    HW120162   5.535   1.574   0.193
 6421SOL    HW220163   5.503   1.414   0.207
 6422SOL     OW20164   5.876   2.657   2.689
 6422SOL    HW120165   5.969   2.693   2.675
 6422SOL    HW220166   5.858   2.585   2.622
 6423SOL     OW20167   5.199   3.783   0.576
 6423SOL    HW120168   5.210   3.856   0.509
 6423SOL    HW220169   5.105   3.783   0.610
 6424SOL     OW20170   6.067   3.565   5.032
 6424SOL    HW120171   6.070   3.620   4.949
 6424SOL    HW220172   6.149   3.580   5.086
 6425SOL     OW20173   0.518   5.605   1.080
 6425SOL    HW120174   0.463   5.685   1.103
 6425SOL    HW220175   0.527   5.597   0.981
 6426SOL     OW20176   6.226   3.266   2.913
 6426SOL    HW120177   6.256   3.315   2.996
 6426SOL    HW220178   6.150   3.316   2.872
 6427SOL     OW20179   0.630   3.398   5.932
 6427SOL    HW120180   0.705   3.363   5.988
 6427SOL    HW220181   0.548   3.344   5.948
 6428SOL     OW20182   6.233   3.894   4.845
 6428SOL    HW120183   6.330   3.869   4.837
 6428SOL    HW220184   6.177   3.816   4.816
 6429SOL     OW20185   1.120   1.496   5.377
 6429SOL    HW120186   1.034   1.524   5.334
 6429SOL    HW220187   1.134   1.549   5.460
 6430SOL     OW20188   6.203   2.588   0.501
 6430SOL    HW120189   6.184   2.634   0.414
 6430SOL    HW220190   6.290   2.540   0.494
 6431SOL     OW20191   5.904   1.128   2.343
 6431SOL    HW120192   5.912   1.131   2.243
 6431SOL    HW220193   5.808   1.112   2.368
 6432SOL     OW20194   6.088   3.929   0.497
 6432SOL    HW120195   6.010   3.882   0.456
 6432SOL    HW220196   6.059   3.976   0.581
 6433SOL     OW20197   2.045   3.556   1.590
 6433SOL    HW120198   1.982   3.627   1.558
 6433SOL    HW220199   2.034   3.474   1.535
 6434SOL     OW20200   1.631   6.173   0.486
 6434SOL    HW120201   1.664   6.193   0.578
 6434SOL    HW220202   1.597   6.079   0.481
 6435SOL     OW20203   5.398   3.412   1.014
 6435SOL    HW120204   5.369   3.477   0.945
 6435SOL    HW220205   5.330   3.408   1.087
 6436SOL     OW20206   2.160   2.373   1.289
 6436SOL    HW120207   2.252   2.381   1.250
 6436SOL    HW220208   2.095   2.358   1.215
 6437SOL     OW20209   0.241   1.303   1.099
 6437SOL    HW120210   0.194   1.261   1.021
 6437SOL    HW220211   0.211   1.397   1.110
 6438SOL     OW20212   0.745   3.209   5.024
 6438SOL    HW120213   0.763   3.257   4.937
 6438SOL    HW220214   0.781   3.116   5.019
 6439SOL     OW20215   0.089   6.170   2.667
 6439SOL    HW120216   0.012   6.171   2.731
 6439SOL    HW220217   0.141   6.085   2.679
 6440SOL     OW20218   0.695   0.507   2.091
 6440SOL    HW120219   0.727   0.494   2.185
 6440SOL    HW220220   0.702   0.604   2.068
 6441SOL     OW20221   5.201   1.794   3.396
 6441SOL    HW120222   5.249   1.859   3.454
 6441SOL    HW220223   5.102   1.811   3.402
 6442SOL     OW20224   1.747   1.599   3.749
 6442SOL    HW120225   1.684   1.646   3.811
 6442SOL    HW220226   1.788   1.665   3.686
 6443SOL     OW20227   2.023   0.352   1.004
 6443SOL    HW120228   2.014   0.280   1.073
 6443SOL    HW220229   1.963   0.332   0.927
 6444SOL     OW20230   1.002   1.522   2.768
 6444SOL    HW120231   0.984   1.569   2.682
 6444SOL    HW220232   1.053   1.583   2.829
 6445SOL     OW20233   3.254   4.692   6.304
 6445SOL    HW120234   3.208   4.651   6.384
 6445SOL    HW220235   3.310   4.622   6.259
 6446SOL     OW20236   0.099   1.168   0.890
 6446SOL    HW120237   0.110   1.074   0.860
 6446SOL    HW220238   0.006   1.200   0.871
 6447SOL     OW20239   1.457   0.939   3.601
 6447SOL    HW120240   1.411   0.853   3.580
 6447SOL    HW220241   1.542   0.945   3.549
 6448SOL     OW20242   6.690   2.747   3.018
 6448SOL    HW120243   6.613   2.687   3.041
 6448SOL    HW220244   6.683   2.777   2.923
 6449SOL     OW20245   4.107   2.201   0.642
 6449SOL    HW120246   4.079   2.127   0.702
 6449SOL    HW220247   4.204   2.222   0.657
 6450SOL     OW20248   6.666   2.503   0.184
 6450SOL    HW120249   6.613   2.423   0.156
 6450SOL    HW220250   6.616   2.586   0.162
 6451SOL     OW20251   2.684   6.124   4.250
 6451SOL    HW120252   2.660   6.040   4.298
 6451SOL    HW220253   2.622   6.139   4.174
 6452SOL     OW20254   3.261   6.186   4.120
 6452SOL    HW120255   3.201   6.136   4.182
 6452SOL    HW220256   3.256   6.146   4.029
 6453SOL     OW20257   2.291   5.141   6.847
 6453SOL    HW120258   2.361   5.100   6.789
 6453SOL    HW220259   2.200   5.121   6.809
 6454SOL     OW20260   3.721   0.832   4.717
 6454SOL    HW120261   3.681   0.860   4.630
 6454SOL    HW220262   3.821   0.835   4.710
 6455SOL     OW20263   6.521   3.342   0.394
 6455SOL    HW120264   6.522   3.398   0.311
 6455SOL    HW220265   6.614   3.315   0.417
 6456SOL     OW20266   6.291   1.808   4.236
 6456SOL    HW120267   6.284   1.725   4.181
 6456SOL    HW220268   6.210   1.865   4.222
 6457SOL     OW20269   5.631   3.354   1.984
 6457SOL    HW120270   5.558   3.401   2.033
 6457SOL    HW220271   5.594   3.314   1.900
 6458SOL     OW20272   1.133   6.007   3.820
 6458SOL    HW120273   1.184   5.929   3.785
 6458SOL    HW220274   1.044   6.012   3.776
 6459SOL     OW20275   5.878   4.434   7.003
 6459SOL    HW120276   5.972   4.420   0.007
 6459SOL    HW220277   5.858   4.368   6.931
 6460SOL     OW20278   3.751   4.779   1.528
 6460SOL    HW120279   3.801   4.712   1.473
 6460SOL    HW220280   3.750   4.867   1.481
 6461SOL     OW20281   3.342   5.742   5.219
 6461SOL    HW120282   3.346   5.827   5.272
 6461SOL    HW220283   3.256   5.739   5.169
 6462SOL     OW20284   2.192   4.041   2.559
 6462SOL    HW120285   2.194   4.138   2.585
 6462SOL    HW220286   2.196   4.033   2.459
 6463SOL     OW20287   1.696   3.376   6.006
 6463SOL    HW120288   1.616   3.434   6.025
 6463SOL    HW220289   1.743   3.409   5.925
 6464SOL     OW20290   1.241   4.956   2.019
 6464SOL    HW120291   1.278   4.869   2.051
 6464SOL    HW220292   1.172   4.989   2.084
 6465SOL     OW20293   6.381   0.449   2.634
 6465SOL    HW120294   6.376   0.519   2.705
 6465SOL    HW220295   6.456   0.471   2.571
 6466SOL     OW20296   6.326   2.636   4.232
 6466SOL    HW120297   6.411   2.685   4.250
 6466SOL    HW220298   6.334   2.541   4.262
 6467SOL     OW20299   3.463   0.192   6.220
 6467SOL    HW120300   3.490   0.123   6.153
 6467SOL    HW220301   3.434   0.147   6.305
 6468SOL     OW20302   6.317   4.731   1.948
 6468SOL    HW120303   6.402   4.750   1.997
 6468SOL    HW220304   6.240   4.737   2.011
 6469SOL     OW20305   6.223   1.943   5.848
 6469SOL    HW120306   6.283   1.873   5.810
 6469SOL    HW220307   6.185   1.910   5.935
 6470SOL     OW20308   6.640   6.090   4.804
 6470SOL    HW120309   6.585   6.158   4.755
 6470SOL    HW220310   6.611   6.086   4.900
 6471SOL     OW20311   6.406   6.402   5.157
 6471SOL    HW120312   6.471   6.403   5.234
 6471SOL    HW220313   6.321   6.447   5.184
 6472SOL     OW20314   1.571   6.459   1.806
 6472SOL    HW120315   1.612   6.546   1.834
 6472SOL    HW220316   1.638   6.385   1.817
 6473SOL     OW20317   2.410   1.235   5.567
 6473SOL    HW120318   2.342   1.175   5.609
 6473SOL    HW220319   2.459   1.285   5.639
 6474SOL     OW20320   1.934   3.286   6.365
 6474SOL    HW120321   1.970   3.303   6.273
 6474SOL    HW220322   1.916   3.373   6.411
 6475SOL     OW20323   4.233   5.263   3.991
 6475SOL    HW120324   4.211   5.275   4.088
 6475SOL    HW220325   4.285   5.179   3.978
 6476SOL     OW20326   5.078   5.752   3.133
 6476SOL    HW120327   5.054   5.777   3.039
 6476SOL    HW220328   5.176   5.765   3.147
 6477SOL     OW20329   6.545   6.334   6.843
 6477SOL    HW120330   6.640   6.309   6.860
 6477SOL    HW220331   6.496   6.339   6.930
 6478SOL     OW20332   4.145   6.134   1.224
 6478SOL    HW120333   4.095   6.062   1.177
 6478SOL    HW220334   4.242   6.109   1.232
 6479SOL     OW20335   2.791   5.701   2.778
 6479SOL    HW120336   2.889   5.717   2.792
 6479SOL    HW220337   2.738   5.761   2.838
 6480SOL     OW20338   2.554   0.742   0.547
 6480SOL    HW120339   2.496   0.735   0.466
 6480SOL    HW220340   2.497   0.760   0.628
 6481SOL     OW20341   4.662   0.694   1.271
 6481SOL    HW120342   4.601   0.690   1.350
 6481SOL    HW220343   4.739   0.631   1.285
 6482SOL     OW20344   0.387   0.131   5.595
 6482SOL    HW120345   0.441   0.211   5.569
 6482SOL    HW220346   0.364   0.137   5.692
 6483SOL     OW20347   1.699   4.837   1.788
 6483SOL    HW120348   1.751   4.919   1.812
 6483SOL    HW220349   1.686   4.781   1.870
 6484SOL     OW20350   4.641   6.995   3.040
 6484SOL    HW120351   4.667   0.061   3.059
 6484SOL    HW220352   4.712   6.933   3.075
 6485SOL     OW20353   0.509   2.876   2.832
 6485SOL    HW120354   0.554   2.815   2.767
 6485SOL    HW220355   0.562   2.961   2.840
 6486SOL     OW20356   1.458   2.851   2.982
 6486SOL    HW120357   1.415   2.940   2.996
 6486SOL    HW220358   1.407   2.801   2.912
 6487SOL     OW20359   5.965   5.567   3.340
 6487SOL    HW120360   5.950   5.666   3.332
 6487SOL    HW220361   6.060   5.550   3.367
 6488SOL     OW20362   3.241   5.194   4.182
 6488SOL    HW120363   3.258   5.096   4.192
 6488SOL    HW220364   3.282   5.243   4.259
 6489SOL     OW20365   2.478   1.763   6.578
 6489SOL    HW120366   2.486   1.666   6.555
 6489SOL    HW220367   2.513   1.819   6.502
 6490SOL     OW20368   5.104   1.700   0.279
 6490SOL    HW120369   5.056   1.632   0.223
 6490SOL    HW220370   5.092   1.677   0.376
 6491SOL     OW20371   5.655   1.170   5.660
 6491SOL    HW120372   5.658   1.096   5.592
 6491SOL    HW220373   5.697   1.252   5.621
 6492SOL     OW20374   6.362   5.740   6.314
 6492SOL    HW120375   6.426   5.674   6.353
 6492SOL    HW220376   6.374   5.829   6.357
 6493SOL     OW20377   0.514   6.968   5.009
 6493SOL    HW120378   0.577   6.896   4.980
 6493SOL    HW220379   0.426   6.928   5.034
 6494SOL     OW20380   0.327   2.235   3.055
 6494SOL    HW120381   0.320   2.176   2.974
 6494SOL    HW220382   0.376   2.187   3.128
 6495SOL     OW20383   5.284   4.825   1.844
 6495SOL    HW120384   5.306   4.842   1.748
 6495SOL    HW220385   5.223   4.746   1.851
 6496SOL     OW20386   0.396   6.248   3.080
 6496SOL    HW120387   0.296   6.245   3.071
 6496SOL    HW220388   0.429   6.339   3.058
 6497SOL     OW20389   0.554   6.524   1.596
 6497SOL    HW120390   0.533   6.610   1.641
 6497SOL    HW220391   0.585   6.542   1.503
 6498SOL     OW20392   1.476   3.664   4.310
 6498SOL    HW120393   1.477   3.718   4.395
 6498SOL    HW220394   1.399   3.693   4.253
 6499SOL     OW20395   6.561   1.619   3.399
 6499SOL    HW120396   6.485   1.677   3.428
 6499SOL    HW220397   6.632   1.674   3.355
 6500SOL     OW20398   5.685   4.826   2.176
 6500SOL    HW120399   5.703   4.816   2.274
 6500SOL    HW220400   5.641   4.914   2.158
 6501SOL     OW20401   6.689   4.300   0.758
 6501SOL    HW120402   6.659   4.385   0.715
 6501SOL    HW220403   6.614   4.233   0.755
 6502SOL     OW20404   0.668   5.435   1.463
 6502SOL    HW120405   0.701   5.484   1.543
 6502SOL    HW220406   0.688   5.488   1.380
 6503SOL     OW20407   4.329   0.593   4.048
 6503SOL    HW120408   4.334   0.524   3.975
 6503SOL    HW220409   4.341   0.684   4.008
 6504SOL     OW20410   2.330   2.008   0.615
 6504SOL    HW120411   2.397   1.934   0.614
 6504SOL    HW220412   2.364   2.085   0.560
 6505SOL     OW20413   5.524   5.371   0.663
 6505SOL    HW120414   5.599   5.428   0.697
 6505SOL    HW220415   5.527   5.282   0.706
 6506SOL     OW20416   2.202   0.972   1.388
 6506SOL    HW120417   2.274   0.968   1.457
 6506SOL    HW220418   2.119   1.011   1.429
 6507SOL     OW20419   2.880   1.103   1.765
 6507SOL    HW120420   2.834   1.175   1.817
 6507SOL    HW220421   2.978   1.122   1.763
 6508SOL     OW20422   1.696   2.664   1.881
 6508SOL    HW120423   1.654   2.577   1.854
 6508SOL    HW220424   1.766   2.647   1.950
 6509SOL     OW20425   1.334   3.056   3.989
 6509SOL    HW120426   1.383   3.095   4.067
 6509SOL    HW220427   1.247   3.105   3.976
 6510SOL     OW20428   6.261   4.381   6.349
 6510SOL    HW120429   6.173   4.405   6.389
 6510SOL    HW220430   6.316   4.464   6.337
 6511SOL     OW20431   0.132   6.699   5.761
 6511SOL    HW120432   0.185   6.773   5.719
 6511SOL    HW220433   0.137   6.708   5.861
 6512SOL     OW20434   5.307   6.279   4.044
 6512SOL    HW120435   5.402   6.296   4.016
 6512SOL    HW220436   5.307   6.232   4.133
 6513SOL     OW20437   1.134   6.861   3.441
 6513SOL    HW120438   1.142   6.867   3.342
 6513SOL    HW220439   1.215   6.903   3.483
 6514SOL     OW20440   2.777   0.511   3.712
 6514SOL    HW120441   2.775   0.440   3.782
 6514SOL    HW220442   2.855   0.496   3.651
 6515SOL     OW20443   1.163   0.755   3.443
 6515SOL    HW120444   1.099   0.682   3.420
 6515SOL    HW220445   1.214   0.782   3.361
 6516SOL     OW20446   1.447   1.051   5.478
 6516SOL    HW120447   1.499   1.012   5.553
 6516SOL    HW220448   1.508   1.106   5.420
 6517SOL     OW20449   2.355   2.192   1.117
 6517SOL    HW120450   2.370   2.124   1.045
 6517SOL    HW220451   2.349   2.145   1.205
 6518SOL     OW20452   6.020   6.424   1.153
 6518SOL    HW120453   6.060   6.399   1.065
 6518SOL    HW220454   5.942   6.484   1.138
 6519SOL     OW20455   0.882   1.821   3.825
 6519SOL    HW120456   0.872   1.864   3.735
 6519SOL    HW220457   0.908   1.726   3.814
 6520SOL     OW20458   5.682   5.168   0.944
 6520SOL    HW120459   5.587   5.147   0.923
 6520SOL    HW220460   5.689   5.205   1.037
 6521SOL     OW20461   1.266   2.238   5.671
 6521SOL    HW120462   1.211   2.179   5.611
 6521SOL    HW220463   1.362   2.210   5.665
 6522SOL     OW20464   2.373   4.738   4.544
 6522SOL    HW120465   2.297   4.674   4.531
 6522SOL    HW220466   2.343   4.813   4.604
 6523SOL     OW20467   2.101   2.297   0.786
 6523SOL    HW120468   2.189   2.300   0.835
 6523SOL    HW220469   2.114   2.251   0.698
 6524SOL     OW20470   4.093   2.564   5.476
 6524SOL    HW120471   4.073   2.648   5.426
 6524SOL    HW220472   4.128   2.586   5.567
 6525SOL     OW20473   0.629   2.697   4.089
 6525SOL    HW120474   0.530   2.711   4.080
 6525SOL    HW220475   0.650   2.601   4.073
 6526SOL     OW20476   1.454   5.938   3.556
 6526SOL    HW120477   1.545   5.899   3.540
 6526SOL    HW220478   1.456   5.993   3.639
 6527SOL     OW20479   1.971   1.264   4.526
 6527SOL    HW120480   1.974   1.306   4.617
 6527SOL    HW220481   1.920   1.323   4.463
 6528SOL     OW20482   0.338   0.478   3.213
 6528SOL    HW120483   0.377   0.427   3.291
 6528SOL    HW220484   0.398   0.554   3.190
 6529SOL     OW20485   6.271   2.982   2.434
 6529SOL    HW120486   6.271   2.924   2.353
 6529SOL    HW220487   6.180   3.021   2.448
 6530SOL     OW20488   0.189   1.322   0.098
 6530SOL    HW120489   0.224   1.298   0.008
 6530SOL    HW220490   0.149   1.241   0.141
 6531SOL     OW20491   5.247   2.322   5.723
 6531SOL    HW120492   5.223   2.378   5.802
 6531SOL    HW220493   5.330   2.358   5.680
 6532SOL     OW20494   1.472   1.591   6.897
 6532SOL    HW120495   1.545   1.612   6.832
 6532SOL    HW220496   1.414   1.519   6.860
 6533SOL     OW20497   4.948   0.105   0.788
 6533SOL    HW120498   4.858   0.143   0.765
 6533SOL    HW220499   4.947   0.073   0.882
 6534SOL     OW20500   3.230   2.499   7.000
 6534SOL    HW120501   3.289   2.562   6.949
 6534SOL    HW220502   3.172   2.551   0.034
 6535SOL     OW20503   2.249   3.401   5.275
 6535SOL    HW120504   2.295   3.490   5.277
 6535SOL    HW220505   2.239   3.367   5.369
 6536SOL     OW20506   0.315   1.597   0.154
 6536SOL    HW120507   0.312   1.522   0.088
 6536SOL    HW220508   0.229   1.603   0.203
 6537SOL     OW20509   0.337   0.581   6.421
 6537SOL    HW120510   0.361   0.588   6.324
 6537SOL    HW220511   0.302   0.489   6.440
 6538SOL     OW20512   2.778   2.577   5.541
 6538SOL    HW120513   2.803   2.509   5.473
 6538SOL    HW220514   2.682   2.564   5.568
 6539SOL     OW20515   3.193   1.468   6.921
 6539SOL    HW120516   3.105   1.483   6.876
 6539SOL    HW220517   3.215   1.547   6.978
 6540SOL     OW20518   3.925   2.132   3.217
 6540SOL    HW120519   3.919   2.170   3.309
 6540SOL    HW220520   4.017   2.094   3.202
 6541SOL     OW20521   2.758   2.302   5.165
 6541SOL    HW120522   2.747   2.355   5.081
 6541SOL    HW220523   2.822   2.227   5.150
 6542SOL     OW20524   4.832   4.578   2.571
 6542SOL    HW120525   4.883   4.549   2.490
 6542SOL    HW220526   4.771   4.505   2.601
 6543SOL     OW20527   1.437   6.437   5.758
 6543SOL    HW120528   1.513   6.414   5.820
 6543SOL    HW220529   1.363   6.372   5.772
 6544SOL     OW20530   0.123   5.840   2.673
 6544SOL    HW120531   0.122   5.741   2.658
 6544SOL    HW220532   0.065   5.862   2.752
 6545SOL     OW20533   6.204   2.875   6.517
 6545SOL    HW120534   6.170   2.961   6.553
 6545SOL    HW220535   6.220   2.811   6.592
 6546SOL     OW20536   3.426   4.839   6.461
 6546SOL    HW120537   3.362   4.912   6.486
 6546SOL    HW220538   3.379   4.771   6.405
 6547SOL     OW20539   4.311   1.476   6.374
 6547SOL    HW120540   4.375   1.420   6.427
 6547SOL    HW220541   4.339   1.477   6.278
 6548SOL     OW20542   4.798   4.010   5.972
 6548SOL    HW120543   4.775   4.098   5.929
 6548SOL    HW220544   4.778   4.015   6.070
 6549SOL     OW20545   2.758   2.322   2.579
 6549SOL    HW120546   2.842   2.338   2.528
 6549SOL    HW220547   2.779   2.312   2.677
 6550SOL     OW20548   1.039   5.984   2.385
 6550SOL    HW120549   0.965   6.036   2.428
 6550SOL    HW220550   1.001   5.920   2.319
 6551SOL     OW20551   3.623   5.254   2.144
 6551SOL    HW120552   3.588   5.171   2.100
 6551SOL    HW220553   3.565   5.332   2.122
 6552SOL     OW20554   4.673   4.823   5.740
 6552SOL    HW120555   4.752   4.882   5.724
 6552SOL    HW220556   4.690   4.765   5.820
 6553SOL     OW20557   0.108   3.456   3.383
 6553SOL    HW120558   0.121   3.357   3.375
 6553SOL    HW220559   0.197   3.501   3.392
 6554SOL     OW20560   6.959   3.706   4.676
 6554SOL    HW120561   6.953   3.620   4.727
 6554SOL    HW220562   6.904   3.699   4.593
 6555SOL     OW20563   0.741   1.589   1.276
 6555SOL    HW120564   0.678   1.593   1.353
 6555SOL    HW220565   0.714   1.514   1.214
 6556SOL     OW20566   3.774   7.021   3.297
 6556SOL    HW120567   3.739   0.007   3.389
 6556SOL    HW220568   3.852   0.052   3.281
 6557SOL     OW20569   5.191   5.842   0.813
 6557SOL    HW120570   5.132   5.761   0.812
 6557SOL    HW220571   5.154   5.909   0.877
 6558SOL     OW20572   6.969   6.709   5.552
 6558SOL    HW120573   6.974   6.796   5.501
 6558SOL    HW220574   0.012   6.708   5.622
 6559SOL     OW20575   2.910   3.631   1.146
 6559SOL    HW120576   2.957   3.701   1.093
 6559SOL    HW220577   2.970   3.600   1.220
 6560SOL     OW20578   4.316   1.568   1.074
 6560SOL    HW120579   4.407   1.529   1.083
 6560SOL    HW220580   4.302   1.638   1.144
 6561SOL     OW20581   3.587   3.841   4.534
 6561SOL    HW120582   3.606   3.813   4.440
 6561SOL    HW220583   3.545   3.764   4.583
 6562SOL     OW20584   0.496   4.588   5.230
 6562SOL    HW120585   0.501   4.650   5.152
 6562SOL    HW220586   0.454   4.636   5.307
 6563SOL     OW20587   0.772   5.755   2.621
 6563SOL    HW120588   0.836   5.765   2.698
 6563SOL    HW220589   0.824   5.744   2.537
 6564SOL     OW20590   1.596   4.873   3.167
 6564SOL    HW120591   1.627   4.890   3.261
 6564SOL    HW220592   1.616   4.779   3.142
 6565SOL     OW20593   6.668   3.599   5.015
 6565SOL    HW120594   6.631   3.529   4.953
 6565SOL    HW220595   6.654   3.689   4.975
 6566SOL     OW20596   3.968   1.421   0.695
 6566SOL    HW120597   4.033   1.367   0.641
 6566SOL    HW220598   4.000   1.425   0.790
 6567SOL     OW20599   6.277   2.648   0.756
 6567SOL    HW120600   6.264   2.630   0.659
 6567SOL    HW220601   6.335   2.576   0.795
 6568SOL     OW20602   5.447   3.591   1.566
 6568SOL    HW120603   5.470   3.589   1.663
 6568SOL    HW220604   5.383   3.516   1.546
 6569SOL     OW20605   1.467   4.073   5.345
 6569SOL    HW120606   1.565   4.090   5.333
 6569SOL    HW220607   1.454   3.997   5.409
 6570SOL     OW20608   6.925   4.129   1.994
 6570SOL    HW120609   6.860   4.121   2.069
 6570SOL    HW220610   6.960   4.038   1.971
 6571SOL     OW20611   1.697   5.454   3.868
 6571SOL    HW120612   1.722   5.387   3.798
 6571SOL    HW220613   1.634   5.412   3.933
 6572SOL     OW20614   2.172   3.838   5.825
 6572SOL    HW120615   2.117   3.834   5.908
 6572SOL    HW220616   2.207   3.747   5.803
 6573SOL     OW20617   1.780   1.820   1.570
 6573SOL    HW120618   1.707   1.752   1.567
 6573SOL    HW220619   1.863   1.782   1.529
 6574SOL     OW20620   2.193   4.511   4.604
 6574SOL    HW120621   2.157   4.542   4.692
 6574SOL    HW220622   2.241   4.424   4.616
 6575SOL     OW20623   1.493   1.994   2.621
 6575SOL    HW120624   1.512   2.092   2.624
 6575SOL    HW220625   1.482   1.960   2.714
 6576SOL     OW20626   0.175   6.285   4.153
 6576SOL    HW120627   0.191   6.229   4.072
 6576SOL    HW220628   0.259   6.336   4.175
 6577SOL     OW20629   0.340   3.953   5.932
 6577SOL    HW120630   0.439   3.967   5.941
 6577SOL    HW220631   0.311   3.982   5.841
 6578SOL     OW20632   6.194   5.711   3.754
 6578SOL    HW120633   6.194   5.773   3.675
 6578SOL    HW220634   6.286   5.674   3.767
 6579SOL     OW20635   0.414   3.841   4.022
 6579SOL    HW120636   0.323   3.882   4.030
 6579SOL    HW220637   0.474   3.878   4.093
 6580SOL     OW20638   5.632   2.295   0.367
 6580SOL    HW120639   5.540   2.292   0.329
 6580SOL    HW220640   5.639   2.371   0.432
 6581SOL     OW20641   2.670   2.267   5.426
 6581SOL    HW120642   2.573   2.285   5.443
 6581SOL    HW220643   2.687   2.269   5.328
 6582SOL     OW20644   6.522   0.707   2.412
 6582SOL    HW120645   6.569   0.770   2.349
 6582SOL    HW220646   6.428   0.738   2.427
 6583SOL     OW20647   6.874   0.894   6.414
 6583SOL    HW120648   6.924   0.826   6.467
 6583SOL    HW220649   6.895   0.986   6.449
 6584SOL     OW20650   5.664   2.512   0.539
 6584SOL    HW120651   5.719   2.504   0.622
 6584SOL    HW220652   5.589   2.577   0.555
 6585SOL     OW20653   2.768   0.595   2.325
 6585SOL    HW120654   2.833   0.553   2.262
 6585SOL    HW220655   2.819   0.645   2.395
 6586SOL     OW20656   5.855   1.992   6.862
 6586SOL    HW120657   5.859   2.091   6.853
 6586SOL    HW220658   5.938   1.960   6.910
 6587SOL     OW20659   1.460   5.662   1.959
 6587SOL    HW120660   1.538   5.724   1.965
 6587SOL    HW220661   1.460   5.599   2.037
 6588SOL     OW20662   3.142   2.610   0.474
 6588SOL    HW120663   3.146   2.609   0.574
 6588SOL    HW220664   3.233   2.631   0.437
 6589SOL     OW20665   5.047   1.274   5.798
 6589SOL    HW120666   5.141   1.250   5.821
 6589SOL    HW220667   5.044   1.366   5.759
 6590SOL     OW20668   6.347   2.043   5.628
 6590SOL    HW120669   6.284   2.018   5.554
 6590SOL    HW220670   6.312   2.007   5.715
 6591SOL     OW20671   4.970   0.516   2.909
 6591SOL    HW120672   4.946   0.613   2.904
 6591SOL    HW220673   5.058   0.501   2.865
 6592SOL     OW20674   6.003   4.913   5.294
 6592SOL    HW120675   6.018   4.859   5.211
 6592SOL    HW220676   6.005   4.853   5.373
 6593SOL     OW20677   5.211   1.104   3.108
 6593SOL    HW120678   5.195   1.201   3.091
 6593SOL    HW220679   5.124   1.054   3.098
 6594SOL     OW20680   5.450   0.898   6.928
 6594SOL    HW120681   5.384   0.966   6.895
 6594SOL    HW220682   5.408   0.843   7.000
 6595SOL     OW20683   3.546   2.558   6.179
 6595SOL    HW120684   3.457   2.588   6.145
 6595SOL    HW220685   3.615   2.568   6.107
 6596SOL     OW20686   2.564   6.099   4.933
 6596SOL    HW120687   2.610   6.098   5.022
 6596SOL    HW220688   2.470   6.066   4.943
 6597SOL     OW20689   0.332   4.047   6.827
 6597SOL    HW120690   0.423   4.062   6.865
 6597SOL    HW220691   0.268   4.028   6.902
 6598SOL     OW20692   2.767   6.385   4.307
 6598SOL    HW120693   2.794   6.395   4.402
 6598SOL    HW220694   2.737   6.291   4.291
 6599SOL     OW20695   4.263   3.463   6.650
 6599SOL    HW120696   4.225   3.537   6.706
 6599SOL    HW220697   4.359   3.448   6.676
 6600SOL     OW20698   4.028   4.861   5.135
 6600SOL    HW120699   4.024   4.957   5.106
 6600SOL    HW220700   3.938   4.832   5.166
 6601SOL     OW20701   1.048   1.301   1.913
 6601SOL    HW120702   1.049   1.254   2.001
 6601SOL    HW220703   1.101   1.248   1.847
 6602SOL     OW20704   5.960   1.636   1.435
 6602SOL    HW120705   5.881   1.584   1.468
 6602SOL    HW220706   6.026   1.647   1.510
 6603SOL     OW20707   2.520   1.893   1.490
 6603SOL    HW120708   2.599   1.900   1.431
 6603SOL    HW220709   2.535   1.821   1.558
 6604SOL     OW20710   3.907   5.853   4.898
 6604SOL    HW120711   3.994   5.827   4.940
 6604SOL    HW220712   3.914   5.844   4.799
 6605SOL     OW20713   5.449   6.306   0.741
 6605SOL    HW120714   5.532   6.342   0.784
 6605SOL    HW220715   5.400   6.248   0.807
 6606SOL     OW20716   0.612   2.434   2.858
 6606SOL    HW120717   0.559   2.363   2.812
 6606SOL    HW220718   0.561   2.470   2.936
 6607SOL     OW20719   1.445   3.358   2.562
 6607SOL    HW120720   1.497   3.442   2.543
 6607SOL    HW220721   1.441   3.344   2.661
 6608SOL     OW20722   4.955   4.294   4.696
 6608SOL    HW120723   4.860   4.298   4.663
 6608SOL    HW220724   5.014   4.261   4.622
 6609SOL     OW20725   5.116   2.171   6.825
 6609SOL    HW120726   5.039   2.179   6.888
 6609SOL    HW220727   5.084   2.134   6.737
 6610SOL     OW20728   3.434   1.483   0.785
 6610SOL    HW120729   3.505   1.520   0.845
 6610SOL    HW220730   3.351   1.537   0.795
 6611SOL     OW20731   5.137   3.656   2.745
 6611SOL    HW120732   5.042   3.680   2.765
 6611SOL    HW220733   5.188   3.650   2.831
 6612SOL     OW20734   0.771   5.812   6.241
 6612SOL    HW120735   0.850   5.814   6.303
 6612SOL    HW220736   0.791   5.752   6.164
 6613SOL     OW20737   6.044   4.946   0.755
 6613SOL    HW120738   6.122   4.901   0.799
 6613SOL    HW220739   5.968   4.951   0.819
 6614SOL     OW20740   5.936   4.366   5.958
 6614SOL    HW120741   6.017   4.317   5.989
 6614SOL    HW220742   5.957   4.414   5.873
 6615SOL     OW20743   0.038   3.784   4.953
 6615SOL    HW120744   0.071   3.841   4.878
 6615SOL    HW220745   7.028   3.699   4.917
 6616SOL     OW20746   4.880   1.291   4.127
 6616SOL    HW120747   4.861   1.195   4.147
 6616SOL    HW220748   4.801   1.332   4.082
 6617SOL     OW20749   4.522   6.988   4.581
 6617SOL    HW120750   4.464   6.950   4.654
 6617SOL    HW220751   4.497   0.055   4.566
 6618SOL     OW20752   0.247   4.542   0.993
 6618SOL    HW120753   0.326   4.598   1.017
 6618SOL    HW220754   0.206   4.506   1.077
 6619SOL     OW20755   6.967   6.258   2.145
 6619SOL    HW120756   6.895   6.326   2.133
 6619SOL    HW220757   6.990   6.249   2.242
 6620SOL     OW20758   4.542   3.217   5.611
 6620SOL    HW120759   4.464   3.192   5.669
 6620SOL    HW220760   4.522   3.302   5.563
 6621SOL     OW20761   2.900   2.824   0.571
 6621SOL    HW120762   2.885   2.745   0.511
 6621SOL    HW220763   2.837   2.898   0.545
 6622SOL     OW20764   5.742   5.506   0.302
 6622SOL    HW120765   5.737   5.408   0.281
 6622SOL    HW220766   5.651   5.540   0.325
 6623SOL     OW20767   3.351   4.001   2.559
 6623SOL    HW120768   3.313   3.965   2.473
 6623SOL    HW220769   3.443   4.036   2.541
 6624SOL     OW20770   4.851   5.067   4.181
 6624SOL    HW120771   4.946   5.047   4.154
 6624SOL    HW220772   4.789   5.018   4.121
 6625SOL     OW20773   5.585   6.731   6.860
 6625SOL    HW120774   5.662   6.795   6.856
 6625SOL    HW220775   5.542   6.737   6.950
 6626SOL     OW20776   2.626   5.099   3.931
 6626SOL    HW120777   2.601   5.046   4.012
 6626SOL    HW220778   2.565   5.077   3.856
 6627SOL     OW20779   1.270   0.898   1.644
 6627SOL    HW120780   1.180   0.878   1.604
 6627SOL    HW220781   1.342   0.877   1.577
 6628SOL     OW20782   4.177   6.286   3.696
 6628SOL    HW120783   4.193   6.323   3.605
 6628SOL    HW220784   4.102   6.334   3.740
 6629SOL     OW20785   2.813   3.933   0.212
 6629SOL    HW120786   2.746   3.896   0.148
 6629SOL    HW220787   2.906   3.915   0.178
 6630SOL     OW20788   3.825   1.033   6.300
 6630SOL    HW120789   3.843   1.127   6.329
 6630SOL    HW220790   3.835   0.972   6.379
 6631SOL     OW20791   3.571   6.891   1.046
 6631SOL    HW120792   3.486   6.880   1.097
 6631SOL    HW220793   3.556   6.951   0.968
 6632SOL     OW20794   6.074   3.440   2.189
 6632SOL    HW120795   6.020   3.391   2.121
 6632SOL    HW220796   6.161   3.394   2.203
 6633SOL     OW20797   0.956   6.372   2.806
 6633SOL    HW120798   0.900   6.416   2.876
 6633SOL    HW220799   0.916   6.283   2.783
 6634SOL     OW20800   6.780   1.906   5.970
 6634SOL    HW120801   6.684   1.878   5.981
 6634SOL    HW220802   6.806   1.900   5.874
 6635SOL     OW20803   4.495   5.193   3.512
 6635SOL    HW120804   4.512   5.275   3.567
 6635SOL    HW220805   4.572   5.178   3.450
 6636SOL     OW20806   1.704   3.630   3.226
 6636SOL    HW120807   1.756   3.599   3.306
 6636SOL    HW220808   1.762   3.624   3.145
 6637SOL     OW20809   6.724   3.065   1.126
 6637SOL    HW120810   6.681   3.060   1.036
 6637SOL    HW220811   6.779   3.149   1.133
 6638SOL     OW20812   1.893   0.854   6.855
 6638SOL    HW120813   1.967   0.913   6.822
 6638SOL    HW220814   1.921   0.807   6.938
 6639SOL     OW20815   3.893   5.126   5.964
 6639SOL    HW120816   3.813   5.178   5.996
 6639SOL    HW220817   3.892   5.035   6.005
 6640SOL     OW20818   5.930   4.147   2.988
 6640SOL    HW120819   5.935   4.213   3.063
 6640SOL    HW220820   6.021   4.111   2.968
 6641SOL     OW20821   2.400   5.684   6.575
 6641SOL    HW120822   2.436   5.687   6.482
 6641SOL    HW220823   2.465   5.638   6.635
 6642SOL     OW20824   6.773   6.232   5.940
 6642SOL    HW120825   6.782   6.328   5.968
 6642SOL    HW220826   6.707   6.186   5.999
 6643SOL     OW20827   4.102   5.548   7.012
 6643SOL    HW120828   4.077   5.462   6.967
 6643SOL    HW220829   4.045   5.561   0.064
 6644SOL     OW20830   1.028   3.642   1.778
 6644SOL    HW120831   1.011   3.681   1.869
 6644SOL    HW220832   1.122   3.660   1.751
 6645SOL     OW20833   0.011   4.418   5.671
 6645SOL    HW120834   6.960   4.359   5.655
 6645SOL    HW220835   7.010   4.500   5.721
 6646SOL     OW20836   1.807   5.300   3.643
 6646SOL    HW120837   1.886   5.240   3.628
 6646SOL    HW220838   1.751   5.303   3.560
 6647SOL     OW20839   4.420   1.748   1.713
 6647SOL    HW120840   4.353   1.731   1.785
 6647SOL    HW220841   4.425   1.669   1.653
 6648SOL     OW20842   4.127   5.948   2.291
 6648SOL    HW120843   4.079   5.928   2.205
 6648SOL    HW220844   4.202   6.011   2.273
 6649SOL     OW20845   4.315   1.427   5.785
 6649SOL    HW120846   4.250   1.474   5.846
 6649SOL    HW220847   4.407   1.464   5.800
 6650SOL     OW20848   3.721   1.480   3.758
 6650SOL    HW120849   3.741   1.578   3.756
 6650SOL    HW220850   3.660   1.461   3.834
 6651SOL     OW20851   0.479   1.610   0.692
 6651SOL    HW120852   0.396   1.555   0.693
 6651SOL    HW220853   0.529   1.597   0.777
 6652SOL     OW20854   0.936   5.167   3.276
 6652SOL    HW120855   0.999   5.099   3.314
 6652SOL    HW220856   0.981   5.256   3.274
 6653SOL     OW20857   3.869   3.854   3.335
 6653SOL    HW120858   3.801   3.800   3.385
 6653SOL    HW220859   3.950   3.867   3.393
 6654SOL     OW20860   1.525   3.853   1.518
 6654SOL    HW120861   1.542   3.938   1.469
 6654SOL    HW220862   1.490   3.873   1.609
 6655SOL     OW20863   1.485   1.061   0.060
 6655SOL    HW120864   1.534   1.051   0.147
 6655SOL    HW220865   1.539   1.118   7.027
 6656SOL     OW20866   6.684   2.539   1.811
 6656SOL    HW120867   6.634   2.575   1.732
 6656SOL    HW220868   6.622   2.488   1.870
 6657SOL     OW20869   3.179   5.078   5.331
 6657SOL    HW120870   3.215   5.012   5.397
 6657SOL    HW220871   3.085   5.052   5.307
 6658SOL     OW20872   6.838   6.950   5.857
 6658SOL    HW120873   6.840   6.862   5.903
 6658SOL    HW220874   6.743   6.973   5.832
 6659SOL     OW20875   1.904   2.933   6.772
 6659SOL    HW120876   1.876   2.840   6.748
 6659SOL    HW220877   1.944   2.977   6.692
 6660SOL     OW20878   0.275   6.341   2.801
 6660SOL    HW120879   0.201   6.289   2.757
 6660SOL    HW220880   0.270   6.436   2.771
 6661SOL     OW20881   6.585   6.524   4.261
 6661SOL    HW120882   6.577   6.457   4.335
 6661SOL    HW220883   6.666   6.504   4.206
 6662SOL     OW20884   0.989   3.914   6.277
 6662SOL    HW120885   0.905   3.888   6.229
 6662SOL    HW220886   0.966   3.958   6.364
 6663SOL     OW20887   0.336   5.137   2.224
 6663SOL    HW120888   0.380   5.153   2.135
 6663SOL    HW220889   0.327   5.224   2.273
 6664SOL     OW20890   6.923   2.269   1.993
 6664SOL    HW120891   6.889   2.346   2.047
 6664SOL    HW220892   7.000   2.226   2.041
 6665SOL     OW20893   2.064   6.315   3.688
 6665SOL    HW120894   2.039   6.345   3.780
 6665SOL    HW220895   1.985   6.324   3.628
 6666SOL     OW20896   5.165   0.922   0.271
 6666SOL    HW120897   5.072   0.954   0.255
 6666SOL    HW220898   5.175   0.892   0.366
 6667SOL     OW20899   5.655   4.723   5.250
 6667SOL    HW120900   5.627   4.795   5.187
 6667SOL    HW220901   5.606   4.639   5.230
 6668SOL     OW20902   6.230   6.094   1.273
 6668SOL    HW120903   6.137   6.131   1.266
 6668SOL    HW220904   6.247   6.034   1.195
 6669SOL     OW20905   0.836   5.056   3.049
 6669SOL    HW120906   0.870   5.106   3.128
 6669SOL    HW220907   0.910   5.046   2.982
 6670SOL     OW20908   4.833   4.758   6.887
 6670SOL    HW120909   4.821   4.736   6.790
 6670SOL    HW220910   4.920   4.720   6.919
 6671SOL     OW20911   0.507   2.463   5.576
 6671SOL    HW120912   0.461   2.383   5.614
 6671SOL    HW220913   0.541   2.442   5.485
 6672SOL     OW20914   7.010   0.928   4.981
 6672SOL    HW120915   7.010   1.017   4.936
 6672SOL    HW220916   7.006   0.940   5.080
 6673SOL     OW20917   4.169   6.194   1.649
 6673SOL    HW120918   4.205   6.123   1.709
 6673SOL    HW220919   4.073   6.174   1.628
 6674SOL     OW20920   0.799   6.270   5.064
 6674SOL    HW120921   0.886   6.302   5.028
 6674SOL    HW220922   0.731   6.266   4.991
 6675SOL     OW20923   6.685   6.085   6.754
 6675SOL    HW120924   6.641   6.148   6.690
 6675SOL    HW220925   6.622   6.063   6.828
 6676SOL     OW20926   0.297   1.817   0.736
 6676SOL    HW120927   0.279   1.855   0.645
 6676SOL    HW220928   0.354   1.736   0.727
 6677SOL     OW20929   0.395   4.996   0.817
 6677SOL    HW120930   0.436   4.990   0.908
 6677SOL    HW220931   0.466   4.979   0.748
 6678SOL     OW20932   0.786   3.104   4.001
 6678SOL    HW120933   0.694   3.100   4.039
 6678SOL    HW220934   0.852   3.121   4.074
 6679SOL     OW20935   2.416   1.306   4.800
 6679SOL    HW120936   2.444   1.362   4.722
 6679SOL    HW220937   2.351   1.236   4.769
 6680SOL     OW20938   2.686   0.465   6.524
 6680SOL    HW120939   2.694   0.366   6.531
 6680SOL    HW220940   2.700   0.493   6.429
 6681SOL     OW20941   5.587   5.400   6.061
 6681SOL    HW120942   5.508   5.420   6.119
 6681SOL    HW220943   5.599   5.474   5.995
 6682SOL     OW20944   6.529   5.115   2.143
 6682SOL    HW120945   6.578   5.202   2.136
 6682SOL    HW220946   6.550   5.071   2.231
 6683SOL     OW20947   4.727   2.703   4.033
 6683SOL    HW120948   4.684   2.672   4.118
 6683SOL    HW220949   4.773   2.791   4.050
 6684SOL     OW20950   1.582   1.212   2.197
 6684SOL    HW120951   1.675   1.248   2.187
 6684SOL    HW220952   1.517   1.278   2.160
 6685SOL     OW20953   5.762   2.697   7.020
 6685SOL    HW120954   5.854   2.661   7.007
 6685SOL    HW220955   5.744   2.767   6.950
 6686SOL     OW20956   5.582   4.338   3.503
 6686SOL    HW120957   5.498   4.380   3.537
 6686SOL    HW220958   5.610   4.265   3.566
 6687SOL     OW20959   0.771   0.472   0.530
 6687SOL    HW120960   0.775   0.372   0.534
 6687SOL    HW220961   0.807   0.503   0.442
 6688SOL     OW20962   0.794   5.078   2.593
 6688SOL    HW120963   0.865   5.121   2.649
 6688SOL    HW220964   0.752   5.004   2.645
 6689SOL     OW20965   5.070   3.929   6.990
 6689SOL    HW120966   5.111   3.838   6.985
 6689SOL    HW220967   5.141   3.998   6.975
 6690SOL     OW20968   0.398   1.408   0.477
 6690SOL    HW120969   0.309   1.424   0.520
 6690SOL    HW220970   0.437   1.495   0.449
 6691SOL     OW20971   1.202   5.535   0.989
 6691SOL    HW120972   1.249   5.623   0.986
 6691SOL    HW220973   1.269   5.461   0.995
 6692SOL     OW20974   4.893   3.514   6.570
 6692SOL    HW120975   4.817   3.579   6.565
 6692SOL    HW220976   4.867   3.429   6.524
 6693SOL     OW20977   4.207   3.578   6.144
 6693SOL    HW120978   4.284   3.643   6.136
 6693SOL    HW220979   4.227   3.513   6.216
 6694SOL     OW20980   3.203   6.003   6.947
 6694SOL    HW120981   3.165   5.925   6.896
 6694SOL    HW220982   3.140   6.028   7.020
 6695SOL     OW20983   1.779   1.486   0.109
 6695SOL    HW120984   1.827   1.528   0.032
 6695SOL    HW220985   1.681   1.502   0.100
 6696SOL     OW20986   1.579   2.082   1.209
 6696SOL    HW120987   1.482   2.057   1.214
 6696SOL    HW220988   1.628   2.040   1.284
 6697SOL     OW20989   5.194   3.337   4.534
 6697SOL    HW120990   5.238   3.304   4.617
 6697SOL    HW220991   5.244   3.416   4.498
 6698SOL     OW20992   2.723   4.084   6.386
 6698SOL    HW120993   2.760   4.012   6.328
 6698SOL    HW220994   2.759   4.173   6.355
 6699SOL     OW20995   2.004   3.311   6.720
 6699SOL    HW120996   2.065   3.232   6.728
 6699SOL    HW220997   2.008   3.347   6.626
 6700SOL     OW20998   0.159   6.394   6.485
 6700SOL    HW120999   0.111   6.307   6.493
 6700SOL    HW221000   0.106   6.466   6.530
 6701SOL     OW21001   1.408   2.593   0.638
 6701SOL    HW121002   1.361   2.507   0.618
 6701SOL    HW221003   1.342   2.660   0.673
 6702SOL     OW21004   2.414   3.183   0.743
 6702SOL    HW121005   2.508   3.188   0.711
 6702SOL    HW221006   2.378   3.276   0.753
 6703SOL     OW21007   0.189   2.503   0.287
 6703SOL    HW121008   0.157   2.441   0.358
 6703SOL    HW221009   0.284   2.480   0.263
 6704SOL     OW21010   5.273   3.654   2.983
 6704SOL    HW121011   5.226   3.619   3.064
 6704SOL    HW221012   5.339   3.724   3.011
 6705SOL     OW21013   5.153   1.455   1.324
 6705SOL    HW121014   5.123   1.375   1.375
 6705SOL    HW221015   5.169   1.430   1.228
 6706SOL     OW21016   1.527   6.377   0.138
 6706SOL    HW121017   1.496   6.282   0.131
 6706SOL    HW221018   1.622   6.383   0.108
 6707SOL     OW21019   1.550   5.281   2.968
 6707SOL    HW121020   1.521   5.187   2.987
 6707SOL    HW221021   1.478   5.344   2.996
 6708SOL     OW21022   2.356   6.287   1.124
 6708SOL    HW121023   2.319   6.232   1.198
 6708SOL    HW221024   2.451   6.312   1.144
 6709SOL     OW21025   5.237   1.908   3.813
 6709SOL    HW121026   5.186   1.984   3.853
 6709SOL    HW221027   5.204   1.822   3.851
 6710SOL     OW21028   2.468   2.464   0.785
 6710SOL    HW121029   2.421   2.465   0.697
 6710SOL    HW221030   2.567   2.475   0.770
 6711SOL     OW21031   5.916   3.486   6.460
 6711SOL    HW121032   5.966   3.451   6.381
 6711SOL    HW221033   5.856   3.561   6.432
 6712SOL     OW21034   3.428   6.273   1.377
 6712SOL    HW121035   3.451   6.362   1.337
 6712SOL    HW221036   3.331   6.256   1.367
 6713SOL     OW21037   1.391   2.369   3.175
 6713SOL    HW121038   1.304   2.390   3.129
 6713SOL    HW221039   1.372   2.314   3.256
 6714SOL     OW21040   6.675   0.660   4.984
 6714SOL    HW121041   6.729   0.584   5.019
 6714SOL    HW221042   6.649   0.720   5.060
 6715SOL     OW21043   5.284   2.565   0.660
 6715SOL    HW121044   5.187   2.574   0.681
 6715SOL    HW221045   5.314   2.471   0.679
 6716SOL     OW21046   3.599   6.204   0.944
 6716SOL    HW121047   3.538   6.132   0.911
 6716SOL    HW221048   3.620   6.188   1.040
 6717SOL     OW21049   3.933   0.895   6.790
 6717SOL    HW121050   3.943   0.798   6.811
 6717SOL    HW221051   3.880   0.940   6.862
 6718SOL     OW21052   4.020   0.026   6.586
 6718SOL    HW121053   3.945   0.086   6.558
 6718SOL    HW221054   4.095   0.034   6.519
 6719SOL     OW21055   0.533   1.885   5.172
 6719SOL    HW121056   0.493   1.887   5.080
 6719SOL    HW221057   0.471   1.930   5.236
 6720SOL     OW21058   1.346   4.530   1.248
 6720SOL    HW121059   1.376   4.625   1.243
 6720SOL    HW221060   1.247   4.526   1.233
 6721SOL     OW21061   6.287   6.500   2.919
 6721SOL    HW121062   6.188   6.489   2.931
 6721SOL    HW221063   6.333   6.417   2.951
 6722SOL     OW21064   3.900   4.676   0.187
 6722SOL    HW121065   3.805   4.658   0.160
 6722SOL    HW221066   3.960   4.666   0.108
 6723SOL     OW21067   3.640   1.304   2.711
 6723SOL    HW121068   3.602   1.391   2.679
 6723SOL    HW221069   3.739   1.303   2.694
 6724SOL     OW21070   3.686   4.610   5.940
 6724SOL    HW121071   3.772   4.611   5.990
 6724SOL    HW221072   3.613   4.648   5.997
 6725SOL     OW21073   0.588   5.774   1.366
 6725SOL    HW121074   0.633   5.686   1.347
 6725SOL    HW221075   0.603   5.836   1.289
 6726SOL     OW21076   2.363   2.757   1.939
 6726SOL    HW121077   2.297   2.746   1.864
 6726SOL    HW221078   2.454   2.773   1.901
 6727SOL     OW21079   2.586   4.014   0.848
 6727SOL    HW121080   2.684   3.998   0.861
 6727SOL    HW221081   2.534   3.964   0.918
 6728SOL     OW21082   4.803   1.480   4.355
 6728SOL    HW121083   4.830   1.383   4.360
 6728SOL    HW221084   4.884   1.536   4.336
 6729SOL     OW21085   4.769   6.104   3.864
 6729SOL    HW121086   4.788   6.184   3.921
 6729SOL    HW221087   4.670   6.091   3.858
 6730SOL     OW21088   1.248   6.899   2.648
 6730SOL    HW121089   1.286   6.970   2.589
 6730SOL    HW221090   1.153   6.882   2.624
 6731SOL     OW21091   1.876   3.780   1.519
 6731SOL    HW121092   1.923   3.860   1.557
 6731SOL    HW221093   1.777   3.795   1.521
 6732SOL     OW21094   3.454   5.765   0.754
 6732SOL    HW121095   3.503   5.693   0.705
 6732SOL    HW221096   3.365   5.730   0.784
 6733SOL     OW21097   6.456   6.039   4.145
 6733SOL    HW121098   6.394   5.991   4.208
 6733SOL    HW221099   6.482   6.127   4.185
 6734SOL     OW21100   2.420   3.588   6.756
 6734SOL    HW121101   2.370   3.562   6.839
 6734SOL    HW221102   2.393   3.529   6.681
 6735SOL     OW21103   0.934   6.673   6.216
 6735SOL    HW121104   1.009   6.735   6.195
 6735SOL    HW221105   0.930   6.600   6.149
 6736SOL     OW21106   2.056   4.339   2.029
 6736SOL    HW121107   1.978   4.401   2.025
 6736SOL    HW221108   2.057   4.280   1.948
 6737SOL     OW21109   1.560   6.636   1.145
 6737SOL    HW121110   1.618   6.638   1.227
 6737SOL    HW221111   1.493   6.709   1.151
 6738SOL     OW21112   5.001   1.655   1.423
 6738SOL    HW121113   4.960   1.709   1.349
 6738SOL    HW221114   5.051   1.578   1.383
 6739SOL     OW21115   3.501   6.467   5.595
 6739SOL    HW121116   3.465   6.548   5.549
 6739SOL    HW221117   3.600   6.474   5.601
 6740SOL     OW21118   5.633   2.322   6.188
 6740SOL    HW121119   5.605   2.352   6.279
 6740SOL    HW221120   5.733   2.318   6.184
 6741SOL     OW21121   0.531   0.658   5.517
 6741SOL    HW121122   0.483   0.719   5.580
 6741SOL    HW221123   0.626   0.688   5.508
 6742SOL     OW21124   6.168   5.691   4.550
 6742SOL    HW121125   6.084   5.639   4.563
 6742SOL    HW221126   6.157   5.756   4.475
 6743SOL     OW21127   5.734   2.191   1.306
 6743SOL    HW121128   5.775   2.108   1.268
 6743SOL    HW221129   5.648   2.210   1.259
 6744SOL     OW21130   4.577   0.878   4.172
 6744SOL    HW121131   4.494   0.840   4.132
 6744SOL    HW221132   4.598   0.830   4.258
 6745SOL     OW21133   0.893   3.626   2.980
 6745SOL    HW121134   0.797   3.609   2.962
 6745SOL    HW221135   0.908   3.629   3.079
 6746SOL     OW21136   6.090   1.035   0.457
 6746SOL    HW121137   6.038   1.019   0.373
 6746SOL    HW221138   6.134   1.125   0.452
 6747SOL     OW21139   5.018   5.032   6.512
 6747SOL    HW121140   4.930   5.001   6.476
 6747SOL    HW221141   5.031   5.129   6.492
 6748SOL     OW21142   6.825   6.249   2.456
 6748SOL    HW121143   6.789   6.302   2.379
 6748SOL    HW221144   6.914   6.212   2.432
 6749SOL     OW21145   2.786   5.216   1.091
 6749SOL    HW121146   2.880   5.226   1.125
 6749SOL    HW221147   2.782   5.141   1.025
 6750SOL     OW21148   2.480   3.182   5.417
 6750SOL    HW121149   2.393   3.159   5.461
 6750SOL    HW221150   2.496   3.120   5.340
 6751SOL     OW21151   4.144   2.502   5.758
 6751SOL    HW121152   4.223   2.465   5.809
 6751SOL    HW221153   4.089   2.426   5.723
 6752SOL     OW21154   6.497   1.272   0.174
 6752SOL    HW121155   6.483   1.369   0.153
 6752SOL    HW221156   6.426   1.218   0.128
 6753SOL     OW21157   6.158   0.768   6.674
 6753SOL    HW121158   6.246   0.745   6.715
 6753SOL    HW221159   6.143   0.710   6.593
 6754SOL     OW21160   4.316   1.171   6.726
 6754SOL    HW121161   4.383   1.190   6.654
 6754SOL    HW221162   4.231   1.222   6.707
 6755SOL     OW21163   5.289   1.747   3.148
 6755SOL    HW121164   5.384   1.719   3.141
 6755SOL    HW221165   5.269   1.778   3.241
 6756SOL     OW21166   4.668   4.828   3.387
 6756SOL    HW121167   4.726   4.760   3.341
 6756SOL    HW221168   4.685   4.918   3.348
 6757SOL     OW21169   5.982   4.228   1.281
 6757SOL    HW121170   5.999   4.232   1.380
 6757SOL    HW221171   5.971   4.321   1.246
 6758SOL     OW21172   6.413   2.242   2.660
 6758SOL    HW121173   6.460   2.269   2.576
 6758SOL    HW221174   6.364   2.156   2.645
 6759SOL     OW21175   0.416   5.063   3.923
 6759SOL    HW121176   0.354   5.044   3.999
 6759SOL    HW221177   0.409   4.989   3.856
 6760SOL     OW21178   0.678   3.543   4.738
 6760SOL    HW121179   0.594   3.537   4.792
 6760SOL    HW221180   0.655   3.565   4.643
 6761SOL     OW21181   6.276   2.708   6.940
 6761SOL    HW121182   6.184   2.690   6.907
 6761SOL    HW221183   6.280   2.801   6.978
 6762SOL     OW21184   0.070   2.790   4.313
 6762SOL    HW121185   0.156   2.739   4.323
 6762SOL    HW221186   0.043   2.789   4.217
 6763SOL     OW21187   6.115   6.230   5.801
 6763SOL    HW121188   6.163   6.315   5.780
 6763SOL    HW221189   6.062   6.201   5.722
 6764SOL     OW21190   1.740   3.545   0.311
 6764SOL    HW121191   1.716   3.635   0.277
 6764SOL    HW221192   1.780   3.490   0.238
 6765SOL     OW21193   4.749   5.132   1.988
 6765SOL    HW121194   4.684   5.082   2.046
 6765SOL    HW221195   4.842   5.119   2.023
 6766SOL     OW21196   2.953   2.423   5.326
 6766SOL    HW121197   3.034   2.450   5.273
 6766SOL    HW221198   2.886   2.381   5.265
 6767SOL     OW21199   0.525   2.961   5.509
 6767SOL    HW121200   0.617   2.941   5.473
 6767SOL    HW221201   0.473   2.876   5.517
 6768SOL     OW21202   0.017   0.944   6.034
 6768SOL    HW121203   0.026   0.986   5.943
 6768SOL    HW221204   0.088   0.979   6.094
 6769SOL     OW21205   0.937   2.293   6.075
 6769SOL    HW121206   0.883   2.218   6.036
 6769SOL    HW221207   0.907   2.308   6.170
 6770SOL     OW21208   0.713   1.543   3.703
 6770SOL    HW121209   0.667   1.582   3.783
 6770SOL    HW221210   0.712   1.443   3.709
 6771SOL     OW21211   5.343   2.305   2.442
 6771SOL    HW121212   5.400   2.385   2.461
 6771SOL    HW221213   5.320   2.302   2.345
 6772SOL     OW21214   0.990   0.107   1.601
 6772SOL    HW121215   0.935   0.091   1.519
 6772SOL    HW221216   0.991   0.205   1.621
 6773SOL     OW21217   1.796   1.050   2.890
 6773SOL    HW121218   1.856   1.125   2.918
 6773SOL    HW221219   1.711   1.087   2.851
 6774SOL     OW21220   4.203   1.289   5.588
 6774SOL    HW121221   4.137   1.229   5.633
 6774SOL    HW221222   4.251   1.343   5.658
 6775SOL     OW21223   1.584   2.612   4.857
 6775SOL    HW121224   1.582   2.712   4.861
 6775SOL    HW221225   1.619   2.583   4.768
 6776SOL     OW21226   3.271   3.607   3.992
 6776SOL    HW121227   3.335   3.598   4.067
 6776SOL    HW221228   3.294   3.687   3.937
 6777SOL     OW21229   0.259   0.467   5.515
 6777SOL    HW121230   0.237   0.428   5.425
 6777SOL    HW221231   0.354   0.447   5.538
 6778SOL     OW21232   6.078   5.833   2.029
 6778SOL    HW121233   6.131   5.890   1.967
 6778SOL    HW221234   6.087   5.737   2.002
 6779SOL     OW21235   6.028   3.709   5.894
 6779SOL    HW121236   6.104   3.679   5.952
 6779SOL    HW221237   5.941   3.695   5.942
 6780SOL     OW21238   4.888   0.743   2.676
 6780SOL    HW121239   4.842   0.713   2.759
 6780SOL    HW221240   4.848   0.695   2.597
 6781SOL     OW21241   6.063   4.027   3.254
 6781SOL    HW121242   6.081   4.028   3.353
 6781SOL    HW221243   6.046   3.933   3.225
 6782SOL     OW21244   6.895   1.720   2.969
 6782SOL    HW121245   6.966   1.790   2.963
 6782SOL    HW221246   6.908   1.667   3.053
 6783SOL     OW21247   0.806   5.962   6.901
 6783SOL    HW121248   0.836   5.982   6.994
 6783SOL    HW221249   0.715   5.999   6.886
 6784SOL     OW21250   1.622   4.774   6.664
 6784SOL    HW121251   1.669   4.757   6.751
 6784SOL    HW221252   1.547   4.839   6.679
 6785SOL     OW21253   5.264   4.468   2.107
 6785SOL    HW121254   5.307   4.425   2.027
 6785SOL    HW221255   5.270   4.406   2.185
 6786SOL     OW21256   6.221   1.201   5.969
 6786SOL    HW121257   6.235   1.299   5.959
 6786SOL    HW221258   6.178   1.165   5.886
 6787SOL     OW21259   4.536   2.619   1.127
 6787SOL    HW121260   4.460   2.683   1.117
 6787SOL    HW221261   4.512   2.532   1.084
 6788SOL     OW21262   1.409   4.498   0.980
 6788SOL    HW121263   1.398   4.496   1.079
 6788SOL    HW221264   1.323   4.470   0.937
 6789SOL     OW21265   6.094   2.809   2.861
 6789SOL    HW121266   6.113   2.817   2.763
 6789SOL    HW221267   6.149   2.735   2.900
 6790SOL     OW21268   0.553   5.812   0.605
 6790SOL    HW121269   0.516   5.884   0.546
 6790SOL    HW221270   0.490   5.734   0.606
 6791SOL     OW21271   1.726   6.056   4.155
 6791SOL    HW121272   1.745   6.092   4.064
 6791SOL    HW221273   1.657   5.984   4.149
 6792SOL     OW21274   3.284   5.668   0.393
 6792SOL    HW121275   3.208   5.651   0.456
 6792SOL    HW221276   3.315   5.581   0.354
 6793SOL     OW21277   1.635   3.457   6.582
 6793SOL    HW121278   1.582   3.517   6.522
 6793SOL    HW221279   1.731   3.458   6.555
 6794SOL     OW21280   4.722   2.574   4.483
 6794SOL    HW121281   4.651   2.541   4.421
 6794SOL    HW221282   4.681   2.602   4.570
 6795SOL     OW21283   0.769   0.437   2.339
 6795SOL    HW121284   0.707   0.361   2.358
 6795SOL    HW221285   0.752   0.511   2.405
 6796SOL     OW21286   6.472   2.618   2.126
 6796SOL    HW121287   6.472   2.530   2.079
 6796SOL    HW221288   6.424   2.685   2.070
 6797SOL     OW21289   1.607   3.482   0.659
 6797SOL    HW121290   1.575   3.394   0.692
 6797SOL    HW221291   1.560   3.555   0.709
 6798SOL     OW21292   4.893   1.804   1.635
 6798SOL    HW121293   4.818   1.789   1.699
 6798SOL    HW221294   4.887   1.738   1.560
 6799SOL     OW21295   4.754   0.341   2.854
 6799SOL    HW121296   4.801   0.260   2.890
 6799SOL    HW221297   4.790   0.423   2.898
 6800SOL     OW21298   6.184   2.497   2.214
 6800SOL    HW121299   6.141   2.573   2.264
 6800SOL    HW221300   6.261   2.533   2.161
 6801SOL     OW21301   2.184   5.199   5.218
 6801SOL    HW121302   2.236   5.134   5.162
 6801SOL    HW221303   2.087   5.193   5.196
 6802SOL     OW21304   2.684   4.203   1.525
 6802SOL    HW121305   2.590   4.194   1.557
 6802SOL    HW221306   2.737   4.123   1.553
 6803SOL     OW21307   6.249   5.483   6.202
 6803SOL    HW121308   6.251   5.577   6.234
 6803SOL    HW221309   6.340   5.458   6.168
 6804SOL     OW21310   3.418   5.290   1.636
 6804SOL    HW121311   3.497   5.293   1.697
 6804SOL    HW221312   3.358   5.215   1.663
 6805SOL     OW21313   0.805   4.089   3.948
 6805SOL    HW121314   0.715   4.132   3.956
 6805SOL    HW221315   0.875   4.155   3.974
 6806SOL     OW21316   6.106   3.971   2.227
 6806SOL    HW121317   6.093   3.873   2.241
 6806SOL    HW221318   6.180   4.002   2.287
 6807SOL     OW21319   4.077   3.762   2.689
 6807SOL    HW121320   4.161   3.771   2.636
 6807SOL    HW221321   4.006   3.720   2.632
 6808SOL     OW21322   2.972   6.539   4.184
 6808SOL    HW121323   3.045   6.493   4.134
 6808SOL    HW221324   2.909   6.471   4.221
 6809SOL     OW21325   5.919   2.839   0.525
 6809SOL    HW121326   6.008   2.883   0.535
 6809SOL    HW221327   5.931   2.739   0.526
 6810SOL     OW21328   3.181   0.043   4.596
 6810SOL    HW121329   3.280   0.056   4.600
 6810SOL    HW221330   3.161   6.973   4.602
 6811SOL     OW21331   6.484   1.841   1.118
 6811SOL    HW121332   6.502   1.849   1.216
 6811SOL    HW221333   6.563   1.876   1.066
 6812SOL     OW21334   3.386   4.591   5.313
 6812SOL    HW121335   3.383   4.595   5.413
 6812SOL    HW221336   3.372   4.682   5.275
 6813SOL     OW21337   0.244   3.844   2.094
 6813SOL    HW121338   0.303   3.922   2.074
 6813SOL    HW221339   0.300   3.763   2.110
 6814SOL     OW21340   4.494   2.337   1.456
 6814SOL    HW121341   4.452   2.247   1.447
 6814SOL    HW221342   4.538   2.346   1.545
 6815SOL     OW21343   1.719   6.174   0.740
 6815SOL    HW121344   1.780   6.253   0.733
 6815SOL    HW221345   1.640   6.197   0.796
 6816SOL     OW21346   5.732   0.148   3.483
 6816SOL    HW121347   5.734   0.186   3.575
 6816SOL    HW221348   5.745   0.221   3.416
 6817SOL     OW21349   5.767   1.002   1.196
 6817SOL    HW121350   5.866   1.014   1.191
 6817SOL    HW221351   5.745   0.927   1.258
 6818SOL     OW21352   6.990   0.314   5.538
 6818SOL    HW121353   0.003   0.370   5.467
 6818SOL    HW221354   6.896   0.291   5.513
 6819SOL     OW21355   6.013   3.637   0.631
 6819SOL    HW121356   6.059   3.582   0.561
 6819SOL    HW221357   6.079   3.696   0.677
 6820SOL     OW21358   2.180   4.352   0.931
 6820SOL    HW121359   2.140   4.314   0.847
 6820SOL    HW221360   2.269   4.310   0.947
 6821SOL     OW21361   2.539   3.282   5.780
 6821SOL    HW121362   2.570   3.375   5.803
 6821SOL    HW221363   2.613   3.217   5.798
 6822SOL     OW21364   0.193   4.556   5.065
 6822SOL    HW121365   0.201   4.482   5.131
 6822SOL    HW221366   0.149   4.523   4.982
 6823SOL     OW21367   6.999   3.417   5.828
 6823SOL    HW121368   0.001   3.362   5.750
 6823SOL    HW221369   6.979   3.357   5.905
 6824SOL     OW21370   0.442   0.483   4.143
 6824SOL    HW121371   0.471   0.459   4.236
 6824SOL    HW221372   0.372   0.554   4.147
 6825SOL     OW21373   5.028   4.788   1.411
 6825SOL    HW121374   4.929   4.772   1.409
 6825SOL    HW221375   5.046   4.886   1.416
 6826SOL     OW21376   5.838   0.617   4.378
 6826SOL    HW121377   5.817   0.663   4.292
 6826SOL    HW221378   5.757   0.619   4.437
 6827SOL     OW21379   5.183   5.101   5.471
 6827SOL    HW121380   5.230   5.014   5.455
 6827SOL    HW221381   5.180   5.119   5.569
 6828SOL     OW21382   2.615   1.901   2.660
 6828SOL    HW121383   2.587   1.806   2.648
 6828SOL    HW221384   2.711   1.905   2.685
 6829SOL     OW21385   5.783   6.949   4.763
 6829SOL    HW121386   5.765   6.918   4.856
 6829SOL    HW221387   5.697   6.949   4.711
 6830SOL     OW21388   3.444   6.536   2.463
 6830SOL    HW121389   3.352   6.561   2.432
 6830SOL    HW221390   3.456   6.437   2.453
 6831SOL     OW21391   2.306   0.468   0.244
 6831SOL    HW121392   2.341   0.450   0.152
 6831SOL    HW221393   2.361   0.539   0.287
 6832SOL     OW21394   3.318   3.833   0.422
 6832SOL    HW121395   3.222   3.839   0.446
 6832SOL    HW221396   3.343   3.736   0.410
 6833SOL     OW21397   4.404   5.450   0.096
 6833SOL    HW121398   4.395   5.365   0.044
 6833SOL    HW221399   4.329   5.511   0.072
 6834SOL     OW21400   6.510   5.638   5.181
 6834SOL    HW121401   6.455   5.608   5.103
 6834SOL    HW221402   6.549   5.559   5.227
 6835SOL     OW21403   3.987   0.396   2.604
 6835SOL    HW121404   4.074   0.355   2.577
 6835SOL    HW221405   3.915   0.328   2.600
 6836SOL     OW21406   1.068   4.735   6.194
 6836SOL    HW121407   1.056   4.735   6.294
 6836SOL    HW221408   1.041   4.824   6.158
 6837SOL     OW21409   6.288   2.434   1.751
 6837SOL    HW121410   6.209   2.421   1.691
 6837SOL    HW221411   6.370   2.448   1.695
 6838SOL     OW21412   2.059   4.327   0.167
 6838SOL    HW121413   2.083   4.375   0.251
 6838SOL    HW221414   1.985   4.263   0.186
 6839SOL     OW21415   6.264   2.285   5.436
 6839SOL    HW121416   6.186   2.270   5.497
 6839SOL    HW221417   6.256   2.375   5.393
 6840SOL     OW21418   3.180   0.404   4.242
 6840SOL    HW121419   3.180   0.459   4.159
 6840SOL    HW221420   3.093   0.415   4.289
 6841SOL     OW21421   4.637   6.018   0.724
 6841SOL    HW121422   4.626   5.927   0.683
 6841SOL    HW221423   4.623   6.012   0.823
 6842SOL     OW21424   0.756   3.436   3.531
 6842SOL    HW121425   0.845   3.481   3.544
 6842SOL    HW221426   0.767   3.355   3.475
 6843SOL     OW21427   4.392   3.082   1.735
 6843SOL    HW121428   4.479   3.068   1.783
 6843SOL    HW221429   4.345   2.995   1.725
 6844SOL     OW21430   3.388   6.439   4.606
 6844SOL    HW121431   3.302   6.419   4.560
 6844SOL    HW221432   3.449   6.486   4.543
 6845SOL     OW21433   3.367   3.939   0.079
 6845SOL    HW121434   3.368   3.839   0.075
 6845SOL    HW221435   3.409   3.969   0.165
 6846SOL     OW21436   4.036   3.198   3.881
 6846SOL    HW121437   4.054   3.124   3.946
 6846SOL    HW221438   3.969   3.260   3.920
 6847SOL     OW21439   5.348   3.907   1.719
 6847SOL    HW121440   5.415   3.981   1.708
 6847SOL    HW221441   5.274   3.938   1.779
 6848SOL     OW21442   0.780   6.195   4.621
 6848SOL    HW121443   0.878   6.190   4.600
 6848SOL    HW221444   0.730   6.130   4.564
 6849SOL     OW21445   2.714   0.179   4.737
 6849SOL    HW121446   2.777   0.227   4.797
 6849SOL    HW221447   2.722   0.080   4.752
 6850SOL     OW21448   6.630   3.166   1.785
 6850SOL    HW121449   6.561   3.226   1.827
 6850SOL    HW221450   6.696   3.138   1.855
 6851SOL     OW21451   1.723   5.736   0.705
 6851SOL    HW121452   1.630   5.773   0.707
 6851SOL    HW221453   1.772   5.772   0.626
 6852SOL     OW21454   5.038   4.761   2.335
 6852SOL    HW121455   4.952   4.719   2.364
 6852SOL    HW221456   5.114   4.707   2.370
 6853SOL     OW21457   6.037   4.240   4.309
 6853SOL    HW121458   6.004   4.197   4.394
 6853SOL    HW221459   6.126   4.281   4.325
 6854SOL     OW21460   6.162   1.105   6.605
 6854SOL    HW121461   6.169   1.164   6.524
 6854SOL    HW221462   6.246   1.052   6.615
 6855SOL     OW21463   2.534   6.880   2.220
 6855SOL    HW121464   2.476   6.799   2.218
 6855SOL    HW221465   2.613   6.865   2.160
 6856SOL     OW21466   0.715   5.455   5.786
 6856SOL    HW121467   0.712   5.378   5.722
 6856SOL    HW221468   0.792   5.514   5.763
 6857SOL     OW21469   4.666   0.766   6.916
 6857SOL    HW121470   4.628   0.845   6.867
 6857SOL    HW221471   4.697   0.698   6.850
 6858SOL     OW21472   3.345   2.801   6.337
 6858SOL    HW121473   3.356   2.900   6.326
 6858SOL    HW221474   3.362   2.756   6.249
 6859SOL     OW21475   4.383   0.401   1.475
 6859SOL    HW121476   4.305   0.456   1.507
 6859SOL    HW221477   4.355   0.347   1.396
 6860SOL     OW21478   5.013   3.109   0.071
 6860SOL    HW121479   5.005   3.158   0.157
 6860SOL    HW221480   5.102   3.128   0.029
 6861SOL     OW21481   6.625   3.780   0.116
 6861SOL    HW121482   6.692   3.823   0.055
 6861SOL    HW221483   6.655   3.791   0.211
 6862SOL     OW21484   2.470   4.495   4.728
 6862SOL    HW121485   2.459   4.582   4.681
 6862SOL    HW221486   2.463   4.420   4.662
 6863SOL     OW21487   1.241   3.551   3.643
 6863SOL    HW121488   1.329   3.516   3.609
 6863SOL    HW221489   1.250   3.574   3.740
 6864SOL     OW21490   3.019   5.555   6.101
 6864SOL    HW121491   3.045   5.613   6.178
 6864SOL    HW221492   3.101   5.516   6.059
 6865SOL     OW21493   0.876   2.322   5.488
 6865SOL    HW121494   0.952   2.373   5.448
 6865SOL    HW221495   0.897   2.299   5.582
 6866SOL     OW21496   0.746   4.017   2.764
 6866SOL    HW121497   0.669   4.066   2.723
 6866SOL    HW221498   0.719   3.923   2.783
 6867SOL     OW21499   2.778   5.216   3.721
 6867SOL    HW121500   2.745   5.304   3.689
 6867SOL    HW221501   2.720   5.183   3.796
 6868SOL     OW21502   1.849   5.538   4.839
 6868SOL    HW121503   1.790   5.549   4.759
 6868SOL    HW221504   1.798   5.558   4.922
 6869SOL     OW21505   0.163   2.809   4.694
 6869SOL    HW121506   0.169   2.800   4.794
 6869SOL    HW221507   0.080   2.860   4.671
 6870SOL     OW21508   5.421   4.015   2.884
 6870SOL    HW121509   5.399   3.965   2.800
 6870SOL    HW221510   5.508   4.063   2.872
 6871SOL     OW21511   4.274   6.038   1.816
 6871SOL    HW121512   4.347   5.990   1.768
 6871SOL    HW221513   4.307   6.067   1.907
 6872SOL     OW21514   3.245   4.429   0.778
 6872SOL    HW121515   3.267   4.489   0.701
 6872SOL    HW221516   3.215   4.485   0.856
 6873SOL     OW21517   5.503   4.948   5.063
 6873SOL    HW121518   5.419   4.946   5.008
 6873SOL    HW221519   5.503   5.030   5.120
 6874SOL     OW21520   1.194   1.789   6.456
 6874SOL    HW121521   1.205   1.859   6.526
 6874SOL    HW221522   1.109   1.738   6.472
 6875SOL     OW21523   4.030   0.115   4.985
 6875SOL    HW121524   4.053   0.160   5.071
 6875SOL    HW221525   4.086   0.033   4.975
 6876SOL     OW21526   3.189   6.153   4.743
 6876SOL    HW121527   3.258   6.087   4.771
 6876SOL    HW221528   3.100   6.107   4.737
 6877SOL     OW21529   2.113   3.687   6.973
 6877SOL    HW121530   2.042   3.629   6.933
 6877SOL    HW221531   2.084   3.782   6.970
 6878SOL     OW21532   1.603   1.835   5.054
 6878SOL    HW121533   1.649   1.753   5.089
 6878SOL    HW221534   1.521   1.808   5.003
 6879SOL     OW21535   6.315   1.716   5.750
 6879SOL    HW121536   6.342   1.688   5.842
 6879SOL    HW221537   6.385   1.686   5.685
 6880SOL     OW21538   0.988   4.367   4.684
 6880SOL    HW121539   0.976   4.269   4.665
 6880SOL    HW221540   0.948   4.389   4.773
 6881SOL     OW21541   4.898   6.190   1.310
 6881SOL    HW121542   4.904   6.095   1.277
 6881SOL    HW221543   4.945   6.197   1.398
 6882SOL     OW21544   2.465   5.819   5.381
 6882SOL    HW121545   2.409   5.738   5.397
 6882SOL    HW221546   2.421   5.898   5.423
 6883SOL     OW21547   2.809   6.451   1.894
 6883SOL    HW121548   2.726   6.419   1.939
 6883SOL    HW221549   2.862   6.507   1.958
 6884SOL     OW21550   1.726   4.608   3.078
 6884SOL    HW121551   1.725   4.586   2.980
 6884SOL    HW221552   1.808   4.661   3.099
 6885SOL     OW21553   4.384   4.825   4.634
 6885SOL    HW121554   4.399   4.730   4.661
 6885SOL    HW221555   4.326   4.870   4.702
 6886SOL     OW21556   5.280   0.038   0.996
 6886SOL    HW121557   5.349   0.074   0.933
 6886SOL    HW221558   5.301   0.067   1.089
 6887SOL     OW21559   6.390   1.041   4.949
 6887SOL    HW121560   6.436   1.120   4.991
 6887SOL    HW221561   6.333   0.995   5.017
 6888SOL     OW21562   6.520   6.950   3.966
 6888SOL    HW121563   6.520   6.973   3.869
 6888SOL    HW221564   6.540   0.004   4.019
 6889SOL     OW21565   2.015   3.796   6.619
 6889SOL    HW121566   2.058   3.885   6.629
 6889SOL    HW221567   2.083   3.729   6.589
 6890SOL     OW21568   1.348   0.477   1.490
 6890SOL    HW121569   1.318   0.381   1.494
 6890SOL    HW221570   1.313   0.527   1.569
 6891SOL     OW21571   4.733   5.253   6.112
 6891SOL    HW121572   4.732   5.215   6.204
 6891SOL    HW221573   4.786   5.192   6.052
 6892SOL     OW21574   3.251   1.925   4.477
 6892SOL    HW121575   3.155   1.948   4.459
 6892SOL    HW221576   3.289   1.992   4.541
 6893SOL     OW21577   4.970   6.734   1.159
 6893SOL    HW121578   4.906   6.678   1.211
 6893SOL    HW221579   5.035   6.777   1.221
 6894SOL     OW21580   6.020   4.966   5.718
 6894SOL    HW121581   6.109   4.926   5.696
 6894SOL    HW221582   6.033   5.048   5.774
 6895SOL     OW21583   4.866   5.081   5.039
 6895SOL    HW121584   4.789   5.042   5.090
 6895SOL    HW221585   4.913   5.009   4.989
 6896SOL     OW21586   5.468   2.093   2.566
 6896SOL    HW121587   5.407   2.170   2.547
 6896SOL    HW221588   5.415   2.017   2.602
 6897SOL     OW21589   3.971   1.049   1.562
 6897SOL    HW121590   4.060   1.004   1.559
 6897SOL    HW221591   3.951   1.089   1.473
 6898SOL     OW21592   3.518   1.352   2.186
 6898SOL    HW121593   3.586   1.302   2.132
 6898SOL    HW221594   3.476   1.290   2.253
 6899SOL     OW21595   5.907   4.750   5.874
 6899SOL    HW121596   5.928   4.659   5.839
 6899SOL    HW221597   5.930   4.818   5.804
 6900SOL     OW21598   4.101   0.255   6.214
 6900SOL    HW121599   4.055   0.270   6.302
 6900SOL    HW221600   4.103   0.341   6.163
 6901SOL     OW21601   1.996   0.434   0.170
 6901SOL    HW121602   2.077   0.483   0.136
 6901SOL    HW221603   2.022   0.376   0.247
 6902SOL     OW21604   6.369   5.835   3.073
 6902SOL    HW121605   6.466   5.816   3.066
 6902SOL    HW221606   6.317   5.768   3.020
 6903SOL     OW21607   6.226   4.325   6.777
 6903SOL    HW121608   6.279   4.349   6.696
 6903SOL    HW221609   6.147   4.270   6.749
 6904SOL     OW21610   0.538   1.153   2.800
 6904SOL    HW121611   0.452   1.152   2.749
 6904SOL    HW221612   0.518   1.141   2.898
 6905SOL     OW21613   3.859   5.508   0.850
 6905SOL    HW121614   3.772   5.503   0.900
 6905SOL    HW221615   3.850   5.573   0.775
 6906SOL     OW21616   6.080   6.285   2.395
 6906SOL    HW121617   6.066   6.193   2.357
 6906SOL    HW221618   6.020   6.350   2.347
 6907SOL     OW21619   3.486   0.839   1.472
 6907SOL    HW121620   3.396   0.878   1.451
 6907SOL    HW221621   3.520   0.789   1.392
 6908SOL     OW21622   5.449   6.812   0.050
 6908SOL    HW121623   5.388   6.877   0.005
 6908SOL    HW221624   5.477   6.848   0.139
 6909SOL     OW21625   2.482   2.197   0.123
 6909SOL    HW121626   2.444   2.152   0.043
 6909SOL    HW221627   2.513   2.128   0.189
 6910SOL     OW21628   4.927   1.053   0.931
 6910SOL    HW121629   4.940   0.974   0.992
 6910SOL    HW221630   4.830   1.074   0.924
 6911SOL     OW21631   3.825   0.088   4.447
 6911SOL    HW121632   3.862   0.165   4.499
 6911SOL    HW221633   3.901   0.035   4.408
 6912SOL     OW21634   3.937   5.739   1.594
 6912SOL    HW121635   4.016   5.677   1.583
 6912SOL    HW221636   3.853   5.689   1.576
 6913SOL     OW21637   4.371   6.002   5.964
 6913SOL    HW121638   4.315   5.919   5.965
 6913SOL    HW221639   4.468   5.976   5.962
 6914SOL     OW21640   0.291   4.913   0.328
 6914SOL    HW121641   0.241   4.827   0.334
 6914SOL    HW221642   0.353   4.909   0.249
 6915SOL     OW21643   0.523   6.870   0.514
 6915SOL    HW121644   0.483   6.956   0.484
 6915SOL    HW221645   0.573   6.884   0.599
 6916SOL     OW21646   6.112   0.901   5.784
 6916SOL    HW121647   6.122   0.939   5.692
 6916SOL    HW221648   6.015   0.886   5.803
 6917SOL     OW21649   4.258   6.191   5.801
 6917SOL    HW121650   4.189   6.228   5.863
 6917SOL    HW221651   4.304   6.113   5.844
 6918SOL     OW21652   2.069   2.372   3.442
 6918SOL    HW121653   2.019   2.457   3.455
 6918SOL    HW221654   2.051   2.336   3.351
 6919SOL     OW21655   1.784   6.146   3.892
 6919SOL    HW121656   1.856   6.088   3.855
 6919SOL    HW221657   1.707   6.148   3.828
 6920SOL     OW21658   5.444   5.741   4.468
 6920SOL    HW121659   5.396   5.695   4.542
 6920SOL    HW221660   5.450   5.680   4.389
 6921SOL     OW21661   2.058   4.719   2.933
 6921SOL    HW121662   2.067   4.675   3.023
 6921SOL    HW221663   1.980   4.782   2.934
 6922SOL     OW21664   1.900   6.168   1.408
 6922SOL    HW121665   1.998   6.153   1.389
 6922SOL    HW221666   1.890   6.234   1.482
 6923SOL     OW21667   5.186   5.166   4.304
 6923SOL    HW121668   5.146   5.094   4.247
 6923SOL    HW221669   5.284   5.174   4.285
 6924SOL     OW21670   5.630   6.039   2.404
 6924SOL    HW121671   5.546   6.009   2.358
 6924SOL    HW221672   5.613   6.046   2.503
 6925SOL     OW21673   4.340   5.604   2.170
 6925SOL    HW121674   4.333   5.672   2.242
 6925SOL    HW221675   4.352   5.513   2.211
 6926SOL     OW21676   3.017   3.748   5.422
 6926SOL    HW121677   2.998   3.822   5.358
 6926SOL    HW221678   2.988   3.775   5.514
 6927SOL     OW21679   3.823   3.934   0.470
 6927SOL    HW121680   3.776   3.959   0.555
 6927SOL    HW221681   3.786   3.987   0.394
 6928SOL     OW21682   6.805   0.704   6.725
 6928SOL    HW121683   6.876   0.668   6.664
 6928SOL    HW221684   6.715   0.677   6.689
 6929SOL     OW21685   3.315   5.652   1.344
 6929SOL    HW121686   3.256   5.588   1.294
 6929SOL    HW221687   3.258   5.714   1.397
 6930SOL     OW21688   6.877   0.891   2.969
 6930SOL    HW121689   6.899   0.839   3.052
 6930SOL    HW221690   6.837   0.830   2.901
 6931SOL     OW21691   3.099   0.221   0.907
 6931SOL    HW121692   3.165   0.295   0.923
 6931SOL    HW221693   3.121   0.144   0.966
 6932SOL     OW21694   2.893   2.459   0.273
 6932SOL    HW121695   2.891   2.471   0.372
 6932SOL    HW221696   2.950   2.380   0.250
 6933SOL     OW21697   2.697   5.964   5.182
 6933SOL    HW121698   2.689   5.870   5.214
 6933SOL    HW221699   2.780   6.006   5.220
 6934SOL     OW21700   5.477   4.531   6.087
 6934SOL    HW121701   5.474   4.629   6.106
 6934SOL    HW221702   5.572   4.499   6.095
 6935SOL     OW21703   4.347   5.803   3.549
 6935SOL    HW121704   4.352   5.708   3.517
 6935SOL    HW221705   4.388   5.863   3.481
 6936SOL     OW21706   0.799   4.468   0.904
 6936SOL    HW121707   0.880   4.439   0.954
 6936SOL    HW221708   0.802   4.430   0.811
 6937SOL     OW21709   4.513   5.845   6.229
 6937SOL    HW121710   4.425   5.820   6.269
 6937SOL    HW221711   4.580   5.861   6.301
 6938SOL     OW21712   6.599   2.366   5.371
 6938SOL    HW121713   6.677   2.350   5.311
 6938SOL    HW221714   6.539   2.434   5.330
 6939SOL     OW21715   6.350   4.613   1.689
 6939SOL    HW121716   6.312   4.640   1.777
 6939SOL    HW221717   6.435   4.563   1.703
 6940SOL     OW21718   4.416   0.276   4.210
 6940SOL    HW121719   4.444   0.205   4.274
 6940SOL    HW221720   4.371   0.350   4.259
 6941SOL     OW21721   3.237   2.928   5.003
 6941SOL    HW121722   3.252   2.845   5.057
 6941SOL    HW221723   3.164   2.982   5.045
 6942SOL     OW21724   6.281   1.721   6.478
 6942SOL    HW121725   6.248   1.633   6.512
 6942SOL    HW221726   6.203   1.778   6.451
 6943SOL     OW21727   5.994   5.165   0.093
 6943SOL    HW121728   6.029   5.082   0.136
 6943SOL    HW221729   5.985   5.150   7.023
 6944SOL     OW21730   1.157   6.789   0.247
 6944SOL    HW121731   1.219   6.712   0.266
 6944SOL    HW221732   1.121   6.824   0.333
 6945SOL     OW21733   3.947   1.650   6.939
 6945SOL    HW121734   3.981   1.607   7.023
 6945SOL    HW221735   4.025   1.673   6.880
 6946SOL     OW21736   6.176   4.340   2.159
 6946SOL    HW121737   6.239   4.346   2.082
 6946SOL    HW221738   6.099   4.403   2.144
 6947SOL     OW21739   3.661   6.636   1.083
 6947SOL    HW121740   3.640   6.722   1.036
 6947SOL    HW221741   3.741   6.594   1.040
 6948SOL     OW21742   3.562   1.715   5.710
 6948SOL    HW121743   3.589   1.623   5.738
 6948SOL    HW221744   3.578   1.779   5.784
 6949SOL     OW21745   5.306   0.500   2.050
 6949SOL    HW121746   5.395   0.488   2.005
 6949SOL    HW221747   5.259   0.580   2.011
 6950SOL     OW21748   3.495   1.639   3.174
 6950SOL    HW121749   3.477   1.550   3.131
 6950SOL    HW221750   3.578   1.632   3.230
 6951SOL     OW21751   4.937   3.930   5.662
 6951SOL    HW121752   5.006   3.862   5.687
 6951SOL    HW221753   4.851   3.883   5.640
 6952SOL     OW21754   0.075   3.578   6.600
 6952SOL    HW121755   0.032   3.504   6.653
 6952SOL    HW221756   0.107   3.649   6.663
 6953SOL     OW21757   5.564   2.367   4.764
 6953SOL    HW121758   5.613   2.393   4.847
 6953SOL    HW221759   5.630   2.356   4.689
 6954SOL     OW21760   0.117   4.402   1.721
 6954SOL    HW121761   0.168   4.487   1.736
 6954SOL    HW221762   0.063   4.381   1.802
 6955SOL     OW21763   6.587   0.635   3.877
 6955SOL    HW121764   6.577   0.733   3.894
 6955SOL    HW221765   6.506   0.601   3.830
 6956SOL     OW21766   3.159   3.857   1.451
 6956SOL    HW121767   3.178   3.796   1.528
 6956SOL    HW221768   3.061   3.862   1.436
 6957SOL     OW21769   0.913   4.713   0.356
 6957SOL    HW121770   0.918   4.631   0.300
 6957SOL    HW221771   0.863   4.693   0.440
 6958SOL     OW21772   2.106   3.602   5.621
 6958SOL    HW121773   2.047   3.612   5.541
 6958SOL    HW221774   2.050   3.594   5.703
 6959SOL     OW21775   4.099   0.787   4.943
 6959SOL    HW121776   4.087   0.749   5.035
 6959SOL    HW221777   4.148   0.722   4.886
 6960SOL     OW21778   1.236   5.861   6.740
 6960SOL    HW121779   1.147   5.829   6.707
 6960SOL    HW221780   1.308   5.811   6.691
 6961SOL     OW21781   6.093   1.080   3.569
 6961SOL    HW121782   6.054   1.171   3.576
 6961SOL    HW221783   6.163   1.078   3.498
 6962SOL     OW21784   2.912   3.386   0.958
 6962SOL    HW121785   2.859   3.301   0.948
 6962SOL    HW221786   2.858   3.453   1.009
 6963SOL     OW21787   6.273   5.523   1.938
 6963SOL    HW121788   6.206   5.569   1.880
 6963SOL    HW221789   6.347   5.586   1.960
 6964SOL     OW21790   3.677   5.085   5.663
 6964SOL    HW121791   3.775   5.106   5.656
 6964SOL    HW221792   3.631   5.114   5.579
 6965SOL     OW21793   6.544   1.498   5.986
 6965SOL    HW121794   6.617   1.488   5.918
 6965SOL    HW221795   6.572   1.453   6.071
 6966SOL     OW21796   4.792   1.897   4.012
 6966SOL    HW121797   4.744   1.811   3.997
 6966SOL    HW221798   4.886   1.879   4.040
 6967SOL     OW21799   3.004   2.657   6.179
 6967SOL    HW121800   3.012   2.702   6.268
 6967SOL    HW221801   3.031   2.721   6.107
 6968SOL     OW21802   4.300   0.405   3.818
 6968SOL    HW121803   4.233   0.449   3.758
 6968SOL    HW221804   4.392   0.418   3.781
 6969SOL     OW21805   3.456   3.227   0.740
 6969SOL    HW121806   3.531   3.170   0.772
 6969SOL    HW221807   3.399   3.254   0.818
 6970SOL     OW21808   5.156   4.285   0.590
 6970SOL    HW121809   5.196   4.198   0.559
 6970SOL    HW221810   5.064   4.268   0.625
 6971SOL     OW21811   6.076   1.548   2.283
 6971SOL    HW121812   6.085   1.458   2.326
 6971SOL    HW221813   6.126   1.616   2.336
 6972SOL     OW21814   5.062   5.613   4.469
 6972SOL    HW121815   4.986   5.669   4.501
 6972SOL    HW221816   5.026   5.533   4.420
 6973SOL     OW21817   1.146   3.876   3.823
 6973SOL    HW121818   1.193   3.964   3.815
 6973SOL    HW221819   1.208   3.809   3.865
 6974SOL     OW21820   3.208   4.131   4.958
 6974SOL    HW121821   3.227   4.203   5.024
 6974SOL    HW221822   3.292   4.107   4.909
 6975SOL     OW21823   1.844   6.823   6.728
 6975SOL    HW121824   1.818   6.843   6.634
 6975SOL    HW221825   1.836   6.725   6.745
 6976SOL     OW21826   1.006   5.962   0.884
 6976SOL    HW121827   1.029   6.055   0.912
 6976SOL    HW221828   0.967   5.913   0.962
 6977SOL     OW21829   5.085   3.134   1.553
 6977SOL    HW121830   5.080   3.156   1.455
 6977SOL    HW221831   5.080   3.218   1.606
 6978SOL     OW21832   4.558   2.480   3.259
 6978SOL    HW121833   4.579   2.396   3.208
 6978SOL    HW221834   4.642   2.532   3.274
 6979SOL     OW21835   0.087   3.938   4.679
 6979SOL    HW121836   0.081   3.992   4.595
 6979SOL    HW221837   0.026   3.859   4.671
 6980SOL     OW21838   4.777   1.820   4.893
 6980SOL    HW121839   4.742   1.850   4.804
 6980SOL    HW221840   4.877   1.825   4.892
 6981SOL     OW21841   3.320   3.876   6.352
 6981SOL    HW121842   3.366   3.960   6.379
 6981SOL    HW221843   3.377   3.797   6.376
 6982SOL     OW21844   0.606   6.995   4.580
 6982SOL    HW121845   0.608   0.044   4.517
 6982SOL    HW221846   0.643   7.023   4.669
 6983SOL     OW21847   6.088   1.012   3.188
 6983SOL    HW121848   6.129   0.921   3.195
 6983SOL    HW221849   5.989   1.004   3.190
 6984SOL     OW21850   1.671   1.253   6.049
 6984SOL    HW121851   1.580   1.234   6.085
 6984SOL    HW221852   1.666   1.267   5.950
 6985SOL     OW21853   5.149   6.487   4.091
 6985SOL    HW121854   5.194   6.398   4.084
 6985SOL    HW221855   5.066   6.478   4.147
 6986SOL     OW21856   1.644   6.200   5.252
 6986SOL    HW121857   1.651   6.267   5.326
 6986SOL    HW221858   1.625   6.248   5.166
 6987SOL     OW21859   6.796   3.675   6.453
 6987SOL    HW121860   6.748   3.597   6.493
 6987SOL    HW221861   6.855   3.644   6.378
 6988SOL     OW21862   5.900   1.575   5.993
 6988SOL    HW121863   5.881   1.487   5.949
 6988SOL    HW221864   5.828   1.640   5.969
 6989SOL     OW21865   1.814   3.575   4.489
 6989SOL    HW121866   1.774   3.660   4.455
 6989SOL    HW221867   1.910   3.590   4.511
 6990SOL     OW21868   4.581   3.653   1.249
 6990SOL    HW121869   4.541   3.745   1.254
 6990SOL    HW221870   4.618   3.628   1.339
 6991SOL     OW21871   4.072   4.667   5.400
 6991SOL    HW121872   4.020   4.741   5.441
 6991SOL    HW221873   4.046   4.580   5.441
 6992SOL     OW21874   6.336   6.515   4.854
 6992SOL    HW121875   6.287   6.484   4.935
 6992SOL    HW221876   6.272   6.521   4.777
 6993SOL     OW21877   0.379   6.981   2.682
 6993SOL    HW121878   0.323   6.907   2.644
 6993SOL    HW221879   0.465   6.943   2.717
 6994SOL     OW21880   1.698   2.298   0.359
 6994SOL    HW121881   1.647   2.220   0.325
 6994SOL    HW221882   1.743   2.275   0.445
 6995SOL     OW21883   0.968   5.512   3.825
 6995SOL    HW121884   0.887   5.456   3.844
 6995SOL    HW221885   0.945   5.581   3.756
 6996SOL     OW21886   1.956   6.845   5.484
 6996SOL    HW121887   1.909   6.933   5.472
 6996SOL    HW221888   1.891   6.771   5.470
 6997SOL     OW21889   4.616   5.458   4.372
 6997SOL    HW121890   4.636   5.398   4.295
 6997SOL    HW221891   4.517   5.467   4.384
 6998SOL     OW21892   2.692   1.972   2.308
 6998SOL    HW121893   2.713   2.048   2.246
 6998SOL    HW221894   2.777   1.927   2.337
 6999SOL     OW21895   5.341   1.803   6.529
 6999SOL    HW121896   5.408   1.775   6.598
 6999SOL    HW221897   5.358   1.753   6.444
 7000SOL     OW21898   0.104   0.232   1.401
 7000SOL    HW121899   0.166   0.299   1.443
 7000SOL    HW221900   0.060   0.178   1.472
 7001SOL     OW21901   2.993   1.316   6.730
 7001SOL    HW121902   2.921   1.382   6.752
 7001SOL    HW221903   3.044   1.348   6.651
 7002SOL     OW21904   2.649   4.872   2.216
 7002SOL    HW121905   2.651   4.772   2.204
 7002SOL    HW221906   2.669   4.915   2.128
 7003SOL     OW21907   2.174   6.409   5.630
 7003SOL    HW121908   2.077   6.432   5.628
 7003SOL    HW221909   2.188   6.321   5.583
 7004SOL     OW21910   1.743   3.806   6.766
 7004SOL    HW121911   1.697   3.717   6.769
 7004SOL    HW221912   1.828   3.798   6.714
 7005SOL     OW21913   6.578   0.003   6.218
 7005SOL    HW121914   6.555   0.099   6.231
 7005SOL    HW221915   6.520   6.993   6.146
 7006SOL     OW21916   4.960   5.346   4.394
 7006SOL    HW121917   5.045   5.295   4.384
 7006SOL    HW221918   4.933   5.385   4.306
 7007SOL     OW21919   5.304   5.104   1.645
 7007SOL    HW121920   5.266   5.178   1.590
 7007SOL    HW221921   5.275   5.114   1.740
 7008SOL     OW21922   0.910   5.896   4.659
 7008SOL    HW121923   0.912   5.796   4.657
 7008SOL    HW221924   0.942   5.932   4.571
 7009SOL     OW21925   7.002   4.384   1.471
 7009SOL    HW121926   0.024   4.414   1.551
 7009SOL    HW221927   6.930   4.320   1.498
 7010SOL     OW21928   5.361   4.320   5.676
 7010SOL    HW121929   5.457   4.311   5.647
 7010SOL    HW221930   5.301   4.306   5.598
 7011SOL     OW21931   0.933   0.421   5.451
 7011SOL    HW121932   0.932   0.515   5.487
 7011SOL    HW221933   1.020   0.405   5.404
 7012SOL     OW21934   0.761   1.075   1.748
 7012SOL    HW121935   0.824   1.143   1.709
 7012SOL    HW221936   0.767   0.990   1.695
 7013SOL     OW21937   6.105   2.299   1.581
 7013SOL    HW121938   6.120   2.316   1.484
 7013SOL    HW221939   6.006   2.296   1.599
 7014SOL     OW21940   2.281   5.131   0.637
 7014SOL    HW121941   2.296   5.192   0.715
 7014SOL    HW221942   2.330   5.045   0.652
 7015SOL     OW21943   5.038   2.212   1.916
 7015SOL    HW121944   4.960   2.151   1.898
 7015SOL    HW221945   5.008   2.288   1.974
 7016SOL     OW21946   4.488   4.355   0.635
 7016SOL    HW121947   4.480   4.267   0.681
 7016SOL    HW221948   4.584   4.385   0.636
 7017SOL     OW21949   5.388   1.725   5.214
 7017SOL    HW121950   5.392   1.665   5.134
 7017SOL    HW221951   5.331   1.682   5.284
 7018SOL     OW21952   0.876   3.967   3.125
 7018SOL    HW121953   0.965   3.924   3.108
 7018SOL    HW221954   0.858   4.034   3.053
 7019SOL     OW21955   0.045   6.186   2.385
 7019SOL    HW121956   0.027   6.092   2.355
 7019SOL    HW221957   0.064   6.187   2.483
 7020SOL     OW21958   0.314   5.681   0.209
 7020SOL    HW121959   0.228   5.631   0.221
 7020SOL    HW221960   0.383   5.620   0.170
 7021SOL     OW21961   3.265   6.741   5.681
 7021SOL    HW121962   3.316   6.797   5.747
 7021SOL    HW221963   3.317   6.736   5.596
 7022SOL     OW21964   3.924   5.182   5.693
 7022SOL    HW121965   4.021   5.164   5.677
 7022SOL    HW221966   3.899   5.152   5.785
 7023SOL     OW21967   4.210   4.695   2.358
 7023SOL    HW121968   4.117   4.694   2.320
 7023SOL    HW221969   4.209   4.737   2.449
 7024SOL     OW21970   5.784   6.480   1.711
 7024SOL    HW121971   5.705   6.463   1.653
 7024SOL    HW221972   5.752   6.516   1.799
 7025SOL     OW21973   2.907   0.129   1.252
 7025SOL    HW121974   2.845   0.061   1.213
 7025SOL    HW221975   2.933   0.100   1.345
 7026SOL     OW21976   4.068   2.776   0.646
 7026SOL    HW121977   4.137   2.767   0.718
 7026SOL    HW221978   4.103   2.738   0.561
 7027SOL     OW21979   5.751   5.767   4.423
 7027SOL    HW121980   5.654   5.745   4.431
 7027SOL    HW221981   5.770   5.801   4.330
 7028SOL     OW21982   3.038   1.016   4.398
 7028SOL    HW121983   3.040   1.045   4.494
 7028SOL    HW221984   3.087   1.083   4.342
 7029SOL     OW21985   3.553   0.889   4.215
 7029SOL    HW121986   3.526   0.870   4.309
 7029SOL    HW221987   3.652   0.877   4.206
 7030SOL     OW21988   1.429   3.347   3.866
 7030SOL    HW121989   1.412   3.248   3.865
 7030SOL    HW221990   1.387   3.387   3.947
 7031SOL     OW21991   1.844   0.977   4.602
 7031SOL    HW121992   1.888   0.947   4.517
 7031SOL    HW221993   1.847   1.077   4.608
 7032SOL     OW21994   5.889   2.603   3.138
 7032SOL    HW121995   5.795   2.570   3.143
 7032SOL    HW221996   5.888   2.702   3.122
 7033SOL     OW21997   0.356   1.007   4.773
 7033SOL    HW121998   0.454   1.013   4.789
 7033SOL    HW221999   0.310   1.084   4.817
 7034SOL     OW22000   0.097   4.919   3.649
 7034SOL    HW122001   0.151   4.852   3.700
 7034SOL    HW222002   0.132   4.926   3.556
 7035SOL     OW22003   6.821   4.769   1.592
 7035SOL    HW122004   6.826   4.728   1.500
 7035SOL    HW222005   6.803   4.867   1.583
 7036SOL     OW22006   6.283   4.734   0.920
 7036SOL    HW122007   6.313   4.661   0.982
 7036SOL    HW222008   6.273   4.819   0.972
 7037SOL     OW22009   1.081   0.582   6.772
 7037SOL    HW122010   1.095   0.586   6.673
 7037SOL    HW222011   0.989   0.549   6.792
 7038SOL     OW22012   2.258   2.933   4.208
 7038SOL    HW122013   2.272   2.937   4.307
 7038SOL    HW222014   2.184   2.869   4.187
 7039SOL     OW22015   3.664   1.709   6.948
 7039SOL    HW122016   3.756   1.682   6.977
 7039SOL    HW222017   3.668   1.749   6.857
 7040SOL     OW22018   6.021   2.646   6.843
 7040SOL    HW122019   5.988   2.730   6.800
 7040SOL    HW222020   5.950   2.575   6.838
 7041SOL     OW22021   1.889   1.774   3.565
 7041SOL    HW122022   1.830   1.765   3.485
 7041SOL    HW222023   1.983   1.748   3.541
 7042SOL     OW22024   2.154   1.281   6.863
 7042SOL    HW122025   2.125   1.201   6.811
 7042SOL    HW222026   2.244   1.311   6.832
 7043SOL     OW22027   1.636   2.644   1.608
 7043SOL    HW122028   1.656   2.653   1.705
 7043SOL    HW222029   1.693   2.572   1.569
 7044SOL     OW22030   6.779   5.745   0.717
 7044SOL    HW122031   6.682   5.746   0.692
 7044SOL    HW222032   6.834   5.732   0.634
 7045SOL     OW22033   0.412   5.123   0.503
 7045SOL    HW122034   0.493   5.068   0.526
 7045SOL    HW222035   0.356   5.073   0.437
 7046SOL     OW22036   3.059   1.977   3.843
 7046SOL    HW122037   3.121   1.935   3.909
 7046SOL    HW222038   3.076   1.940   3.752
 7047SOL     OW22039   1.647   7.014   3.254
 7047SOL    HW122040   1.652   6.942   3.185
 7047SOL    HW222041   1.730   0.041   3.250
 7048SOL     OW22042   6.607   5.590   0.050
 7048SOL    HW122043   6.667   5.537   0.110
 7048SOL    HW222044   6.529   5.623   0.103
 7049SOL     OW22045   2.268   0.737   6.782
 7049SOL    HW122046   2.356   0.725   6.736
 7049SOL    HW222047   2.195   0.702   6.723
 7050SOL     OW22048   4.480   3.468   5.532
 7050SOL    HW122049   4.560   3.486   5.589
 7050SOL    HW222050   4.469   3.542   5.466
 7051SOL     OW22051   5.940   6.256   2.823
 7051SOL    HW122052   6.024   6.255   2.769
 7051SOL    HW222053   5.861   6.246   2.762
 7052SOL     OW22054   6.748   6.851   5.017
 7052SOL    HW122055   6.847   6.840   5.014
 7052SOL    HW222056   6.714   6.823   5.107
 7053SOL     OW22057   6.684   3.359   6.034
 7053SOL    HW122058   6.626   3.346   6.114
 7053SOL    HW222059   6.742   3.439   6.048
 7054SOL     OW22060   6.070   2.279   2.674
 7054SOL    HW122061   6.077   2.251   2.579
 7054SOL    HW222062   5.994   2.229   2.718
 7055SOL     OW22063   4.461   1.905   3.678
 7055SOL    HW122064   4.441   1.889   3.581
 7055SOL    HW222065   4.545   1.855   3.702
 7056SOL     OW22066   4.674   5.772   4.244
 7056SOL    HW122067   4.758   5.786   4.191
 7056SOL    HW222068   4.683   5.689   4.300
 7057SOL     OW22069   5.417   5.767   2.671
 7057SOL    HW122070   5.349   5.709   2.715
 7057SOL    HW222071   5.379   5.858   2.655
 7058SOL     OW22072   0.407   4.254   4.430
 7058SOL    HW122073   0.462   4.232   4.349
 7058SOL    HW222074   0.428   4.189   4.503
 7059SOL     OW22075   1.657   0.997   2.325
 7059SOL    HW122076   1.561   0.997   2.352
 7059SOL    HW222077   1.670   1.063   2.252
 7060SOL     OW22078   3.319   0.096   0.512
 7060SOL    HW122079   3.265   0.094   0.428
 7060SOL    HW222080   3.281   0.164   0.575
 7061SOL     OW22081   0.525   0.866   2.987
 7061SOL    HW122082   0.595   0.865   2.916
 7061SOL    HW222083   0.546   0.938   3.053
 7062SOL     OW22084   6.739   1.322   5.558
 7062SOL    HW122085   6.797   1.247   5.589
 7062SOL    HW222086   6.760   1.404   5.612
 7063SOL     OW22087   2.051   6.232   1.974
 7063SOL    HW122088   1.998   6.316   1.989
 7063SOL    HW222089   2.047   6.175   2.057
 7064SOL     OW22090   3.243   2.239   0.402
 7064SOL    HW122091   3.284   2.175   0.467
 7064SOL    HW222092   3.315   2.294   0.359
 7065SOL     OW22093   3.142   3.565   2.503
 7065SOL    HW122094   3.188   3.542   2.417
 7065SOL    HW222095   3.143   3.664   2.516
 7066SOL     OW22096   2.543   4.859   1.572
 7066SOL    HW122097   2.543   4.760   1.588
 7066SOL    HW222098   2.608   4.903   1.634
 7067SOL     OW22099   0.992   4.312   4.979
 7067SOL    HW122100   1.052   4.236   4.952
 7067SOL    HW222101   1.015   4.341   5.071
 7068SOL     OW22102   0.084   0.590   2.987
 7068SOL    HW122103   0.102   0.678   3.032
 7068SOL    HW222104   7.021   0.558   3.011
 7069SOL     OW22105   1.807   4.800   5.027
 7069SOL    HW122106   1.777   4.721   5.080
 7069SOL    HW222107   1.767   4.796   4.935
 7070SOL     OW22108   5.400   4.989   3.584
 7070SOL    HW122109   5.309   5.029   3.599
 7070SOL    HW222110   5.468   5.040   3.636
 7071SOL     OW22111   1.926   6.601   5.124
 7071SOL    HW122112   1.997   6.533   5.138
 7071SOL    HW222113   1.874   6.614   5.209
 7072SOL     OW22114   0.627   7.009   6.420
 7072SOL    HW122115   0.598   7.012   6.515
 7072SOL    HW222116   0.725   0.002   6.414
 7073SOL     OW22117   1.558   2.336   6.961
 7073SOL    HW122118   1.645   2.290   6.972
 7073SOL    HW222119   1.551   2.375   6.869
 7074SOL     OW22120   3.487   1.121   6.384
 7074SOL    HW122121   3.539   1.164   6.311
 7074SOL    HW222122   3.389   1.131   6.367
 7075SOL     OW22123   0.938   6.130   3.113
 7075SOL    HW122124   0.898   6.220   3.099
 7075SOL    HW222125   1.001   6.133   3.191
 7076SOL     OW22126   3.215   1.155   6.267
 7076SOL    HW122127   3.215   1.094   6.188
 7076SOL    HW222128   3.180   1.245   6.241
 7077SOL     OW22129   1.480   5.627   6.395
 7077SOL    HW122130   1.385   5.649   6.377
 7077SOL    HW222131   1.510   5.671   6.480
 7078SOL     OW22132   0.167   1.051   1.846
 7078SOL    HW122133   0.166   0.992   1.765
 7078SOL    HW222134   0.141   0.997   1.926
 7079SOL     OW22135   5.387   6.634   4.286
 7079SOL    HW122136   5.332   6.557   4.319
 7079SOL    HW222137   5.332   6.717   4.289
 7080SOL     OW22138   5.734   0.550   3.633
 7080SOL    HW122139   5.794   0.483   3.589
 7080SOL    HW222140   5.750   0.548   3.732
 7081SOL     OW22141   4.726   0.735   4.785
 7081SOL    HW122142   4.721   0.647   4.738
 7081SOL    HW222143   4.780   0.799   4.732
 7082SOL     OW22144   5.889   1.207   0.179
 7082SOL    HW122145   5.966   1.267   0.195
 7082SOL    HW222146   5.911   1.114   0.209
 7083SOL     OW22147   4.373   0.082   5.283
 7083SOL    HW122148   4.281   0.091   5.245
 7083SOL    HW222149   4.368   0.031   5.369
 7084SOL     OW22150   6.212   5.907   0.452
 7084SOL    HW122151   6.215   5.848   0.533
 7084SOL    HW222152   6.142   5.875   0.389
 7085SOL     OW22153   4.973   1.506   1.644
 7085SOL    HW122154   5.048   1.507   1.711
 7085SOL    HW222155   5.003   1.550   1.560
 7086SOL     OW22156   1.410   0.884   6.087
 7086SOL    HW122157   1.437   0.919   6.177
 7086SOL    HW222158   1.483   0.827   6.050
 7087SOL     OW22159   2.304   2.758   4.986
 7087SOL    HW122160   2.326   2.851   5.014
 7087SOL    HW222161   2.279   2.704   5.067
 7088SOL     OW22162   6.889   2.001   4.505
 7088SOL    HW122163   6.885   1.967   4.410
 7088SOL    HW222164   6.952   1.944   4.557
 7089SOL     OW22165   2.997   2.016   1.750
 7089SOL    HW122166   3.035   2.022   1.842
 7089SOL    HW222167   2.926   2.086   1.738
 7090SOL     OW22168   2.912   1.639   4.894
 7090SOL    HW122169   2.903   1.723   4.839
 7090SOL    HW222170   2.998   1.642   4.946
 7091SOL     OW22171   6.692   6.221   0.782
 7091SOL    HW122172   6.710   6.168   0.699
 7091SOL    HW222173   6.717   6.317   0.766
 7092SOL     OW22174   3.560   1.958   0.637
 7092SOL    HW122175   3.529   1.933   0.728
 7092SOL    HW222176   3.596   2.051   0.638
 7093SOL     OW22177   3.784   2.774   6.674
 7093SOL    HW122178   3.857   2.842   6.661
 7093SOL    HW222179   3.697   2.813   6.647
 7094SOL     OW22180   6.405   1.004   6.680
 7094SOL    HW122181   6.409   1.089   6.732
 7094SOL    HW222182   6.362   0.933   6.735
 7095SOL     OW22183   0.706   4.094   1.080
 7095SOL    HW122184   0.734   4.148   1.159
 7095SOL    HW222185   0.754   4.006   1.081
 7096SOL     OW22186   3.888   6.844   2.972
 7096SOL    HW122187   3.861   6.786   3.049
 7096SOL    HW222188   3.889   6.790   2.888
 7097SOL     OW22189   1.855   1.431   1.584
 7097SOL    HW122190   1.923   1.357   1.575
 7097SOL    HW222191   1.879   1.505   1.521
 7098SOL     OW22192   1.277   0.563   6.095
 7098SOL    HW122193   1.317   0.588   6.184
 7098SOL    HW222194   1.278   0.643   6.035
 7099SOL     OW22195   0.063   1.351   5.041
 7099SOL    HW122196   0.050   1.253   5.034
 7099SOL    HW222197   0.004   1.388   5.114
 7100SOL     OW22198   5.354   1.642   1.450
 7100SOL    HW122199   5.269   1.599   1.419
 7100SOL    HW222200   5.410   1.574   1.497
 7101SOL     OW22201   1.884   0.491   4.728
 7101SOL    HW122202   1.830   0.432   4.667
 7101SOL    HW222203   1.960   0.530   4.678
 7102SOL     OW22204   4.316   2.511   0.386
 7102SOL    HW122205   4.246   2.464   0.441
 7102SOL    HW222206   4.287   2.605   0.368
 7103SOL     OW22207   1.847   0.144   5.701
 7103SOL    HW122208   1.910   0.209   5.658
 7103SOL    HW222209   1.892   0.099   5.777
 7104SOL     OW22210   0.627   3.093   1.686
 7104SOL    HW122211   0.630   3.188   1.653
 7104SOL    HW222212   0.634   3.030   1.608
 7105SOL     OW22213   2.184   2.728   5.532
 7105SOL    HW122214   2.121   2.665   5.487
 7105SOL    HW222215   2.229   2.785   5.463
 7106SOL     OW22216   3.052   2.900   5.347
 7106SOL    HW122217   3.056   2.986   5.297
 7106SOL    HW222218   3.104   2.830   5.299
 7107SOL     OW22219   1.736   1.273   0.277
 7107SOL    HW122220   1.650   1.254   0.326
 7107SOL    HW222221   1.725   1.355   0.221
 7108SOL     OW22222   4.609   6.760   1.985
 7108SOL    HW122223   4.519   6.763   2.027
 7108SOL    HW222224   4.675   6.806   2.044
 7109SOL     OW22225   4.612   5.887   6.506
 7109SOL    HW122226   4.585   5.921   6.596
 7109SOL    HW222227   4.680   5.949   6.466
 7110SOL     OW22228   3.811   4.954   4.573
 7110SOL    HW122229   3.899   4.911   4.551
 7110SOL    HW222230   3.819   5.004   4.659
 7111SOL     OW22231   1.363   2.508   3.593
 7111SOL    HW122232   1.410   2.595   3.580
 7111SOL    HW222233   1.371   2.480   3.688
 7112SOL     OW22234   1.746   6.263   3.100
 7112SOL    HW122235   1.686   6.272   3.180
 7112SOL    HW222236   1.801   6.181   3.109
 7113SOL     OW22237   3.944   3.533   6.063
 7113SOL    HW122238   4.042   3.546   6.083
 7113SOL    HW222239   3.890   3.572   6.138
 7114SOL     OW22240   3.856   6.520   0.952
 7114SOL    HW122241   3.841   6.455   0.878
 7114SOL    HW222242   3.908   6.475   1.025
 7115SOL     OW22243   3.848   2.562   1.041
 7115SOL    HW122244   3.940   2.586   1.009
 7115SOL    HW222245   3.838   2.587   1.137
 7116SOL     OW22246   6.262   4.349   3.348
 7116SOL    HW122247   6.170   4.341   3.309
 7116SOL    HW222248   6.264   4.306   3.438
 7117SOL     OW22249   5.410   6.887   2.488
 7117SOL    HW122250   5.443   6.822   2.556
 7117SOL    HW222251   5.323   6.926   2.519
 7118SOL     OW22252   6.473   3.435   3.332
 7118SOL    HW122253   6.561   3.436   3.285
 7118SOL    HW222254   6.402   3.404   3.269
 7119SOL     OW22255   1.049   2.101   2.967
 7119SOL    HW122256   1.072   2.194   2.996
 7119SOL    HW222257   0.958   2.101   2.925
 7120SOL     OW22258   4.764   6.478   3.854
 7120SOL    HW122259   4.766   6.568   3.898
 7120SOL    HW222260   4.703   6.482   3.774
 7121SOL     OW22261   2.072   6.311   1.038
 7121SOL    HW122262   2.168   6.290   1.058
 7121SOL    HW222263   2.067   6.396   0.986
 7122SOL     OW22264   6.887   6.022   0.576
 7122SOL    HW122265   6.881   5.932   0.533
 7122SOL    HW222266   6.956   6.020   0.648
 7123SOL     OW22267   2.987   5.148   0.819
 7123SOL    HW122268   3.039   5.064   0.803
 7123SOL    HW222269   2.921   5.161   0.745
 7124SOL     OW22270   0.166   5.835   6.648
 7124SOL    HW122271   0.179   5.825   6.747
 7124SOL    HW222272   0.093   5.901   6.631
 7125SOL     OW22273   0.943   6.159   3.515
 7125SOL    HW122274   1.022   6.138   3.458
 7125SOL    HW222275   0.945   6.255   3.543
 7126SOL     OW22276   1.521   3.572   1.510
 7126SOL    HW122277   1.547   3.665   1.536
 7126SOL    HW222278   1.427   3.572   1.477
 7127SOL     OW22279   2.208   0.602   5.197
 7127SOL    HW122280   2.148   0.548   5.138
 7127SOL    HW222281   2.240   0.683   5.146
 7128SOL     OW22282   2.931   3.414   2.559
 7128SOL    HW122283   2.937   3.319   2.527
 7128SOL    HW222284   3.020   3.459   2.547
 7129SOL     OW22285   2.879   2.428   0.544
 7129SOL    HW122286   2.958   2.396   0.596
 7129SOL    HW222287   2.814   2.472   0.606
 7130SOL     OW22288   1.758   0.410   2.959
 7130SOL    HW122289   1.691   0.450   3.021
 7130SOL    HW222290   1.846   0.457   2.969
 7131SOL     OW22291   2.668   1.116   3.484
 7131SOL    HW122292   2.625   1.155   3.566
 7131SOL    HW222293   2.607   1.129   3.406
 7132SOL     OW22294   3.153   3.732   2.123
 7132SOL    HW122295   3.055   3.714   2.127
 7132SOL    HW222296   3.179   3.755   2.029
 7133SOL     OW22297   6.388   4.214   1.654
 7133SOL    HW122298   6.384   4.198   1.753
 7133SOL    HW222299   6.295   4.224   1.618
 7134SOL     OW22300   4.810   4.950   2.396
 7134SOL    HW122301   4.791   4.854   2.379
 7134SOL    HW222302   4.766   5.006   2.326
 7135SOL     OW22303   0.372   1.810   6.239
 7135SOL    HW122304   0.275   1.816   6.217
 7135SOL    HW222305   0.384   1.790   6.336
 7136SOL     OW22306   1.650   1.666   6.718
 7136SOL    HW122307   1.593   1.702   6.644
 7136SOL    HW222308   1.738   1.636   6.681
 7137SOL     OW22309   4.976   2.171   5.054
 7137SOL    HW122310   4.938   2.263   5.041
 7137SOL    HW222311   4.915   2.103   5.013
 7138SOL     OW22312   2.065   2.343   6.506
 7138SOL    HW122313   1.988   2.344   6.570
 7138SOL    HW222314   2.044   2.400   6.427
 7139SOL     OW22315   2.702   1.398   0.682
 7139SOL    HW122316   2.615   1.433   0.647
 7139SOL    HW222317   2.777   1.433   0.627
 7140SOL     OW22318   6.686   4.564   4.406
 7140SOL    HW122319   6.664   4.647   4.458
 7140SOL    HW222320   6.721   4.589   4.316
 7141SOL     OW22321   0.815   0.118   1.933
 7141SOL    HW122322   0.915   0.107   1.934
 7141SOL    HW222323   0.776   0.058   1.863
 7142SOL     OW22324   3.290   6.192   3.788
 7142SOL    HW122325   3.191   6.206   3.794
 7142SOL    HW222326   3.337   6.267   3.834
 7143SOL     OW22327   1.667   2.219   3.467
 7143SOL    HW122328   1.695   2.313   3.486
 7143SOL    HW222329   1.744   2.157   3.486
 7144SOL     OW22330   1.295   3.737   3.469
 7144SOL    HW122331   1.393   3.734   3.486
 7144SOL    HW222332   1.249   3.669   3.527
 7145SOL     OW22333   4.106   5.550   6.448
 7145SOL    HW122334   4.035   5.493   6.406
 7145SOL    HW222335   4.179   5.491   6.485
 7146SOL     OW22336   3.622   5.006   1.682
 7146SOL    HW122337   3.650   5.081   1.622
 7146SOL    HW222338   3.523   5.007   1.693
 7147SOL     OW22339   0.126   1.047   3.599
 7147SOL    HW122340   0.201   1.108   3.622
 7147SOL    HW222341   0.162   0.966   3.553
 7148SOL     OW22342   6.386   1.661   0.486
 7148SOL    HW122343   6.343   1.628   0.402
 7148SOL    HW222344   6.477   1.697   0.466
 7149SOL     OW22345   0.997   0.782   4.530
 7149SOL    HW122346   1.062   0.709   4.508
 7149SOL    HW222347   0.990   0.790   4.630
 7150SOL     OW22348   6.063   3.046   6.012
 7150SOL    HW122349   6.026   3.016   5.924
 7150SOL    HW222350   6.087   3.143   6.007
 7151SOL     OW22351   2.037   6.673   0.103
 7151SOL    HW122352   2.079   6.728   0.031
 7151SOL    HW222353   2.085   6.690   0.190
 7152SOL     OW22354   1.128   2.440   4.827
 7152SOL    HW122355   1.106   2.470   4.920
 7152SOL    HW222356   1.107   2.513   4.763
 7153SOL     OW22357   4.245   1.910   2.978
 7153SOL    HW122358   4.258   1.992   2.922
 7153SOL    HW222359   4.152   1.876   2.968
 7154SOL     OW22360   3.500   0.100   4.618
 7154SOL    HW122361   3.517   0.087   4.716
 7154SOL    HW222362   3.584   0.128   4.572
 7155SOL     OW22363   2.160   1.388   3.847
 7155SOL    HW122364   2.253   1.417   3.829
 7155SOL    HW222365   2.097   1.465   3.832
 7156SOL     OW22366   2.236   5.722   5.666
 7156SOL    HW122367   2.264   5.658   5.594
 7156SOL    HW222368   2.166   5.680   5.723
 7157SOL     OW22369   4.798   4.582   0.147
 7157SOL    HW122370   4.850   4.654   0.101
 7157SOL    HW222371   4.850   4.497   0.147
 7158SOL     OW22372   4.202   0.571   3.601
 7158SOL    HW122373   4.215   0.669   3.586
 7158SOL    HW222374   4.268   0.520   3.547
 7159SOL     OW22375   1.486   6.289   6.747
 7159SOL    HW122376   1.416   6.229   6.787
 7159SOL    HW222377   1.442   6.360   6.692
 7160SOL     OW22378   6.723   0.711   2.098
 7160SOL    HW122379   6.664   0.781   2.140
 7160SOL    HW222380   6.666   0.635   2.067
 7161SOL     OW22381   3.683   4.161   4.788
 7161SOL    HW122382   3.739   4.244   4.787
 7161SOL    HW222383   3.734   4.086   4.745
 7162SOL     OW22384   3.565   5.018   4.100
 7162SOL    HW122385   3.524   4.988   4.186
 7162SOL    HW222386   3.498   5.014   4.027
 7163SOL     OW22387   1.286   6.530   3.630
 7163SOL    HW122388   1.321   6.522   3.537
 7163SOL    HW222389   1.191   6.558   3.628
 7164SOL     OW22390   2.775   1.768   4.505
 7164SOL    HW122391   2.699   1.824   4.539
 7164SOL    HW222392   2.767   1.758   4.406
 7165SOL     OW22393   4.593   4.953   2.158
 7165SOL    HW122394   4.607   4.860   2.192
 7165SOL    HW222395   4.511   4.992   2.199
 7166SOL     OW22396   3.641   6.415   2.097
 7166SOL    HW122397   3.649   6.329   2.149
 7166SOL    HW222398   3.658   6.492   2.159
 7167SOL     OW22399   5.577   3.397   0.260
 7167SOL    HW122400   5.522   3.364   0.183
 7167SOL    HW222401   5.523   3.390   0.345
 7168SOL     OW22402   0.084   1.537   4.215
 7168SOL    HW122403   0.062   1.459   4.273
 7168SOL    HW222404   0.069   1.622   4.266
 7169SOL     OW22405   2.395   2.663   6.544
 7169SOL    HW122406   2.433   2.601   6.474
 7169SOL    HW222407   2.464   2.679   6.614
 7170SOL     OW22408   5.161   4.030   4.115
 7170SOL    HW122409   5.128   4.030   4.021
 7170SOL    HW222410   5.193   4.121   4.140
 7171SOL     OW22411   3.653   3.868   5.642
 7171SOL    HW122412   3.616   3.854   5.734
 7171SOL    HW222413   3.696   3.783   5.611
 7172SOL     OW22414   6.890   6.308   1.206
 7172SOL    HW122415   6.874   6.244   1.280
 7172SOL    HW222416   6.916   6.397   1.243
 7173SOL     OW22417   6.562   6.363   4.757
 7173SOL    HW122418   6.471   6.347   4.796
 7173SOL    HW222419   6.590   6.457   4.775
 7174SOL     OW22420   1.339   6.060   6.077
 7174SOL    HW122421   1.389   6.081   6.160
 7174SOL    HW222422   1.403   6.037   6.004
 7175SOL     OW22423   6.479   3.778   5.258
 7175SOL    HW122424   6.508   3.865   5.219
 7175SOL    HW222425   6.429   3.794   5.343
 7176SOL     OW22426   1.137   3.452   1.314
 7176SOL    HW122427   1.052   3.425   1.269
 7176SOL    HW222428   1.194   3.503   1.250
 7177SOL     OW22429   0.878   5.023   1.695
 7177SOL    HW122430   0.917   5.113   1.679
 7177SOL    HW222431   0.853   4.981   1.608
 7178SOL     OW22432   6.086   0.541   6.258
 7178SOL    HW122433   6.146   0.512   6.183
 7178SOL    HW222434   6.137   0.541   6.344
 7179SOL     OW22435   0.614   3.899   5.894
 7179SOL    HW122436   0.664   3.936   5.816
 7179SOL    HW222437   0.600   3.800   5.882
 7180SOL     OW22438   6.575   0.195   2.324
 7180SOL    HW122439   6.571   0.272   2.387
 7180SOL    HW222440   6.600   0.228   2.233
 7181SOL     OW22441   5.272   5.769   2.339
 7181SOL    HW122442   5.278   5.699   2.410
 7181SOL    HW222443   5.201   5.835   2.361
 7182SOL     OW22444   4.418   3.739   6.085
 7182SOL    HW122445   4.488   3.720   6.154
 7182SOL    HW222446   4.448   3.816   6.028
 7183SOL     OW22447   2.303   2.942   3.018
 7183SOL    HW122448   2.334   2.848   3.033
 7183SOL    HW222449   2.205   2.948   3.037
 7184SOL     OW22450   2.167   5.280   3.315
 7184SOL    HW122451   2.151   5.364   3.262
 7184SOL    HW222452   2.139   5.201   3.261
 7185SOL     OW22453   4.916   2.165   7.028
 7185SOL    HW122454   4.972   2.158   0.082
 7185SOL    HW222455   4.840   2.101   0.005
 7186SOL     OW22456   0.925   6.636   4.552
 7186SOL    HW122457   0.942   6.689   4.468
 7186SOL    HW222458   0.838   6.588   4.544
 7187SOL     OW22459   1.850   4.831   1.419
 7187SOL    HW122460   1.931   4.772   1.416
 7187SOL    HW222461   1.770   4.777   1.446
 7188SOL     OW22462   5.115   0.277   1.641
 7188SOL    HW122463   5.022   0.291   1.606
 7188SOL    HW222464   5.144   0.358   1.692
 7189SOL     OW22465   6.157   0.863   5.469
 7189SOL    HW122466   6.078   0.834   5.415
 7189SOL    HW222467   6.204   0.782   5.505
 7190SOL     OW22468   4.405   5.321   2.986
 7190SOL    HW122469   4.360   5.232   2.980
 7190SOL    HW222470   4.403   5.365   2.895
 7191SOL     OW22471   1.058   2.895   1.438
 7191SOL    HW122472   1.099   2.948   1.364
 7191SOL    HW222473   1.090   2.801   1.434
 7192SOL     OW22474   3.079   3.949   6.259
 7192SOL    HW122475   3.067   4.045   6.285
 7192SOL    HW222476   3.173   3.921   6.278
 7193SOL     OW22477   5.760   2.134   5.068
 7193SOL    HW122478   5.724   2.042   5.052
 7193SOL    HW222479   5.783   2.144   5.165
 7194SOL     OW22480   2.889   1.060   2.289
 7194SOL    HW122481   2.911   1.127   2.360
 7194SOL    HW222482   2.882   1.107   2.200
 7195SOL     OW22483   0.705   6.997   2.573
 7195SOL    HW122484   0.710   0.040   2.503
 7195SOL    HW222485   0.748   0.001   2.657
 7196SOL     OW22486   3.814   3.594   1.720
 7196SOL    HW122487   3.889   3.606   1.785
 7196SOL    HW222488   3.839   3.638   1.633
 7197SOL     OW22489   1.935   1.015   4.342
 7197SOL    HW122490   2.022   1.029   4.295
 7197SOL    HW222491   1.907   1.100   4.386
 7198SOL     OW22492   0.563   6.926   5.790
 7198SOL    HW122493   0.561   7.018   5.830
 7198SOL    HW222494   0.593   6.860   5.859
 7199SOL     OW22495   6.164   5.452   2.180
 7199SOL    HW122496   6.079   5.505   2.179
 7199SOL    HW222497   6.203   5.449   2.088
 7200SOL     OW22498   1.441   2.360   2.417
 7200SOL    HW122499   1.471   2.448   2.455
 7200SOL    HW222500   1.341   2.359   2.410
 7201SOL     OW22501   2.013   4.067   4.178
 7201SOL    HW122502   2.063   4.069   4.092
 7201SOL    HW222503   1.942   3.997   4.173
 7202SOL     OW22504   2.231   0.068   6.034
 7202SOL    HW122505   2.218   0.035   6.127
 7202SOL    HW222506   2.201   7.027   5.969
 7203SOL     OW22507   5.560   0.119   6.829
 7203SOL    HW122508   5.502   0.185   6.876
 7203SOL    HW222509   5.629   0.168   6.775
 7204SOL     OW22510   6.611   2.230   3.038
 7204SOL    HW122511   6.580   2.146   2.993
 7204SOL    HW222512   6.616   2.304   2.970
 7205SOL     OW22513   1.408   4.075   1.682
 7205SOL    HW122514   1.313   4.050   1.662
 7205SOL    HW222515   1.417   4.174   1.685
 7206SOL     OW22516   6.286   1.022   1.506
 7206SOL    HW122517   6.234   1.064   1.581
 7206SOL    HW222518   6.377   0.996   1.538
 7207SOL     OW22519   4.046   0.178   1.595
 7207SOL    HW122520   4.025   0.198   1.691
 7207SOL    HW222521   4.069   0.263   1.548
 7208SOL     OW22522   2.483   0.631   5.259
 7208SOL    HW122523   2.393   0.590   5.244
 7208SOL    HW222524   2.471   0.727   5.284
 7209SOL     OW22525   3.179   3.653   5.207
 7209SOL    HW122526   3.190   3.750   5.185
 7209SOL    HW222527   3.120   3.644   5.288
 7210SOL     OW22528   4.289   6.724   4.394
 7210SOL    HW122529   4.260   6.812   4.432
 7210SOL    HW222530   4.384   6.707   4.418
 7211SOL     OW22531   0.790   5.281   2.356
 7211SOL    HW122532   0.783   5.228   2.271
 7211SOL    HW222533   0.884   5.313   2.367
 7212SOL     OW22534   5.463   0.014   3.396
 7212SOL    HW122535   5.550   0.037   3.438
 7212SOL    HW222536   5.470   0.024   3.297
 7213SOL     OW22537   5.813   6.425   5.791
 7213SOL    HW122538   5.871   6.499   5.823
 7213SOL    HW222539   5.860   6.338   5.803
 7214SOL     OW22540   1.228   5.036   5.759
 7214SOL    HW122541   1.211   4.951   5.808
 7214SOL    HW222542   1.325   5.059   5.766
 7215SOL     OW22543   1.196   3.251   1.506
 7215SOL    HW122544   1.292   3.228   1.490
 7215SOL    HW222545   1.160   3.303   1.429
 7216SOL     OW22546   3.065   1.953   2.582
 7216SOL    HW122547   3.015   1.948   2.496
 7216SOL    HW222548   3.163   1.957   2.564
 7217SOL     OW22549   0.527   3.522   1.989
 7217SOL    HW122550   0.445   3.472   1.959
 7217SOL    HW222551   0.598   3.456   2.014
 7218SOL     OW22552   6.285   2.927   4.029
 7218SOL    HW122553   6.283   2.839   4.076
 7218SOL    HW222554   6.267   3.000   4.095
 7219SOL     OW22555   3.053   1.446   1.060
 7219SOL    HW122556   3.050   1.427   0.962
 7219SOL    HW222557   2.980   1.395   1.106
 7220SOL     OW22558   6.989   1.611   3.217
 7220SOL    HW122559   0.060   1.608   3.215
 7220SOL    HW222560   6.957   1.627   3.310
 7221SOL     OW22561   6.988   4.186   4.952
 7221SOL    HW122562   0.000   4.227   4.870
 7221SOL    HW222563   6.908   4.133   4.926
 7222SOL     OW22564   7.007   0.092   2.884
 7222SOL    HW122565   0.038   0.013   2.899
 7222SOL    HW222566   6.925   0.084   2.941
 7223SOL     OW22567   4.494   1.222   4.467
 7223SOL    HW122568   4.479   1.193   4.372
 7223SOL    HW222569   4.425   1.182   4.526
 7224SOL     OW22570   5.526   1.415   3.477
 7224SOL    HW122571   5.610   1.427   3.424
 7224SOL    HW222572   5.525   1.480   3.553
 7225SOL     OW22573   2.855   0.177   1.735
 7225SOL    HW122574   2.780   0.237   1.763
 7225SOL    HW222575   2.900   0.215   1.654
 7226SOL     OW22576   6.163   6.502   5.182
 7226SOL    HW122577   6.132   6.593   5.153
 7226SOL    HW222578   6.108   6.432   5.136
 7227SOL     OW22579   0.270   3.058   6.209
 7227SOL    HW122580   0.278   3.040   6.111
 7227SOL    HW222581   0.361   3.060   6.250
 7228SOL     OW22582   1.763   0.406   2.696
 7228SOL    HW122583   1.721   0.490   2.660
 7228SOL    HW222584   1.772   0.414   2.795
 7229SOL     OW22585   0.052   0.298   3.225
 7229SOL    HW122586   0.062   0.204   3.258
 7229SOL    HW222587   0.137   0.327   3.181
 7230SOL     OW22588   6.454   5.193   1.132
 7230SOL    HW122589   6.434   5.287   1.107
 7230SOL    HW222590   6.486   5.143   1.051
 7231SOL     OW22591   5.697   0.707   0.075
 7231SOL    HW122592   5.760   0.650   0.023
 7231SOL    HW222593   5.617   0.654   0.101
 7232SOL     OW22594   3.194   4.177   0.843
 7232SOL    HW122595   3.215   4.272   0.824
 7232SOL    HW222596   3.217   4.121   0.764
 7233SOL     OW22597   0.976   2.288   5.734
 7233SOL    HW122598   1.075   2.273   5.733
 7233SOL    HW222599   0.957   2.378   5.774
 7234SOL     OW22600   5.574   2.616   4.083
 7234SOL    HW122601   5.545   2.524   4.059
 7234SOL    HW222602   5.642   2.648   4.017
 7235SOL     OW22603   6.147   2.829   4.963
 7235SOL    HW122604   6.203   2.764   4.912
 7235SOL    HW222605   6.140   2.915   4.912
 7236SOL     OW22606   1.065   1.723   3.405
 7236SOL    HW122607   1.012   1.694   3.325
 7236SOL    HW222608   1.017   1.694   3.488
 7237SOL     OW22609   5.563   5.921   4.643
 7237SOL    HW122610   5.644   5.885   4.690
 7237SOL    HW222611   5.531   5.855   4.575
 7238SOL     OW22612   1.802   0.089   2.236
 7238SOL    HW122613   1.895   0.106   2.202
 7238SOL    HW222614   1.739   0.155   2.194
 7239SOL     OW22615   4.439   2.049   2.277
 7239SOL    HW122616   4.446   2.136   2.325
 7239SOL    HW222617   4.345   2.036   2.245
 7240SOL     OW22618   3.285   3.475   2.913
 7240SOL    HW122619   3.272   3.379   2.936
 7240SOL    HW222620   3.198   3.513   2.881
 7241SOL     OW22621   4.909   6.825   4.363
 7241SOL    HW122622   4.852   6.907   4.361
 7241SOL    HW222623   4.861   6.749   4.319
 7242SOL     OW22624   6.665   6.131   0.477
 7242SOL    HW122625   6.745   6.105   0.530
 7242SOL    HW222626   6.589   6.070   0.499
 7243SOL     OW22627   0.493   6.226   1.155
 7243SOL    HW122628   0.395   6.210   1.162
 7243SOL    HW222629   0.540   6.140   1.135
 7244SOL     OW22630   5.789   1.861   1.766
 7244SOL    HW122631   5.718   1.834   1.701
 7244SOL    HW222632   5.861   1.911   1.718
 7245SOL     OW22633   5.638   1.771   3.620
 7245SOL    HW122634   5.611   1.837   3.690
 7245SOL    HW222635   5.603   1.800   3.531
 7246SOL     OW22636   1.478   5.657   5.714
 7246SOL    HW122637   1.490   5.720   5.638
 7246SOL    HW222638   1.435   5.705   5.791
 7247SOL     OW22639   3.973   5.791   3.961
 7247SOL    HW122640   4.010   5.751   4.045
 7247SOL    HW222641   3.886   5.747   3.939
 7248SOL     OW22642   3.150   1.258   5.012
 7248SOL    HW122643   3.075   1.298   4.960
 7248SOL    HW222644   3.215   1.215   4.949
 7249SOL     OW22645   4.709   3.160   6.202
 7249SOL    HW122646   4.700   3.177   6.104
 7249SOL    HW222647   4.632   3.104   6.233
 7250SOL     OW22648   3.027   2.953   0.197
 7250SOL    HW122649   2.930   2.933   0.183
 7250SOL    HW222650   3.055   3.027   0.136
 7251SOL     OW22651   5.767   1.394   5.563
 7251SOL    HW122652   5.688   1.429   5.513
 7251SOL    HW222653   5.850   1.410   5.510
 7252SOL     OW22654   4.706   3.351   5.401
 7252SOL    HW122655   4.644   3.404   5.343
 7252SOL    HW222656   4.736   3.269   5.353
 7253SOL     OW22657   5.177   4.924   6.855
 7253SOL    HW122658   5.119   5.003   6.833
 7253SOL    HW222659   5.124   4.859   6.911
 7254SOL     OW22660   5.004   6.365   5.354
 7254SOL    HW122661   5.008   6.268   5.377
 7254SOL    HW222662   5.014   6.376   5.255
 7255SOL     OW22663   3.730   3.247   3.135
 7255SOL    HW122664   3.716   3.314   3.208
 7255SOL    HW222665   3.643   3.205   3.110
 7256SOL     OW22666   2.983   5.755   3.365
 7256SOL    HW122667   3.045   5.677   3.360
 7256SOL    HW222668   2.918   5.752   3.289
 7257SOL     OW22669   5.896   5.544   2.790
 7257SOL    HW122670   5.813   5.508   2.834
 7257SOL    HW222671   5.871   5.622   2.733
 7258SOL     OW22672   2.200   0.304   5.832
 7258SOL    HW122673   2.257   0.232   5.792
 7258SOL    HW222674   2.173   0.277   5.925
 7259SOL     OW22675   3.305   4.462   6.122
 7259SOL    HW122676   3.381   4.429   6.177
 7259SOL    HW222677   3.332   4.463   6.025
 7260SOL     OW22678   4.494   2.489   2.700
 7260SOL    HW122679   4.465   2.434   2.622
 7260SOL    HW222680   4.532   2.575   2.667
 7261SOL     OW22681   2.325   4.857   1.413
 7261SOL    HW122682   2.290   4.951   1.412
 7261SOL    HW222683   2.416   4.856   1.454
 7262SOL     OW22684   6.303   0.682   4.919
 7262SOL    HW122685   6.296   0.684   5.019
 7262SOL    HW222686   6.224   0.730   4.879
 7263SOL     OW22687   5.604   5.312   1.181
 7263SOL    HW122688   5.515   5.358   1.185
 7263SOL    HW222689   5.655   5.329   1.265
 7264SOL     OW22690   0.008   6.702   4.642
 7264SOL    HW122691   6.942   6.732   4.659
 7264SOL    HW222692   0.071   6.772   4.672
 7265SOL     OW22693   4.747   3.026   6.494
 7265SOL    HW122694   4.654   2.992   6.508
 7265SOL    HW222695   4.797   3.022   6.581
 7266SOL     OW22696   4.106   1.432   2.983
 7266SOL    HW122697   4.058   1.433   3.070
 7266SOL    HW222698   4.056   1.487   2.916
 7267SOL     OW22699   5.046   2.126   3.796
 7267SOL    HW122700   4.975   2.191   3.821
 7267SOL    HW222701   5.004   2.039   3.769
 7268SOL     OW22702   4.108   6.626   0.176
 7268SOL    HW122703   4.132   6.594   0.084
 7268SOL    HW222704   4.181   6.604   0.240
 7269SOL     OW22705   1.554   0.215   2.691
 7269SOL    HW122706   1.587   0.156   2.765
 7269SOL    HW222707   1.629   0.274   2.660
 7270SOL     OW22708   3.232   2.418   1.688
 7270SOL    HW122709   3.287   2.341   1.720
 7270SOL    HW222710   3.286   2.475   1.626
 7271SOL     OW22711   5.741   5.521   3.491
 7271SOL    HW122712   5.823   5.533   3.434
 7271SOL    HW222713   5.714   5.425   3.490
 7272SOL     OW22714   5.972   1.490   1.750
 7272SOL    HW122715   6.005   1.406   1.793
 7272SOL    HW222716   6.050   1.545   1.720
 7273SOL     OW22717   6.343   5.279   4.865
 7273SOL    HW122718   6.414   5.222   4.823
 7273SOL    HW222719   6.275   5.304   4.795
 7274SOL     OW22720   5.518   5.176   3.735
 7274SOL    HW122721   5.535   5.274   3.723
 7274SOL    HW222722   5.461   5.161   3.816
 7275SOL     OW22723   6.035   6.760   1.902
 7275SOL    HW122724   5.960   6.708   1.943
 7275SOL    HW222725   6.054   6.723   1.811
 7276SOL     OW22726   4.029   1.997   2.785
 7276SOL    HW122727   3.986   1.909   2.767
 7276SOL    HW222728   3.960   2.061   2.820
 7277SOL     OW22729   5.978   2.343   3.946
 7277SOL    HW122730   5.930   2.334   4.033
 7277SOL    HW222731   5.991   2.440   3.925
 7278SOL     OW22732   3.397   1.078   3.279
 7278SOL    HW122733   3.385   1.130   3.363
 7278SOL    HW222734   3.492   1.046   3.273
 7279SOL     OW22735   3.583   3.775   1.482
 7279SOL    HW122736   3.672   3.751   1.444
 7279SOL    HW222737   3.559   3.709   1.554
 7280SOL     OW22738   0.019   1.435   5.483
 7280SOL    HW122739   0.119   1.433   5.489
 7280SOL    HW222740   7.009   1.426   5.574
 7281SOL     OW22741   3.685   6.490   3.440
 7281SOL    HW122742   3.642   6.427   3.375
 7281SOL    HW222743   3.623   6.566   3.459
 7282SOL     OW22744   0.377   3.830   1.189
 7282SOL    HW122745   0.338   3.911   1.233
 7282SOL    HW222746   0.402   3.763   1.259
 7283SOL     OW22747   2.954   6.181   2.992
 7283SOL    HW122748   2.879   6.221   2.940
 7283SOL    HW222749   3.009   6.123   2.933
 7284SOL     OW22750   0.665   0.439   3.709
 7284SOL    HW122751   0.751   0.490   3.710
 7284SOL    HW222752   0.665   0.373   3.785
 7285SOL     OW22753   5.346   2.538   1.698
 7285SOL    HW122754   5.286   2.609   1.735
 7285SOL    HW222755   5.389   2.571   1.614
 7286SOL     OW22756   6.672   1.338   4.795
 7286SOL    HW122757   6.760   1.374   4.762
 7286SOL    HW222758   6.674   1.238   4.793
 7287SOL     OW22759   3.265   1.705   4.277
 7287SOL    HW122760   3.175   1.666   4.296
 7287SOL    HW222761   3.278   1.789   4.330
 7288SOL     OW22762   2.696   1.902   1.825
 7288SOL    HW122763   2.661   1.995   1.813
 7288SOL    HW222764   2.785   1.905   1.869
 7289SOL     OW22765   6.506   2.555   0.880
 7289SOL    HW122766   6.601   2.585   0.868
 7289SOL    HW222767   6.466   2.603   0.959
 7290SOL     OW22768   3.224   2.156   4.874
 7290SOL    HW122769   3.193   2.065   4.903
 7290SOL    HW222770   3.219   2.219   4.952
 7291SOL     OW22771   1.122   0.836   0.372
 7291SOL    HW122772   1.089   0.829   0.278
 7291SOL    HW222773   1.088   0.921   0.413
 7292SOL     OW22774   3.706   1.192   2.077
 7292SOL    HW122775   3.789   1.233   2.039
 7292SOL    HW222776   3.718   1.094   2.089
 7293SOL     OW22777   6.369   1.136   4.243
 7293SOL    HW122778   6.401   1.173   4.155
 7293SOL    HW222779   6.274   1.163   4.258
 7294SOL     OW22780   2.706   1.088   2.840
 7294SOL    HW122781   2.710   1.186   2.820
 7294SOL    HW222782   2.774   1.065   2.909
 7295SOL     OW22783   5.571   4.143   1.830
 7295SOL    HW122784   5.622   4.228   1.830
 7295SOL    HW222785   5.633   4.066   1.846
 7296SOL     OW22786   3.174   7.015   2.803
 7296SOL    HW122787   3.095   6.958   2.781
 7296SOL    HW222788   3.171   0.012   2.899
 7297SOL     OW22789   4.259   0.356   0.468
 7297SOL    HW122790   4.293   0.303   0.390
 7297SOL    HW222791   4.234   0.294   0.542
 7298SOL     OW22792   3.899   4.337   1.037
 7298SOL    HW122793   3.880   4.436   1.035
 7298SOL    HW222794   3.979   4.318   0.981
 7299SOL     OW22795   6.849   3.105   0.227
 7299SOL    HW122796   6.870   3.028   0.167
 7299SOL    HW222797   6.829   3.186   0.172
 7300SOL     OW22798   1.029   4.422   1.751
 7300SOL    HW122799   0.978   4.370   1.683
 7300SOL    HW222800   1.119   4.445   1.714
 7301SOL     OW22801   4.146   1.744   0.523
 7301SOL    HW122802   4.142   1.736   0.623
 7301SOL    HW222803   4.119   1.657   0.481
 7302SOL     OW22804   5.471   2.108   6.654
 7302SOL    HW122805   5.426   2.131   6.567
 7302SOL    HW222806   5.555   2.057   6.635
 7303SOL     OW22807   3.740   2.350   1.459
 7303SOL    HW122808   3.781   2.358   1.368
 7303SOL    HW222809   3.648   2.388   1.458
 7304SOL     OW22810   2.507   6.883   0.877
 7304SOL    HW122811   2.524   6.971   0.921
 7304SOL    HW222812   2.417   6.885   0.833
 7305SOL     OW22813   6.971   0.076   6.274
 7305SOL    HW122814   6.995   7.013   6.308
 7305SOL    HW222815   7.013   0.090   6.184
 7306SOL     OW22816   1.772   3.742   0.709
 7306SOL    HW122817   1.716   3.818   0.677
 7306SOL    HW222818   1.717   3.658   0.707
 7307SOL     OW22819   4.211   6.616   2.171
 7307SOL    HW122820   4.170   6.529   2.145
 7307SOL    HW222821   4.197   6.632   2.269
 7308SOL     OW22822   3.670   1.856   2.942
 7308SOL    HW122823   3.671   1.837   2.843
 7308SOL    HW222824   3.576   1.865   2.973
 7309SOL     OW22825   2.730   4.713   4.019
 7309SOL    HW122826   2.678   4.630   4.039
 7309SOL    HW222827   2.719   4.737   3.923
 7310SOL     OW22828   4.414   3.031   0.347
 7310SOL    HW122829   4.451   3.046   0.255
 7310SOL    HW222830   4.328   2.981   0.340
 7311SOL     OW22831   1.342   6.595   5.532
 7311SOL    HW122832   1.266   6.648   5.570
 7311SOL    HW222833   1.377   6.533   5.602
 7312SOL     OW22834   6.110   2.019   4.291
 7312SOL    HW122835   6.124   2.115   4.312
 7312SOL    HW222836   6.088   1.969   4.376
 7313SOL     OW22837   3.280   1.131   3.040
 7313SOL    HW122838   3.256   1.067   2.967
 7313SOL    HW222839   3.331   1.084   3.112
 7314SOL     OW22840   2.544   5.782   4.745
 7314SOL    HW122841   2.546   5.737   4.656
 7314SOL    HW222842   2.635   5.818   4.766
 7315SOL     OW22843   2.334   4.668   2.404
 7315SOL    HW122844   2.275   4.683   2.483
 7315SOL    HW222845   2.332   4.748   2.345
 7316SOL     OW22846   3.706   0.928   2.080
 7316SOL    HW122847   3.674   0.941   2.174
 7316SOL    HW222848   3.775   0.856   2.078
 7317SOL     OW22849   6.441   1.574   1.843
 7317SOL    HW122850   6.527   1.621   1.862
 7317SOL    HW222851   6.368   1.614   1.900
 7318SOL     OW22852   4.553   5.975   1.746
 7318SOL    HW122853   4.589   6.040   1.814
 7318SOL    HW222854   4.616   5.898   1.738
 7319SOL     OW22855   4.590   4.929   6.004
 7319SOL    HW122856   4.663   4.967   5.946
 7319SOL    HW222857   4.607   4.953   6.099
 7320SOL     OW22858   1.497   2.984   0.549
 7320SOL    HW122859   1.467   3.079   0.538
 7320SOL    HW222860   1.447   2.926   0.486
 7321SOL     OW22861   2.359   2.222   5.403
 7321SOL    HW122862   2.356   2.180   5.494
 7321SOL    HW222863   2.389   2.155   5.336
 7322SOL     OW22864   2.117   2.113   4.031
 7322SOL    HW122865   2.183   2.188   4.024
 7322SOL    HW222866   2.105   2.070   3.941
 7323SOL     OW22867   2.187   1.788   0.430
 7323SOL    HW122868   2.267   1.835   0.467
 7323SOL    HW222869   2.176   1.700   0.476
 7324SOL     OW22870   5.464   3.750   4.910
 7324SOL    HW122871   5.376   3.714   4.878
 7324SOL    HW222872   5.538   3.691   4.877
 7325SOL     OW22873   3.580   0.436   6.319
 7325SOL    HW122874   3.542   0.358   6.268
 7325SOL    HW222875   3.519   0.458   6.395
 7326SOL     OW22876   3.902   6.344   6.770
 7326SOL    HW122877   3.830   6.306   6.828
 7326SOL    HW222878   3.868   6.351   6.676
 7327SOL     OW22879   1.435   4.436   3.431
 7327SOL    HW122880   1.485   4.396   3.354
 7327SOL    HW222881   1.347   4.471   3.399
 7328SOL     OW22882   4.363   5.324   6.753
 7328SOL    HW122883   4.346   5.261   6.829
 7328SOL    HW222884   4.340   5.417   6.781
 7329SOL     OW22885   2.547   3.993   6.604
 7329SOL    HW122886   2.608   4.022   6.530
 7329SOL    HW222887   2.453   4.012   6.579
 7330SOL     OW22888   1.910   3.799   1.243
 7330SOL    HW122889   1.909   3.786   1.342
 7330SOL    HW222890   1.932   3.712   1.198
 7331SOL     OW22891   5.222   1.228   2.661
 7331SOL    HW122892   5.162   1.181   2.726
 7331SOL    HW222893   5.274   1.299   2.709
 7332SOL     OW22894   2.119   0.063   5.093
 7332SOL    HW122895   2.037   0.096   5.141
 7332SOL    HW222896   2.172   0.141   5.061
 7333SOL     OW22897   6.396   1.304   1.798
 7333SOL    HW122898   6.492   1.281   1.785
 7333SOL    HW222899   6.389   1.399   1.829
 7334SOL     OW22900   1.096   4.896   4.880
 7334SOL    HW122901   1.080   4.986   4.922
 7334SOL    HW222902   1.107   4.907   4.781
 7335SOL     OW22903   6.719   3.170   2.365
 7335SOL    HW122904   6.720   3.251   2.423
 7335SOL    HW222905   6.770   3.096   2.409
 7336SOL     OW22906   3.049   0.361   1.289
 7336SOL    HW122907   3.012   0.273   1.259
 7336SOL    HW222908   3.027   0.376   1.385
 7337SOL     OW22909   3.065   1.681   1.927
 7337SOL    HW122910   3.128   1.720   1.994
 7337SOL    HW222911   3.114   1.658   1.843
 7338SOL     OW22912   5.369   2.952   0.529
 7338SOL    HW122913   5.447   3.013   0.516
 7338SOL    HW222914   5.322   2.939   0.441
 7339SOL     OW22915   6.582   0.160   4.116
 7339SOL    HW122916   6.596   0.257   4.096
 7339SOL    HW222917   6.604   0.143   4.212
 7340SOL     OW22918   2.855   0.041   0.489
 7340SOL    HW122919   2.896   0.107   0.427
 7340SOL    HW222920   2.927   7.016   0.533
 7341SOL     OW22921   6.809   5.473   3.183
 7341SOL    HW122922   6.789   5.381   3.150
 7341SOL    HW222923   6.727   5.530   3.175
 7342SOL     OW22924   0.063   5.188   0.279
 7342SOL    HW122925   0.125   5.114   0.252
 7342SOL    HW222926   0.079   5.212   0.375
 7343SOL     OW22927   0.552   1.932   2.824
 7343SOL    HW122928   0.541   1.958   2.728
 7343SOL    HW222929   0.464   1.940   2.871
 7344SOL     OW22930   2.116   1.247   5.880
 7344SOL    HW122931   2.163   1.284   5.960
 7344SOL    HW222932   2.183   1.206   5.818
 7345SOL     OW22933   1.030   6.619   6.923
 7345SOL    HW122934   0.970   6.579   6.853
 7345SOL    HW222935   1.116   6.567   6.927
 7346SOL     OW22936   3.692   5.442   3.140
 7346SOL    HW122937   3.625   5.434   3.214
 7346SOL    HW222938   3.694   5.356   3.088
 7347SOL     OW22939   5.419   2.816   3.543
 7347SOL    HW122940   5.332   2.786   3.580
 7347SOL    HW222941   5.412   2.827   3.443
 7348SOL     OW22942   5.406   0.143   6.180
 7348SOL    HW122943   5.463   0.066   6.152
 7348SOL    HW222944   5.366   0.124   6.270
 7349SOL     OW22945   3.293   2.310   1.325
 7349SOL    HW122946   3.195   2.320   1.344
 7349SOL    HW222947   3.326   2.225   1.365
 7350SOL     OW22948   1.467   1.805   2.843
 7350SOL    HW122949   1.469   1.712   2.805
 7350SOL    HW222950   1.558   1.830   2.876
 7351SOL     OW22951   6.091   4.913   0.106
 7351SOL    HW122952   6.173   4.936   0.053
 7351SOL    HW222953   6.021   4.875   0.046
 7352SOL     OW22954   6.744   1.305   3.125
 7352SOL    HW122955   6.665   1.323   3.067
 7352SOL    HW222956   6.713   1.278   3.216
 7353SOL     OW22957   5.747   1.709   5.161
 7353SOL    HW122958   5.758   1.719   5.260
 7353SOL    HW222959   5.665   1.758   5.132
 7354SOL     OW22960   5.437   4.230   5.215
 7354SOL    HW122961   5.352   4.208   5.168
 7354SOL    HW222962   5.443   4.179   5.300
 7355SOL     OW22963   0.109   5.659   0.479
 7355SOL    HW122964   0.016   5.697   0.474
 7355SOL    HW222965   0.119   5.587   0.410
 7356SOL     OW22966   0.046   1.901   6.415
 7356SOL    HW122967   0.079   1.893   6.320
 7356SOL    HW222968   0.102   1.844   6.474
 7357SOL     OW22969   0.238   1.427   0.733
 7357SOL    HW122970   0.221   1.454   0.827
 7357SOL    HW222971   0.164   1.366   0.702
 7358SOL     OW22972   3.387   1.329   3.580
 7358SOL    HW122973   3.321   1.254   3.573
 7358SOL    HW222974   3.363   1.387   3.658
 7359SOL     OW22975   3.107   3.440   4.192
 7359SOL    HW122976   3.108   3.540   4.185
 7359SOL    HW222977   3.042   3.403   4.125
 7360SOL     OW22978   1.562   4.281   6.122
 7360SOL    HW122979   1.577   4.220   6.200
 7360SOL    HW222980   1.559   4.376   6.154
 7361SOL     OW22981   4.672   0.204   1.954
 7361SOL    HW122982   4.666   0.141   1.877
 7361SOL    HW222983   4.702   0.155   2.036
 7362SOL     OW22984   1.086   5.089   6.945
 7362SOL    HW122985   1.133   5.002   6.958
 7362SOL    HW222986   1.098   5.147   7.026
 7363SOL     OW22987   4.868   2.108   5.861
 7363SOL    HW122988   4.856   2.120   5.959
 7363SOL    HW222989   4.788   2.060   5.824
 7364SOL     OW22990   5.103   6.945   0.393
 7364SOL    HW122991   5.011   6.906   0.401
 7364SOL    HW222992   5.166   6.894   0.451
 7365SOL     OW22993   5.470   6.869   1.416
 7365SOL    HW122994   5.418   6.792   1.379
 7365SOL    HW222995   5.445   6.952   1.367
 7366SOL     OW22996   2.624   6.928   0.545
 7366SOL    HW122997   2.705   6.982   0.522
 7366SOL    HW222998   2.652   6.838   0.577
 7367SOL     OW22999   4.519   2.994   6.280
 7367SOL    HW123000   4.457   3.065   6.313
 7367SOL    HW223001   4.466   2.916   6.248
 7368SOL     OW23002   3.090   3.064   4.630
 7368SOL    HW123003   3.078   2.999   4.706
 7368SOL    HW223004   3.061   3.155   4.660
 7369SOL     OW23005   6.842   6.782   6.633
 7369SOL    HW123006   6.854   6.820   6.725
 7369SOL    HW223007   6.768   6.830   6.586
 7370SOL     OW23008   0.099   5.844   1.138
 7370SOL    HW123009   0.097   5.808   1.045
 7370SOL    HW223010   0.007   5.872   1.165
 7371SOL     OW23011   2.268   4.670   3.975
 7371SOL    HW123012   2.232   4.702   4.062
 7371SOL    HW223013   2.229   4.724   3.901
 7372SOL     OW23014   2.799   0.427   5.290
 7372SOL    HW123015   2.825   0.332   5.307
 7372SOL    HW223016   2.876   0.476   5.249
 7373SOL     OW23017   3.917   1.517   1.025
 7373SOL    HW123018   3.829   1.561   1.003
 7373SOL    HW223019   3.991   1.583   1.012
 7374SOL     OW23020   2.221   3.710   0.763
 7374SOL    HW123021   2.233   3.616   0.795
 7374SOL    HW223022   2.159   3.758   0.824
 7375SOL     OW23023   2.362   5.700   3.108
 7375SOL    HW123024   2.391   5.650   3.027
 7375SOL    HW223025   2.388   5.650   3.190
 7376SOL     OW23026   3.284   4.109   6.922
 7376SOL    HW123027   3.328   4.047   6.988
 7376SOL    HW223028   3.185   4.106   6.934
 7377SOL     OW23029   5.373   5.916   1.340
 7377SOL    HW123030   5.324   5.861   1.273
 7377SOL    HW223031   5.428   5.855   1.398
 7378SOL     OW23032   0.990   1.800   6.074
 7378SOL    HW123033   0.999   1.704   6.103
 7378SOL    HW223034   1.067   1.853   6.110
 7379SOL     OW23035   4.423   0.705   0.521
 7379SOL    HW123036   4.358   0.781   0.519
 7379SOL    HW223037   4.396   0.636   0.455
 7380SOL     OW23038   0.168   3.006   6.987
 7380SOL    HW123039   0.178   3.040   6.893
 7380SOL    HW223040   0.096   2.937   6.990
 7381SOL     OW23041   5.002   2.549   0.710
 7381SOL    HW123042   5.013   2.638   0.666
 7381SOL    HW223043   4.941   2.557   0.789
 7382SOL     OW23044   1.326   5.073   3.626
 7382SOL    HW123045   1.352   5.154   3.678
 7382SOL    HW223046   1.370   4.992   3.666
 7383SOL     OW23047   1.783   4.679   2.636
 7383SOL    HW123048   1.848   4.614   2.594
 7383SOL    HW223049   1.780   4.762   2.581
 7384SOL     OW23050   6.140   1.683   1.624
 7384SOL    HW123051   6.167   1.778   1.609
 7384SOL    HW223052   6.205   1.623   1.578
 7385SOL     OW23053   5.597   0.335   2.064
 7385SOL    HW123054   5.647   0.250   2.083
 7385SOL    HW223055   5.583   0.343   1.965
 7386SOL     OW23056   6.561   1.631   5.702
 7386SOL    HW123057   6.553   1.705   5.636
 7386SOL    HW223058   6.653   1.630   5.741
 7387SOL     OW23059   4.675   6.011   3.522
 7387SOL    HW123060   4.762   6.006   3.472
 7387SOL    HW223061   4.693   6.010   3.620
 7388SOL     OW23062   5.174   3.577   4.792
 7388SOL    HW123063   5.092   3.521   4.776
 7388SOL    HW223064   5.183   3.644   4.718
 7389SOL     OW23065   1.874   2.813   5.642
 7389SOL    HW123066   1.942   2.872   5.685
 7389SOL    HW223067   1.838   2.859   5.560
 7390SOL     OW23068   4.906   6.618   0.550
 7390SOL    HW123069   5.002   6.598   0.570
 7390SOL    HW223070   4.847   6.559   0.606
 7391SOL     OW23071   6.815   5.304   0.642
 7391SOL    HW123072   6.770   5.325   0.729
 7391SOL    HW223073   6.888   5.371   0.626
 7392SOL     OW23074   1.719   4.253   2.410
 7392SOL    HW123075   1.636   4.283   2.457
 7392SOL    HW223076   1.763   4.180   2.463
 7393SOL     OW23077   1.264   3.685   0.601
 7393SOL    HW123078   1.246   3.782   0.623
 7393SOL    HW223079   1.329   3.680   0.526
 7394SOL     OW23080   2.938   3.536   6.921
 7394SOL    HW123081   2.888   3.589   6.853
 7394SOL    HW223082   2.887   3.453   6.943
 7395SOL     OW23083   2.503   0.147   0.109
 7395SOL    HW123084   2.561   0.084   0.161
 7395SOL    HW223085   2.491   0.112   0.016
 7396SOL     OW23086   6.710   6.796   2.207
 7396SOL    HW123087   6.705   6.858   2.285
 7396SOL    HW223088   6.634   6.731   2.213
 7397SOL     OW23089   6.292   4.151   4.009
 7397SOL    HW123090   6.194   4.140   4.025
 7397SOL    HW223091   6.343   4.101   4.078
 7398SOL     OW23092   4.289   6.595   2.859
 7398SOL    HW123093   4.282   6.499   2.886
 7398SOL    HW223094   4.356   6.604   2.785
 7399SOL     OW23095   5.044   6.114   4.141
 7399SOL    HW123096   4.969   6.178   4.128
 7399SOL    HW223097   5.081   6.122   4.234
 7400SOL     OW23098   2.697   4.496   6.660
 7400SOL    HW123099   2.701   4.533   6.752
 7400SOL    HW223100   2.610   4.449   6.646
 7401SOL     OW23101   6.451   3.037   3.796
 7401SOL    HW123102   6.414   2.963   3.740
 7401SOL    HW223103   6.407   3.035   3.886
 7402SOL     OW23104   1.912   6.106   4.557
 7402SOL    HW123105   1.816   6.134   4.550
 7402SOL    HW223106   1.932   6.039   4.485
 7403SOL     OW23107   2.475   3.202   1.727
 7403SOL    HW123108   2.443   3.284   1.775
 7403SOL    HW223109   2.399   3.137   1.721
 7404SOL     OW23110   1.219   3.125   2.819
 7404SOL    HW123111   1.216   3.117   2.919
 7404SOL    HW223112   1.239   3.220   2.794
 7405SOL     OW23113   3.626   4.996   6.415
 7405SOL    HW123114   3.548   4.938   6.439
 7405SOL    HW223115   3.706   4.968   6.468
 7406SOL     OW23116   6.399   6.250   2.967
 7406SOL    HW123117   6.363   6.196   3.043
 7406SOL    HW223118   6.367   6.212   2.881
 7407SOL     OW23119   3.689   1.158   5.781
 7407SOL    HW123120   3.746   1.210   5.845
 7407SOL    HW223121   3.664   1.071   5.824
 7408SOL     OW23122   1.013   3.788   4.963
 7408SOL    HW123123   0.999   3.800   5.061
 7408SOL    HW223124   1.080   3.715   4.948
 7409SOL     OW23125   2.145   6.848   4.652
 7409SOL    HW123126   2.167   6.945   4.646
 7409SOL    HW223127   2.156   6.817   4.746
 7410SOL     OW23128   4.851   5.704   5.850
 7410SOL    HW123129   4.819   5.756   5.929
 7410SOL    HW223130   4.790   5.625   5.834
 7411SOL     OW23131   6.344   3.875   5.481
 7411SOL    HW123132   6.305   3.958   5.442
 7411SOL    HW223133   6.333   3.875   5.580
 7412SOL     OW23134   1.181   0.670   0.591
 7412SOL    HW123135   1.189   0.572   0.571
 7412SOL    HW223136   1.158   0.719   0.507
 7413SOL     OW23137   6.323   3.888   3.777
 7413SOL    HW123138   6.358   3.966   3.828
 7413SOL    HW223139   6.399   3.834   3.742
 7414SOL     OW23140   0.198   5.983   2.161
 7414SOL    HW123141   0.147   5.985   2.076
 7414SOL    HW223142   0.252   6.067   2.169
 7415SOL     OW23143   2.884   1.443   2.945
 7415SOL    HW123144   2.965   1.415   2.996
 7415SOL    HW223145   2.802   1.405   2.989
 7416SOL     OW23146   5.897   0.222   2.412
 7416SOL    HW123147   5.819   0.273   2.447
 7416SOL    HW223148   5.937   0.167   2.485
 7417SOL     OW23149   0.507   5.246   1.613
 7417SOL    HW123150   0.422   5.298   1.610
 7417SOL    HW223151   0.564   5.272   1.534
 7418SOL     OW23152   2.124   3.659   1.052
 7418SOL    HW123153   2.199   3.687   1.112
 7418SOL    HW223154   2.062   3.599   1.103
 7419SOL     OW23155   6.647   2.114   5.652
 7419SOL    HW123156   6.738   2.071   5.647
 7419SOL    HW223157   6.584   2.051   5.698
 7420SOL     OW23158   0.298   5.623   2.059
 7420SOL    HW123159   0.321   5.696   1.995
 7420SOL    HW223160   0.303   5.657   2.152
 7421SOL     OW23161   4.218   2.307   1.321
 7421SOL    HW123162   4.194   2.298   1.418
 7421SOL    HW223163   4.294   2.371   1.311
 7422SOL     OW23164   1.287   2.326   0.597
 7422SOL    HW123165   1.188   2.337   0.593
 7422SOL    HW223166   1.313   2.238   0.556
 7423SOL     OW23167   2.913   4.248   0.721
 7423SOL    HW123168   3.009   4.249   0.749
 7423SOL    HW223169   2.905   4.285   0.628
 7424SOL     OW23170   5.156   0.508   3.881
 7424SOL    HW123171   5.070   0.466   3.851
 7424SOL    HW223172   5.152   0.525   3.979
 7425SOL     OW23173   3.447   0.537   4.634
 7425SOL    HW123174   3.381   0.558   4.562
 7425SOL    HW223175   3.540   0.544   4.596
 7426SOL     OW23176   0.273   0.343   6.553
 7426SOL    HW123177   0.293   0.252   6.517
 7426SOL    HW223178   0.330   0.360   6.633
 7427SOL     OW23179   5.475   5.181   5.818
 7427SOL    HW123180   5.387   5.229   5.815
 7427SOL    HW223181   5.493   5.149   5.911
 7428SOL     OW23182   5.130   1.598   5.455
 7428SOL    HW123183   5.050   1.543   5.478
 7428SOL    HW223184   5.204   1.578   5.519
 7429SOL     OW23185   5.996   6.122   3.711
 7429SOL    HW123186   5.980   6.218   3.734
 7429SOL    HW223187   5.990   6.110   3.612
 7430SOL     OW23188   0.854   3.858   4.280
 7430SOL    HW123189   0.931   3.878   4.340
 7430SOL    HW223190   0.883   3.791   4.211
 7431SOL     OW23191   0.093   4.229   2.670
 7431SOL    HW123192   0.177   4.197   2.711
 7431SOL    HW223193   0.111   4.260   2.576
 7432SOL     OW23194   2.065   6.189   6.019
 7432SOL    HW123195   2.070   6.172   5.921
 7432SOL    HW223196   2.118   6.120   6.068
 7433SOL     OW23197   0.715   6.920   0.756
 7433SOL    HW123198   0.677   7.003   0.715
 7433SOL    HW223199   0.669   6.902   0.842
 7434SOL     OW23200   4.480   7.016   0.423
 7434SOL    HW123201   4.418   0.055   0.383
 7434SOL    HW223202   4.566   7.015   0.371
 7435SOL     OW23203   1.030   4.807   6.866
 7435SOL    HW123204   0.980   4.886   6.831
 7435SOL    HW223205   1.108   4.788   6.806
 7436SOL     OW23206   5.490   3.561   6.852
 7436SOL    HW123207   5.464   3.489   6.917
 7436SOL    HW223208   5.410   3.617   6.831
 7437SOL     OW23209   0.123   6.485   5.518
 7437SOL    HW123210   0.184   6.475   5.596
 7437SOL    HW223211   0.041   6.536   5.545
 7438SOL     OW23212   5.852   4.321   0.428
 7438SOL    HW123213   5.754   4.337   0.444
 7438SOL    HW223214   5.891   4.399   0.380
 7439SOL     OW23215   0.977   6.441   3.176
 7439SOL    HW123216   1.052   6.445   3.110
 7439SOL    HW223217   0.970   6.528   3.224
 7440SOL     OW23218   0.990   0.773   4.827
 7440SOL    HW123219   0.903   0.736   4.796
 7440SOL    HW223220   0.977   0.819   4.915
 7441SOL     OW23221   6.529   0.665   4.403
 7441SOL    HW123222   6.480   0.650   4.489
 7441SOL    HW223223   6.498   0.750   4.361
 7442SOL     OW23224   1.937   1.153   7.003
 7442SOL    HW123225   1.948   1.067   6.952
 7442SOL    HW223226   2.000   1.221   6.967
 7443SOL     OW23227   6.658   1.716   1.875
 7443SOL    HW123228   6.665   1.780   1.798
 7443SOL    HW223229   6.749   1.679   1.895
 7444SOL     OW23230   1.617   2.493   5.570
 7444SOL    HW123231   1.532   2.494   5.621
 7444SOL    HW223232   1.661   2.403   5.579
 7445SOL     OW23233   5.597   3.038   2.257
 7445SOL    HW123234   5.594   3.138   2.257
 7445SOL    HW223235   5.509   3.002   2.226
 7446SOL     OW23236   4.754   4.179   2.750
 7446SOL    HW123237   4.690   4.239   2.702
 7446SOL    HW223238   4.727   4.171   2.846
 7447SOL     OW23239   1.435   3.514   6.037
 7447SOL    HW123240   1.427   3.521   6.137
 7447SOL    HW223241   1.344   3.525   5.996
 7448SOL     OW23242   0.633   1.043   5.811
 7448SOL    HW123243   0.599   0.952   5.789
 7448SOL    HW223244   0.600   1.109   5.743
 7449SOL     OW23245   3.353   0.825   3.478
 7449SOL    HW123246   3.420   0.774   3.424
 7449SOL    HW223247   3.310   0.895   3.420
 7450SOL     OW23248   4.161   1.595   1.801
 7450SOL    HW123249   4.168   1.694   1.816
 7450SOL    HW223250   4.078   1.575   1.749
 7451SOL     OW23251   1.300   0.563   1.760
 7451SOL    HW123252   1.208   0.588   1.792
 7451SOL    HW223253   1.367   0.629   1.794
 7452SOL     OW23254   2.011   5.802   2.830
 7452SOL    HW123255   1.992   5.708   2.801
 7452SOL    HW223256   2.058   5.800   2.918
 7453SOL     OW23257   6.622   4.496   4.978
 7453SOL    HW123258   6.693   4.559   5.010
 7453SOL    HW223259   6.652   4.451   4.895
 7454SOL     OW23260   2.807   1.842   6.947
 7454SOL    HW123261   2.774   1.858   6.854
 7454SOL    HW223262   2.798   1.926   7.001
 7455SOL     OW23263   4.684   0.016   0.921
 7455SOL    HW123264   4.678   0.066   1.007
 7455SOL    HW223265   4.739   6.962   0.934
 7456SOL     OW23266   1.474   3.673   5.707
 7456SOL    HW123267   1.445   3.724   5.789
 7456SOL    HW223268   1.394   3.651   5.651
 7457SOL     OW23269   0.208   6.416   6.014
 7457SOL    HW123270   0.256   6.368   5.941
 7457SOL    HW223271   0.271   6.430   6.091
 7458SOL     OW23272   2.737   6.943   1.650
 7458SOL    HW123273   2.803   6.949   1.725
 7458SOL    HW223274   2.685   6.857   1.658
 7459SOL     OW23275   3.795   6.166   3.452
 7459SOL    HW123276   3.807   6.137   3.547
 7459SOL    HW223277   3.799   6.086   3.392
 7460SOL     OW23278   0.742   5.259   6.354
 7460SOL    HW123279   0.803   5.323   6.400
 7460SOL    HW223280   0.795   5.190   6.304
 7461SOL     OW23281   3.851   1.459   3.407
 7461SOL    HW123282   3.781   1.420   3.467
 7461SOL    HW223283   3.940   1.419   3.428
 7462SOL     OW23284   1.558   1.729   3.922
 7462SOL    HW123285   1.546   1.660   3.994
 7462SOL    HW223286   1.553   1.820   3.963
 7463SOL     OW23287   3.624   4.016   2.860
 7463SOL    HW123288   3.576   3.931   2.840
 7463SOL    HW223289   3.722   4.005   2.840
 7464SOL     OW23290   4.290   5.744   0.237
 7464SOL    HW123291   4.226   5.681   0.282
 7464SOL    HW223292   4.350   5.785   0.306
 7465SOL     OW23293   3.387   1.391   3.111
 7465SOL    HW123294   3.330   1.314   3.083
 7465SOL    HW223295   3.482   1.361   3.119
 7466SOL     OW23296   6.489   6.786   0.545
 7466SOL    HW123297   6.542   6.784   0.460
 7466SOL    HW223298   6.463   6.881   0.566
 7467SOL     OW23299   4.457   2.369   0.993
 7467SOL    HW123300   4.449   2.304   0.917
 7467SOL    HW223301   4.521   2.334   1.061
 7468SOL     OW23302   5.425   4.384   4.796
 7468SOL    HW123303   5.361   4.364   4.722
 7468SOL    HW223304   5.518   4.359   4.768
 7469SOL     OW23305   5.421   1.913   1.488
 7469SOL    HW123306   5.377   1.825   1.467
 7469SOL    HW223307   5.520   1.903   1.478
 7470SOL     OW23308   0.460   3.311   3.272
 7470SOL    HW123309   0.550   3.334   3.233
 7470SOL    HW223310   0.448   3.358   3.359
 7471SOL     OW23311   6.712   4.250   5.717
 7471SOL    HW123312   6.694   4.313   5.792
 7471SOL    HW223313   6.648   4.173   5.721
 7472SOL     OW23314   4.343   5.566   3.412
 7472SOL    HW123315   4.247   5.577   3.385
 7472SOL    HW223316   4.398   5.541   3.332
 7473SOL     OW23317   1.772   2.433   6.489
 7473SOL    HW123318   1.848   2.478   6.442
 7473SOL    HW223319   1.719   2.379   6.424
 7474SOL     OW23320   2.959   1.360   2.045
 7474SOL    HW123321   2.932   1.357   2.141
 7474SOL    HW223322   2.886   1.400   1.991
 7475SOL     OW23323   5.127   0.710   5.974
 7475SOL    HW123324   5.176   0.663   6.048
 7475SOL    HW223325   5.180   0.789   5.944
 7476SOL     OW23326   1.992   6.415   4.524
 7476SOL    HW123327   2.000   6.444   4.620
 7476SOL    HW223328   1.993   6.315   4.519
 7477SOL     OW23329   4.495   4.519   4.542
 7477SOL    HW123330   4.484   4.433   4.492
 7477SOL    HW223331   4.535   4.501   4.632
 7478SOL     OW23332   0.348   4.420   1.343
 7478SOL    HW123333   0.434   4.390   1.303
 7478SOL    HW223334   0.272   4.384   1.289
 7479SOL     OW23335   3.671   0.345   4.920
 7479SOL    HW123336   3.686   0.434   4.878
 7479SOL    HW223337   3.579   0.312   4.897
 7480SOL     OW23338   5.522   5.365   0.090
 7480SOL    HW123339   5.487   5.432   0.155
 7480SOL    HW223340   5.602   5.319   0.129
 7481SOL     OW23341   5.861   6.515   0.244
 7481SOL    HW123342   5.882   6.597   0.190
 7481SOL    HW223343   5.785   6.535   0.307
 7482SOL     OW23344   4.593   0.286   5.083
 7482SOL    HW123345   4.642   0.215   5.032
 7482SOL    HW223346   4.582   0.258   5.178
 7483SOL     OW23347   3.289   0.154   6.974
 7483SOL    HW123348   3.247   0.231   7.022
 7483SOL    HW223349   3.359   0.113   0.004
 7484SOL     OW23350   3.300   6.807   0.941
 7484SOL    HW123351   3.315   6.854   0.854
 7484SOL    HW223352   3.250   6.866   1.004
 7485SOL     OW23353   0.875   0.044   5.212
 7485SOL    HW123354   0.877   6.984   5.166
 7485SOL    HW223355   0.786   0.088   5.196
 7486SOL     OW23356   1.291   2.055   5.097
 7486SOL    HW123357   1.220   2.026   5.032
 7486SOL    HW223358   1.333   1.974   5.138
 7487SOL     OW23359   3.129   5.256   2.960
 7487SOL    HW123360   3.108   5.164   2.925
 7487SOL    HW223361   3.206   5.250   3.024
 7488SOL     OW23362   4.226   1.480   4.966
 7488SOL    HW123363   4.267   1.571   4.970
 7488SOL    HW223364   4.168   1.474   4.884
 7489SOL     OW23365   0.657   3.224   3.783
 7489SOL    HW123366   0.719   3.231   3.705
 7489SOL    HW223367   0.699   3.168   3.855
 7490SOL     OW23368   5.845   6.714   2.139
 7490SOL    HW123369   5.787   6.722   2.219
 7490SOL    HW223370   5.898   6.798   2.126
 7491SOL     OW23371   0.993   6.867   0.830
 7491SOL    HW123372   0.977   6.785   0.885
 7491SOL    HW223373   0.909   6.890   0.780
 7492SOL     OW23374   1.893   1.900   2.627
 7492SOL    HW123375   1.833   1.923   2.551
 7492SOL    HW223376   1.839   1.884   2.709
 7493SOL     OW23377   5.761   4.278   6.790
 7493SOL    HW123378   5.755   4.376   6.770
 7493SOL    HW223379   5.763   4.227   6.704
 7494SOL     OW23380   4.542   1.824   1.237
 7494SOL    HW123381   4.563   1.832   1.334
 7494SOL    HW223382   4.591   1.746   1.198
 7495SOL     OW23383   1.394   1.671   3.710
 7495SOL    HW123384   1.322   1.612   3.746
 7495SOL    HW223385   1.455   1.699   3.783
 7496SOL     OW23386   0.811   5.029   6.223
 7496SOL    HW123387   0.890   5.010   6.164
 7496SOL    HW223388   0.730   4.984   6.185
 7497SOL     OW23389   1.024   4.945   2.890
 7497SOL    HW123390   1.022   4.880   2.814
 7497SOL    HW223391   1.083   4.910   2.963
 7498SOL     OW23392   5.380   2.052   4.351
 7498SOL    HW123393   5.355   2.121   4.284
 7498SOL    HW223394   5.478   2.035   4.348
 7499SOL     OW23395   3.958   5.261   3.576
 7499SOL    HW123396   4.044   5.291   3.534
 7499SOL    HW223397   3.977   5.224   3.667
 7500SOL     OW23398   5.000   4.093   1.507
 7500SOL    HW123399   5.000   4.186   1.543
 7500SOL    HW223400   4.919   4.079   1.450
 7501SOL     OW23401   1.025   4.116   3.560
 7501SOL    HW123402   1.111   4.067   3.545
 7501SOL    HW223403   1.044   4.203   3.606
 7502SOL     OW23404   1.279   1.980   4.049
 7502SOL    HW123405   1.374   1.963   4.077
 7502SOL    HW223406   1.261   2.078   4.051
 7503SOL     OW23407   2.410   1.761   0.096
 7503SOL    HW123408   2.460   1.827   0.152
 7503SOL    HW223409   2.387   1.803   0.008
 7504SOL     OW23410   5.123   5.719   5.193
 7504SOL    HW123411   5.089   5.756   5.280
 7504SOL    HW223412   5.084   5.629   5.177
 7505SOL     OW23413   1.551   1.897   3.391
 7505SOL    HW123414   1.548   1.910   3.292
 7505SOL    HW223415   1.465   1.857   3.422
 7506SOL     OW23416   3.917   0.615   3.148
 7506SOL    HW123417   3.869   0.647   3.230
 7506SOL    HW223418   3.898   0.517   3.135
 7507SOL     OW23419   1.559   0.189   5.289
 7507SOL    HW123420   1.603   0.245   5.359
 7507SOL    HW223421   1.560   0.236   5.201
 7508SOL     OW23422   5.546   5.954   3.126
 7508SOL    HW123423   5.525   6.050   3.141
 7508SOL    HW223424   5.513   5.927   3.035
 7509SOL     OW23425   3.509   4.449   6.304
 7509SOL    HW123426   3.596   4.493   6.283
 7509SOL    HW223427   3.484   4.466   6.399
 7510SOL     OW23428   4.055   3.242   5.139
 7510SOL    HW123429   4.023   3.158   5.096
 7510SOL    HW223430   4.073   3.311   5.070
 7511SOL     OW23431   1.078   1.404   2.339
 7511SOL    HW123432   1.127   1.328   2.380
 7511SOL    HW223433   1.105   1.489   2.385
 7512SOL     OW23434   2.296   2.849   2.482
 7512SOL    HW123435   2.249   2.937   2.475
 7512SOL    HW223436   2.323   2.834   2.577
 7513SOL     OW23437   2.223   3.168   6.575
 7513SOL    HW123438   2.314   3.170   6.618
 7513SOL    HW223439   2.233   3.154   6.477
 7514SOL     OW23440   3.110   5.265   3.290
 7514SOL    HW123441   3.117   5.172   3.255
 7514SOL    HW223442   3.133   5.266   3.388
 7515SOL     OW23443   0.166   4.946   3.390
 7515SOL    HW123444   0.256   4.985   3.372
 7515SOL    HW223445   0.160   4.855   3.350
 7516SOL     OW23446   2.078   2.989   1.388
 7516SOL    HW123447   2.013   2.935   1.335
 7516SOL    HW223448   2.172   2.960   1.365
 7517SOL     OW23449   1.312   5.012   2.318
 7517SOL    HW123450   1.394   4.957   2.302
 7517SOL    HW223451   1.230   4.958   2.300
 7518SOL     OW23452   5.117   4.004   2.474
 7518SOL    HW123453   5.068   3.936   2.419
 7518SOL    HW223454   5.144   4.081   2.416
 7519SOL     OW23455   1.837   0.259   4.931
 7519SOL    HW123456   1.850   0.312   4.847
 7519SOL    HW223457   1.829   0.162   4.908
 7520SOL     OW23458   1.881   0.062   4.478
 7520SOL    HW123459   1.900   0.122   4.556
 7520SOL    HW223460   1.956   7.025   4.469
 7521SOL     OW23461   4.735   3.214   5.946
 7521SOL    HW123462   4.778   3.243   5.860
 7521SOL    HW223463   4.640   3.246   5.948
 7522SOL     OW23464   2.117   6.771   2.698
 7522SOL    HW123465   2.056   6.701   2.736
 7522SOL    HW223466   2.085   6.862   2.725
 7523SOL     OW23467   6.876   6.548   6.902
 7523SOL    HW123468   6.942   6.619   6.927
 7523SOL    HW223469   6.924   6.468   6.866
 7524SOL     OW23470   6.433   1.221   5.175
 7524SOL    HW123471   6.475   1.291   5.116
 7524SOL    HW223472   6.457   1.239   5.270
 7525SOL     OW23473   0.317   0.500   0.872
 7525SOL    HW123474   0.370   0.584   0.876
 7525SOL    HW223475   0.329   0.449   0.958
 7526SOL     OW23476   3.964   2.867   5.635
 7526SOL    HW123477   3.950   2.803   5.711
 7526SOL    HW223478   4.059   2.897   5.633
 7527SOL     OW23479   2.623   6.106   1.968
 7527SOL    HW123480   2.702   6.061   1.926
 7527SOL    HW223481   2.539   6.076   1.922
 7528SOL     OW23482   6.125   3.148   0.233
 7528SOL    HW123483   6.155   3.179   0.143
 7528SOL    HW223484   6.121   3.048   0.234
 7529SOL     OW23485   1.519   0.122   4.051
 7529SOL    HW123486   1.532   0.054   3.979
 7529SOL    HW223487   1.478   0.079   4.131
 7530SOL     OW23488   0.167   3.343   2.852
 7530SOL    HW123489   0.221   3.363   2.934
 7530SOL    HW223490   0.083   3.296   2.879
 7531SOL     OW23491   1.832   1.907   3.965
 7531SOL    HW123492   1.867   1.981   3.908
 7531SOL    HW223493   1.908   1.850   3.998
 7532SOL     OW23494   4.610   4.393   2.185
 7532SOL    HW123495   4.690   4.448   2.162
 7532SOL    HW223496   4.583   4.339   2.105
 7533SOL     OW23497   3.398   0.870   5.074
 7533SOL    HW123498   3.475   0.926   5.044
 7533SOL    HW223499   3.386   0.793   5.011
 7534SOL     OW23500   3.676   6.535   4.225
 7534SOL    HW123501   3.656   6.456   4.167
 7534SOL    HW223502   3.773   6.535   4.250
 7535SOL     OW23503   2.826   5.416   0.057
 7535SOL    HW123504   2.821   5.328   0.105
 7535SOL    HW223505   2.735   5.455   0.048
 7536SOL     OW23506   4.671   5.170   6.408
 7536SOL    HW123507   4.731   5.104   6.362
 7536SOL    HW223508   4.587   5.180   6.356
 7537SOL     OW23509   2.504   4.468   5.234
 7537SOL    HW123510   2.502   4.522   5.150
 7537SOL    HW223511   2.416   4.423   5.247
 7538SOL     OW23512   3.552   4.103   5.206
 7538SOL    HW123513   3.589   4.039   5.273
 7538SOL    HW223514   3.515   4.183   5.253
 7539SOL     OW23515   0.672   2.341   4.711
 7539SOL    HW123516   0.665   2.242   4.724
 7539SOL    HW223517   0.581   2.382   4.713
 7540SOL     OW23518   2.765   0.689   0.268
 7540SOL    HW123519   2.701   0.641   0.208
 7540SOL    HW223520   2.735   0.783   0.281
 7541SOL     OW23521   0.090   2.165   6.070
 7541SOL    HW123522   0.143   2.198   6.148
 7541SOL    HW223523   0.110   2.222   5.990
 7542SOL     OW23524   1.501   0.163   4.625
 7542SOL    HW123525   1.446   0.246   4.616
 7542SOL    HW223526   1.491   0.126   4.717
 7543SOL     OW23527   2.627   2.318   1.350
 7543SOL    HW123528   2.535   2.278   1.353
 7543SOL    HW223529   2.626   2.407   1.395
 7544SOL     OW23530   1.282   2.355   2.110
 7544SOL    HW123531   1.349   2.381   2.040
 7544SOL    HW223532   1.252   2.436   2.160
 7545SOL     OW23533   4.668   0.477   3.389
 7545SOL    HW123534   4.768   0.479   3.397
 7545SOL    HW223535   4.641   0.500   3.295
 7546SOL     OW23536   5.192   6.978   5.356
 7546SOL    HW123537   5.194   0.045   5.384
 7546SOL    HW223538   5.143   6.924   5.424
 7547SOL     OW23539   2.645   6.955   0.206
 7547SOL    HW123540   2.613   6.895   0.133
 7547SOL    HW223541   2.679   6.901   0.283
 7548SOL     OW23542   2.329   3.942   1.219
 7548SOL    HW123543   2.301   3.882   1.294
 7548SOL    HW223544   2.336   3.890   1.134
 7549SOL     OW23545   6.139   0.341   2.410
 7549SOL    HW123546   6.207   0.291   2.463
 7549SOL    HW223547   6.049   0.300   2.424
 7550SOL     OW23548   0.818   5.224   0.916
 7550SOL    HW123549   0.902   5.229   0.970
 7550SOL    HW223550   0.743   5.264   0.969
 7551SOL     OW23551   5.193   3.672   6.223
 7551SOL    HW123552   5.138   3.625   6.154
 7551SOL    HW223553   5.230   3.757   6.184
 7552SOL     OW23554   3.617   5.898   4.043
 7552SOL    HW123555   3.654   5.918   4.134
 7552SOL    HW223556   3.671   5.826   4.000
 7553SOL     OW23557   4.351   4.018   6.308
 7553SOL    HW123558   4.428   4.063   6.351
 7553SOL    HW223559   4.314   4.076   6.235
 7554SOL     OW23560   0.175   1.761   1.129
 7554SOL    HW123561   0.123   1.830   1.079
 7554SOL    HW223562   0.235   1.806   1.195
 7555SOL     OW23563   1.906   6.550   5.695
 7555SOL    HW123564   1.966   6.581   5.769
 7555SOL    HW223565   1.856   6.629   5.658
 7556SOL     OW23566   6.942   3.761   2.724
 7556SOL    HW123567   6.948   3.861   2.730
 7556SOL    HW223568   6.848   3.732   2.745
 7557SOL     OW23569   4.102   3.814   0.451
 7557SOL    HW123570   4.105   3.763   0.537
 7557SOL    HW223571   4.013   3.857   0.442
 7558SOL     OW23572   1.734   3.463   3.489
 7558SOL    HW123573   1.775   3.377   3.458
 7558SOL    HW223574   1.641   3.445   3.523
 7559SOL     OW23575   0.780   4.658   0.592
 7559SOL    HW123576   0.680   4.653   0.594
 7559SOL    HW223577   0.811   4.729   0.656
 7560SOL     OW23578   4.632   0.109   5.785
 7560SOL    HW123579   4.707   0.052   5.751
 7560SOL    HW223580   4.631   0.196   5.734
 7561SOL     OW23581   0.955   3.349   6.849
 7561SOL    HW123582   1.024   3.354   6.921
 7561SOL    HW223583   0.864   3.355   6.890
 7562SOL     OW23584   4.388   6.285   5.270
 7562SOL    HW123585   4.445   6.203   5.277
 7562SOL    HW223586   4.307   6.265   5.215
 7563SOL     OW23587   1.952   1.208   3.544
 7563SOL    HW123588   1.872   1.154   3.518
 7563SOL    HW223589   1.959   1.211   3.644
 7564SOL     OW23590   6.204   5.500   4.078
 7564SOL    HW123591   6.194   5.473   3.982
 7564SOL    HW223592   6.164   5.591   4.091
 7565SOL     OW23593   5.372   4.745   6.407
 7565SOL    HW123594   5.332   4.784   6.490
 7565SOL    HW223595   5.376   4.645   6.415
 7566SOL     OW23596   1.789   5.341   4.412
 7566SOL    HW123597   1.803   5.432   4.374
 7566SOL    HW223598   1.703   5.303   4.377
 7567SOL     OW23599   2.636   3.549   0.081
 7567SOL    HW123600   2.637   3.649   0.088
 7567SOL    HW223601   2.548   3.514   0.113
 7568SOL     OW23602   4.202   4.782   3.743
 7568SOL    HW123603   4.201   4.877   3.775
 7568SOL    HW223604   4.169   4.778   3.649
 7569SOL     OW23605   3.846   0.142   2.615
 7569SOL    HW123606   3.906   0.062   2.609
 7569SOL    HW223607   3.774   0.135   2.546
 7570SOL     OW23608   5.906   4.391   5.177
 7570SOL    HW123609   5.840   4.328   5.218
 7570SOL    HW223610   5.857   4.461   5.124
 7571SOL     OW23611   6.808   3.896   6.976
 7571SOL    HW123612   6.804   3.853   6.886
 7571SOL    HW223613   6.890   3.953   6.982
 7572SOL     OW23614   6.333   1.760   3.464
 7572SOL    HW123615   6.326   1.790   3.368
 7572SOL    HW223616   6.242   1.744   3.501
 7573SOL     OW23617   3.652   5.228   3.595
 7573SOL    HW123618   3.723   5.252   3.660
 7573SOL    HW223619   3.685   5.154   3.536
 7574SOL     OW23620   4.167   5.876   1.518
 7574SOL    HW123621   4.127   5.849   1.431
 7574SOL    HW223622   4.114   5.836   1.593
 7575SOL     OW23623   4.801   3.120   4.325
 7575SOL    HW123624   4.807   3.082   4.233
 7575SOL    HW223625   4.887   3.163   4.349
 7576SOL     OW23626   0.273   3.939   1.758
 7576SOL    HW123627   0.242   4.017   1.704
 7576SOL    HW223628   0.304   3.970   1.848
 7577SOL     OW23629   3.948   1.284   4.165
 7577SOL    HW123630   3.903   1.374   4.159
 7577SOL    HW223631   3.900   1.227   4.232
 7578SOL     OW23632   2.331   5.428   5.213
 7578SOL    HW123633   2.422   5.401   5.180
 7578SOL    HW223634   2.269   5.350   5.210
 7579SOL     OW23635   4.638   2.118   4.184
 7579SOL    HW123636   4.653   2.089   4.089
 7579SOL    HW223637   4.718   2.170   4.216
 7580SOL     OW23638   2.059   3.279   2.070
 7580SOL    HW123639   2.107   3.367   2.074
 7580SOL    HW223640   1.973   3.291   2.020
 7581SOL     OW23641   5.771   1.010   0.833
 7581SOL    HW123642   5.775   1.103   0.870
 7581SOL    HW223643   5.740   1.014   0.738
 7582SOL     OW23644   4.074   2.800   1.219
 7582SOL    HW123645   4.056   2.854   1.137
 7582SOL    HW223646   4.093   2.861   1.296
 7583SOL     OW23647   6.978   3.939   3.065
 7583SOL    HW123648   6.883   3.915   3.042
 7583SOL    HW223649   0.012   3.879   3.016
 7584SOL     OW23650   1.767   2.081   1.843
 7584SOL    HW123651   1.785   2.109   1.937
 7584SOL    HW223652   1.852   2.051   1.800
 7585SOL     OW23653   2.667   4.271   0.832
 7585SOL    HW123654   2.641   4.181   0.798
 7585SOL    HW223655   2.760   4.293   0.800
 7586SOL     OW23656   1.731   2.495   3.511
 7586SOL    HW123657   1.754   2.574   3.454
 7586SOL    HW223658   1.703   2.527   3.602
 7587SOL     OW23659   2.594   1.097   5.447
 7587SOL    HW123660   2.526   1.161   5.481
 7587SOL    HW223661   2.612   1.027   5.516
 7588SOL     OW23662   0.585   4.984   1.896
 7588SOL    HW123663   0.529   5.032   1.964
 7588SOL    HW223664   0.536   4.980   1.809
 7589SOL     OW23665   5.088   5.607   5.992
 7589SOL    HW123666   5.134   5.526   5.955
 7589SOL    HW223667   5.005   5.624   5.939
 7590SOL     OW23668   2.011   0.960   5.337
 7590SOL    HW123669   2.071   0.898   5.387
 7590SOL    HW223670   1.921   0.964   5.381
 7591SOL     OW23671   6.737   5.988   6.446
 7591SOL    HW123672   6.713   6.065   6.506
 7591SOL    HW223673   6.797   6.020   6.373
 7592SOL     OW23674   4.414   4.526   6.039
 7592SOL    HW123675   4.362   4.451   5.998
 7592SOL    HW223676   4.414   4.604   5.977
 7593SOL     OW23677   6.618   4.531   0.198
 7593SOL    HW123678   6.542   4.478   0.160
 7593SOL    HW223679   6.697   4.471   0.211
 7594SOL     OW23680   0.688   6.837   3.732
 7594SOL    HW123681   0.740   6.775   3.791
 7594SOL    HW223682   0.693   6.804   3.637
 7595SOL     OW23683   7.007   3.422   6.794
 7595SOL    HW123684   6.934   3.455   6.854
 7595SOL    HW223685   6.969   3.353   6.732
 7596SOL     OW23686   4.668   5.564   2.130
 7596SOL    HW123687   4.750   5.618   2.146
 7596SOL    HW223688   4.605   5.575   2.207
 7597SOL     OW23689   2.379   4.749   1.886
 7597SOL    HW123690   2.403   4.696   1.967
 7597SOL    HW223691   2.416   4.842   1.895
 7598SOL     OW23692   6.318   0.707   2.744
 7598SOL    HW123693   6.335   0.796   2.700
 7598SOL    HW223694   6.398   0.682   2.800
 7599SOL     OW23695   5.573   3.613   2.147
 7599SOL    HW123696   5.619   3.664   2.219
 7599SOL    HW223697   5.633   3.605   2.068
 7600SOL     OW23698   2.382   2.342   2.816
 7600SOL    HW123699   2.438   2.393   2.881
 7600SOL    HW223700   2.439   2.272   2.771
 7601SOL     OW23701   1.776   0.700   5.362
 7601SOL    HW123702   1.724   0.785   5.364
 7601SOL    HW223703   1.837   0.696   5.442
 7602SOL     OW23704   1.777   2.921   5.416
 7602SOL    HW123705   1.689   2.964   5.398
 7602SOL    HW223706   1.831   2.919   5.333
 7603SOL     OW23707   6.880   1.712   2.182
 7603SOL    HW123708   6.905   1.673   2.093
 7603SOL    HW223709   6.940   1.674   2.253
 7604SOL     OW23710   5.630   5.500   6.403
 7604SOL    HW123711   5.586   5.411   6.400
 7604SOL    HW223712   5.564   5.570   6.375
 7605SOL     OW23713   5.425   3.299   5.879
 7605SOL    HW123714   5.404   3.221   5.820
 7605SOL    HW223715   5.477   3.268   5.958
 7606SOL     OW23716   5.841   1.287   3.779
 7606SOL    HW123717   5.784   1.239   3.713
 7606SOL    HW223718   5.795   1.371   3.809
 7607SOL     OW23719   5.272   6.368   5.729
 7607SOL    HW123720   5.306   6.411   5.812
 7607SOL    HW223721   5.290   6.269   5.733
 7608SOL     OW23722   3.762   3.782   5.137
 7608SOL    HW123723   3.797   3.840   5.063
 7608SOL    HW223724   3.734   3.838   5.214
 7609SOL     OW23725   1.019   2.647   3.026
 7609SOL    HW123726   1.020   2.666   3.124
 7609SOL    HW223727   1.112   2.630   2.995
 7610SOL     OW23728   5.331   0.428   2.322
 7610SOL    HW123729   5.399   0.358   2.345
 7610SOL    HW223730   5.334   0.448   2.224
 7611SOL     OW23731   1.585   1.614   1.534
 7611SOL    HW123732   1.498   1.664   1.538
 7611SOL    HW223733   1.568   1.517   1.548
 7612SOL     OW23734   4.572   1.561   2.790
 7612SOL    HW123735   4.574   1.500   2.711
 7612SOL    HW223736   4.486   1.549   2.840
 7613SOL     OW23737   6.367   0.524   2.134
 7613SOL    HW123738   6.332   0.607   2.177
 7613SOL    HW223739   6.300   0.451   2.143
 7614SOL     OW23740   4.775   0.946   0.600
 7614SOL    HW123741   4.775   1.038   0.641
 7614SOL    HW223742   4.795   0.954   0.502
 7615SOL     OW23743   3.509   5.117   5.440
 7615SOL    HW123744   3.507   5.207   5.398
 7615SOL    HW223745   3.510   5.046   5.369
 7616SOL     OW23746   0.234   6.109   3.411
 7616SOL    HW123747   0.331   6.133   3.406
 7616SOL    HW223748   0.224   6.018   3.451
 7617SOL     OW23749   3.855   5.558   3.733
 7617SOL    HW123750   3.841   5.537   3.637
 7617SOL    HW223751   3.953   5.573   3.750
 7618SOL     OW23752   3.358   1.679   6.802
 7618SOL    HW123753   3.439   1.629   6.834
 7618SOL    HW223754   3.300   1.703   6.880
 7619SOL     OW23755   5.556   3.004   5.651
 7619SOL    HW123756   5.547   2.944   5.571
 7619SOL    HW223757   5.559   3.099   5.621
 7620SOL     OW23758   3.287   5.571   1.664
 7620SOL    HW123759   3.224   5.604   1.593
 7620SOL    HW223760   3.308   5.475   1.647
 7621SOL     OW23761   2.547   2.807   1.115
 7621SOL    HW123762   2.591   2.848   1.036
 7621SOL    HW223763   2.447   2.810   1.104
 7622SOL     OW23764   4.793   2.128   1.025
 7622SOL    HW123765   4.819   2.031   1.018
 7622SOL    HW223766   4.865   2.179   1.071
 7623SOL     OW23767   6.787   6.378   4.953
 7623SOL    HW123768   6.737   6.465   4.950
 7623SOL    HW223769   6.723   6.302   4.944
 7624SOL     OW23770   6.800   0.812   4.804
 7624SOL    HW123771   6.865   0.854   4.866
 7624SOL    HW223772   6.738   0.752   4.855
 7625SOL     OW23773   2.784   4.941   0.936
 7625SOL    HW123774   2.868   4.913   0.983
 7625SOL    HW223775   2.711   4.875   0.957
 7626SOL     OW23776   2.801   4.143   5.418
 7626SOL    HW123777   2.785   4.155   5.516
 7626SOL    HW223778   2.785   4.229   5.371
 7627SOL     OW23779   6.758   1.027   0.428
 7627SOL    HW123780   6.724   1.104   0.373
 7627SOL    HW223781   6.775   1.058   0.521
 7628SOL     OW23782   4.520   1.612   0.462
 7628SOL    HW123783   4.584   1.565   0.524
 7628SOL    HW223784   4.524   1.710   0.478
 7629SOL     OW23785   6.002   5.861   2.962
 7629SOL    HW123786   5.986   5.905   2.874
 7629SOL    HW223787   6.060   5.781   2.949
 7630SOL     OW23788   6.152   1.698   1.911
 7630SOL    HW123789   6.156   1.599   1.922
 7630SOL    HW223790   6.165   1.722   1.815
 7631SOL     OW23791   1.247   0.535   3.855
 7631SOL    HW123792   1.292   0.577   3.934
 7631SOL    HW223793   1.219   0.442   3.879
 7632SOL     OW23794   4.373   0.935   4.793
 7632SOL    HW123795   4.461   0.925   4.838
 7632SOL    HW223796   4.343   1.030   4.799
 7633SOL     OW23797   6.231   3.533   6.233
 7633SOL    HW123798   6.159   3.469   6.207
 7633SOL    HW223799   6.256   3.517   6.328
 7634SOL     OW23800   1.419   2.467   1.885
 7634SOL    HW123801   1.421   2.561   1.853
 7634SOL    HW223802   1.499   2.418   1.849
 7635SOL     OW23803   2.543   4.715   5.907
 7635SOL    HW123804   2.541   4.710   5.807
 7635SOL    HW223805   2.603   4.643   5.942
 7636SOL     OW23806   0.869   0.854   3.657
 7636SOL    HW123807   0.780   0.887   3.690
 7636SOL    HW223808   0.875   0.868   3.558
 7637SOL     OW23809   2.894   5.866   4.156
 7637SOL    HW123810   2.924   5.895   4.247
 7637SOL    HW223811   2.950   5.789   4.125
 7638SOL     OW23812   4.446   4.311   1.601
 7638SOL    HW123813   4.373   4.277   1.541
 7638SOL    HW223814   4.437   4.269   1.691
 7639SOL     OW23815   0.663   2.418   4.422
 7639SOL    HW123816   0.696   2.442   4.513
 7639SOL    HW223817   0.718   2.343   4.384
 7640SOL     OW23818   2.065   3.351   6.144
 7640SOL    HW123819   2.052   3.423   6.075
 7640SOL    HW223820   2.076   3.263   6.098
 7641SOL     OW23821   5.875   3.830   2.146
 7641SOL    HW123822   5.798   3.805   2.205
 7641SOL    HW223823   5.931   3.900   2.191
 7642SOL     OW23824   1.291   2.351   2.738
 7642SOL    HW123825   1.284   2.359   2.638
 7642SOL    HW223826   1.366   2.289   2.761
 7643SOL     OW23827   5.463   3.812   3.075
 7643SOL    HW123828   5.444   3.875   2.999
 7643SOL    HW223829   5.391   3.819   3.143
 7644SOL     OW23830   6.168   3.361   3.947
 7644SOL    HW123831   6.093   3.426   3.949
 7644SOL    HW223832   6.249   3.404   3.906
 7645SOL     OW23833   4.008   3.083   0.690
 7645SOL    HW123834   4.017   2.986   0.668
 7645SOL    HW223835   3.973   3.132   0.609
 7646SOL     OW23836   1.081   0.087   1.865
 7646SOL    HW123837   1.096   7.023   1.900
 7646SOL    HW223838   1.069   0.084   1.766
 7647SOL     OW23839   2.427   4.544   7.010
 7647SOL    HW123840   2.427   4.641   6.984
 7647SOL    HW223841   2.342   4.501   6.978
 7648SOL     OW23842   2.782   0.209   3.703
 7648SOL    HW123843   2.806   0.121   3.661
 7648SOL    HW223844   2.695   0.241   3.665
 7649SOL     OW23845   3.346   2.118   1.520
 7649SOL    HW123846   3.400   2.147   1.599
 7649SOL    HW223847   3.273   2.057   1.550
 7650SOL     OW23848   6.593   4.899   0.773
 7650SOL    HW123849   6.585   4.868   0.868
 7650SOL    HW223850   6.535   4.844   0.714
 7651SOL     OW23851   5.679   1.730   5.926
 7651SOL    HW123852   5.712   1.815   5.885
 7651SOL    HW223853   5.585   1.742   5.956
 7652SOL     OW23854   1.081   3.534   2.755
 7652SOL    HW123855   1.050   3.478   2.832
 7652SOL    HW223856   1.043   3.626   2.764
 7653SOL     OW23857   4.712   2.262   2.241
 7653SOL    HW123858   4.629   2.315   2.259
 7653SOL    HW223859   4.722   2.191   2.310
 7654SOL     OW23860   5.327   3.750   5.388
 7654SOL    HW123861   5.387   3.672   5.404
 7654SOL    HW223862   5.350   3.792   5.300
 7655SOL     OW23863   5.015   5.151   6.837
 7655SOL    HW123864   4.967   5.205   6.907
 7655SOL    HW223865   4.964   5.156   6.751
 7656SOL     OW23866   0.490   0.568   5.270
 7656SOL    HW123867   0.488   0.594   5.367
 7656SOL    HW223868   0.450   0.642   5.215
 7657SOL     OW23869   4.024   1.828   3.414
 7657SOL    HW123870   4.064   1.841   3.505
 7657SOL    HW223871   3.928   1.856   3.416
 7658SOL     OW23872   4.188   0.668   5.707
 7658SOL    HW123873   4.253   0.685   5.633
 7658SOL    HW223874   4.098   0.705   5.683
 7659SOL     OW23875   5.122   6.051   6.199
 7659SOL    HW123876   5.109   5.973   6.138
 7659SOL    HW223877   5.211   6.044   6.244
 7660SOL     OW23878   5.345   5.196   3.956
 7660SOL    HW123879   5.349   5.113   4.012
 7660SOL    HW223880   5.250   5.229   3.953
 7661SOL     OW23881   5.788   3.333   3.874
 7661SOL    HW123882   5.845   3.414   3.863
 7661SOL    HW223883   5.719   3.330   3.802
 7662SOL     OW23884   6.213   5.464   3.432
 7662SOL    HW123885   6.291   5.505   3.479
 7662SOL    HW223886   6.158   5.412   3.498
 7663SOL     OW23887   0.879   6.095   0.413
 7663SOL    HW123888   0.861   6.179   0.464
 7663SOL    HW223889   0.950   6.042   0.460
 7664SOL     OW23890   3.686   5.472   4.705
 7664SOL    HW123891   3.766   5.507   4.656
 7664SOL    HW223892   3.649   5.544   4.764
 7665SOL     OW23893   1.942   5.648   3.814
 7665SOL    HW123894   1.855   5.601   3.800
 7665SOL    HW223895   1.980   5.620   3.902
 7666SOL     OW23896   1.967   0.628   2.633
 7666SOL    HW123897   1.920   0.713   2.655
 7666SOL    HW223898   1.916   0.551   2.672
 7667SOL     OW23899   5.828   6.799   5.859
 7667SOL    HW123900   5.801   6.894   5.872
 7667SOL    HW223901   5.747   6.741   5.859
 7668SOL     OW23902   3.359   3.618   2.253
 7668SOL    HW123903   3.277   3.660   2.215
 7668SOL    HW223904   3.366   3.524   2.219
 7669SOL     OW23905   4.453   6.623   4.909
 7669SOL    HW123906   4.408   6.538   4.880
 7669SOL    HW223907   4.431   6.641   5.005
 7670SOL     OW23908   1.839   5.932   0.863
 7670SOL    HW123909   1.800   5.862   0.804
 7670SOL    HW223910   1.800   6.021   0.840
 7671SOL     OW23911   4.602   2.597   4.751
 7671SOL    HW123912   4.672   2.535   4.785
 7671SOL    HW223913   4.518   2.546   4.732
 7672SOL     OW23914   6.255   0.156   1.500
 7672SOL    HW123915   6.238   0.143   1.597
 7672SOL    HW223916   6.167   0.167   1.452
 7673SOL     OW23917   1.379   3.253   0.550
 7673SOL    HW123918   1.288   3.226   0.518
 7673SOL    HW223919   1.438   3.271   0.471
 7674SOL     OW23920   5.992   1.019   5.257
 7674SOL    HW123921   5.897   1.018   5.288
 7674SOL    HW223922   6.034   1.108   5.279
 7675SOL     OW23923   5.059   0.763   3.234
 7675SOL    HW123924   5.053   0.750   3.135
 7675SOL    HW223925   5.154   0.784   3.259
 7676SOL     OW23926   1.844   6.825   1.107
 7676SOL    HW123927   1.938   6.859   1.109
 7676SOL    HW223928   1.835   6.747   1.169
 7677SOL     OW23929   2.053   2.967   2.781
 7677SOL    HW123930   2.087   3.022   2.705
 7677SOL    HW223931   2.126   2.907   2.814
 7678SOL     OW23932   4.885   6.784   5.784
 7678SOL    HW123933   4.837   6.791   5.872
 7678SOL    HW223934   4.971   6.735   5.797
 7679SOL     OW23935   1.584   4.920   4.432
 7679SOL    HW123936   1.522   4.909   4.510
 7679SOL    HW223937   1.634   5.006   4.441
 7680SOL     OW23938   4.711   0.428   0.434
 7680SOL    HW123939   4.705   0.406   0.531
 7680SOL    HW223940   4.682   0.523   0.419
 7681SOL     OW23941   4.013   2.267   5.707
 7681SOL    HW123942   4.005   2.174   5.672
 7681SOL    HW223943   3.936   2.288   5.766
 7682SOL     OW23944   2.803   0.615   0.525
 7682SOL    HW123945   2.725   0.674   0.547
 7682SOL    HW223946   2.830   0.630   0.430
 7683SOL     OW23947   6.848   3.256   3.756
 7683SOL    HW123948   6.934   3.281   3.713
 7683SOL    HW223949   6.773   3.275   3.693
 7684SOL     OW23950   3.816   1.404   5.829
 7684SOL    HW123951   3.874   1.484   5.820
 7684SOL    HW223952   3.779   1.400   5.922
 7685SOL     OW23953   4.395   3.867   1.249
 7685SOL    HW123954   4.415   3.965   1.258
 7685SOL    HW223955   4.366   3.831   1.337
 7686SOL     OW23956   2.160   0.789   2.302
 7686SOL    HW123957   2.149   0.885   2.278
 7686SOL    HW223958   2.217   0.744   2.232
 7687SOL     OW23959   4.744   4.156   5.646
 7687SOL    HW123960   4.713   4.194   5.733
 7687SOL    HW223961   4.813   4.086   5.663
 7688SOL     OW23962   6.501   0.797   3.314
 7688SOL    HW123963   6.470   0.726   3.250
 7688SOL    HW223964   6.499   0.762   3.407
 7689SOL     OW23965   3.318   6.950   5.013
 7689SOL    HW123966   3.316   6.940   5.113
 7689SOL    HW223967   3.355   6.867   4.972
 7690SOL     OW23968   1.075   5.522   2.977
 7690SOL    HW123969   0.977   5.535   2.960
 7690SOL    HW223970   1.090   5.507   3.074
 7691SOL     OW23971   6.831   3.531   5.532
 7691SOL    HW123972   6.883   3.609   5.566
 7691SOL    HW223973   6.766   3.563   5.463
 7692SOL     OW23974   1.508   6.209   0.945
 7692SOL    HW123975   1.568   6.150   0.999
 7692SOL    HW223976   1.427   6.233   1.000
 7693SOL     OW23977   4.975   1.186   0.476
 7693SOL    HW123978   4.985   1.241   0.559
 7693SOL    HW223979   5.062   1.143   0.453
 7694SOL     OW23980   5.966   4.560   3.165
 7694SOL    HW123981   5.985   4.462   3.159
 7694SOL    HW223982   5.935   4.583   3.257
 7695SOL     OW23983   4.781   0.611   6.725
 7695SOL    HW123984   4.830   0.524   6.721
 7695SOL    HW223985   4.821   0.675   6.659
 7696SOL     OW23986   1.081   3.866   5.453
 7696SOL    HW123987   1.107   3.937   5.519
 7696SOL    HW223988   1.001   3.817   5.486
 7697SOL     OW23989   4.618   1.280   2.284
 7697SOL    HW123990   4.572   1.198   2.320
 7697SOL    HW223991   4.708   1.254   2.248
 7698SOL     OW23992   0.116   1.883   6.139
 7698SOL    HW123993   0.160   1.864   6.051
 7698SOL    HW223994   0.081   1.976   6.139
 7699SOL     OW23995   3.174   3.392   1.046
 7699SOL    HW123996   3.176   3.366   1.143
 7699SOL    HW223997   3.079   3.394   1.014
 7700SOL     OW23998   5.396   6.978   4.905
 7700SOL    HW123999   5.473   6.940   4.956
 7700SOL    HW224000   5.400   0.050   4.909
 7701SOL     OW24001   6.498   2.068   5.346
 7701SOL    HW124002   6.531   2.107   5.260
 7701SOL    HW224003   6.414   2.016   5.329
 7702SOL     OW24004   1.340   6.420   6.539
 7702SOL    HW124005   1.246   6.440   6.511
 7702SOL    HW224006   1.358   6.322   6.524
 7703SOL     OW24007   0.734   2.199   6.348
 7703SOL    HW124008   0.741   2.299   6.344
 7703SOL    HW224009   0.823   2.159   6.326
 7704SOL     OW24010   3.063   3.565   1.369
 7704SOL    HW124011   3.038   3.469   1.381
 7704SOL    HW224012   3.159   3.572   1.343
 7705SOL     OW24013   4.117   3.614   4.678
 7705SOL    HW124014   4.143   3.686   4.613
 7705SOL    HW224015   4.110   3.527   4.630
 7706SOL     OW24016   6.355   1.053   5.467
 7706SOL    HW124017   6.286   0.987   5.437
 7706SOL    HW224018   6.332   1.144   5.433
 7707SOL     OW24019   6.855   5.378   6.364
 7707SOL    HW124020   6.931   5.429   6.404
 7707SOL    HW224021   6.799   5.339   6.438
 7708SOL     OW24022   4.976   1.340   5.094
 7708SOL    HW124023   4.976   1.409   5.022
 7708SOL    HW224024   5.010   1.253   5.056
 7709SOL     OW24025   3.584   2.594   1.210
 7709SOL    HW124026   3.680   2.588   1.234
 7709SOL    HW224027   3.562   2.688   1.183
 7710SOL     OW24028   3.750   2.066   6.886
 7710SOL    HW124029   3.845   2.037   6.879
 7710SOL    HW224030   3.723   2.070   6.982
 7711SOL     OW24031   4.348   5.904   4.911
 7711SOL    HW124032   4.440   5.884   4.944
 7711SOL    HW224033   4.352   5.973   4.839
 7712SOL     OW24034   6.336   4.130   6.329
 7712SOL    HW124035   6.304   4.225   6.326
 7712SOL    HW224036   6.263   4.073   6.368
 7713SOL     OW24037   0.417   5.499   6.582
 7713SOL    HW124038   0.396   5.502   6.484
 7713SOL    HW224039   0.351   5.440   6.628
 7714SOL     OW24040   5.552   4.112   4.738
 7714SOL    HW124041   5.464   4.066   4.733
 7714SOL    HW224042   5.572   4.138   4.833
 7715SOL     OW24043   3.871   2.352   1.693
 7715SOL    HW124044   3.813   2.352   1.611
 7715SOL    HW224045   3.812   2.352   1.774
 7716SOL     OW24046   4.177   2.283   4.464
 7716SOL    HW124047   4.083   2.265   4.437
 7716SOL    HW224048   4.239   2.253   4.391
 7717SOL     OW24049   2.905   0.029   6.689
 7717SOL    HW124050   3.001   0.046   6.712
 7717SOL    HW224051   2.900   7.009   6.601
 7718SOL     OW24052   2.395   6.466   3.568
 7718SOL    HW124053   2.441   6.509   3.646
 7718SOL    HW224054   2.443   6.381   3.544
 7719SOL     OW24055   5.778   2.694   5.081
 7719SOL    HW124056   5.749   2.604   5.046
 7719SOL    HW224057   5.876   2.693   5.097
 7720SOL     OW24058   4.546   6.522   1.300
 7720SOL    HW124059   4.508   6.556   1.385
 7720SOL    HW224060   4.523   6.584   1.225
 7721SOL     OW24061   0.738   5.398   2.744
 7721SOL    HW124062   0.702   5.472   2.801
 7721SOL    HW224063   0.822   5.362   2.784
 7722SOL     OW24064   0.669   5.940   3.889
 7722SOL    HW124065   0.663   6.022   3.945
 7722SOL    HW224066   0.610   5.950   3.809
 7723SOL     OW24067   6.793   1.924   0.006
 7723SOL    HW124068   6.779   1.907   6.937
 7723SOL    HW224069   6.845   1.848   0.046
 7724SOL     OW24070   2.324   6.212   6.667
 7724SOL    HW124071   2.423   6.225   6.671
 7724SOL    HW224072   2.303   6.114   6.674
 7725SOL     OW24073   5.392   3.934   3.811
 7725SOL    HW124074   5.330   3.873   3.860
 7725SOL    HW224075   5.422   3.890   3.726
 7726SOL     OW24076   5.202   5.327   3.350
 7726SOL    HW124077   5.155   5.380   3.279
 7726SOL    HW224078   5.217   5.386   3.429
 7727SOL     OW24079   5.994   3.708   1.781
 7727SOL    HW124080   6.091   3.685   1.789
 7727SOL    HW224081   5.941   3.645   1.837
 7728SOL     OW24082   1.868   2.757   2.752
 7728SOL    HW124083   1.953   2.807   2.734
 7728SOL    HW224084   1.880   2.699   2.833
 7729SOL     OW24085   5.382   1.762   5.984
 7729SOL    HW124086   5.286   1.734   5.970
 7729SOL    HW224087   5.387   1.861   5.994
 7730SOL     OW24088   4.429   6.924   2.476
 7730SOL    HW124089   4.512   6.905   2.423
 7730SOL    HW224090   4.451   6.988   2.550
 7731SOL     OW24091   6.091   1.697   3.590
 7731SOL    HW124092   6.012   1.720   3.532
 7731SOL    HW224093   6.060   1.641   3.667
 7732SOL     OW24094   4.578   5.161   0.505
 7732SOL    HW124095   4.528   5.225   0.448
 7732SOL    HW224096   4.663   5.134   0.459
 7733SOL     OW24097   3.372   5.536   1.013
 7733SOL    HW124098   3.377   5.465   0.943
 7733SOL    HW224099   3.355   5.494   1.102
 7734SOL     OW24100   1.407   2.983   2.080
 7734SOL    HW124101   1.369   3.053   2.141
 7734SOL    HW224102   1.351   2.978   1.997
 7735SOL     OW24103   5.549   4.327   0.478
 7735SOL    HW124104   5.468   4.354   0.530
 7735SOL    HW224105   5.528   4.247   0.423
 7736SOL     OW24106   5.793   4.459   6.565
 7736SOL    HW124107   5.806   4.408   6.480
 7736SOL    HW224108   5.879   4.504   6.590
 7737SOL     OW24109   5.079   2.871   6.990
 7737SOL    HW124110   5.176   2.877   6.967
 7737SOL    HW224111   5.046   2.960   7.020
 7738SOL     OW24112   2.013   5.044   6.767
 7738SOL    HW124113   2.026   5.126   6.712
 7738SOL    HW224114   1.917   5.036   6.793
 7739SOL     OW24115   5.290   4.267   2.648
 7739SOL    HW124116   5.384   4.297   2.631
 7739SOL    HW224117   5.287   4.207   2.728
 7740SOL     OW24118   6.931   5.955   3.842
 7740SOL    HW124119   6.989   6.036   3.833
 7740SOL    HW224120   6.837   5.979   3.817
 7741SOL     OW24121   3.197   5.242   3.540
 7741SOL    HW124122   3.263   5.297   3.593
 7741SOL    HW224123   3.131   5.200   3.603
 7742SOL     OW24124   6.965   0.697   4.589
 7742SOL    HW124125   6.918   0.748   4.662
 7742SOL    HW224126   7.027   0.758   4.540
 7743SOL     OW24127   5.005   3.357   2.377
 7743SOL    HW124128   4.949   3.283   2.340
 7743SOL    HW224129   5.018   3.343   2.475
 7744SOL     OW24130   0.466   6.510   4.751
 7744SOL    HW124131   0.409   6.491   4.831
 7744SOL    HW224132   0.409   6.507   4.668
 7745SOL     OW24133   5.603   2.856   5.430
 7745SOL    HW124134   5.659   2.929   5.393
 7745SOL    HW224135   5.506   2.878   5.418
 7746SOL     OW24136   1.782   0.783   6.389
 7746SOL    HW124137   1.720   0.837   6.446
 7746SOL    HW224138   1.873   0.824   6.390
 7747SOL     OW24139   4.472   5.364   0.362
 7747SOL    HW124140   4.458   5.394   0.268
 7747SOL    HW224141   4.414   5.417   0.424
 7748SOL     OW24142   1.950   3.929   6.958
 7748SOL    HW124143   1.865   3.888   6.924
 7748SOL    HW224144   1.929   3.990   0.005
 7749SOL     OW24145   5.961   3.117   6.269
 7749SOL    HW124146   5.865   3.097   6.291
 7749SOL    HW224147   5.982   3.080   6.178
 7750SOL     OW24148   4.513   5.506   3.199
 7750SOL    HW124149   4.512   5.452   3.114
 7750SOL    HW224150   4.574   5.463   3.265
 7751SOL     OW24151   0.665   2.254   1.122
 7751SOL    HW124152   0.637   2.313   1.197
 7751SOL    HW224153   0.641   2.159   1.143
 7752SOL     OW24154   3.459   0.864   2.990
 7752SOL    HW124155   3.521   0.934   2.955
 7752SOL    HW224156   3.498   0.773   2.973
 7753SOL     OW24157   3.898   0.748   5.681
 7753SOL    HW124158   3.867   0.841   5.699
 7753SOL    HW224159   3.857   0.715   5.596
 7754SOL     OW24160   4.408   5.672   1.350
 7754SOL    HW124161   4.420   5.762   1.392
 7754SOL    HW224162   4.311   5.656   1.333
 7755SOL     OW24163   0.429   4.216   6.366
 7755SOL    HW124164   0.367   4.176   6.299
 7755SOL    HW224165   0.385   4.219   6.455
 7756SOL     OW24166   1.929   3.754   2.582
 7756SOL    HW124167   1.845   3.725   2.628
 7756SOL    HW224168   2.008   3.709   2.624
 7757SOL     OW24169   0.683   4.552   0.163
 7757SOL    HW124170   0.761   4.498   0.196
 7757SOL    HW224171   0.603   4.493   0.156
 7758SOL     OW24172   0.879   1.183   5.729
 7758SOL    HW124173   0.782   1.168   5.749
 7758SOL    HW224174   0.934   1.158   5.808
 7759SOL     OW24175   3.731   1.000   2.374
 7759SOL    HW124176   3.796   1.036   2.440
 7759SOL    HW224177   3.640   0.996   2.415
 7760SOL     OW24178   4.608   3.001   0.140
 7760SOL    HW124179   4.532   2.948   0.102
 7760SOL    HW224180   4.638   3.070   0.074
 7761SOL     OW24181   5.564   5.417   3.209
 7761SOL    HW124182   5.552   5.503   3.257
 7761SOL    HW224183   5.482   5.396   3.155
 7762SOL     OW24184   4.666   1.596   1.149
 7762SOL    HW124185   4.612   1.526   1.103
 7762SOL    HW224186   4.758   1.599   1.110
 7763SOL     OW24187   1.800   0.608   3.596
 7763SOL    HW124188   1.721   0.613   3.656
 7763SOL    HW224189   1.787   0.669   3.518
 7764SOL     OW24190   3.787   4.787   5.230
 7764SOL    HW124191   3.723   4.863   5.243
 7764SOL    HW224192   3.750   4.704   5.272
 7765SOL     OW24193   6.736   4.141   4.842
 7765SOL    HW124194   6.646   4.126   4.801
 7765SOL    HW224195   6.772   4.229   4.811
 7766SOL     OW24196   6.911   1.739   6.111
 7766SOL    HW124197   6.872   1.814   6.057
 7766SOL    HW224198   7.011   1.747   6.113
 7767SOL     OW24199   4.474   0.247   3.942
 7767SOL    HW124200   4.386   0.288   3.917
 7767SOL    HW224201   4.486   0.249   4.041
 7768SOL     OW24202   3.396   5.665   3.354
 7768SOL    HW124203   3.380   5.736   3.422
 7768SOL    HW224204   3.469   5.693   3.292
 7769SOL     OW24205   4.166   2.375   6.490
 7769SOL    HW124206   4.104   2.321   6.434
 7769SOL    HW224207   4.143   2.363   6.587
 7770SOL     OW24208   1.211   3.048   3.658
 7770SOL    HW124209   1.150   3.073   3.733
 7770SOL    HW224210   1.161   3.052   3.571
 7771SOL     OW24211   1.145   4.050   4.928
 7771SOL    HW124212   1.206   4.065   5.006
 7771SOL    HW224213   1.097   3.963   4.940
 7772SOL     OW24214   4.796   5.441   1.904
 7772SOL    HW124215   4.737   5.465   1.981
 7772SOL    HW224216   4.806   5.342   1.899
 7773SOL     OW24217   2.769   6.399   7.025
 7773SOL    HW124218   2.740   6.339   6.951
 7773SOL    HW224219   2.689   6.427   0.049
 7774SOL     OW24220   4.993   1.222   2.880
 7774SOL    HW124221   4.924   1.174   2.826
 7774SOL    HW224222   4.962   1.315   2.899
 7775SOL     OW24223   3.504   1.919   0.892
 7775SOL    HW124224   3.418   1.920   0.942
 7775SOL    HW224225   3.553   2.005   0.909
 7776SOL     OW24226   2.783   1.309   3.837
 7776SOL    HW124227   2.704   1.270   3.790
 7776SOL    HW224228   2.752   1.365   3.913
 7777SOL     OW24229   5.077   5.081   3.278
 7777SOL    HW124230   5.068   5.167   3.328
 7777SOL    HW224231   5.051   5.005   3.338
 7778SOL     OW24232   1.256   3.396   1.967
 7778SOL    HW124233   1.171   3.348   1.947
 7778SOL    HW224234   1.292   3.437   1.883
 7779SOL     OW24235   2.782   0.400   2.881
 7779SOL    HW124236   2.845   0.439   2.948
 7779SOL    HW224237   2.690   0.435   2.897
 7780SOL     OW24238   6.488   5.563   4.025
 7780SOL    HW124239   6.524   5.492   3.964
 7780SOL    HW224240   6.412   5.525   4.078
 7781SOL     OW24241   3.222   3.138   0.943
 7781SOL    HW124242   3.227   3.230   0.983
 7781SOL    HW224243   3.138   3.129   0.890
 7782SOL     OW24244   5.483   4.713   4.193
 7782SOL    HW124245   5.386   4.715   4.219
 7782SOL    HW224246   5.508   4.619   4.168
 7783SOL     OW24247   0.637   6.365   3.924
 7783SOL    HW124248   0.607   6.297   3.991
 7783SOL    HW224249   0.568   6.375   3.852
 7784SOL     OW24250   1.103   2.716   2.498
 7784SOL    HW124251   1.173   2.692   2.565
 7784SOL    HW224252   1.087   2.815   2.500
 7785SOL     OW24253   6.049   6.852   2.404
 7785SOL    HW124254   5.997   6.889   2.327
 7785SOL    HW224255   6.146   6.876   2.394
 7786SOL     OW24256   5.492   0.631   6.858
 7786SOL    HW124257   5.473   0.718   6.812
 7786SOL    HW224258   5.544   0.649   6.942
 7787SOL     OW24259   1.114   2.276   1.093
 7787SOL    HW124260   1.181   2.304   1.161
 7787SOL    HW224261   1.106   2.346   1.022
 7788SOL     OW24262   1.122   4.234   2.294
 7788SOL    HW124263   1.217   4.242   2.324
 7788SOL    HW224264   1.098   4.137   2.284
 7789SOL     OW24265   3.284   0.407   6.134
 7789SOL    HW124266   3.362   0.346   6.152
 7789SOL    HW224267   3.248   0.441   6.220
 7790SOL     OW24268   4.178   5.036   4.512
 7790SOL    HW124269   4.116   4.966   4.476
 7790SOL    HW224270   4.220   5.004   4.596
 7791SOL     OW24271   2.652   6.349   1.567
 7791SOL    HW124272   2.691   6.426   1.517
 7791SOL    HW224273   2.623   6.279   1.502
 7792SOL     OW24274   0.996   1.096   2.123
 7792SOL    HW124275   1.069   1.029   2.112
 7792SOL    HW224276   0.993   1.127   2.218
 7793SOL     OW24277   5.039   1.671   0.637
 7793SOL    HW124278   5.108   1.708   0.699
 7793SOL    HW224279   4.948   1.688   0.674
 7794SOL     OW24280   1.035   1.158   2.652
 7794SOL    HW124281   0.943   1.186   2.625
 7794SOL    HW224282   1.033   1.064   2.686
 7795SOL     OW24283   4.305   3.566   1.243
 7795SOL    HW124284   4.384   3.609   1.289
 7795SOL    HW224285   4.336   3.520   1.160
 7796SOL     OW24286   4.381   1.270   1.291
 7796SOL    HW124287   4.365   1.174   1.268
 7796SOL    HW224288   4.294   1.314   1.315
 7797SOL     OW24289   1.535   6.318   3.297
 7797SOL    HW124290   1.486   6.232   3.309
 7797SOL    HW224291   1.528   6.371   3.382
 7798SOL     OW24292   1.653   3.370   1.081
 7798SOL    HW124293   1.561   3.338   1.062
 7798SOL    HW224294   1.685   3.429   1.007
 7799SOL     OW24295   2.104   5.688   4.062
 7799SOL    HW124296   2.159   5.703   3.980
 7799SOL    HW224297   2.080   5.776   4.103
 7800SOL     OW24298   0.797   0.760   2.126
 7800SOL    HW124299   0.756   0.758   2.217
 7800SOL    HW224300   0.764   0.839   2.075
 7801SOL     OW24301   2.061   1.903   0.983
 7801SOL    HW124302   2.021   1.932   0.896
 7801SOL    HW224303   1.992   1.910   1.056
 7802SOL     OW24304   6.471   5.076   3.609
 7802SOL    HW124305   6.445   5.023   3.529
 7802SOL    HW224306   6.570   5.086   3.612
 7803SOL     OW24307   3.294   2.338   6.066
 7803SOL    HW124308   3.298   2.238   6.060
 7803SOL    HW224309   3.341   2.368   6.150
 7804SOL     OW24310   2.737   1.216   5.736
 7804SOL    HW124311   2.658   1.242   5.791
 7804SOL    HW224312   2.721   1.126   5.695
 7805SOL     OW24313   6.312   1.965   6.734
 7805SOL    HW124314   6.248   1.962   6.811
 7805SOL    HW224315   6.358   1.877   6.727
 7806SOL     OW24316   6.078   2.102   5.129
 7806SOL    HW124317   6.070   2.089   5.030
 7806SOL    HW224318   6.002   2.158   5.162
 7807SOL     OW24319   1.822   5.674   5.487
 7807SOL    HW124320   1.822   5.667   5.587
 7807SOL    HW224321   1.904   5.629   5.451
 7808SOL     OW24322   6.967   2.928   4.521
 7808SOL    HW124323   7.025   2.893   4.447
 7808SOL    HW224324   6.875   2.890   4.512
 7809SOL     OW24325   3.251   0.472   3.020
 7809SOL    HW124326   3.333   0.515   2.983
 7809SOL    HW224327   3.275   0.385   3.062
 7810SOL     OW24328   1.975   6.970   5.897
 7810SOL    HW124329   1.890   6.920   5.884
 7810SOL    HW224330   2.047   6.929   5.841
 7811SOL     OW24331   1.276   5.274   2.745
 7811SOL    HW124332   1.309   5.297   2.837
 7811SOL    HW224333   1.292   5.352   2.685
 7812SOL     OW24334   2.890   0.888   5.784
 7812SOL    HW124335   2.899   0.859   5.689
 7812SOL    HW224336   2.867   0.809   5.841
 7813SOL     OW24337   5.706   0.973   0.548
 7813SOL    HW124338   5.737   1.064   0.520
 7813SOL    HW224339   5.710   0.911   0.469
 7814SOL     OW24340   6.878   2.703   1.707
 7814SOL    HW124341   6.969   2.711   1.749
 7814SOL    HW224342   6.821   2.644   1.764
 7815SOL     OW24343   4.808   6.113   3.008
 7815SOL    HW124344   4.848   6.106   2.917
 7815SOL    HW224345   4.879   6.135   3.074
 7816SOL     OW24346   1.207   1.572   5.641
 7816SOL    HW124347   1.267   1.576   5.721
 7816SOL    HW224348   1.112   1.583   5.670
 7817SOL     OW24349   4.895   0.885   5.487
 7817SOL    HW124350   4.805   0.918   5.458
 7817SOL    HW224351   4.885   0.828   5.568
 7818SOL     OW24352   4.990   0.977   2.969
 7818SOL    HW124353   5.041   0.971   2.884
 7818SOL    HW224354   4.969   1.073   2.989
 7819SOL     OW24355   2.411   2.410   4.719
 7819SOL    HW124356   2.367   2.320   4.712
 7819SOL    HW224357   2.359   2.467   4.782
 7820SOL     OW24358   1.616   0.696   6.194
 7820SOL    HW124359   1.655   0.705   6.103
 7820SOL    HW224360   1.671   0.748   6.260
 7821SOL     OW24361   3.727   5.599   6.494
 7821SOL    HW124362   3.750   5.504   6.474
 7821SOL    HW224363   3.628   5.611   6.483
 7822SOL     OW24364   0.534   1.340   4.816
 7822SOL    HW124365   0.610   1.282   4.843
 7822SOL    HW224366   0.557   1.387   4.731
 7823SOL     OW24367   2.700   2.611   5.824
 7823SOL    HW124368   2.677   2.568   5.736
 7823SOL    HW224369   2.793   2.587   5.849
 7824SOL     OW24370   6.040   4.334   2.694
 7824SOL    HW124371   6.068   4.287   2.610
 7824SOL    HW224372   6.075   4.284   2.773
 7825SOL     OW24373   3.525   3.276   3.853
 7825SOL    HW124374   3.542   3.272   3.755
 7825SOL    HW224375   3.430   3.303   3.870
 7826SOL     OW24376   6.468   6.615   1.088
 7826SOL    HW124377   6.519   6.531   1.104
 7826SOL    HW224378   6.387   6.617   1.146
 7827SOL     OW24379   4.890   3.839   0.638
 7827SOL    HW124380   4.838   3.867   0.719
 7827SOL    HW224381   4.856   3.889   0.558
 7828SOL     OW24382   0.528   6.248   0.632
 7828SOL    HW124383   0.520   6.347   0.617
 7828SOL    HW224384   0.618   6.228   0.672
 7829SOL     OW24385   3.256   4.117   2.803
 7829SOL    HW124386   3.288   4.071   2.720
 7829SOL    HW224387   3.203   4.197   2.778
 7830SOL     OW24388   0.046   4.513   6.924
 7830SOL    HW124389   7.026   4.530   6.838
 7830SOL    HW224390   0.009   4.571   6.996
 7831SOL     OW24391   2.893   2.761   6.843
 7831SOL    HW124392   2.968   2.795   6.900
 7831SOL    HW224393   2.839   2.694   6.895
 7832SOL     OW24394   3.537   2.785   5.640
 7832SOL    HW124395   3.576   2.810   5.728
 7832SOL    HW224396   3.469   2.712   5.653
 7833SOL     OW24397   6.516   0.121   1.426
 7833SOL    HW124398   6.574   0.094   1.503
 7833SOL    HW224399   6.420   0.112   1.453
 7834SOL     OW24400   5.305   1.071   1.379
 7834SOL    HW124401   5.274   1.004   1.312
 7834SOL    HW224402   5.400   1.096   1.359
 7835SOL     OW24403   2.454   2.692   4.378
 7835SOL    HW124404   2.389   2.641   4.435
 7835SOL    HW224405   2.493   2.767   4.431
 7836SOL     OW24406   2.496   0.624   6.679
 7836SOL    HW124407   2.596   0.630   6.672
 7836SOL    HW224408   2.468   0.529   6.661
 7837SOL     OW24409   5.590   6.399   2.090
 7837SOL    HW124410   5.627   6.471   2.032
 7837SOL    HW224411   5.658   6.326   2.100
 7838SOL     OW24412   3.735   5.649   3.960
 7838SOL    HW124413   3.682   5.584   4.014
 7838SOL    HW224414   3.766   5.605   3.875
 7839SOL     OW24415   6.990   5.572   3.396
 7839SOL    HW124416   0.004   5.485   3.421
 7839SOL    HW224417   6.926   5.557   3.320
 7840SOL     OW24418   4.380   2.725   6.245
 7840SOL    HW124419   4.422   2.641   6.278
 7840SOL    HW224420   4.382   2.726   6.145
 7841SOL     OW24421   1.303   2.098   5.923
 7841SOL    HW124422   1.233   2.031   5.896
 7841SOL    HW224423   1.261   2.188   5.932
 7842SOL     OW24424   1.786   1.179   2.489
 7842SOL    HW124425   1.731   1.109   2.445
 7842SOL    HW224426   1.727   1.251   2.525
 7843SOL     OW24427   0.284   2.443   1.941
 7843SOL    HW124428   0.238   2.498   1.872
 7843SOL    HW224429   0.304   2.500   2.021
 7844SOL     OW24430   3.273   1.890   3.490
 7844SOL    HW124431   3.294   1.872   3.394
 7844SOL    HW224432   3.191   1.839   3.516
 7845SOL     OW24433   0.809   0.704   4.265
 7845SOL    HW124434   0.732   0.640   4.269
 7845SOL    HW224435   0.832   0.733   4.358
 7846SOL     OW24436   5.000   0.140   2.508
 7846SOL    HW124437   5.037   0.193   2.584
 7846SOL    HW224438   5.073   0.121   2.442
 7847SOL     OW24439   0.406   6.609   6.622
 7847SOL    HW124440   0.324   6.606   6.678
 7847SOL    HW224441   0.409   6.529   6.562
 7848SOL     OW24442   4.352   3.746   1.484
 7848SOL    HW124443   4.366   3.668   1.546
 7848SOL    HW224444   4.352   3.831   1.536
 7849SOL     OW24445   5.430   3.872   5.169
 7849SOL    HW124446   5.357   3.919   5.118
 7849SOL    HW224447   5.481   3.812   5.107
 7850SOL     OW24448   1.186   2.733   5.242
 7850SOL    HW124449   1.166   2.719   5.339
 7850SOL    HW224450   1.238   2.818   5.231
 7851SOL     OW24451   3.211   6.568   0.727
 7851SOL    HW124452   3.146   6.587   0.800
 7851SOL    HW224453   3.301   6.549   0.767
 7852SOL     OW24454   2.666   6.611   0.662
 7852SOL    HW124455   2.571   6.603   0.693
 7852SOL    HW224456   2.722   6.544   0.710
 7853SOL     OW24457   2.201   1.508   0.499
 7853SOL    HW124458   2.301   1.504   0.493
 7853SOL    HW224459   2.161   1.486   0.410
 7854SOL     OW24460   4.002   3.883   4.275
 7854SOL    HW124461   3.926   3.819   4.281
 7854SOL    HW224462   4.043   3.878   4.184
 7855SOL     OW24463   2.856   6.930   4.860
 7855SOL    HW124464   2.788   6.881   4.806
 7855SOL    HW224465   2.938   6.873   4.869
 7856SOL     OW24466   3.328   3.090   6.472
 7856SOL    HW124467   3.395   3.071   6.400
 7856SOL    HW224468   3.249   3.029   6.462
 7857SOL     OW24469   0.032   2.496   4.790
 7857SOL    HW124470   0.116   2.527   4.835
 7857SOL    HW224471   0.048   2.410   4.743
 7858SOL     OW24472   5.220   3.190   3.148
 7858SOL    HW124473   5.195   3.285   3.161
 7858SOL    HW224474   5.314   3.175   3.178
 7859SOL     OW24475   0.164   0.317   0.519
 7859SOL    HW124476   0.212   0.381   0.458
 7859SOL    HW224477   0.128   0.368   0.598
 7860SOL     OW24478   4.629   6.244   1.321
 7860SOL    HW124479   4.601   6.339   1.308
 7860SOL    HW224480   4.729   6.240   1.325
 7861SOL     OW24481   6.226   3.481   0.534
 7861SOL    HW124482   6.267   3.490   0.625
 7861SOL    HW224483   6.297   3.461   0.467
 7862SOL     OW24484   2.632   4.408   1.728
 7862SOL    HW124485   2.716   4.435   1.775
 7862SOL    HW224486   2.645   4.321   1.682
 7863SOL     OW24487   4.325   6.004   2.961
 7863SOL    HW124488   4.425   6.011   2.953
 7863SOL    HW224489   4.298   6.011   3.057
 7864SOL     OW24490   1.690   5.497   5.325
 7864SOL    HW124491   1.597   5.479   5.355
 7864SOL    HW224492   1.731   5.567   5.384
 7865SOL     OW24493   4.530   0.752   3.405
 7865SOL    HW124494   4.536   0.741   3.504
 7865SOL    HW224495   4.576   0.676   3.360
 7866SOL     OW24496   2.895   0.796   5.485
 7866SOL    HW124497   2.852   0.735   5.552
 7866SOL    HW224498   2.825   0.839   5.429
 7867SOL     OW24499   6.355   3.212   0.820
 7867SOL    HW124500   6.268   3.173   0.850
 7867SOL    HW224501   6.414   3.227   0.899
 7868SOL     OW24502   4.328   6.835   1.121
 7868SOL    HW124503   4.279   6.748   1.109
 7868SOL    HW224504   4.283   6.890   1.191
 7869SOL     OW24505   5.955   1.786   4.018
 7869SOL    HW124506   5.967   1.754   4.112
 7869SOL    HW224507   6.021   1.859   4.000
 7870SOL     OW24508   6.577   0.068   3.728
 7870SOL    HW124509   6.530   0.155   3.741
 7870SOL    HW224510   6.676   0.085   3.727
 7871SOL     OW24511   5.727   3.201   3.447
 7871SOL    HW124512   5.678   3.128   3.399
 7871SOL    HW224513   5.826   3.188   3.435
 7872SOL     OW24514   6.439   3.636   3.953
 7872SOL    HW124515   6.395   3.602   4.036
 7872SOL    HW224516   6.430   3.736   3.949
 7873SOL     OW24517   6.941   5.644   4.925
 7873SOL    HW124518   6.996   5.579   4.977
 7873SOL    HW224519   6.877   5.691   4.986
 7874SOL     OW24520   6.006   6.994   6.876
 7874SOL    HW124521   6.025   0.053   6.922
 7874SOL    HW224522   5.908   6.973   6.886
 7875SOL     OW24523   5.573   3.126   0.473
 7875SOL    HW124524   5.628   3.136   0.390
 7875SOL    HW224525   5.633   3.101   0.549
 7876SOL     OW24526   6.874   1.669   4.568
 7876SOL    HW124527   6.806   1.738   4.594
 7876SOL    HW224528   6.964   1.711   4.562
 7877SOL     OW24529   5.724   3.929   1.867
 7877SOL    HW124530   5.765   3.878   1.942
 7877SOL    HW224531   5.768   3.903   1.781
 7878SOL     OW24532   3.879   3.877   2.102
 7878SOL    HW124533   3.979   3.880   2.113
 7878SOL    HW224534   3.857   3.865   2.005
 7879SOL     OW24535   0.019   1.131   4.830
 7879SOL    HW124536   0.004   1.123   4.731
 7879SOL    HW224537   0.085   1.204   4.848
 7880SOL     OW24538   2.028   5.906   6.620
 7880SOL    HW124539   1.983   5.985   6.662
 7880SOL    HW224540   2.026   5.916   6.521
 7881SOL     OW24541   0.485   5.240   4.909
 7881SOL    HW124542   0.431   5.241   4.993
 7881SOL    HW224543   0.546   5.319   4.908
 7882SOL     OW24544   1.487   5.040   1.389
 7882SOL    HW124545   1.537   5.078   1.466
 7882SOL    HW224546   1.391   5.026   1.415
 7883SOL     OW24547   3.100   2.079   2.257
 7883SOL    HW124548   3.060   2.083   2.166
 7883SOL    HW224549   3.045   2.135   2.320
 7884SOL     OW24550   0.503   2.147   5.936
 7884SOL    HW124551   0.420   2.201   5.923
 7884SOL    HW224552   0.514   2.127   6.033
 7885SOL     OW24553   5.993   5.082   2.862
 7885SOL    HW124554   5.915   5.142   2.847
 7885SOL    HW224555   6.067   5.107   2.799
 7886SOL     OW24556   3.840   4.883   2.985
 7886SOL    HW124557   3.862   4.884   2.887
 7886SOL    HW224558   3.741   4.875   2.997
 7887SOL     OW24559   0.374   2.954   0.926
 7887SOL    HW124560   0.293   2.910   0.886
 7887SOL    HW224561   0.456   2.904   0.898
 7888SOL     OW24562   0.347   1.702   5.421
 7888SOL    HW124563   0.265   1.714   5.366
 7888SOL    HW224564   0.355   1.778   5.486
 7889SOL     OW24565   5.205   5.015   0.352
 7889SOL    HW124566   5.304   5.028   0.346
 7889SOL    HW224567   5.160   5.103   0.367
 7890SOL     OW24568   1.880   2.621   2.055
 7890SOL    HW124569   1.875   2.550   2.124
 7890SOL    HW224570   1.971   2.662   2.054
 7891SOL     OW24571   5.832   1.057   4.260
 7891SOL    HW124572   5.833   1.083   4.163
 7891SOL    HW224573   5.785   0.970   4.270
 7892SOL     OW24574   0.764   2.208   4.283
 7892SOL    HW124575   0.738   2.192   4.187
 7892SOL    HW224576   0.864   2.203   4.291
 7893SOL     OW24577   5.328   6.181   1.011
 7893SOL    HW124578   5.247   6.154   1.063
 7893SOL    HW224579   5.383   6.101   0.991
 7894SOL     OW24580   3.181   0.065   6.756
 7894SOL    HW124581   3.214   0.102   6.843
 7894SOL    HW224582   3.234   0.103   6.680
 7895SOL     OW24583   5.555   6.511   2.915
 7895SOL    HW124584   5.620   6.582   2.943
 7895SOL    HW224585   5.606   6.432   2.881
 7896SOL     OW24586   2.685   2.568   1.003
 7896SOL    HW124587   2.683   2.643   1.068
 7896SOL    HW224588   2.598   2.518   1.007
 7897SOL     OW24589   5.143   1.300   1.744
 7897SOL    HW124590   5.069   1.308   1.676
 7897SOL    HW224591   5.182   1.209   1.739
 7898SOL     OW24592   4.609   6.590   2.931
 7898SOL    HW124593   4.588   6.601   2.834
 7898SOL    HW224594   4.544   6.644   2.985
 7899SOL     OW24595   6.222   4.933   2.998
 7899SOL    HW124596   6.205   4.852   3.054
 7899SOL    HW224597   6.139   4.987   2.990
 7900SOL     OW24598   0.369   3.245   0.679
 7900SOL    HW124599   0.284   3.199   0.652
 7900SOL    HW224600   0.439   3.229   0.609
 7901SOL     OW24601   0.537   2.064   6.498
 7901SOL    HW124602   0.497   2.108   6.579
 7901SOL    HW224603   0.624   2.108   6.476
 7902SOL     OW24604   1.787   0.303   1.242
 7902SOL    HW124605   1.874   0.290   1.289
 7902SOL    HW224606   1.732   0.370   1.291
 7903SOL     OW24607   2.942   1.958   6.025
 7903SOL    HW124608   3.021   1.925   5.974
 7903SOL    HW224609   2.865   1.973   5.963
 7904SOL     OW24610   5.393   3.439   2.840
 7904SOL    HW124611   5.344   3.497   2.905
 7904SOL    HW224612   5.382   3.475   2.747
 7905SOL     OW24613   6.330   2.103   1.716
 7905SOL    HW124614   6.269   2.165   1.666
 7905SOL    HW224615   6.381   2.047   1.651
 7906SOL     OW24616   0.295   6.147   6.191
 7906SOL    HW124617   0.317   6.242   6.216
 7906SOL    HW224618   0.333   6.126   6.101
 7907SOL     OW24619   5.721   6.059   3.495
 7907SOL    HW124620   5.693   6.142   3.543
 7907SOL    HW224621   5.813   6.072   3.457
 7908SOL     OW24622   1.879   0.009   6.162
 7908SOL    HW124623   1.920   6.981   6.234
 7908SOL    HW224624   1.896   6.996   6.073
 7909SOL     OW24625   6.583   3.948   2.045
 7909SOL    HW124626   6.622   3.897   1.969
 7909SOL    HW224627   6.654   3.967   2.113
 7910SOL     OW24628   1.464   3.946   4.772
 7910SOL    HW124629   1.405   4.019   4.738
 7910SOL    HW224630   1.556   3.982   4.787
 7911SOL     OW24631   6.349   3.491   5.972
 7911SOL    HW124632   6.444   3.469   5.993
 7911SOL    HW224633   6.312   3.551   6.042
 7912SOL     OW24634   5.219   5.737   1.647
 7912SOL    HW124635   5.198   5.639   1.641
 7912SOL    HW224636   5.137   5.790   1.625
 7913SOL     OW24637   1.335   4.827   6.186
 7913SOL    HW124638   1.270   4.853   6.257
 7913SOL    HW224639   1.312   4.737   6.151
 7914SOL     OW24640   0.995   0.072   4.841
 7914SOL    HW124641   1.071   0.092   4.779
 7914SOL    HW224642   0.911   0.059   4.787
 7915SOL     OW24643   3.452   5.453   2.041
 7915SOL    HW124644   3.458   5.463   2.141
 7915SOL    HW224645   3.445   5.543   1.999
 7916SOL     OW24646   1.572   0.893   4.256
 7916SOL    HW124647   1.599   0.958   4.184
 7916SOL    HW224648   1.645   0.826   4.269
 7917SOL     OW24649   4.913   1.800   2.746
 7917SOL    HW124650   4.834   1.818   2.687
 7917SOL    HW224651   4.939   1.884   2.794
 7918SOL     OW24652   1.579   2.632   2.475
 7918SOL    HW124653   1.679   2.636   2.470
 7918SOL    HW224654   1.550   2.650   2.569
 7919SOL     OW24655   0.865   6.866   4.675
 7919SOL    HW124656   0.875   6.774   4.638
 7919SOL    HW224657   0.840   6.929   4.601
 7920SOL     OW24658   5.186   6.721   0.949
 7920SOL    HW124659   5.156   6.785   0.879
 7920SOL    HW224660   5.137   6.739   1.034
 7921SOL     OW24661   5.688   3.415   1.043
 7921SOL    HW124662   5.713   3.511   1.028
 7921SOL    HW224663   5.590   3.404   1.025
 7922SOL     OW24664   2.296   6.166   3.682
 7922SOL    HW124665   2.220   6.229   3.671
 7922SOL    HW224666   2.381   6.218   3.694
 7923SOL     OW24667   5.022   0.001   1.042
 7923SOL    HW124668   5.012   6.962   1.115
 7923SOL    HW224669   5.119   0.009   1.018
 7924SOL     OW24670   5.523   6.064   0.025
 7924SOL    HW124671   5.556   6.048   6.961
 7924SOL    HW224672   5.508   5.977   0.071
 7925SOL     OW24673   1.914   4.987   6.124
 7925SOL    HW124674   1.941   4.908   6.068
 7925SOL    HW224675   1.888   4.956   6.215
 7926SOL     OW24676   4.219   5.708   5.979
 7926SOL    HW124677   4.175   5.623   5.952
 7926SOL    HW224678   4.159   5.785   5.957
 7927SOL     OW24679   4.993   0.512   3.367
 7927SOL    HW124680   4.999   0.604   3.330
 7927SOL    HW224681   5.075   0.491   3.420
 7928SOL     OW24682   5.703   2.203   4.194
 7928SOL    HW124683   5.740   2.135   4.130
 7928SOL    HW224684   5.694   2.162   4.285
 7929SOL     OW24685   4.505   3.669   5.360
 7929SOL    HW124686   4.466   3.757   5.332
 7929SOL    HW224687   4.546   3.624   5.281
 7930SOL     OW24688   4.028   5.687   0.998
 7930SOL    HW124689   3.991   5.620   0.933
 7930SOL    HW224690   3.957   5.753   1.022
 7931SOL     OW24691   5.055   0.339   0.708
 7931SOL    HW124692   5.023   0.245   0.699
 7931SOL    HW224693   5.125   0.358   0.639
 7932SOL     OW24694   0.989   3.646   1.110
 7932SOL    HW124695   1.064   3.642   1.044
 7932SOL    HW224696   0.911   3.691   1.069
 7933SOL     OW24697   1.554   1.552   0.749
 7933SOL    HW124698   1.644   1.546   0.704
 7933SOL    HW224699   1.530   1.648   0.762
 7934SOL     OW24700   6.652   5.399   0.872
 7934SOL    HW124701   6.597   5.315   0.871
 7934SOL    HW224702   6.597   5.474   0.836
 7935SOL     OW24703   6.100   3.764   3.259
 7935SOL    HW124704   6.141   3.797   3.344
 7935SOL    HW224705   6.107   3.664   3.254
 7936SOL     OW24706   2.318   5.953   3.462
 7936SOL    HW124707   2.414   5.933   3.444
 7936SOL    HW224708   2.311   6.029   3.527
 7937SOL     OW24709   3.600   1.604   0.955
 7937SOL    HW124710   3.657   1.684   0.935
 7937SOL    HW224711   3.611   1.579   1.051
 7938SOL     OW24712   2.403   6.705   3.340
 7938SOL    HW124713   2.404   6.626   3.401
 7938SOL    HW224714   2.466   6.775   3.374
 7939SOL     OW24715   1.327   0.148   2.893
 7939SOL    HW124716   1.351   0.122   2.987
 7939SOL    HW224717   1.375   0.088   2.829
 7940SOL     OW24718   6.688   1.726   5.294
 7940SOL    HW124719   6.601   1.700   5.253
 7940SOL    HW224720   6.749   1.760   5.223
 7941SOL     OW24721   3.404   0.475   0.703
 7941SOL    HW124722   3.487   0.458   0.757
 7941SOL    HW224723   3.349   0.545   0.748
 7942SOL     OW24724   1.154   4.082   1.143
 7942SOL    HW124725   1.094   4.146   1.192
 7942SOL    HW224726   1.147   3.992   1.186
 7943SOL     OW24727   1.794   5.332   0.028
 7943SOL    HW124728   1.806   5.431   0.025
 7943SOL    HW224729   1.866   5.292   0.085
 7944SOL     OW24730   0.910   1.828   0.858
 7944SOL    HW124731   0.929   1.895   0.929
 7944SOL    HW224732   0.824   1.851   0.812
 7945SOL     OW24733   6.393   4.176   3.137
 7945SOL    HW124734   6.412   4.087   3.177
 7945SOL    HW224735   6.363   4.240   3.208
 7946SOL     OW24736   4.807   1.289   5.919
 7946SOL    HW124737   4.901   1.270   5.889
 7946SOL    HW224738   4.748   1.299   5.839
 7947SOL     OW24739   0.984   3.816   0.009
 7947SOL    HW124740   0.969   3.802   0.107
 7947SOL    HW224741   1.001   3.913   7.019
 7948SOL     OW24742   1.399   5.557   1.414
 7948SOL    HW124743   1.370   5.633   1.356
 7948SOL    HW224744   1.485   5.520   1.378
 7949SOL     OW24745   3.020   5.488   5.341
 7949SOL    HW124746   2.990   5.408   5.290
 7949SOL    HW224747   3.115   5.477   5.368
 7950SOL     OW24748   6.797   3.098   5.737
 7950SOL    HW124749   6.774   3.089   5.834
 7950SOL    HW224750   6.772   3.014   5.689
 7951SOL     OW24751   3.650   0.469   2.782
 7951SOL    HW124752   3.732   0.413   2.780
 7951SOL    HW224753   3.644   0.522   2.698
 7952SOL     OW24754   6.917   3.172   5.163
 7952SOL    HW124755   7.006   3.205   5.133
 7952SOL    HW224756   6.889   3.222   5.244
 7953SOL     OW24757   1.643   6.812   0.369
 7953SOL    HW124758   1.725   6.756   0.352
 7953SOL    HW224759   1.562   6.754   0.361
 7954SOL     OW24760   3.438   2.354   0.261
 7954SOL    HW124761   3.478   2.385   0.175
 7954SOL    HW224762   3.510   2.349   0.331
 7955SOL     OW24763   6.632   0.788   6.350
 7955SOL    HW124764   6.711   0.847   6.367
 7955SOL    HW224765   6.663   0.694   6.335
 7956SOL     OW24766   0.059   0.459   0.757
 7956SOL    HW124767   0.144   0.468   0.809
 7956SOL    HW224768   0.008   0.380   0.790
 7957SOL     OW24769   5.580   1.882   5.644
 7957SOL    HW124770   5.490   1.923   5.630
 7957SOL    HW224771   5.641   1.949   5.686
 7958SOL     OW24772   4.796   2.398   6.890
 7958SOL    HW124773   4.862   2.472   6.898
 7958SOL    HW224774   4.837   2.313   6.923
 7959SOL     OW24775   5.240   3.144   6.957
 7959SOL    HW124776   5.242   3.226   6.900
 7959SOL    HW224777   5.272   3.066   6.903
 7960SOL     OW24778   0.758   1.777   4.926
 7960SOL    HW124779   0.773   1.805   4.831
 7960SOL    HW224780   0.670   1.731   4.933
 7961SOL     OW24781   6.340   0.339   6.512
 7961SOL    HW124782   6.348   0.315   6.609
 7961SOL    HW224783   6.421   0.307   6.463
 7962SOL     OW24784   5.638   6.962   5.036
 7962SOL    HW124785   5.708   0.002   5.055
 7962SOL    HW224786   5.663   6.875   5.080
 7963SOL     OW24787   5.343   6.134   2.746
 7963SOL    HW124788   5.272   6.172   2.686
 7963SOL    HW224789   5.342   6.182   2.834
 7964SOL     OW24790   7.004   3.928   1.312
 7964SOL    HW124791   7.022   3.852   1.249
 7964SOL    HW224792   6.961   3.894   1.395
 7965SOL     OW24793   4.218   1.633   6.833
 7965SOL    HW124794   4.174   1.598   6.750
 7965SOL    HW224795   4.293   1.571   6.859
 7966SOL     OW24796   5.901   3.403   5.157
 7966SOL    HW124797   5.974   3.456   5.113
 7966SOL    HW224798   5.908   3.412   5.256
 7967SOL     OW24799   1.769   4.028   1.753
 7967SOL    HW124800   1.717   3.943   1.750
 7967SOL    HW224801   1.727   4.091   1.818
 7968SOL     OW24802   2.609   2.472   3.888
 7968SOL    HW124803   2.541   2.426   3.831
 7968SOL    HW224804   2.567   2.499   3.974
 7969SOL     OW24805   3.040   4.058   6.636
 7969SOL    HW124806   2.943   4.068   6.658
 7969SOL    HW224807   3.058   4.101   6.547
 7970SOL     OW24808   6.571   3.428   2.933
 7970SOL    HW124809   6.637   3.405   3.004
 7970SOL    HW224810   6.537   3.344   2.890
 7971SOL     OW24811   3.008   0.416   6.929
 7971SOL    HW124812   2.953   0.437   6.847
 7971SOL    HW224813   2.997   0.489   6.996
 7972SOL     OW24814   4.125   3.788   4.896
 7972SOL    HW124815   4.193   3.848   4.855
 7972SOL    HW224816   4.108   3.710   4.836
 7973SOL     OW24817   0.052   5.332   1.777
 7973SOL    HW124818   7.010   5.265   1.798
 7973SOL    HW224819   0.101   5.356   1.861
 7974SOL     OW24820   6.959   2.626   4.553
 7974SOL    HW124821   6.984   2.613   4.648
 7974SOL    HW224822   0.013   2.638   4.498
 7975SOL     OW24823   3.815   6.899   6.767
 7975SOL    HW124824   3.841   6.890   6.863
 7975SOL    HW224825   3.894   6.930   6.713
 7976SOL     OW24826   0.452   0.723   0.878
 7976SOL    HW124827   0.434   0.819   0.857
 7976SOL    HW224828   0.488   0.715   0.971
 7977SOL     OW24829   4.786   5.226   2.984
 7977SOL    HW124830   4.859   5.176   3.031
 7977SOL    HW224831   4.710   5.163   2.965
 7978SOL     OW24832   0.264   4.138   0.985
 7978SOL    HW124833   0.272   4.179   0.894
 7978SOL    HW224834   0.344   4.081   1.003
 7979SOL     OW24835   3.314   2.627   5.635
 7979SOL    HW124836   3.349   2.576   5.557
 7979SOL    HW224837   3.214   2.634   5.628
 7980SOL     OW24838   3.867   6.202   2.644
 7980SOL    HW124839   3.939   6.218   2.712
 7980SOL    HW224840   3.847   6.288   2.597
 7981SOL     OW24841   1.187   3.159   4.953
 7981SOL    HW124842   1.185   3.064   4.985
 7981SOL    HW224843   1.132   3.215   5.015
 7982SOL     OW24844   6.798   0.174   0.544
 7982SOL    HW124845   6.834   0.175   0.451
 7982SOL    HW224846   6.705   0.210   0.545
 7983SOL     OW24847   3.547   1.471   1.183
 7983SOL    HW124848   3.616   1.416   1.231
 7983SOL    HW224849   3.471   1.412   1.155
 7984SOL     OW24850   6.311   2.976   2.912
 7984SOL    HW124851   6.284   3.072   2.908
 7984SOL    HW224852   6.235   2.919   2.882
 7985SOL     OW24853   3.212   3.568   5.922
 7985SOL    HW124854   3.292   3.542   5.868
 7985SOL    HW224855   3.239   3.579   6.018
 7986SOL     OW24856   2.842   0.941   3.597
 7986SOL    HW124857   2.906   1.007   3.636
 7986SOL    HW224858   2.776   0.989   3.540
 7987SOL     OW24859   1.610   3.052   5.795
 7987SOL    HW124860   1.539   3.065   5.865
 7987SOL    HW224861   1.637   2.956   5.793
 7988SOL     OW24862   6.425   0.350   1.596
 7988SOL    HW124863   6.371   0.281   1.547
 7988SOL    HW224864   6.485   0.397   1.531
 7989SOL     OW24865   0.798   4.552   1.428
 7989SOL    HW124866   0.836   4.605   1.505
 7989SOL    HW224867   0.733   4.609   1.378
 7990SOL     OW24868   4.184   5.349   5.454
 7990SOL    HW124869   4.258   5.416   5.445
 7990SOL    HW224870   4.208   5.282   5.525
 7991SOL     OW24871   5.428   0.850   4.510
 7991SOL    HW124872   5.384   0.868   4.598
 7991SOL    HW224873   5.364   0.871   4.436
 7992SOL     OW24874   2.226   0.542   6.991
 7992SOL    HW124875   2.252   0.604   6.917
 7992SOL    HW224876   2.186   0.459   6.952
 7993SOL     OW24877   6.145   6.392   0.843
 7993SOL    HW124878   6.217   6.344   0.793
 7993SOL    HW224879   6.155   6.491   0.829
 7994SOL     OW24880   0.890   1.630   4.656
 7994SOL    HW124881   0.955   1.630   4.580
 7994SOL    HW224882   0.857   1.723   4.673
 7995SOL     OW24883   0.292   6.555   1.316
 7995SOL    HW124884   0.291   6.640   1.368
 7995SOL    HW224885   0.212   6.500   1.340
 7996SOL     OW24886   2.229   6.612   3.858
 7996SOL    HW124887   2.222   6.516   3.886
 7996SOL    HW224888   2.141   6.641   3.819
 7997SOL     OW24889   2.633   0.929   5.659
 7997SOL    HW124890   2.576   0.861   5.705
 7997SOL    HW224891   2.721   0.937   5.706
 7998SOL     OW24892   2.440   1.096   1.211
 7998SOL    HW124893   2.430   1.079   1.113
 7998SOL    HW224894   2.367   1.051   1.260
 7999SOL     OW24895   7.024   1.253   2.598
 7999SOL    HW124896   0.075   1.219   2.648
 7999SOL    HW224897   6.944   1.252   2.657
 8000SOL     OW24898   4.494   5.646   1.101
 8000SOL    HW124899   4.521   5.549   1.101
 8000SOL    HW224900   4.459   5.671   1.191
 8001SOL     OW24901   5.163   4.999   2.169
 8001SOL    HW124902   5.127   5.090   2.188
 8001SOL    HW224903   5.120   4.933   2.231
 8002SOL     OW24904   1.504   0.860   5.046
 8002SOL    HW124905   1.526   0.953   5.015
 8002SOL    HW224906   1.566   0.795   5.002
 8003SOL     OW24907   2.447   5.535   2.868
 8003SOL    HW124908   2.545   5.518   2.881
 8003SOL    HW224909   2.419   5.500   2.779
 8004SOL     OW24910   2.111   3.672   3.930
 8004SOL    HW124911   2.123   3.689   3.832
 8004SOL    HW224912   2.049   3.595   3.943
 8005SOL     OW24913   2.949   0.409   4.384
 8005SOL    HW124914   2.866   0.413   4.328
 8005SOL    HW224915   2.924   0.391   4.479
 8006SOL     OW24916   4.755   4.937   6.323
 8006SOL    HW124917   4.836   4.909   6.272
 8006SOL    HW224918   4.709   4.855   6.359
 8007SOL     OW24919   7.029   0.877   1.243
 8007SOL    HW124920   0.011   0.782   1.215
 8007SOL    HW224921   0.086   0.911   1.282
 8008SOL     OW24922   5.294   5.415   0.915
 8008SOL    HW124923   5.347   5.342   0.874
 8008SOL    HW224924   5.314   5.501   0.868
 8009SOL     OW24925   6.306   0.849   1.233
 8009SOL    HW124926   6.394   0.832   1.188
 8009SOL    HW224927   6.321   0.859   1.331
 8010SOL     OW24928   2.719   0.171   6.490
 8010SOL    HW124929   2.664   0.088   6.481
 8010SOL    HW224930   2.814   0.147   6.508
 8011SOL     OW24931   3.844   2.085   2.467
 8011SOL    HW124932   3.917   2.151   2.448
 8011SOL    HW224933   3.762   2.111   2.416
 8012SOL     OW24934   6.539   0.552   5.255
 8012SOL    HW124935   6.452   0.593   5.229
 8012SOL    HW224936   6.605   0.624   5.276
 8013SOL     OW24937   3.607   0.427   3.198
 8013SOL    HW124938   3.563   0.353   3.249
 8013SOL    HW224939   3.685   0.390   3.148
 8014SOL     OW24940   2.383   2.724   3.289
 8014SOL    HW124941   2.311   2.760   3.348
 8014SOL    HW224942   2.402   2.629   3.315
 8015SOL     OW24943   3.346   5.944   4.842
 8015SOL    HW124944   3.357   5.981   4.934
 8015SOL    HW224945   3.436   5.932   4.799
 8016SOL     OW24946   3.086   3.113   5.194
 8016SOL    HW124947   3.153   3.172   5.239
 8016SOL    HW224948   3.021   3.170   5.143
 8017SOL     OW24949   5.240   6.513   1.865
 8017SOL    HW124950   5.306   6.440   1.885
 8017SOL    HW224951   5.243   6.581   1.938
 8018SOL     OW24952   2.934   2.782   0.974
 8018SOL    HW124953   2.908   2.744   1.063
 8018SOL    HW224954   2.852   2.817   0.928
 8019SOL     OW24955   2.590   3.601   1.086
 8019SOL    HW124956   2.686   3.595   1.115
 8019SOL    HW224957   2.584   3.578   0.989
 8020SOL     OW24958   0.741   0.202   0.425
 8020SOL    HW124959   0.686   0.132   0.472
 8020SOL    HW224960   0.690   0.236   0.346
 8021SOL     OW24961   0.785   2.259   0.809
 8021SOL    HW124962   0.738   2.190   0.864
 8021SOL    HW224963   0.793   2.344   0.860
 8022SOL     OW24964   4.155   0.565   2.762
 8022SOL    HW124965   4.105   0.547   2.678
 8022SOL    HW224966   4.170   0.479   2.811
 8023SOL     OW24967   3.821   4.849   2.148
 8023SOL    HW124968   3.901   4.813   2.099
 8023SOL    HW224969   3.737   4.818   2.102
 8024SOL     OW24970   2.504   0.713   5.767
 8024SOL    HW124971   2.510   0.617   5.743
 8024SOL    HW224972   2.452   0.723   5.852
 8025SOL     OW24973   1.337   6.801   1.153
 8025SOL    HW124974   1.366   6.887   1.111
 8025SOL    HW224975   1.251   6.815   1.202
 8026SOL     OW24976   0.518   6.602   5.664
 8026SOL    HW124977   0.541   6.648   5.578
 8026SOL    HW224978   0.553   6.656   5.741
 8027SOL     OW24979   4.266   6.856   6.604
 8027SOL    HW124980   4.220   6.899   6.527
 8027SOL    HW224981   4.199   6.833   6.675
 8028SOL     OW24982   4.258   5.761   6.290
 8028SOL    HW124983   4.257   5.708   6.205
 8028SOL    HW224984   4.191   5.723   6.353
 8029SOL     OW24985   1.192   6.908   1.534
 8029SOL    HW124986   1.261   6.843   1.503
 8029SOL    HW224987   1.224   7.001   1.520
 8030SOL     OW24988   0.703   3.841   1.253
 8030SOL    HW124989   0.666   3.748   1.252
 8030SOL    HW224990   0.708   3.874   1.347
 8031SOL     OW24991   6.876   0.941   3.831
 8031SOL    HW124992   6.789   0.905   3.866
 8031SOL    HW224993   6.859   1.000   3.752
 8032SOL     OW24994   0.164   3.354   1.378
 8032SOL    HW124995   0.136   3.397   1.463
 8032SOL    HW224996   0.232   3.283   1.397
 8033SOL     OW24997   4.239   4.953   1.041
 8033SOL    HW124998   4.190   4.874   1.004
 8033SOL    HW224999   4.219   5.033   0.985
 8034SOL     OW25000   1.434   1.435   4.993
 8034SOL    HW125001   1.389   1.463   5.078
 8034SOL    HW225002   1.389   1.354   4.957
 8035SOL     OW25003   5.666   0.684   4.800
 8035SOL    HW125004   5.674   0.757   4.868
 8035SOL    HW225005   5.712   0.602   4.834
 8036SOL     OW25006   5.275   4.325   4.566
 8036SOL    HW125007   5.187   4.300   4.524
 8036SOL    HW225008   5.343   4.255   4.544
 8037SOL     OW25009   2.733   1.279   6.466
 8037SOL    HW125010   2.746   1.191   6.511
 8037SOL    HW225011   2.777   1.278   6.377
 8038SOL     OW25012   6.505   5.404   1.848
 8038SOL    HW125013   6.497   5.342   1.770
 8038SOL    HW225014   6.415   5.419   1.889
 8039SOL     OW25015   1.896   2.743   5.035
 8039SOL    HW125016   1.910   2.646   5.056
 8039SOL    HW225017   1.965   2.797   5.082
 8040SOL     OW25018   0.823   6.597   5.771
 8040SOL    HW125019   0.787   6.523   5.714
 8040SOL    HW225020   0.899   6.641   5.724
 8041SOL     OW25021   3.250   1.827   2.827
 8041SOL    HW125022   3.234   1.737   2.869
 8041SOL    HW225023   3.290   1.815   2.737
 8042SOL     OW25024   4.518   3.939   5.941
 8042SOL    HW125025   4.470   4.010   5.990
 8042SOL    HW225026   4.614   3.965   5.929
 8043SOL     OW25027   5.328   5.152   0.057
 8043SOL    HW125028   5.399   5.219   0.076
 8043SOL    HW225029   5.239   5.198   0.051
 8044SOL     OW25030   1.382   3.059   1.238
 8044SOL    HW125031   1.425   2.975   1.206
 8044SOL    HW225032   1.417   3.082   1.329
 8045SOL     OW25033   5.945   3.273   4.895
 8045SOL    HW125034   5.950   3.339   4.970
 8045SOL    HW225035   5.871   3.208   4.913
 8046SOL     OW25036   0.407   4.289   0.721
 8046SOL    HW125037   0.346   4.367   0.716
 8046SOL    HW225038   0.474   4.303   0.795
 8047SOL     OW25039   3.313   6.566   6.493
 8047SOL    HW125040   3.246   6.639   6.507
 8047SOL    HW225041   3.404   6.599   6.518
 8048SOL     OW25042   4.520   1.990   6.601
 8048SOL    HW125043   4.519   1.927   6.524
 8048SOL    HW225044   4.569   1.948   6.677
 8049SOL     OW25045   2.270   1.402   1.170
 8049SOL    HW125046   2.269   1.464   1.092
 8049SOL    HW225047   2.286   1.309   1.139
 8050SOL     OW25048   0.066   5.568   5.670
 8050SOL    HW125049   7.023   5.563   5.740
 8050SOL    HW225050   0.136   5.500   5.689
 8051SOL     OW25051   4.387   6.676   3.105
 8051SOL    HW125052   4.314   6.689   3.172
 8051SOL    HW225053   4.348   6.651   3.017
 8052SOL     OW25054   2.433   1.430   3.055
 8052SOL    HW125055   2.484   1.492   3.115
 8052SOL    HW225056   2.338   1.425   3.086
 8053SOL     OW25057   1.530   1.691   6.462
 8053SOL    HW125058   1.620   1.669   6.424
 8053SOL    HW225059   1.511   1.789   6.448
 8054SOL     OW25060   5.088   3.721   5.257
 8054SOL    HW125061   5.166   3.715   5.320
 8054SOL    HW225062   5.120   3.754   5.168
 8055SOL     OW25063   7.003   0.643   6.493
 8055SOL    HW125064   7.023   0.606   6.402
 8055SOL    HW225065   0.009   0.580   6.562
 8056SOL     OW25066   2.001   2.307   2.912
 8056SOL    HW125067   2.025   2.390   2.861
 8056SOL    HW225068   2.080   2.246   2.915
 8057SOL     OW25069   3.181   1.875   1.576
 8057SOL    HW125070   3.103   1.919   1.622
 8057SOL    HW225071   3.195   1.784   1.614
 8058SOL     OW25072   3.728   6.724   1.576
 8058SOL    HW125073   3.786   6.786   1.629
 8058SOL    HW225074   3.639   6.715   1.621
 8059SOL     OW25075   4.404   3.926   5.343
 8059SOL    HW125076   4.487   3.951   5.394
 8059SOL    HW225077   4.361   4.009   5.308
 8060SOL     OW25078   0.365   1.292   5.305
 8060SOL    HW125079   0.393   1.380   5.265
 8060SOL    HW225080   0.447   1.240   5.329
 8061SOL     OW25081   6.838   0.832   1.436
 8061SOL    HW125082   6.892   0.776   1.500
 8061SOL    HW225083   6.899   0.869   1.365
 8062SOL     OW25084   4.386   4.653   6.327
 8062SOL    HW125085   4.372   4.570   6.382
 8062SOL    HW225086   4.354   4.637   6.234
 8063SOL     OW25087   2.567   4.606   2.764
 8063SOL    HW125088   2.639   4.601   2.695
 8063SOL    HW225089   2.495   4.540   2.741
 8064SOL     OW25090   0.158   2.942   0.360
 8064SOL    HW125091   0.163   2.856   0.412
 8064SOL    HW225092   0.075   2.943   0.305
 8065SOL     OW25093   4.748   0.409   6.359
 8065SOL    HW125094   4.701   0.418   6.271
 8065SOL    HW225095   4.689   0.359   6.423
 8066SOL     OW25096   6.748   1.016   6.043
 8066SOL    HW125097   6.830   1.006   6.099
 8066SOL    HW225098   6.667   1.018   6.103
 8067SOL     OW25099   5.220   0.983   4.359
 8067SOL    HW125100   5.188   1.076   4.377
 8067SOL    HW225101   5.170   0.946   4.280
 8068SOL     OW25102   6.992   4.685   1.022
 8068SOL    HW125103   0.051   4.725   0.996
 8068SOL    HW225104   7.003   4.633   1.107
 8069SOL     OW25105   1.292   2.699   1.792
 8069SOL    HW125106   1.303   2.784   1.741
 8069SOL    HW225107   1.208   2.703   1.846
 8070SOL     OW25108   5.351   4.441   1.674
 8070SOL    HW125109   5.432   4.480   1.630
 8070SOL    HW225110   5.270   4.494   1.648
 8071SOL     OW25111   1.798   0.258   6.347
 8071SOL    HW125112   1.787   0.231   6.443
 8071SOL    HW225113   1.858   0.194   6.301
 8072SOL     OW25114   2.524   2.540   5.582
 8072SOL    HW125115   2.443   2.559   5.637
 8072SOL    HW225116   2.501   2.547   5.485
 8073SOL     OW25117   5.520   6.925   6.656
 8073SOL    HW125118   5.519   7.005   6.716
 8073SOL    HW225119   5.543   6.843   6.710
 8074SOL     OW25120   6.435   0.712   0.929
 8074SOL    HW125121   6.472   0.793   0.884
 8074SOL    HW225122   6.349   0.685   0.884
 8075SOL     OW25123   0.526   0.186   1.173
 8075SOL    HW125124   0.453   0.247   1.143
 8075SOL    HW225125   0.496   0.135   1.254
 8076SOL     OW25126   6.883   5.739   0.413
 8076SOL    HW125127   6.864   5.780   0.324
 8076SOL    HW225128   6.817   5.665   0.430
 8077SOL     OW25129   6.309   4.291   1.277
 8077SOL    HW125130   6.231   4.265   1.333
 8077SOL    HW225131   6.286   4.278   1.180
 8078SOL     OW25132   6.004   2.024   1.677
 8078SOL    HW125133   6.080   2.010   1.613
 8078SOL    HW225134   5.950   2.103   1.649
 8079SOL     OW25135   7.016   0.834   0.148
 8079SOL    HW125136   6.989   0.822   0.244
 8079SOL    HW225137   6.978   0.759   0.093
 8080SOL     OW25138   0.671   3.488   3.914
 8080SOL    HW125139   0.618   3.572   3.901
 8080SOL    HW225140   0.657   3.428   3.835
 8081SOL     OW25141   5.880   0.347   5.376
 8081SOL    HW125142   5.959   0.300   5.337
 8081SOL    HW225143   5.821   0.280   5.421
 8082SOL     OW25144   5.178   2.007   4.897
 8082SOL    HW125145   5.175   2.080   4.966
 8082SOL    HW225146   5.271   1.970   4.893
 8083SOL     OW25147   6.680   2.965   4.142
 8083SOL    HW125148   6.778   2.950   4.131
 8083SOL    HW225149   6.652   3.043   4.086
 8084SOL     OW25150   5.268   1.768   6.936
 8084SOL    HW125151   5.259   1.867   6.944
 8084SOL    HW225152   5.340   1.746   6.871
 8085SOL     OW25153   1.469   6.191   4.678
 8085SOL    HW125154   1.517   6.185   4.591
 8085SOL    HW225155   1.530   6.227   4.748
 8086SOL     OW25156   0.362   2.652   2.157
 8086SOL    HW125157   0.415   2.700   2.087
 8086SOL    HW225158   0.424   2.621   2.229
 8087SOL     OW25159   6.498   0.451   6.052
 8087SOL    HW125160   6.592   0.478   6.029
 8087SOL    HW225161   6.493   0.351   6.057
 8088SOL     OW25162   0.061   6.863   5.128
 8088SOL    HW125163   0.090   6.881   5.222
 8088SOL    HW225164   0.136   6.818   5.079
 8089SOL     OW25165   6.183   1.270   0.269
 8089SOL    HW125166   6.256   1.234   0.326
 8089SOL    HW225167   6.202   1.366   0.247
 8090SOL     OW25168   4.439   2.164   4.761
 8090SOL    HW125169   4.521   2.196   4.809
 8090SOL    HW225170   4.385   2.242   4.730
 8091SOL     OW25171   1.149   3.440   5.122
 8091SOL    HW125172   1.153   3.503   5.044
 8091SOL    HW225173   1.069   3.461   5.178
 8092SOL     OW25174   4.566   6.855   5.437
 8092SOL    HW125175   4.468   6.871   5.453
 8092SOL    HW225176   4.618   6.889   5.516
 8093SOL     OW25177   3.702   0.063   3.564
 8093SOL    HW125178   3.707   0.160   3.587
 8093SOL    HW225179   3.657   0.014   3.638
 8094SOL     OW25180   1.953   4.591   3.762
 8094SOL    HW125181   1.908   4.673   3.726
 8094SOL    HW225182   1.922   4.511   3.710
 8095SOL     OW25183   1.070   5.641   4.415
 8095SOL    HW125184   1.044   5.734   4.389
 8095SOL    HW225185   1.027   5.576   4.352
 8096SOL     OW25186   0.664   4.956   1.073
 8096SOL    HW125187   0.764   4.950   1.070
 8096SOL    HW225188   0.636   5.051   1.085
 8097SOL     OW25189   4.838   6.827   0.414
 8097SOL    HW125190   4.860   6.742   0.463
 8097SOL    HW225191   4.836   6.809   0.316
 8098SOL     OW25192   2.479   6.508   4.882
 8098SOL    HW125193   2.468   6.589   4.824
 8098SOL    HW225194   2.532   6.439   4.833
 8099SOL     OW25195   2.121   3.603   2.684
 8099SOL    HW125196   2.111   3.543   2.763
 8099SOL    HW225197   2.148   3.548   2.605
 8100SOL     OW25198   6.802   6.673   0.354
 8100SOL    HW125199   6.833   6.585   0.389
 8100SOL    HW225200   6.831   6.745   0.417
 8101SOL     OW25201   2.693   4.639   0.337
 8101SOL    HW125202   2.678   4.716   0.398
 8101SOL    HW225203   2.691   4.554   0.389
 8102SOL     OW25204   1.642   4.527   3.913
 8102SOL    HW125205   1.644   4.525   3.813
 8102SOL    HW225206   1.734   4.545   3.948
 8103SOL     OW25207   4.616   0.228   1.571
 8103SOL    HW125208   4.520   0.256   1.565
 8103SOL    HW225209   4.623   0.140   1.618
 8104SOL     OW25210   1.239   6.174   6.887
 8104SOL    HW125211   1.258   6.221   6.974
 8104SOL    HW225212   1.224   6.077   6.904
 8105SOL     OW25213   6.788   0.189   2.670
 8105SOL    HW125214   6.835   0.230   2.592
 8105SOL    HW225215   6.848   0.122   2.713
 8106SOL     OW25216   3.627   6.176   6.507
 8106SOL    HW125217   3.625   6.126   6.420
 8106SOL    HW225218   3.665   6.267   6.492
 8107SOL     OW25219   0.917   6.367   0.503
 8107SOL    HW125220   0.845   6.401   0.443
 8107SOL    HW225221   1.006   6.387   0.463
 8108SOL     OW25222   1.630   0.922   1.065
 8108SOL    HW125223   1.637   0.824   1.086
 8108SOL    HW225224   1.643   0.936   0.967
 8109SOL     OW25225   0.421   3.641   2.196
 8109SOL    HW125226   0.456   3.604   2.110
 8109SOL    HW225227   0.480   3.613   2.272
 8110SOL     OW25228   4.502   4.352   7.018
 8110SOL    HW125229   4.530   4.257   7.002
 8110SOL    HW225230   4.429   4.354   0.057
 8111SOL     OW25231   5.667   2.030   2.393
 8111SOL    HW125232   5.590   2.051   2.453
 8111SOL    HW225233   5.749   2.017   2.448
 8112SOL     OW25234   1.861   4.613   6.768
 8112SOL    HW125235   1.907   4.672   6.834
 8112SOL    HW225236   1.863   4.518   6.801
 8113SOL     OW25237   5.593   4.982   6.526
 8113SOL    HW125238   5.494   4.966   6.527
 8113SOL    HW225239   5.640   4.905   6.483
 8114SOL     OW25240   1.999   3.253   2.854
 8114SOL    HW125241   2.071   3.198   2.813
 8114SOL    HW225242   1.960   3.204   2.932
 8115SOL     OW25243   2.452   1.543   6.295
 8115SOL    HW125244   2.359   1.574   6.276
 8115SOL    HW225245   2.452   1.444   6.307
 8116SOL     OW25246   3.974   3.120   2.347
 8116SOL    HW125247   4.017   3.157   2.264
 8116SOL    HW225248   3.933   3.031   2.327
 8117SOL     OW25249   0.840   0.399   4.055
 8117SOL    HW125250   0.861   0.493   4.026
 8117SOL    HW225251   0.756   0.368   4.009
 8118SOL     OW25252   6.897   2.453   6.302
 8118SOL    HW125253   6.918   2.357   6.316
 8118SOL    HW225254   6.829   2.462   6.229
 8119SOL     OW25255   5.612   4.651   6.681
 8119SOL    HW125256   5.668   4.586   6.629
 8119SOL    HW225257   5.591   4.730   6.624
 8120SOL     OW25258   2.059   6.547   2.252
 8120SOL    HW125259   2.008   6.577   2.333
 8120SOL    HW225260   2.149   6.590   2.251
 8121SOL     OW25261   1.258   2.604   2.862
 8121SOL    HW125262   1.297   2.676   2.805
 8121SOL    HW225263   1.246   2.521   2.807
 8122SOL     OW25264   1.252   4.884   1.392
 8122SOL    HW125265   1.240   4.788   1.418
 8122SOL    HW225266   1.221   4.943   1.467
 8123SOL     OW25267   6.873   1.322   5.994
 8123SOL    HW125268   6.943   1.359   6.055
 8123SOL    HW225269   6.790   1.301   6.046
 8124SOL     OW25270   6.287   6.083   5.348
 8124SOL    HW125271   6.260   6.174   5.380
 8124SOL    HW225272   6.376   6.089   5.302
 8125SOL     OW25273   0.648   6.271   2.345
 8125SOL    HW125274   0.584   6.320   2.404
 8125SOL    HW225275   0.667   6.326   2.264
 8126SOL     OW25276   3.490   5.539   4.512
 8126SOL    HW125277   3.533   5.507   4.596
 8126SOL    HW225278   3.559   5.582   4.453
 8127SOL     OW25279   4.350   1.121   5.847
 8127SOL    HW125280   4.318   1.209   5.811
 8127SOL    HW225281   4.299   1.047   5.802
 8128SOL     OW25282   3.471   3.094   1.300
 8128SOL    HW125283   3.534   3.043   1.359
 8128SOL    HW225284   3.431   3.032   1.233
 8129SOL     OW25285   6.876   2.914   3.385
 8129SOL    HW125286   6.779   2.903   3.407
 8129SOL    HW225287   6.900   2.854   3.308
 8130SOL     OW25288   6.914   6.799   0.120
 8130SOL    HW125289   6.842   6.760   0.178
 8130SOL    HW225290   6.970   6.862   0.175
 8131SOL     OW25291   2.119   2.618   0.947
 8131SOL    HW125292   2.169   2.540   0.984
 8131SOL    HW225293   2.171   2.658   0.872
 8132SOL     OW25294   5.998   1.631   4.225
 8132SOL    HW125295   6.085   1.585   4.204
 8132SOL    HW225296   5.946   1.575   4.290
 8133SOL     OW25297   3.815   5.368   1.378
 8133SOL    HW125298   3.910   5.339   1.391
 8133SOL    HW225299   3.763   5.294   1.335
 8134SOL     OW25300   5.489   1.721   6.761
 8134SOL    HW125301   5.507   1.624   6.744
 8134SOL    HW225302   5.569   1.762   6.805
 8135SOL     OW25303   2.495   6.077   2.213
 8135SOL    HW125304   2.531   6.021   2.288
 8135SOL    HW225305   2.531   6.044   2.126
 8136SOL     OW25306   4.467   4.985   2.560
 8136SOL    HW125307   4.542   5.002   2.624
 8136SOL    HW225308   4.430   4.893   2.577
 8137SOL     OW25309   4.411   0.781   5.510
 8137SOL    HW125310   4.405   0.880   5.497
 8137SOL    HW225311   4.491   0.759   5.565
 8138SOL     OW25312   6.000   0.556   2.554
 8138SOL    HW125313   6.016   0.554   2.653
 8138SOL    HW225314   6.066   0.497   2.508
 8139SOL     OW25315   0.599   1.465   4.380
 8139SOL    HW125316   0.546   1.504   4.305
 8139SOL    HW225317   0.633   1.375   4.354
 8140SOL     OW25318   4.686   2.812   3.002
 8140SOL    HW125319   4.667   2.717   2.976
 8140SOL    HW225320   4.633   2.874   2.944
 8141SOL     OW25321   5.664   3.870   3.714
 8141SOL    HW125322   5.748   3.824   3.686
 8141SOL    HW225323   5.586   3.828   3.667
 8142SOL     OW25324   0.415   6.088   0.447
 8142SOL    HW125325   0.458   6.151   0.510
 8142SOL    HW225326   0.350   6.030   0.496
 8143SOL     OW25327   6.726   2.614   6.047
 8143SOL    HW125328   6.779   2.586   5.967
 8143SOL    HW225329   6.758   2.704   6.078
 8144SOL     OW25330   4.863   6.188   0.106
 8144SOL    HW125331   4.862   6.132   0.023
 8144SOL    HW225332   4.933   6.259   0.098
 8145SOL     OW25333   4.951   6.416   4.290
 8145SOL    HW125334   4.919   6.432   4.383
 8145SOL    HW225335   4.888   6.354   4.243
 8146SOL     OW25336   3.510   1.749   3.584
 8146SOL    HW125337   3.550   1.723   3.496
 8146SOL    HW225338   3.447   1.826   3.571
 8147SOL     OW25339   4.850   1.489   3.487
 8147SOL    HW125340   4.937   1.526   3.452
 8147SOL    HW225341   4.849   1.495   3.586
 8148SOL     OW25342   0.270   3.558   3.100
 8148SOL    HW125343   0.276   3.458   3.105
 8148SOL    HW225344   0.300   3.598   3.186
 8149SOL     OW25345   4.014   5.298   4.186
 8149SOL    HW125346   3.969   5.315   4.098
 8149SOL    HW225347   3.948   5.313   4.260
 8150SOL     OW25348   1.392   6.021   1.373
 8150SOL    HW125349   1.451   6.099   1.352
 8150SOL    HW225350   1.307   6.054   1.415
 8151SOL     OW25351   0.394   1.871   4.920
 8151SOL    HW125352   0.414   1.873   4.821
 8151SOL    HW225353   0.328   1.800   4.939
 8152SOL     OW25354   0.974   0.558   3.639
 8152SOL    HW125355   0.943   0.652   3.627
 8152SOL    HW225356   1.054   0.557   3.700
 8153SOL     OW25357   2.175   5.835   0.501
 8153SOL    HW125358   2.235   5.829   0.581
 8153SOL    HW225359   2.189   5.924   0.457
 8154SOL     OW25360   1.970   5.992   3.798
 8154SOL    HW125361   2.060   6.012   3.837
 8154SOL    HW225362   1.972   5.904   3.751
 8155SOL     OW25363   3.255   3.800   4.867
 8155SOL    HW125364   3.198   3.840   4.939
 8155SOL    HW225365   3.302   3.872   4.817
 8156SOL     OW25366   0.703   6.695   4.858
 8156SOL    HW125367   0.762   6.747   4.795
 8156SOL    HW225368   0.630   6.651   4.806
 8157SOL     OW25369   5.813   2.455   6.835
 8157SOL    HW125370   5.870   2.373   6.827
 8157SOL    HW225371   5.717   2.430   6.820
 8158SOL     OW25372   1.281   6.022   2.479
 8158SOL    HW125373   1.190   5.994   2.450
 8158SOL    HW225374   1.296   5.994   2.573
 8159SOL     OW25375   0.454   6.052   0.184
 8159SOL    HW125376   0.505   5.966   0.176
 8159SOL    HW225377   0.445   6.076   0.281
 8160SOL     OW25378   4.962   2.229   1.242
 8160SOL    HW125379   4.992   2.323   1.261
 8160SOL    HW225380   4.998   2.168   1.313
 8161SOL     OW25381   4.127   3.524   1.439
 8161SOL    HW125382   4.185   3.498   1.517
 8161SOL    HW225383   4.184   3.566   1.369
 8162SOL     OW25384   6.310   1.160   2.276
 8162SOL    HW125385   6.312   1.142   2.177
 8162SOL    HW225386   6.403   1.156   2.312
 8163SOL     OW25387   2.212   2.621   5.200
 8163SOL    HW125388   2.213   2.522   5.211
 8163SOL    HW225389   2.254   2.664   5.281
 8164SOL     OW25390   5.316   4.197   1.534
 8164SOL    HW125391   5.235   4.155   1.576
 8164SOL    HW225392   5.329   4.288   1.573
 8165SOL     OW25393   1.654   3.747   1.822
 8165SOL    HW125394   1.746   3.712   1.837
 8165SOL    HW225395   1.590   3.699   1.883
 8166SOL     OW25396   2.963   6.608   1.657
 8166SOL    HW125397   2.990   6.688   1.712
 8166SOL    HW225398   2.903   6.549   1.711
 8167SOL     OW25399   5.773   3.033   4.497
 8167SOL    HW125400   5.796   3.006   4.403
 8167SOL    HW225401   5.695   2.979   4.529
 8168SOL     OW25402   2.853   1.578   2.702
 8168SOL    HW125403   2.853   1.518   2.782
 8168SOL    HW225404   2.876   1.671   2.731
 8169SOL     OW25405   5.255   3.920   5.583
 8169SOL    HW125406   5.285   3.861   5.508
 8169SOL    HW225407   5.220   4.006   5.545
 8170SOL     OW25408   1.268   4.999   3.967
 8170SOL    HW125409   1.346   4.952   4.010
 8170SOL    HW225410   1.294   5.094   3.949
 8171SOL     OW25411   2.056   0.748   0.027
 8171SOL    HW125412   2.130   0.684   0.007
 8171SOL    HW225413   2.013   0.724   0.115
 8172SOL     OW25414   0.234   6.376   2.302
 8172SOL    HW125415   0.301   6.396   2.374
 8172SOL    HW225416   0.176   6.299   2.331
 8173SOL     OW25417   6.759   3.225   0.450
 8173SOL    HW125418   6.767   3.148   0.514
 8173SOL    HW225419   6.793   3.197   0.360
 8174SOL     OW25420   4.914   6.424   2.622
 8174SOL    HW125421   4.978   6.365   2.573
 8174SOL    HW225422   4.957   6.460   2.705
 8175SOL     OW25423   1.126   2.402   3.528
 8175SOL    HW125424   1.219   2.426   3.552
 8175SOL    HW225425   1.097   2.323   3.582
 8176SOL     OW25426   4.102   5.544   3.829
 8176SOL    HW125427   4.147   5.480   3.891
 8176SOL    HW225428   4.160   5.624   3.816
 8177SOL     OW25429   1.575   6.443   6.213
 8177SOL    HW125430   1.576   6.343   6.219
 8177SOL    HW225431   1.559   6.481   6.304
 8178SOL     OW25432   1.862   6.590   6.294
 8178SOL    HW125433   1.784   6.556   6.345
 8178SOL    HW225434   1.859   6.553   6.201
 8179SOL     OW25435   4.215   0.524   6.717
 8179SOL    HW125436   4.173   0.556   6.632
 8179SOL    HW225437   4.313   0.544   6.716
 8180SOL     OW25438   4.980   4.553   4.837
 8180SOL    HW125439   4.894   4.601   4.855
 8180SOL    HW225440   4.967   4.486   4.764
 8181SOL     OW25441   2.414   2.061   2.186
 8181SOL    HW125442   2.420   1.982   2.125
 8181SOL    HW225443   2.504   2.081   2.223
 8182SOL     OW25444   5.455   2.947   5.071
 8182SOL    HW125445   5.484   2.874   5.009
 8182SOL    HW225446   5.373   2.918   5.120
 8183SOL     OW25447   2.151   3.315   3.242
 8183SOL    HW125448   2.226   3.252   3.225
 8183SOL    HW225449   2.064   3.271   3.218
 8184SOL     OW25450   6.331   6.339   4.232
 8184SOL    HW125451   6.337   6.408   4.304
 8184SOL    HW225452   6.365   6.377   4.146
 8185SOL     OW25453   0.772   2.201   3.738
 8185SOL    HW125454   0.744   2.257   3.659
 8185SOL    HW225455   0.781   2.105   3.709
 8186SOL     OW25456   4.461   3.712   6.744
 8186SOL    HW125457   4.451   3.667   6.655
 8186SOL    HW225458   4.558   3.730   6.761
 8187SOL     OW25459   2.275   1.298   6.099
 8187SOL    HW125460   2.234   1.368   6.158
 8187SOL    HW225461   2.327   1.234   6.155
 8188SOL     OW25462   5.300   3.182   2.739
 8188SOL    HW125463   5.316   3.153   2.644
 8188SOL    HW225464   5.301   3.282   2.745
 8189SOL     OW25465   6.685   5.181   3.120
 8189SOL    HW125466   6.599   5.231   3.106
 8189SOL    HW225467   6.671   5.084   3.100
 8190SOL     OW25468   5.849   3.763   2.799
 8190SOL    HW125469   5.759   3.720   2.802
 8190SOL    HW225470   5.880   3.782   2.892
 8191SOL     OW25471   5.856   5.056   1.503
 8191SOL    HW125472   5.808   5.026   1.586
 8191SOL    HW225473   5.867   4.977   1.442
 8192SOL     OW25474   1.594   2.246   0.933
 8192SOL    HW125475   1.613   2.343   0.922
 8192SOL    HW225476   1.630   2.214   1.021
 8193SOL     OW25477   3.801   6.226   5.624
 8193SOL    HW125478   3.791   6.324   5.610
 8193SOL    HW225479   3.884   6.194   5.578
 8194SOL     OW25480   1.333   0.951   2.819
 8194SOL    HW125481   1.360   0.890   2.894
 8194SOL    HW225482   1.233   0.958   2.816
 8195SOL     OW25483   5.668   1.090   1.619
 8195SOL    HW125484   5.600   1.097   1.547
 8195SOL    HW225485   5.750   1.142   1.593
 8196SOL     OW25486   2.351   0.964   0.986
 8196SOL    HW125487   2.299   0.879   0.984
 8196SOL    HW225488   2.411   0.968   0.906
 8197SOL     OW25489   0.631   6.903   1.241
 8197SOL    HW125490   0.659   6.929   1.148
 8197SOL    HW225491   0.635   6.803   1.250
 8198SOL     OW25492   2.923   1.049   3.019
 8198SOL    HW125493   2.996   1.080   2.957
 8198SOL    HW225494   2.929   1.098   3.106
 8199SOL     OW25495   5.513   4.604   1.448
 8199SOL    HW125496   5.533   4.672   1.377
 8199SOL    HW225497   5.485   4.518   1.406
 8200SOL     OW25498   3.864   4.201   1.713
 8200SOL    HW125499   3.832   4.295   1.713
 8200SOL    HW225500   3.844   4.159   1.802
 8201SOL     OW25501   0.898   1.095   5.239
 8201SOL    HW125502   0.954   1.174   5.215
 8201SOL    HW225503   0.938   1.048   5.317
 8202SOL     OW25504   1.972   3.440   3.917
 8202SOL    HW125505   1.974   3.442   3.817
 8202SOL    HW225506   1.973   3.345   3.948
 8203SOL     OW25507   6.693   4.582   6.185
 8203SOL    HW125508   6.700   4.518   6.262
 8203SOL    HW225509   6.771   4.644   6.187
 8204SOL     OW25510   3.388   6.930   0.698
 8204SOL    HW125511   3.478   6.889   0.680
 8204SOL    HW225512   3.378   7.014   0.644
 8205SOL     OW25513   3.969   0.098   3.006
 8205SOL    HW125514   4.030   0.103   3.085
 8205SOL    HW225515   3.945   0.002   2.988
 8206SOL     OW25516   3.568   2.137   4.879
 8206SOL    HW125517   3.483   2.183   4.903
 8206SOL    HW225518   3.552   2.040   4.865
 8207SOL     OW25519   2.938   5.740   0.388
 8207SOL    HW125520   2.975   5.831   0.408
 8207SOL    HW225521   2.955   5.718   0.292
 8208SOL     OW25522   1.565   5.854   1.122
 8208SOL    HW125523   1.606   5.792   1.189
 8208SOL    HW225524   1.596   5.948   1.140
 8209SOL     OW25525   0.846   5.999   5.125
 8209SOL    HW125526   0.846   6.001   5.025
 8209SOL    HW225527   0.821   6.089   5.161
 8210SOL     OW25528   2.643   0.327   1.284
 8210SOL    HW125529   2.621   0.290   1.374
 8210SOL    HW225530   2.688   0.256   1.229
 8211SOL     OW25531   3.136   4.060   4.167
 8211SOL    HW125532   3.145   4.077   4.265
 8211SOL    HW225533   3.220   4.088   4.121
 8212SOL     OW25534   4.331   4.726   6.938
 8212SOL    HW125535   4.293   4.812   6.973
 8212SOL    HW225536   4.419   4.708   6.983
 8213SOL     OW25537   4.788   4.152   2.067
 8213SOL    HW125538   4.735   4.235   2.049
 8213SOL    HW225539   4.810   4.107   1.981
 8214SOL     OW25540   4.216   5.307   3.507
 8214SOL    HW125541   4.279   5.231   3.526
 8214SOL    HW225542   4.268   5.383   3.469
 8215SOL     OW25543   2.956   6.481   5.481
 8215SOL    HW125544   2.969   6.423   5.400
 8215SOL    HW225545   2.875   6.451   5.531
 8216SOL     OW25546   6.128   5.419   0.585
 8216SOL    HW125547   6.146   5.321   0.588
 8216SOL    HW225548   6.113   5.454   0.677
 8217SOL     OW25549   3.205   6.108   3.319
 8217SOL    HW125550   3.256   6.181   3.364
 8217SOL    HW225551   3.264   6.060   3.255
 8218SOL     OW25552   2.091   6.349   4.240
 8218SOL    HW125553   2.134   6.423   4.293
 8218SOL    HW225554   2.006   6.322   4.285
 8219SOL     OW25555   3.660   3.622   3.760
 8219SOL    HW125556   3.727   3.611   3.834
 8219SOL    HW225557   3.586   3.681   3.792
 8220SOL     OW25558   4.530   4.182   6.060
 8220SOL    HW125559   4.572   4.201   6.149
 8220SOL    HW225560   4.431   4.177   6.071
 8221SOL     OW25561   6.900   3.861   3.917
 8221SOL    HW125562   6.802   3.850   3.901
 8221SOL    HW225563   6.925   3.957   3.904
 8222SOL     OW25564   5.167   2.250   6.147
 8222SOL    HW125565   5.127   2.288   6.231
 8222SOL    HW225566   5.230   2.316   6.107
 8223SOL     OW25567   1.359   6.077   5.740
 8223SOL    HW125568   1.299   6.132   5.682
 8223SOL    HW225569   1.453   6.083   5.707
 8224SOL     OW25570   5.694   0.657   5.742
 8224SOL    HW125571   5.741   0.610   5.816
 8224SOL    HW225572   5.596   0.664   5.763
 8225SOL     OW25573   6.066   2.403   0.216
 8225SOL    HW125574   6.061   2.312   0.258
 8225SOL    HW225575   5.982   2.454   0.234
 8226SOL     OW25576   3.780   0.447   6.707
 8226SOL    HW125577   3.703   0.425   6.767
 8226SOL    HW225578   3.844   0.506   6.755
 8227SOL     OW25579   5.457   4.126   2.175
 8227SOL    HW125580   5.489   4.061   2.106
 8227SOL    HW225581   5.481   4.219   2.148
 8228SOL     OW25582   2.482   1.698   4.147
 8228SOL    HW125583   2.523   1.728   4.061
 8228SOL    HW225584   2.548   1.710   4.221
 8229SOL     OW25585   3.988   4.448   0.590
 8229SOL    HW125586   3.970   4.381   0.518
 8229SOL    HW225587   3.917   4.443   0.660
 8230SOL     OW25588   6.415   0.799   6.522
 8230SOL    HW125589   6.483   0.792   6.448
 8230SOL    HW225590   6.432   0.881   6.575
 8231SOL     OW25591   3.438   1.697   1.905
 8231SOL    HW125592   3.495   1.753   1.845
 8231SOL    HW225593   3.359   1.662   1.854
 8232SOL     OW25594   3.688   6.395   3.714
 8232SOL    HW125595   3.594   6.364   3.729
 8232SOL    HW225596   3.699   6.423   3.619
 8233SOL     OW25597   3.183   0.210   6.501
 8233SOL    HW125598   3.201   0.295   6.452
 8233SOL    HW225599   3.194   0.133   6.439
 8234SOL     OW25600   0.874   2.712   6.737
 8234SOL    HW125601   0.939   2.696   6.663
 8234SOL    HW225602   0.785   2.737   6.699
 8235SOL     OW25603   0.897   6.280   0.127
 8235SOL    HW125604   0.930   6.330   0.207
 8235SOL    HW225605   0.860   6.192   0.155
 8236SOL     OW25606   1.445   7.013   1.028
 8236SOL    HW125607   1.380   6.968   0.967
 8236SOL    HW225608   1.538   6.998   0.995
 8237SOL     OW25609   3.900   4.852   5.493
 8237SOL    HW125610   3.849   4.778   5.449
 8237SOL    HW225611   3.904   4.834   5.592
 8238SOL     OW25612   6.630   5.188   0.046
 8238SOL    HW125613   6.559   5.191   0.117
 8238SOL    HW225614   6.719   5.210   0.088
 8239SOL     OW25615   4.308   2.312   3.956
 8239SOL    HW125616   4.335   2.228   3.908
 8239SOL    HW225617   4.324   2.391   3.897
 8240SOL     OW25618   3.724   3.507   5.345
 8240SOL    HW125619   3.776   3.582   5.385
 8240SOL    HW225620   3.780   3.424   5.343
 8241SOL     OW25621   0.618   3.064   5.756
 8241SOL    HW125622   0.717   3.053   5.750
 8241SOL    HW225623   0.575   3.031   5.672
 8242SOL     OW25624   0.553   3.049   3.311
 8242SOL    HW125625   0.525   2.976   3.248
 8242SOL    HW225626   0.496   3.129   3.295
 8243SOL     OW25627   1.571   5.688   3.818
 8243SOL    HW125628   1.593   5.591   3.832
 8243SOL    HW225629   1.588   5.713   3.723
 8244SOL     OW25630   5.878   0.091   4.575
 8244SOL    HW125631   5.862   0.060   4.481
 8244SOL    HW225632   5.845   0.022   4.639
 8245SOL     OW25633   5.938   4.539   2.325
 8245SOL    HW125634   6.022   4.560   2.376
 8245SOL    HW225635   5.873   4.493   2.386
 8246SOL     OW25636   2.171   4.422   6.965
 8246SOL    HW125637   2.151   4.418   0.035
 8246SOL    HW225638   2.089   4.396   6.914
 8247SOL     OW25639   1.945   4.774   3.221
 8247SOL    HW125640   1.861   4.811   3.261
 8247SOL    HW225641   2.008   4.751   3.295
 8248SOL     OW25642   6.460   6.893   2.729
 8248SOL    HW125643   6.378   6.900   2.786
 8248SOL    HW225644   6.438   6.846   2.643
 8249SOL     OW25645   3.429   0.133   5.713
 8249SOL    HW125646   3.337   0.121   5.750
 8249SOL    HW225647   3.433   0.219   5.662
 8250SOL     OW25648   1.507   1.529   0.152
 8250SOL    HW125649   1.440   1.579   0.206
 8250SOL    HW225650   1.499   1.556   0.056
 8251SOL     OW25651   1.327   1.974   6.629
 8251SOL    HW125652   1.294   2.059   6.587
 8251SOL    HW225653   1.423   1.985   6.654
 8252SOL     OW25654   0.859   1.241   6.500
 8252SOL    HW125655   0.942   1.261   6.448
 8252SOL    HW225656   0.856   1.143   6.522
 8253SOL     OW25657   0.407   4.231   5.525
 8253SOL    HW125658   0.494   4.277   5.541
 8253SOL    HW225659   0.339   4.298   5.496
 8254SOL     OW25660   4.994   4.342   0.128
 8254SOL    HW125661   5.083   4.375   0.160
 8254SOL    HW225662   4.962   4.271   0.190
 8255SOL     OW25663   1.801   6.405   5.407
 8255SOL    HW125664   1.785   6.500   5.381
 8255SOL    HW225665   1.739   6.379   5.481
 8256SOL     OW25666   1.707   5.634   2.910
 8256SOL    HW125667   1.795   5.612   2.869
 8256SOL    HW225668   1.656   5.550   2.927
 8257SOL     OW25669   4.752   4.644   3.715
 8257SOL    HW125670   4.782   4.585   3.790
 8257SOL    HW225671   4.688   4.594   3.656
 8258SOL     OW25672   0.081   3.287   4.799
 8258SOL    HW125673   0.172   3.260   4.767
 8258SOL    HW225674   0.088   3.329   4.890
 8259SOL     OW25675   5.944   3.232   4.240
 8259SOL    HW125676   5.890   3.315   4.224
 8259SOL    HW225677   5.882   3.154   4.254
 8260SOL     OW25678   4.952   2.160   6.606
 8260SOL    HW125679   5.026   2.115   6.556
 8260SOL    HW225680   4.885   2.092   6.635
 8261SOL     OW25681   5.498   2.527   2.777
 8261SOL    HW125682   5.579   2.467   2.775
 8261SOL    HW225683   5.483   2.565   2.685
 8262SOL     OW25684   5.005   4.314   2.116
 8262SOL    HW125685   4.918   4.264   2.113
 8262SOL    HW225686   5.034   4.336   2.023
 8263SOL     OW25687   6.567   1.534   6.813
 8263SOL    HW125688   6.649   1.537   6.869
 8263SOL    HW225689   6.586   1.483   6.729
 8264SOL     OW25690   3.549   1.195   1.859
 8264SOL    HW125691   3.608   1.206   1.939
 8264SOL    HW225692   3.538   1.098   1.839
 8265SOL     OW25693   4.793   5.482   0.141
 8265SOL    HW125694   4.730   5.538   0.087
 8265SOL    HW225695   4.769   5.488   0.237
 8266SOL     OW25696   4.914   2.821   2.744
 8266SOL    HW125697   4.925   2.920   2.736
 8266SOL    HW225698   4.964   2.788   2.824
 8267SOL     OW25699   1.928   3.213   3.130
 8267SOL    HW125700   1.923   3.149   3.207
 8267SOL    HW225701   1.837   3.224   3.090
 8268SOL     OW25702   2.516   5.400   1.400
 8268SOL    HW125703   2.530   5.305   1.373
 8268SOL    HW225704   2.453   5.404   1.477
 8269SOL     OW25705   6.804   2.090   3.754
 8269SOL    HW125706   6.763   2.066   3.666
 8269SOL    HW225707   6.767   2.178   3.785
 8270SOL     OW25708   3.600   4.688   0.188
 8270SOL    HW125709   3.518   4.736   0.218
 8270SOL    HW225710   3.627   4.622   0.258
 8271SOL     OW25711   2.732   7.006   5.083
 8271SOL    HW125712   2.765   6.966   4.998
 8271SOL    HW225713   2.793   0.052   5.111
 8272SOL     OW25714   0.988   0.596   2.025
 8272SOL    HW125715   1.040   0.651   1.960
 8272SOL    HW225716   0.928   0.655   2.078
 8273SOL     OW25717   5.116   0.073   6.162
 8273SOL    HW125718   5.024   0.081   6.124
 8273SOL    HW225719   5.177   0.034   6.093
 8274SOL     OW25720   5.378   6.611   3.991
 8274SOL    HW125721   5.406   6.590   4.085
 8274SOL    HW225722   5.287   6.575   3.975
 8275SOL     OW25723   4.695   0.306   4.432
 8275SOL    HW125724   4.761   0.356   4.488
 8275SOL    HW225725   4.689   0.348   4.341
 8276SOL     OW25726   5.436   2.753   1.079
 8276SOL    HW125727   5.535   2.746   1.072
 8276SOL    HW225728   5.393   2.669   1.048
 8277SOL     OW25729   1.374   0.124   2.236
 8277SOL    HW125730   1.407   0.045   2.185
 8277SOL    HW225731   1.276   0.138   2.218
 8278SOL     OW25732   1.756   0.480   1.458
 8278SOL    HW125733   1.815   0.548   1.414
 8278SOL    HW225734   1.665   0.483   1.418
 8279SOL     OW25735   6.367   4.914   5.867
 8279SOL    HW125736   6.311   4.864   5.801
 8279SOL    HW225737   6.368   5.011   5.842
 8280SOL     OW25738   0.450   4.726   6.871
 8280SOL    HW125739   0.381   4.733   6.799
 8280SOL    HW225740   0.538   4.699   6.831
 8281SOL     OW25741   3.197   4.672   0.012
 8281SOL    HW125742   3.154   4.706   0.096
 8281SOL    HW225743   3.174   4.576   7.027
 8282SOL     OW25744   4.201   3.414   0.526
 8282SOL    HW125745   4.276   3.436   0.463
 8282SOL    HW225746   4.237   3.360   0.602
 8283SOL     OW25747   0.744   1.258   3.547
 8283SOL    HW125748   0.688   1.205   3.611
 8283SOL    HW225749   0.684   1.313   3.488
 8284SOL     OW25750   4.915   2.528   1.178
 8284SOL    HW125751   5.005   2.519   1.134
 8284SOL    HW225752   4.875   2.616   1.154
 8285SOL     OW25753   0.426   4.870   0.067
 8285SOL    HW125754   0.485   4.838   0.140
 8285SOL    HW225755   0.429   4.805   7.019
 8286SOL     OW25756   6.153   2.069   6.557
 8286SOL    HW125757   6.201   2.100   6.475
 8286SOL    HW225758   6.220   2.035   6.623
 8287SOL     OW25759   0.565   1.082   3.123
 8287SOL    HW125760   0.512   1.114   3.202
 8287SOL    HW225761   0.659   1.117   3.130
 8288SOL     OW25762   2.543   6.818   2.609
 8288SOL    HW125763   2.525   6.879   2.686
 8288SOL    HW225764   2.457   6.778   2.577
 8289SOL     OW25765   6.179   6.981   0.140
 8289SOL    HW125766   6.185   7.019   0.232
 8289SOL    HW225767   6.185   6.881   0.145
 8290SOL     OW25768   4.631   2.760   1.847
 8290SOL    HW125769   4.599   2.726   1.936
 8290SOL    HW225770   4.638   2.860   1.850
 8291SOL     OW25771   5.603   5.445   5.361
 8291SOL    HW125772   5.641   5.538   5.365
 8291SOL    HW225773   5.585   5.412   5.453
 8292SOL     OW25774   6.966   4.100   5.644
 8292SOL    HW125775   6.985   4.059   5.555
 8292SOL    HW225776   6.882   4.155   5.638
 8293SOL     OW25777   2.891   5.492   4.393
 8293SOL    HW125778   2.946   5.414   4.362
 8293SOL    HW225779   2.947   5.551   4.450
 8294SOL     OW25780   6.806   3.605   6.086
 8294SOL    HW125781   6.872   3.653   6.028
 8294SOL    HW225782   6.853   3.565   6.165
 8295SOL     OW25783   4.158   4.520   1.495
 8295SOL    HW125784   4.238   4.576   1.476
 8295SOL    HW225785   4.169   4.475   1.584
 8296SOL     OW25786   3.240   0.683   2.079
 8296SOL    HW125787   3.155   0.723   2.114
 8296SOL    HW225788   3.218   0.618   2.006
 8297SOL     OW25789   6.318   4.417   1.919
 8297SOL    HW125790   6.332   4.512   1.946
 8297SOL    HW225791   6.233   4.408   1.867
 8298SOL     OW25792   6.949   6.622   0.697
 8298SOL    HW125793   6.983   6.568   0.619
 8298SOL    HW225794   7.014   6.615   0.773
 8299SOL     OW25795   0.740   1.862   6.989
 8299SOL    HW125796   0.840   1.865   6.995
 8299SOL    HW225797   0.713   1.841   6.895
 8300SOL     OW25798   4.597   6.192   4.590
 8300SOL    HW125799   4.678   6.150   4.550
 8300SOL    HW225800   4.618   6.284   4.621
 8301SOL     OW25801   6.420   5.224   0.210
 8301SOL    HW125802   6.342   5.284   0.197
 8301SOL    HW225803   6.394   5.147   0.269
 8302SOL     OW25804   3.668   6.772   5.697
 8302SOL    HW125805   3.658   6.681   5.656
 8302SOL    HW225806   3.716   6.832   5.633
 8303SOL     OW25807   0.464   4.646   3.970
 8303SOL    HW125808   0.548   4.686   4.006
 8303SOL    HW225809   0.423   4.588   4.040
 8304SOL     OW25810   5.774   2.774   3.902
 8304SOL    HW125811   5.722   2.761   3.817
 8304SOL    HW225812   5.779   2.872   3.922
 8305SOL     OW25813   4.541   6.065   5.272
 8305SOL    HW125814   4.583   6.035   5.186
 8305SOL    HW225815   4.612   6.074   5.342
 8306SOL     OW25816   5.354   1.238   3.753
 8306SOL    HW125817   5.399   1.153   3.725
 8306SOL    HW225818   5.271   1.251   3.699
 8307SOL     OW25819   6.721   4.946   4.330
 8307SOL    HW125820   6.632   4.973   4.295
 8307SOL    HW225821   6.787   4.945   4.255
 8308SOL     OW25822   2.015   5.283   0.185
 8308SOL    HW125823   1.971   5.272   0.274
 8308SOL    HW225824   2.032   5.380   0.168
 8309SOL     OW25825   5.791   5.240   2.758
 8309SOL    HW125826   5.800   5.272   2.664
 8309SOL    HW225827   5.705   5.273   2.797
 8310SOL     OW25828   1.798   5.889   2.966
 8310SOL    HW125829   1.878   5.873   2.908
 8310SOL    HW225830   1.730   5.818   2.949
 8311SOL     OW25831   4.798   6.579   1.906
 8311SOL    HW125832   4.836   6.620   1.823
 8311SOL    HW225833   4.728   6.639   1.944
 8312SOL     OW25834   6.793   1.099   0.719
 8312SOL    HW125835   6.808   1.151   0.803
 8312SOL    HW225836   6.815   1.003   0.734
 8313SOL     OW25837   4.866   2.584   5.765
 8313SOL    HW125838   4.938   2.622   5.706
 8313SOL    HW225839   4.854   2.487   5.743
 8314SOL     OW25840   5.071   6.145   4.523
 8314SOL    HW125841   5.100   6.058   4.483
 8314SOL    HW225842   5.134   6.171   4.596
 8315SOL     OW25843   3.208   1.653   0.773
 8315SOL    HW125844   3.167   1.722   0.714
 8315SOL    HW225845   3.240   1.697   0.857
 8316SOL     OW25846   1.495   1.790   4.681
 8316SOL    HW125847   1.535   1.835   4.601
 8316SOL    HW225848   1.410   1.838   4.706
 8317SOL     OW25849   2.167   1.981   6.633
 8317SOL    HW125850   2.119   2.029   6.707
 8317SOL    HW225851   2.207   2.048   6.571
 8318SOL     OW25852   4.094   6.241   5.288
 8318SOL    HW125853   4.110   6.150   5.251
 8318SOL    HW225854   4.104   6.239   5.388
 8319SOL     OW25855   2.696   5.889   6.099
 8319SOL    HW125856   2.657   5.805   6.062
 8319SOL    HW225857   2.642   5.967   6.066
 8320SOL     OW25858   4.202   5.170   5.677
 8320SOL    HW125859   4.222   5.216   5.764
 8320SOL    HW225860   4.242   5.078   5.678
 8321SOL     OW25861   0.432   0.345   0.654
 8321SOL    HW125862   0.372   0.344   0.734
 8321SOL    HW225863   0.410   0.424   0.597
 8322SOL     OW25864   2.605   0.390   1.818
 8322SOL    HW125865   2.599   0.328   1.896
 8322SOL    HW225866   2.542   0.466   1.832
 8323SOL     OW25867   5.837   5.343   6.698
 8323SOL    HW125868   5.854   5.284   6.619
 8323SOL    HW225869   5.745   5.325   6.734
 8324SOL     OW25870   6.290   5.935   6.130
 8324SOL    HW125871   6.338   5.971   6.209
 8324SOL    HW225872   6.229   6.004   6.093
 8325SOL     OW25873   1.657   6.215   4.866
 8325SOL    HW125874   1.638   6.121   4.895
 8325SOL    HW225875   1.722   6.257   4.929
 8326SOL     OW25876   2.779   0.993   6.555
 8326SOL    HW125877   2.754   0.947   6.641
 8326SOL    HW225878   2.878   0.990   6.543
 8327SOL     OW25879   0.757   5.723   5.461
 8327SOL    HW125880   0.765   5.650   5.394
 8327SOL    HW225881   0.718   5.805   5.418
 8328SOL     OW25882   1.334   0.563   0.307
 8328SOL    HW125883   1.427   0.534   0.286
 8328SOL    HW225884   1.317   0.555   0.405
 8329SOL     OW25885   1.744   2.563   5.342
 8329SOL    HW125886   1.702   2.562   5.251
 8329SOL    HW225887   1.677   2.534   5.410
 8330SOL     OW25888   3.678   6.435   0.057
 8330SOL    HW125889   3.627   6.484   0.128
 8330SOL    HW225890   3.629   6.351   0.033
 8331SOL     OW25891   2.108   2.041   5.849
 8331SOL    HW125892   2.026   2.044   5.905
 8331SOL    HW225893   2.167   1.966   5.879
 8332SOL     OW25894   5.352   4.621   0.800
 8332SOL    HW125895   5.270   4.569   0.825
 8332SOL    HW225896   5.432   4.561   0.804
 8333SOL     OW25897   2.424   4.382   6.706
 8333SOL    HW125898   2.438   4.336   6.794
 8333SOL    HW225899   2.365   4.325   6.648
 8334SOL     OW25900   3.249   2.723   5.228
 8334SOL    HW125901   3.249   2.624   5.221
 8334SOL    HW225902   3.333   2.753   5.275
 8335SOL     OW25903   5.813   3.230   6.553
 8335SOL    HW125904   5.726   3.262   6.590
 8335SOL    HW225905   5.865   3.309   6.520
 8336SOL     OW25906   1.121   4.810   3.864
 8336SOL    HW125907   1.138   4.891   3.920
 8336SOL    HW225908   1.191   4.802   3.794
 8337SOL     OW25909   6.154   0.151   4.117
 8337SOL    HW125910   6.242   0.115   4.149
 8337SOL    HW225911   6.096   0.075   4.086
 8338SOL     OW25912   2.584   5.151   1.310
 8338SOL    HW125913   2.602   5.059   1.344
 8338SOL    HW225914   2.657   5.178   1.247
 8339SOL     OW25915   0.070   0.232   1.804
 8339SOL    HW125916   7.021   0.169   1.815
 8339SOL    HW225917   0.154   0.180   1.790
 8340SOL     OW25918   6.367   2.725   6.333
 8340SOL    HW125919   6.329   2.794   6.393
 8340SOL    HW225920   6.308   2.644   6.332
 8341SOL     OW25921   3.212   6.826   1.255
 8341SOL    HW125922   3.241   6.855   1.346
 8341SOL    HW225923   3.209   6.726   1.252
 8342SOL     OW25924   3.893   1.124   1.305
 8342SOL    HW125925   3.928   1.176   1.227
 8342SOL    HW225926   3.879   1.029   1.277
 8343SOL     OW25927   4.931   6.120   2.749
 8343SOL    HW125928   4.964   6.201   2.701
 8343SOL    HW225929   4.871   6.067   2.689
 8344SOL     OW25930   2.117   4.534   5.226
 8344SOL    HW125931   2.065   4.507   5.307
 8344SOL    HW225932   2.182   4.462   5.203
 8345SOL     OW25933   6.326   6.948   4.147
 8345SOL    HW125934   6.273   6.864   4.138
 8345SOL    HW225935   6.396   6.951   4.075
 8346SOL     OW25936   5.588   4.289   3.235
 8346SOL    HW125937   5.612   4.194   3.216
 8346SOL    HW225938   5.603   4.309   3.332
 8347SOL     OW25939   1.209   1.028   6.665
 8347SOL    HW125940   1.286   0.968   6.644
 8347SOL    HW225941   1.155   0.988   6.739
 8348SOL     OW25942   3.433   6.007   0.870
 8348SOL    HW125943   3.438   5.930   0.807
 8348SOL    HW225944   3.408   5.974   0.961
 8349SOL     OW25945   4.107   5.765   1.284
 8349SOL    HW125946   4.133   5.715   1.201
 8349SOL    HW225947   4.008   5.764   1.294
 8350SOL     OW25948   2.141   0.154   6.657
 8350SOL    HW125949   2.168   0.242   6.618
 8350SOL    HW225950   2.216   0.089   6.648
 8351SOL     OW25951   6.906   3.521   2.863
 8351SOL    HW125952   6.991   3.551   2.819
 8351SOL    HW225953   6.915   3.532   2.962
 8352SOL     OW25954   2.494   0.062   5.857
 8352SOL    HW125955   2.549   7.008   5.846
 8352SOL    HW225956   2.407   0.038   5.900
 8353SOL     OW25957   0.507   5.793   2.628
 8353SOL    HW125958   0.604   5.770   2.633
 8353SOL    HW225959   0.494   5.890   2.648
 8354SOL     OW25960   4.716   2.647   3.476
 8354SOL    HW125961   4.797   2.589   3.465
 8354SOL    HW225962   4.734   2.717   3.545
 8355SOL     OW25963   3.441   4.761   6.051
 8355SOL    HW125964   3.531   4.799   6.074
 8355SOL    HW225965   3.369   4.817   6.090
 8356SOL     OW25966   3.180   2.936   2.125
 8356SOL    HW125967   3.136   2.990   2.053
 8356SOL    HW225968   3.136   2.847   2.131
 8357SOL     OW25969   2.697   6.792   4.691
 8357SOL    HW125970   2.709   6.809   4.593
 8357SOL    HW225971   2.601   6.767   4.709
 8358SOL     OW25972   0.164   0.608   4.208
 8358SOL    HW125973   0.222   0.592   4.288
 8358SOL    HW225974   0.068   0.610   4.236
 8359SOL     OW25975   4.704   2.170   4.843
 8359SOL    HW125976   4.785   2.139   4.793
 8359SOL    HW225977   4.695   2.118   4.928
 8360SOL     OW25978   2.982   0.281   2.440
 8360SOL    HW125979   3.032   0.212   2.492
 8360SOL    HW225980   2.912   0.236   2.384
 8361SOL     OW25981   4.695   1.163   0.148
 8361SOL    HW125982   4.707   1.240   0.211
 8361SOL    HW225983   4.646   1.194   0.067
 8362SOL     OW25984   0.659   4.693   1.720
 8362SOL    HW125985   0.668   4.760   1.794
 8362SOL    HW225986   0.616   4.610   1.756
 8363SOL     OW25987   2.320   2.004   0.930
 8363SOL    HW125988   2.340   2.002   0.833
 8363SOL    HW225989   2.234   1.955   0.947
 8364SOL     OW25990   0.301   1.198   3.752
 8364SOL    HW125991   0.334   1.293   3.754
 8364SOL    HW225992   0.359   1.142   3.812
 8365SOL     OW25993   1.884   2.669   1.058
 8365SOL    HW125994   1.857   2.755   1.015
 8365SOL    HW225995   1.960   2.628   1.008
 8366SOL     OW25996   4.956   5.965   1.879
 8366SOL    HW125997   4.867   5.922   1.891
 8366SOL    HW225998   4.957   6.054   1.926
 8367SOL     OW25999   2.140   4.841   3.430
 8367SOL    HW126000   2.221   4.791   3.460
 8367SOL    HW226001   2.093   4.879   3.510
 8368SOL     OW26002   0.964   3.310   6.360
 8368SOL    HW126003   0.880   3.357   6.332
 8368SOL    HW226004   0.951   3.267   6.449
 8369SOL     OW26005   1.124   0.425   0.189
 8369SOL    HW126006   1.216   0.460   0.211
 8369SOL    HW226007   1.121   0.397   0.093
 8370SOL     OW26008   3.084   2.727   0.739
 8370SOL    HW126009   3.013   2.758   0.675
 8370SOL    HW226010   3.045   2.716   0.830
 8371SOL     OW26011   3.332   4.477   5.585
 8371SOL    HW126012   3.355   4.567   5.622
 8371SOL    HW226013   3.245   4.447   5.623
 8372SOL     OW26014   1.598   6.971   2.852
 8372SOL    HW126015   1.650   6.892   2.817
 8372SOL    HW226016   1.654   7.021   2.918
 8373SOL     OW26017   5.419   0.572   3.985
 8373SOL    HW126018   5.433   0.511   4.063
 8373SOL    HW226019   5.323   0.568   3.957
 8374SOL     OW26020   0.823   1.931   3.589
 8374SOL    HW126021   0.732   1.910   3.553
 8374SOL    HW226022   0.885   1.949   3.512
 8375SOL     OW26023   2.023   2.727   5.920
 8375SOL    HW126024   2.014   2.651   5.856
 8375SOL    HW226025   2.106   2.779   5.899
 8376SOL     OW26026   0.707   1.277   3.903
 8376SOL    HW126027   0.619   1.324   3.904
 8376SOL    HW226028   0.781   1.344   3.912
 8377SOL     OW26029   3.748   4.809   0.949
 8377SOL    HW126030   3.687   4.794   1.027
 8377SOL    HW226031   3.697   4.851   0.874
 8378SOL     OW26032   4.592   5.719   4.911
 8378SOL    HW126033   4.560   5.644   4.969
 8378SOL    HW226034   4.539   5.721   4.826
 8379SOL     OW26035   5.643   2.851   1.905
 8379SOL    HW126036   5.612   2.758   1.926
 8379SOL    HW226037   5.738   2.847   1.872
 8380SOL     OW26038   1.767   4.839   2.856
 8380SOL    HW126039   1.681   4.829   2.906
 8380SOL    HW226040   1.775   4.766   2.788
 8381SOL     OW26041   1.157   2.316   2.457
 8381SOL    HW126042   1.067   2.326   2.500
 8381SOL    HW226043   1.179   2.220   2.448
 8382SOL     OW26044   1.591   0.152   1.881
 8382SOL    HW126045   1.600   0.224   1.812
 8382SOL    HW226046   1.531   0.080   1.846
 8383SOL     OW26047   2.165   6.868   4.946
 8383SOL    HW126048   2.186   6.783   4.994
 8383SOL    HW226049   2.184   6.946   5.005
 8384SOL     OW26050   0.600   3.834   3.585
 8384SOL    HW126051   0.667   3.889   3.636
 8384SOL    HW226052   0.508   3.858   3.616
 8385SOL     OW26053   4.407   2.449   2.436
 8385SOL    HW126054   4.330   2.391   2.409
 8385SOL    HW226055   4.426   2.515   2.364
 8386SOL     OW26056   6.623   5.012   1.877
 8386SOL    HW126057   6.542   4.997   1.821
 8386SOL    HW226058   6.595   5.033   1.971
 8387SOL     OW26059   0.215   2.016   3.639
 8387SOL    HW126060   0.293   2.063   3.596
 8387SOL    HW226061   0.130   2.062   3.613
 8388SOL     OW26062   3.978   5.867   2.048
 8388SOL    HW126063   4.054   5.815   2.009
 8388SOL    HW226064   3.918   5.899   1.974
 8389SOL     OW26065   1.364   2.551   4.582
 8389SOL    HW126066   1.344   2.647   4.602
 8389SOL    HW226067   1.456   2.528   4.614
 8390SOL     OW26068   1.757   6.933   6.487
 8390SOL    HW126069   1.659   6.940   6.466
 8390SOL    HW226070   1.785   7.010   6.543
 8391SOL     OW26071   4.807   6.405   0.687
 8391SOL    HW126072   4.830   6.318   0.642
 8391SOL    HW226073   4.776   6.387   0.780
 8392SOL     OW26074   3.763   5.673   0.449
 8392SOL    HW126075   3.814   5.604   0.397
 8392SOL    HW226076   3.713   5.732   0.386
 8393SOL     OW26077   1.297   6.356   1.850
 8393SOL    HW126078   1.389   6.396   1.844
 8393SOL    HW226079   1.236   6.402   1.786
 8394SOL     OW26080   1.621   1.412   3.490
 8394SOL    HW126081   1.670   1.476   3.550
 8394SOL    HW226082   1.626   1.320   3.529
 8395SOL     OW26083   2.420   6.039   6.343
 8395SOL    HW126084   2.491   6.093   6.298
 8395SOL    HW226085   2.447   6.019   6.437
 8396SOL     OW26086   4.427   1.901   0.852
 8396SOL    HW126087   4.344   1.943   0.816
 8396SOL    HW226088   4.439   1.927   0.948
 8397SOL     OW26089   0.566   4.395   3.309
 8397SOL    HW126090   0.652   4.357   3.275
 8397SOL    HW226091   0.496   4.387   3.237
 8398SOL     OW26092   5.478   1.132   6.547
 8398SOL    HW126093   5.525   1.149   6.460
 8398SOL    HW226094   5.381   1.117   6.530
 8399SOL     OW26095   5.848   6.179   5.368
 8399SOL    HW126096   5.889   6.215   5.284
 8399SOL    HW226097   5.918   6.175   5.440
 8400SOL     OW26098   5.973   6.117   3.400
 8400SOL    HW126099   5.991   6.107   3.302
 8400SOL    HW226100   6.056   6.150   3.446
 8401SOL     OW26101   2.755   3.610   5.484
 8401SOL    HW126102   2.830   3.546   5.465
 8401SOL    HW226103   2.748   3.675   5.408
 8402SOL     OW26104   5.265   1.083   5.231
 8402SOL    HW126105   5.240   1.129   5.145
 8402SOL    HW226106   5.195   1.015   5.254
 8403SOL     OW26107   0.573   2.067   6.201
 8403SOL    HW126108   0.618   2.126   6.269
 8403SOL    HW226109   0.624   1.981   6.193
 8404SOL     OW26110   5.049   5.233   5.687
 8404SOL    HW126111   4.978   5.301   5.672
 8404SOL    HW226112   5.123   5.273   5.742
 8405SOL     OW26113   0.628   2.580   6.203
 8405SOL    HW126114   0.673   2.651   6.149
 8405SOL    HW226115   0.689   2.552   6.278
 8406SOL     OW26116   5.514   4.039   1.194
 8406SOL    HW126117   5.514   4.134   1.162
 8406SOL    HW226118   5.503   4.037   1.293
 8407SOL     OW26119   5.186   3.703   2.480
 8407SOL    HW126120   5.168   3.705   2.578
 8407SOL    HW226121   5.099   3.694   2.430
 8408SOL     OW26122   4.876   4.185   3.917
 8408SOL    HW126123   4.850   4.159   4.010
 8408SOL    HW226124   4.938   4.115   3.879
 8409SOL     OW26125   1.818   2.212   3.767
 8409SOL    HW126126   1.844   2.159   3.687
 8409SOL    HW226127   1.744   2.275   3.742
 8410SOL     OW26128   2.180   5.081   2.514
 8410SOL    HW126129   2.147   5.084   2.608
 8410SOL    HW226130   2.277   5.102   2.512
 8411SOL     OW26131   1.538   3.476   2.993
 8411SOL    HW126132   1.472   3.504   3.063
 8411SOL    HW226133   1.617   3.538   2.994
 8412SOL     OW26134   6.031   2.718   2.303
 8412SOL    HW126135   6.065   2.791   2.242
 8412SOL    HW226136   5.932   2.726   2.311
 8413SOL     OW26137   2.167   5.839   1.826
 8413SOL    HW126138   2.068   5.844   1.837
 8413SOL    HW226139   2.190   5.845   1.729
 8414SOL     OW26140   6.060   0.559   4.112
 8414SOL    HW126141   6.149   0.578   4.070
 8414SOL    HW226142   6.072   0.542   4.210
 8415SOL     OW26143   0.788   4.923   1.462
 8415SOL    HW126144   0.875   4.880   1.441
 8415SOL    HW226145   0.714   4.874   1.416
 8416SOL     OW26146   4.371   4.587   3.122
 8416SOL    HW126147   4.323   4.526   3.059
 8416SOL    HW226148   4.439   4.641   3.071
 8417SOL     OW26149   0.922   5.477   0.312
 8417SOL    HW126150   0.857   5.548   0.338
 8417SOL    HW226151   0.902   5.446   0.220
 8418SOL     OW26152   5.094   5.770   2.679
 8418SOL    HW126153   5.121   5.785   2.774
 8418SOL    HW226154   5.152   5.698   2.639
 8419SOL     OW26155   3.265   1.473   3.364
 8419SOL    HW126156   3.333   1.497   3.294
 8419SOL    HW226157   3.310   1.433   3.443
 8420SOL     OW26158   4.881   1.903   5.295
 8420SOL    HW126159   4.865   1.804   5.290
 8420SOL    HW226160   4.840   1.947   5.215
 8421SOL     OW26161   0.252   0.873   0.540
 8421SOL    HW126162   0.348   0.853   0.520
 8421SOL    HW226163   0.194   0.807   0.492
 8422SOL     OW26164   2.475   0.748   1.555
 8422SOL    HW126165   2.403   0.704   1.502
 8422SOL    HW226166   2.445   0.839   1.585
 8423SOL     OW26167   1.974   4.443   1.076
 8423SOL    HW126168   2.042   4.406   1.013
 8423SOL    HW226169   1.964   4.541   1.061
 8424SOL     OW26170   2.721   2.207   1.902
 8424SOL    HW126171   2.781   2.271   1.950
 8424SOL    HW226172   2.744   2.207   1.805
 8425SOL     OW26173   0.794   4.920   5.759
 8425SOL    HW126174   0.839   4.832   5.776
 8425SOL    HW226175   0.780   4.967   5.846
 8426SOL     OW26176   3.822   3.351   2.406
 8426SOL    HW126177   3.767   3.334   2.325
 8426SOL    HW226178   3.883   3.273   2.422
 8427SOL     OW26179   2.301   1.556   6.775
 8427SOL    HW126180   2.307   1.652   6.800
 8427SOL    HW226181   2.393   1.518   6.766
 8428SOL     OW26182   6.131   3.848   0.851
 8428SOL    HW126183   6.167   3.806   0.935
 8428SOL    HW226184   6.035   3.872   0.865
 8429SOL     OW26185   1.398   6.785   2.853
 8429SOL    HW126186   1.466   6.859   2.853
 8429SOL    HW226187   1.327   6.807   2.786
 8430SOL     OW26188   3.725   6.025   2.787
 8430SOL    HW126189   3.789   6.083   2.736
 8430SOL    HW226190   3.769   5.937   2.807
 8431SOL     OW26191   2.918   3.543   2.267
 8431SOL    HW126192   2.866   3.464   2.235
 8431SOL    HW226193   2.924   3.540   2.367
 8432SOL     OW26194   4.603   5.629   7.017
 8432SOL    HW126195   4.563   5.718   6.995
 8432SOL    HW226196   4.532   5.569   0.026
 8433SOL     OW26197   6.771   1.691   4.062
 8433SOL    HW126198   6.748   1.645   4.147
 8433SOL    HW226199   6.804   1.623   3.996
 8434SOL     OW26200   5.404   6.232   6.775
 8434SOL    HW126201   5.461   6.264   6.699
 8434SOL    HW226202   5.436   6.274   6.860
 8435SOL     OW26203   4.430   3.408   1.005
 8435SOL    HW126204   4.530   3.411   1.012
 8435SOL    HW226205   4.402   3.323   0.959
 8436SOL     OW26206   2.965   4.189   1.760
 8436SOL    HW126207   2.940   4.284   1.783
 8436SOL    HW226208   3.055   4.169   1.797
 8437SOL     OW26209   0.060   2.659   1.067
 8437SOL    HW126210   0.074   2.699   1.158
 8437SOL    HW226211   6.997   2.684   1.034
 8438SOL     OW26212   2.248   5.860   1.564
 8438SOL    HW126213   2.180   5.862   1.491
 8438SOL    HW226214   2.339   5.881   1.526
 8439SOL     OW26215   5.520   0.325   1.786
 8439SOL    HW126216   5.571   0.374   1.716
 8439SOL    HW226217   5.458   0.259   1.742
 8440SOL     OW26218   0.977   3.465   4.153
 8440SOL    HW126219   1.007   3.481   4.059
 8440SOL    HW226220   1.039   3.512   4.216
 8441SOL     OW26221   3.747   5.930   1.330
 8441SOL    HW126222   3.694   5.857   1.374
 8441SOL    HW226223   3.810   5.970   1.397
 8442SOL     OW26224   2.202   2.807   0.729
 8442SOL    HW126225   2.110   2.846   0.724
 8442SOL    HW226226   2.253   2.831   0.646
 8443SOL     OW26227   7.011   2.440   1.336
 8443SOL    HW126228   7.021   2.391   1.423
 8443SOL    HW226229   0.002   2.537   1.351
 8444SOL     OW26230   4.937   2.196   3.221
 8444SOL    HW126231   4.910   2.105   3.189
 8444SOL    HW226232   4.984   2.187   3.309
 8445SOL     OW26233   4.203   5.735   1.950
 8445SOL    HW126234   4.228   5.694   2.038
 8445SOL    HW226235   4.258   5.817   1.934
 8446SOL     OW26236   6.390   3.938   3.254
 8446SOL    HW126237   6.439   3.855   3.283
 8446SOL    HW226238   6.328   3.967   3.327
 8447SOL     OW26239   4.601   4.411   1.085
 8447SOL    HW126240   4.666   4.389   1.011
 8447SOL    HW226241   4.624   4.500   1.123
 8448SOL     OW26242   1.887   4.552   5.827
 8448SOL    HW126243   1.935   4.519   5.746
 8448SOL    HW226244   1.789   4.562   5.807
 8449SOL     OW26245   1.411   0.525   4.954
 8449SOL    HW126246   1.321   0.546   4.993
 8449SOL    HW226247   1.482   0.572   5.007
 8450SOL     OW26248   1.457   5.810   0.677
 8450SOL    HW126249   1.448   5.788   0.774
 8450SOL    HW226250   1.377   5.775   0.627
 8451SOL     OW26251   2.911   4.122   1.248
 8451SOL    HW126252   2.957   4.161   1.168
 8451SOL    HW226253   2.850   4.049   1.218
 8452SOL     OW26254   6.357   5.648   2.540
 8452SOL    HW126255   6.292   5.599   2.597
 8452SOL    HW226256   6.336   5.746   2.542
 8453SOL     OW26257   0.244   4.962   5.489
 8453SOL    HW126258   0.249   4.935   5.586
 8453SOL    HW226259   0.320   4.920   5.440
 8454SOL     OW26260   2.166   0.127   5.394
 8454SOL    HW126261   2.092   0.063   5.373
 8454SOL    HW226262   2.224   0.138   5.314
 8455SOL     OW26263   5.974   2.558   0.643
 8455SOL    HW126264   5.970   2.463   0.610
 8455SOL    HW226265   6.068   2.590   0.640
 8456SOL     OW26266   5.948   4.730   3.409
 8456SOL    HW126267   5.987   4.813   3.371
 8456SOL    HW226268   5.994   4.707   3.495
 8457SOL     OW26269   6.115   6.155   6.339
 8457SOL    HW126270   6.146   6.149   6.244
 8457SOL    HW226271   6.126   6.249   6.372
 8458SOL     OW26272   1.229   1.750   0.941
 8458SOL    HW126273   1.201   1.689   1.014
 8458SOL    HW226274   1.152   1.808   0.915
 8459SOL     OW26275   2.807   5.266   3.271
 8459SOL    HW126276   2.797   5.197   3.342
 8459SOL    HW226277   2.903   5.295   3.265
 8460SOL     OW26278   3.689   1.292   1.342
 8460SOL    HW126279   3.770   1.234   1.329
 8460SOL    HW226280   3.677   1.311   1.439
 8461SOL     OW26281   5.625   4.367   2.977
 8461SOL    HW126282   5.614   4.357   3.076
 8461SOL    HW226283   5.634   4.276   2.935
 8462SOL     OW26284   1.694   4.192   0.818
 8462SOL    HW126285   1.675   4.280   0.863
 8462SOL    HW226286   1.773   4.149   0.861
 8463SOL     OW26287   0.004   6.759   1.461
 8463SOL    HW126288   7.002   6.754   1.556
 8463SOL    HW226289   0.104   6.753   1.458
 8464SOL     OW26290   0.408   3.204   6.829
 8464SOL    HW126291   0.395   3.127   6.767
 8464SOL    HW226292   0.465   3.176   6.906
 8465SOL     OW26293   5.806   4.826   0.371
 8465SOL    HW126294   5.761   4.754   0.319
 8465SOL    HW226295   5.878   4.787   0.428
 8466SOL     OW26296   0.786   1.433   4.935
 8466SOL    HW126297   0.792   1.483   4.848
 8466SOL    HW226298   0.764   1.337   4.917
 8467SOL     OW26299   3.011   1.193   0.899
 8467SOL    HW126300   3.050   1.275   0.856
 8467SOL    HW226301   2.912   1.194   0.888
 8468SOL     OW26302   6.319   4.034   0.808
 8468SOL    HW126303   6.248   3.964   0.807
 8468SOL    HW226304   6.383   4.016   0.882
 8469SOL     OW26305   3.457   3.049   5.141
 8469SOL    HW126306   3.424   3.054   5.235
 8469SOL    HW226307   3.388   3.008   5.082
 8470SOL     OW26308   1.958   5.388   1.180
 8470SOL    HW126309   2.034   5.348   1.231
 8470SOL    HW226310   1.990   5.463   1.123
 8471SOL     OW26311   4.179   1.703   3.873
 8471SOL    HW126312   4.162   1.625   3.932
 8471SOL    HW226313   4.260   1.686   3.817
 8472SOL     OW26314   5.814   1.673   6.701
 8472SOL    HW126315   5.783   1.719   6.784
 8472SOL    HW226316   5.756   1.594   6.684
 8473SOL     OW26317   4.864   5.055   5.990
 8473SOL    HW126318   4.900   4.969   6.026
 8473SOL    HW226319   4.888   5.063   5.893
 8474SOL     OW26320   3.664   3.572   5.877
 8474SOL    HW126321   3.627   3.498   5.821
 8474SOL    HW226322   3.756   3.594   5.846
 8475SOL     OW26323   0.235   1.610   2.611
 8475SOL    HW126324   0.277   1.564   2.688
 8475SOL    HW226325   0.138   1.588   2.607
 8476SOL     OW26326   6.888   1.052   2.366
 8476SOL    HW126327   6.861   1.074   2.460
 8476SOL    HW226328   6.955   1.119   2.335
 8477SOL     OW26329   5.349   6.703   1.213
 8477SOL    HW126330   5.338   6.669   1.119
 8477SOL    HW226331   5.349   6.626   1.276
 8478SOL     OW26332   1.727   6.419   6.919
 8478SOL    HW126333   1.655   6.475   6.878
 8478SOL    HW226334   1.696   6.324   6.925
 8479SOL     OW26335   1.049   2.402   0.162
 8479SOL    HW126336   0.971   2.360   0.209
 8479SOL    HW226337   1.115   2.332   0.138
 8480SOL     OW26338   3.291   4.263   1.597
 8480SOL    HW126339   3.325   4.340   1.651
 8480SOL    HW226340   3.210   4.292   1.545
 8481SOL     OW26341   4.898   3.624   2.447
 8481SOL    HW126342   4.929   3.529   2.458
 8481SOL    HW226343   4.872   3.639   2.351
 8482SOL     OW26344   4.684   0.556   5.472
 8482SOL    HW126345   4.778   0.564   5.439
 8482SOL    HW226346   4.672   0.615   5.552
 8483SOL     OW26347   4.587   5.452   3.637
 8483SOL    HW126348   4.510   5.501   3.678
 8483SOL    HW226349   4.628   5.508   3.565
 8484SOL     OW26350   6.645   6.893   5.457
 8484SOL    HW126351   6.741   6.906   5.485
 8484SOL    HW226352   6.627   6.795   5.446
 8485SOL     OW26353   3.783   0.355   5.687
 8485SOL    HW126354   3.834   0.426   5.736
 8485SOL    HW226355   3.741   0.395   5.606
 8486SOL     OW26356   4.995   2.504   4.433
 8486SOL    HW126357   5.033   2.446   4.505
 8486SOL    HW226358   4.903   2.534   4.460
 8487SOL     OW26359   6.987   1.632   5.687
 8487SOL    HW126360   7.009   1.692   5.611
 8487SOL    HW226361   0.041   1.615   5.742
 8488SOL     OW26362   4.170   5.404   3.120
 8488SOL    HW126363   4.097   5.341   3.096
 8488SOL    HW226364   4.256   5.373   3.079
 8489SOL     OW26365   6.734   2.062   1.910
 8489SOL    HW126366   6.635   2.064   1.926
 8489SOL    HW226367   6.775   2.148   1.940
 8490SOL     OW26368   3.925   6.521   0.411
 8490SOL    HW126369   3.996   6.537   0.342
 8490SOL    HW226370   3.963   6.536   0.502
 8491SOL     OW26371   3.342   5.954   2.427
 8491SOL    HW126372   3.420   5.893   2.415
 8491SOL    HW226373   3.335   6.015   2.349
 8492SOL     OW26374   5.515   0.039   4.073
 8492SOL    HW126375   5.598   7.015   4.086
 8492SOL    HW226376   5.526   0.103   3.997
 8493SOL     OW26377   5.082   0.377   5.642
 8493SOL    HW126378   5.014   0.405   5.710
 8493SOL    HW226379   5.047   0.300   5.589
 8494SOL     OW26380   6.996   3.663   2.343
 8494SOL    HW126381   6.980   3.634   2.249
 8494SOL    HW226382   6.911   3.700   2.382
 8495SOL     OW26383   5.038   5.863   4.984
 8495SOL    HW126384   5.112   5.865   4.918
 8495SOL    HW226385   5.064   5.805   5.061
 8496SOL     OW26386   4.121   2.233   2.641
 8496SOL    HW126387   4.120   2.149   2.694
 8496SOL    HW226388   4.160   2.307   2.697
 8497SOL     OW26389   6.355   0.615   3.140
 8497SOL    HW126390   6.267   0.660   3.156
 8497SOL    HW226391   6.348   0.519   3.166
 8498SOL     OW26392   5.159   6.701   4.600
 8498SOL    HW126393   5.127   6.613   4.564
 8498SOL    HW226394   5.087   6.742   4.656
 8499SOL     OW26395   6.156   0.001   5.927
 8499SOL    HW126396   6.125   6.981   5.846
 8499SOL    HW226397   6.084   0.063   5.959
 8500SOL     OW26398   0.729   0.600   6.402
 8500SOL    HW126399   0.709   0.595   6.304
 8500SOL    HW226400   0.704   0.513   6.445
 8501SOL     OW26401   3.606   1.068   4.996
 8501SOL    HW126402   3.652   1.110   4.918
 8501SOL    HW226403   3.577   1.139   5.060
 8502SOL     OW26404   6.549   2.992   0.260
 8502SOL    HW126405   6.640   3.029   0.241
 8502SOL    HW226406   6.518   3.023   0.350
 8503SOL     OW26407   4.171   1.813   5.680
 8503SOL    HW126408   4.191   1.867   5.598
 8503SOL    HW226409   4.223   1.728   5.677
 8504SOL     OW26410   1.231   0.891   3.183
 8504SOL    HW126411   1.327   0.898   3.156
 8504SOL    HW226412   1.176   0.862   3.105
 8505SOL     OW26413   5.956   1.806   2.844
 8505SOL    HW126414   6.048   1.826   2.880
 8505SOL    HW226415   5.899   1.769   2.918
 8506SOL     OW26416   1.897   0.990   5.032
 8506SOL    HW126417   1.906   1.026   4.940
 8506SOL    HW226418   1.817   1.032   5.077
 8507SOL     OW26419   4.577   4.670   6.739
 8507SOL    HW126420   4.539   4.673   6.831
 8507SOL    HW226421   4.651   4.602   6.735
 8508SOL     OW26422   4.130   0.641   6.454
 8508SOL    HW126423   4.184   0.606   6.377
 8508SOL    HW226424   4.084   0.726   6.426
 8509SOL     OW26425   4.171   1.989   2.195
 8509SOL    HW126426   4.136   1.915   2.253
 8509SOL    HW226427   4.110   2.068   2.201
 8510SOL     OW26428   0.698   2.085   4.830
 8510SOL    HW126429   0.779   2.096   4.887
 8510SOL    HW226430   0.621   2.054   4.886
 8511SOL     OW26431   5.514   2.353   4.040
 8511SOL    HW126432   5.435   2.297   4.064
 8511SOL    HW226433   5.591   2.329   4.099
 8512SOL     OW26434   1.924   6.435   6.049
 8512SOL    HW126435   1.971   6.512   6.007
 8512SOL    HW226436   1.975   6.350   6.032
 8513SOL     OW26437   4.038   5.731   6.630
 8513SOL    HW126438   4.068   5.656   6.570
 8513SOL    HW226439   3.947   5.761   6.603
 8514SOL     OW26440   4.314   5.541   4.530
 8514SOL    HW126441   4.274   5.546   4.621
 8514SOL    HW226442   4.278   5.462   4.481
 8515SOL     OW26443   5.390   3.250   1.831
 8515SOL    HW126444   5.372   3.214   1.922
 8515SOL    HW226445   5.376   3.178   1.763
 8516SOL     OW26446   6.726   2.339   1.372
 8516SOL    HW126447   6.723   2.436   1.396
 8516SOL    HW226448   6.808   2.321   1.316
 8517SOL     OW26449   1.058   3.826   4.509
 8517SOL    HW126450   0.995   3.791   4.578
 8517SOL    HW226451   1.106   3.906   4.546
 8518SOL     OW26452   3.798   5.734   0.713
 8518SOL    HW126453   3.791   5.712   0.615
 8518SOL    HW226454   3.872   5.800   0.726
 8519SOL     OW26455   2.658   5.430   3.614
 8519SOL    HW126456   2.713   5.512   3.594
 8519SOL    HW226457   2.621   5.393   3.529
 8520SOL     OW26458   3.484   5.641   6.818
 8520SOL    HW126459   3.459   5.714   6.754
 8520SOL    HW226460   3.578   5.655   6.848
 8521SOL     OW26461   0.884   0.962   3.022
 8521SOL    HW126462   0.902   1.027   3.095
 8521SOL    HW226463   0.821   1.003   2.955
 8522SOL     OW26464   2.463   6.293   4.414
 8522SOL    HW126465   2.435   6.231   4.341
 8522SOL    HW226466   2.418   6.266   4.499
 8523SOL     OW26467   1.682   6.132   6.617
 8523SOL    HW126468   1.764   6.144   6.672
 8523SOL    HW226469   1.602   6.159   6.670
 8524SOL     OW26470   1.934   1.535   6.916
 8524SOL    HW126471   2.028   1.505   6.900
 8524SOL    HW226472   1.872   1.485   6.856
 8525SOL     OW26473   5.786   4.500   4.475
 8525SOL    HW126474   5.708   4.439   4.464
 8525SOL    HW226475   5.783   4.571   4.405
 8526SOL     OW26476   0.066   2.967   2.073
 8526SOL    HW126477   0.052   3.055   2.118
 8526SOL    HW226478   7.010   2.913   2.077
 8527SOL     OW26479   4.858   0.423   5.073
 8527SOL    HW126480   4.915   0.361   5.019
 8527SOL    HW226481   4.762   0.409   5.050
 8528SOL     OW26482   5.373   0.350   0.213
 8528SOL    HW126483   5.297   0.393   0.262
 8528SOL    HW226484   5.389   0.259   0.249
 8529SOL     OW26485   6.987   0.346   4.585
 8529SOL    HW126486   6.895   0.343   4.546
 8529SOL    HW226487   7.021   0.441   4.583
 8530SOL     OW26488   1.975   4.775   6.512
 8530SOL    HW126489   2.019   4.761   6.424
 8530SOL    HW226490   2.028   4.731   6.584
 8531SOL     OW26491   3.947   5.858   2.857
 8531SOL    HW126492   3.939   5.830   2.953
 8531SOL    HW226493   4.042   5.884   2.838
 8532SOL     OW26494   1.244   4.066   6.774
 8532SOL    HW126495   1.179   4.120   6.720
 8532SOL    HW226496   1.210   3.973   6.783
 8533SOL     OW26497   3.072   0.275   6.014
 8533SOL    HW126498   3.145   0.329   6.055
 8533SOL    HW226499   3.092   0.177   6.024
 8534SOL     OW26500   2.316   2.431   0.999
 8534SOL    HW126501   2.355   2.345   1.033
 8534SOL    HW226502   2.376   2.470   0.930
 8535SOL     OW26503   0.232   2.431   6.302
 8535SOL    HW126504   0.219   2.491   6.382
 8535SOL    HW226505   0.249   2.338   6.334
 8536SOL     OW26506   6.257   0.867   5.997
 8536SOL    HW126507   6.352   0.876   5.968
 8536SOL    HW226508   6.196   0.883   5.919
 8537SOL     OW26509   3.581   6.106   3.160
 8537SOL    HW126510   3.659   6.043   3.169
 8537SOL    HW226511   3.600   6.190   3.210
 8538SOL     OW26512   4.228   1.126   4.944
 8538SOL    HW126513   4.269   1.207   4.985
 8538SOL    HW226514   4.261   1.044   4.992
 8539SOL     OW26515   0.793   2.901   3.095
 8539SOL    HW126516   0.703   2.901   3.138
 8539SOL    HW226517   0.815   2.994   3.064
 8540SOL     OW26518   4.786   6.134   6.039
 8540SOL    HW126519   4.780   6.142   5.939
 8540SOL    HW226520   4.873   6.172   6.071
 8541SOL     OW26521   3.151   5.949   5.543
 8541SOL    HW126522   3.093   5.885   5.493
 8541SOL    HW226523   3.095   6.010   5.599
 8542SOL     OW26524   2.128   4.720   6.263
 8542SOL    HW126525   2.082   4.749   6.180
 8542SOL    HW226526   2.166   4.628   6.250
 8543SOL     OW26527   3.581   1.444   5.368
 8543SOL    HW126528   3.551   1.539   5.382
 8543SOL    HW226529   3.647   1.419   5.439
 8544SOL     OW26530   5.040   3.635   5.780
 8544SOL    HW126531   5.101   3.707   5.812
 8544SOL    HW226532   5.094   3.562   5.737
 8545SOL     OW26533   2.043   0.689   5.844
 8545SOL    HW126534   2.045   0.736   5.933
 8545SOL    HW226535   1.993   0.603   5.853
 8546SOL     OW26536   2.410   1.416   4.046
 8546SOL    HW126537   2.403   1.317   4.032
 8546SOL    HW226538   2.494   1.437   4.095
 8547SOL     OW26539   5.884   5.337   5.265
 8547SOL    HW126540   5.889   5.289   5.353
 8547SOL    HW226541   5.834   5.422   5.277
 8548SOL     OW26542   1.602   4.200   4.489
 8548SOL    HW126543   1.699   4.223   4.497
 8548SOL    HW226544   1.553   4.276   4.444
 8549SOL     OW26545   3.065   0.443   3.602
 8549SOL    HW126546   3.064   0.362   3.660
 8549SOL    HW226547   3.160   0.470   3.583
 8550SOL     OW26548   0.426   3.466   4.903
 8550SOL    HW126549   0.487   3.425   4.971
 8550SOL    HW226550   0.341   3.413   4.898
 8551SOL     OW26551   3.798   1.748   3.707
 8551SOL    HW126552   3.881   1.803   3.690
 8551SOL    HW226553   3.733   1.764   3.633
 8552SOL     OW26554   4.356   1.260   2.081
 8552SOL    HW126555   4.266   1.284   2.045
 8552SOL    HW226556   4.397   1.341   2.123
 8553SOL     OW26557   5.414   3.457   0.491
 8553SOL    HW126558   5.490   3.429   0.551
 8553SOL    HW226559   5.335   3.398   0.508
 8554SOL     OW26560   0.868   1.181   6.830
 8554SOL    HW126561   0.873   1.189   6.730
 8554SOL    HW226562   0.782   1.137   6.856
 8555SOL     OW26563   3.417   1.659   3.808
 8555SOL    HW126564   3.438   1.740   3.863
 8555SOL    HW226565   3.455   1.670   3.716
 8556SOL     OW26566   0.469   4.030   5.286
 8556SOL    HW126567   0.506   3.982   5.367
 8556SOL    HW226568   0.459   4.127   5.307
 8557SOL     OW26569   6.272   0.608   0.742
 8557SOL    HW126570   6.327   0.584   0.662
 8557SOL    HW226571   6.210   0.683   0.719
 8558SOL     OW26572   2.547   6.215   3.492
 8558SOL    HW126573   2.558   6.116   3.488
 8558SOL    HW226574   2.532   6.251   3.400
 8559SOL     OW26575   1.569   3.196   3.307
 8559SOL    HW126576   1.596   3.197   3.211
 8559SOL    HW226577   1.470   3.208   3.315
 8560SOL     OW26578   3.544   4.270   1.519
 8560SOL    HW126579   3.593   4.186   1.544
 8560SOL    HW226580   3.453   4.269   1.560
 8561SOL     OW26581   3.843   1.028   1.862
 8561SOL    HW126582   3.775   0.996   1.928
 8561SOL    HW226583   3.931   0.984   1.881
 8562SOL     OW26584   5.573   3.198   6.138
 8562SOL    HW126585   5.657   3.145   6.137
 8562SOL    HW226586   5.494   3.136   6.139
 8563SOL     OW26587   0.498   4.708   2.760
 8563SOL    HW126588   0.417   4.653   2.784
 8563SOL    HW226589   0.563   4.705   2.836
 8564SOL     OW26590   4.364   6.252   6.940
 8564SOL    HW126591   4.373   6.256   6.841
 8564SOL    HW226592   4.269   6.273   6.965
 8565SOL     OW26593   0.984   4.819   1.281
 8565SOL    HW126594   1.078   4.799   1.309
 8565SOL    HW226595   0.985   4.861   1.190
 8566SOL     OW26596   1.757   0.848   3.134
 8566SOL    HW126597   1.835   0.854   3.196
 8566SOL    HW226598   1.781   0.888   3.046
 8567SOL     OW26599   1.486   3.252   0.795
 8567SOL    HW126600   1.430   3.261   0.877
 8567SOL    HW226601   1.427   3.251   0.714
 8568SOL     OW26602   5.670   6.755   6.282
 8568SOL    HW126603   5.607   6.823   6.245
 8568SOL    HW226604   5.734   6.800   6.345
 8569SOL     OW26605   4.486   1.310   6.214
 8569SOL    HW126606   4.584   1.296   6.204
 8569SOL    HW226607   4.437   1.228   6.186
 8570SOL     OW26608   1.604   2.667   4.251
 8570SOL    HW126609   1.661   2.592   4.216
 8570SOL    HW226610   1.635   2.693   4.342
 8571SOL     OW26611   1.059   0.891   3.832
 8571SOL    HW126612   1.126   0.958   3.800
 8571SOL    HW226613   0.985   0.883   3.765
 8572SOL     OW26614   2.702   3.362   6.109
 8572SOL    HW126615   2.787   3.405   6.078
 8572SOL    HW226616   2.626   3.395   6.054
 8573SOL     OW26617   2.013   5.959   6.358
 8573SOL    HW126618   2.015   6.052   6.321
 8573SOL    HW226619   1.981   5.896   6.287
 8574SOL     OW26620   5.746   2.431   5.447
 8574SOL    HW126621   5.809   2.424   5.524
 8574SOL    HW226622   5.719   2.526   5.434
 8575SOL     OW26623   2.538   6.581   4.406
 8575SOL    HW126624   2.454   6.537   4.437
 8575SOL    HW226625   2.597   6.514   4.361
 8576SOL     OW26626   1.388   3.722   4.889
 8576SOL    HW126627   1.413   3.808   4.845
 8576SOL    HW226628   1.408   3.727   4.987
 8577SOL     OW26629   1.602   0.950   0.778
 8577SOL    HW126630   1.506   0.964   0.754
 8577SOL    HW226631   1.651   1.038   0.772
 8578SOL     OW26632   1.329   0.369   5.559
 8578SOL    HW126633   1.423   0.335   5.555
 8578SOL    HW226634   1.288   0.361   5.468
 8579SOL     OW26635   2.805   0.159   2.279
 8579SOL    HW126636   2.826   0.064   2.257
 8579SOL    HW226637   2.708   0.177   2.262
 8580SOL     OW26638   1.490   0.773   1.866
 8580SOL    HW126639   1.494   0.871   1.844
 8580SOL    HW226640   1.568   0.727   1.824
 8581SOL     OW26641   3.997   3.750   3.742
 8581SOL    HW126642   3.983   3.653   3.760
 8581SOL    HW226643   3.951   3.804   3.811
 8582SOL     OW26644   4.986   5.501   5.453
 8582SOL    HW126645   4.903   5.476   5.502
 8582SOL    HW226646   4.983   5.599   5.432
 8583SOL     OW26647   3.187   0.382   2.751
 8583SOL    HW126648   3.096   0.377   2.708
 8583SOL    HW226649   3.177   0.390   2.850
 8584SOL     OW26650   5.548   2.284   5.581
 8584SOL    HW126651   5.622   2.330   5.532
 8584SOL    HW226652   5.477   2.256   5.516
 8585SOL     OW26653   4.679   2.290   3.109
 8585SOL    HW126654   4.627   2.204   3.111
 8585SOL    HW226655   4.776   2.270   3.122
 8586SOL     OW26656   6.493   0.005   5.644
 8586SOL    HW126657   6.550   6.999   5.569
 8586SOL    HW226658   6.452   6.956   5.692
 8587SOL     OW26659   6.729   0.174   0.959
 8587SOL    HW126660   6.745   0.149   1.055
 8587SOL    HW226661   6.645   0.131   0.927
 8588SOL     OW26662   1.659   1.558   5.653
 8588SOL    HW126663   1.748   1.581   5.612
 8588SOL    HW226664   1.586   1.586   5.591
 8589SOL     OW26665   5.962   3.119   6.748
 8589SOL    HW126666   5.924   3.173   6.673
 8589SOL    HW226667   5.899   3.119   6.825
 8590SOL     OW26668   0.904   1.138   3.226
 8590SOL    HW126669   0.998   1.114   3.249
 8590SOL    HW226670   0.889   1.235   3.244
 8591SOL     OW26671   0.769   3.969   5.690
 8591SOL    HW126672   0.841   3.982   5.758
 8591SOL    HW226673   0.792   4.019   5.606
 8592SOL     OW26674   0.094   2.278   4.406
 8592SOL    HW126675   0.008   2.313   4.442
 8592SOL    HW226676   0.113   2.189   4.447
 8593SOL     OW26677   6.347   1.163   0.419
 8593SOL    HW126678   6.414   1.170   0.492
 8593SOL    HW226679   6.371   1.087   0.358
 8594SOL     OW26680   6.503   3.264   6.737
 8594SOL    HW126681   6.404   3.251   6.748
 8594SOL    HW226682   6.551   3.220   6.813
 8595SOL     OW26683   5.701   6.530   2.538
 8595SOL    HW126684   5.674   6.556   2.445
 8595SOL    HW226685   5.693   6.610   2.598
 8596SOL     OW26686   0.384   2.708   5.465
 8596SOL    HW126687   0.285   2.711   5.454
 8596SOL    HW226688   0.409   2.638   5.531
 8597SOL     OW26689   6.489   2.426   5.664
 8597SOL    HW126690   6.438   2.419   5.749
 8597SOL    HW226691   6.512   2.521   5.645
 8598SOL     OW26692   6.905   0.748   5.852
 8598SOL    HW126693   6.993   0.716   5.816
 8598SOL    HW226694   6.920   0.804   5.933
 8599SOL     OW26695   5.591   4.118   5.005
 8599SOL    HW126696   5.557   4.025   5.023
 8599SOL    HW226697   5.541   4.183   5.063
 8600SOL     OW26698   4.016   2.899   1.769
 8600SOL    HW126699   4.105   2.854   1.761
 8600SOL    HW226700   4.023   2.992   1.733
 8601SOL     OW26701   4.521   5.296   1.913
 8601SOL    HW126702   4.447   5.230   1.895
 8601SOL    HW226703   4.607   5.246   1.923
 8602SOL     OW26704   1.821   6.404   4.981
 8602SOL    HW126705   1.851   6.481   5.037
 8602SOL    HW226706   1.779   6.438   4.897
 8603SOL     OW26707   0.991   1.099   0.031
 8603SOL    HW126708   0.949   1.123   6.972
 8603SOL    HW226709   1.083   1.137   0.035
 8604SOL     OW26710   1.616   5.470   6.041
 8604SOL    HW126711   1.638   5.522   6.123
 8604SOL    HW226712   1.688   5.402   6.023
 8605SOL     OW26713   6.680   4.519   4.079
 8605SOL    HW126714   6.724   4.592   4.026
 8605SOL    HW226715   6.733   4.434   4.068
 8606SOL     OW26716   0.746   0.347   6.513
 8606SOL    HW126717   0.781   0.255   6.499
 8606SOL    HW226718   0.731   0.362   6.611
 8607SOL     OW26719   3.008   2.850   1.640
 8607SOL    HW126720   2.977   2.772   1.694
 8607SOL    HW226721   3.087   2.892   1.685
 8608SOL     OW26722   2.006   4.996   1.929
 8608SOL    HW126723   1.964   5.078   1.890
 8608SOL    HW226724   2.012   4.925   1.858
 8609SOL     OW26725   4.849   2.314   4.233
 8609SOL    HW126726   4.845   2.382   4.306
 8609SOL    HW226727   4.871   2.359   4.146
 8610SOL     OW26728   0.071   5.374   2.261
 8610SOL    HW126729   0.051   5.314   2.338
 8610SOL    HW226730   7.016   5.417   2.228
 8611SOL     OW26731   1.932   1.665   5.635
 8611SOL    HW126732   1.933   1.707   5.545
 8611SOL    HW226733   1.978   1.725   5.701
 8612SOL     OW26734   3.325   3.060   5.843
 8612SOL    HW126735   3.395   3.002   5.885
 8612SOL    HW226736   3.317   3.037   5.746
 8613SOL     OW26737   2.916   3.568   3.477
 8613SOL    HW126738   2.954   3.488   3.433
 8613SOL    HW226739   2.975   3.647   3.460
 8614SOL     OW26740   0.342   3.270   4.086
 8614SOL    HW126741   0.373   3.361   4.056
 8614SOL    HW226742   0.265   3.281   4.150
 8615SOL     OW26743   3.985   0.996   5.140
 8615SOL    HW126744   3.990   0.960   5.047
 8615SOL    HW226745   4.051   1.069   5.151
 8616SOL     OW26746   6.065   4.029   5.283
 8616SOL    HW126747   6.067   4.127   5.261
 8616SOL    HW226748   6.069   3.976   5.199
 8617SOL     OW26749   1.010   0.113   3.539
 8617SOL    HW126750   1.070   0.034   3.551
 8617SOL    HW226751   0.918   0.090   3.572
 8618SOL     OW26752   6.758   5.042   0.545
 8618SOL    HW126753   6.696   5.015   0.620
 8618SOL    HW226754   6.829   5.102   0.582
 8619SOL     OW26755   5.858   5.233   6.417
 8619SOL    HW126756   5.826   5.278   6.333
 8619SOL    HW226757   5.860   5.134   6.403
 8620SOL     OW26758   1.385   6.681   4.065
 8620SOL    HW126759   1.357   6.741   3.991
 8620SOL    HW226760   1.478   6.648   4.049
 8621SOL     OW26761   6.380   3.708   1.246
 8621SOL    HW126762   6.331   3.624   1.222
 8621SOL    HW226763   6.324   3.762   1.308
 8622SOL     OW26764   0.880   6.028   1.659
 8622SOL    HW126765   0.868   5.935   1.695
 8622SOL    HW226766   0.808   6.048   1.593
 8623SOL     OW26767   2.133   2.005   3.157
 8623SOL    HW126768   2.110   2.099   3.133
 8623SOL    HW226769   2.182   1.962   3.082
 8624SOL     OW26770   2.986   3.408   5.945
 8624SOL    HW126771   3.036   3.493   5.930
 8624SOL    HW226772   3.042   3.330   5.917
 8625SOL     OW26773   4.479   3.308   6.005
 8625SOL    HW126774   4.433   3.386   5.962
 8625SOL    HW226775   4.497   3.328   6.101
 8626SOL     OW26776   5.344   1.970   0.973
 8626SOL    HW126777   5.275   1.990   1.042
 8626SOL    HW226778   5.316   2.008   0.885
 8627SOL     OW26779   0.155   0.051   2.254
 8627SOL    HW126780   0.179   0.096   2.339
 8627SOL    HW226781   0.201   0.096   2.177
 8628SOL     OW26782   1.024   6.493   0.721
 8628SOL    HW126783   1.095   6.428   0.750
 8628SOL    HW226784   0.976   6.457   0.641
 8629SOL     OW26785   0.110   0.866   4.435
 8629SOL    HW126786   0.098   0.849   4.337
 8629SOL    HW226787   0.207   0.867   4.457
 8630SOL     OW26788   5.172   2.906   1.645
 8630SOL    HW126789   5.117   2.852   1.708
 8630SOL    HW226790   5.128   2.994   1.629
 8631SOL     OW26791   1.497   5.806   6.610
 8631SOL    HW126792   1.514   5.780   6.705
 8631SOL    HW226793   1.581   5.843   6.570
 8632SOL     OW26794   6.270   6.000   3.776
 8632SOL    HW126795   6.284   5.923   3.839
 8632SOL    HW226796   6.177   6.034   3.786
 8633SOL     OW26797   0.068   3.909   5.763
 8633SOL    HW126798   0.004   3.984   5.743
 8633SOL    HW226799   0.160   3.935   5.733
 8634SOL     OW26800   5.065   4.520   6.500
 8634SOL    HW126801   5.025   4.481   6.417
 8634SOL    HW226802   5.159   4.547   6.483
 8635SOL     OW26803   5.355   2.140   6.416
 8635SOL    HW126804   5.257   2.122   6.430
 8635SOL    HW226805   5.377   2.128   6.319
 8636SOL     OW26806   4.156   6.014   0.328
 8636SOL    HW126807   4.241   5.981   0.369
 8636SOL    HW226808   4.097   5.935   0.308
 8637SOL     OW26809   3.094   2.315   0.635
 8637SOL    HW126810   3.168   2.353   0.691
 8637SOL    HW226811   3.120   2.321   0.539
 8638SOL     OW26812   5.226   1.958   4.560
 8638SOL    HW126813   5.288   1.994   4.491
 8638SOL    HW226814   5.267   1.968   4.651
 8639SOL     OW26815   3.633   4.210   0.279
 8639SOL    HW126816   3.576   4.291   0.287
 8639SOL    HW226817   3.576   4.128   0.280
 8640SOL     OW26818   3.203   2.294   6.394
 8640SOL    HW126819   3.237   2.325   6.483
 8640SOL    HW226820   3.125   2.351   6.367
 8641SOL     OW26821   3.564   4.915   3.085
 8641SOL    HW126822   3.482   4.939   3.033
 8641SOL    HW226823   3.537   4.875   3.173
 8642SOL     OW26824   2.165   6.384   3.277
 8642SOL    HW126825   2.110   6.312   3.320
 8642SOL    HW226826   2.141   6.392   3.181
 8643SOL     OW26827   3.836   6.335   1.363
 8643SOL    HW126828   3.909   6.401   1.381
 8643SOL    HW226829   3.769   6.376   1.301
 8644SOL     OW26830   5.140   2.365   6.378
 8644SOL    HW126831   5.088   2.428   6.435
 8644SOL    HW226832   5.186   2.298   6.436
 8645SOL     OW26833   4.926   5.453   2.494
 8645SOL    HW126834   4.995   5.453   2.566
 8645SOL    HW226835   4.874   5.538   2.497
 8646SOL     OW26836   6.707   1.932   4.189
 8646SOL    HW126837   6.614   1.968   4.192
 8646SOL    HW226838   6.711   1.854   4.127
 8647SOL     OW26839   2.048   4.743   1.781
 8647SOL    HW126840   2.125   4.730   1.844
 8647SOL    HW226841   2.078   4.729   1.687
 8648SOL     OW26842   5.840   5.302   6.132
 8648SOL    HW126843   5.833   5.202   6.134
 8648SOL    HW226844   5.749   5.341   6.114
 8649SOL     OW26845   5.527   2.599   1.948
 8649SOL    HW126846   5.436   2.576   1.913
 8649SOL    HW226847   5.554   2.532   2.016
 8650SOL     OW26848   1.228   0.906   4.769
 8650SOL    HW126849   1.322   0.874   4.763
 8650SOL    HW226850   1.175   0.846   4.829
 8651SOL     OW26851   4.799   1.290   1.658
 8651SOL    HW126852   4.728   1.288   1.588
 8651SOL    HW226853   4.838   1.381   1.664
 8652SOL     OW26854   6.590   3.391   4.878
 8652SOL    HW126855   6.491   3.380   4.867
 8652SOL    HW226856   6.637   3.357   4.796
 8653SOL     OW26857   4.916   0.325   0.270
 8653SOL    HW126858   4.921   0.395   0.198
 8653SOL    HW226859   4.843   0.349   0.334
 8654SOL     OW26860   6.985   4.416   2.834
 8654SOL    HW126861   0.001   4.355   2.768
 8654SOL    HW226862   6.991   4.375   2.925
 8655SOL     OW26863   1.304   6.940   5.002
 8655SOL    HW126864   1.326   6.843   5.004
 8655SOL    HW226865   1.217   6.954   4.956
 8656SOL     OW26866   3.823   6.186   0.605
 8656SOL    HW126867   3.756   6.112   0.615
 8656SOL    HW226868   3.865   6.180   0.514
 8657SOL     OW26869   3.342   1.852   2.575
 8657SOL    HW126870   3.310   1.780   2.513
 8657SOL    HW226871   3.358   1.936   2.523
 8658SOL     OW26872   6.415   4.239   0.666
 8658SOL    HW126873   6.349   4.172   0.700
 8658SOL    HW226874   6.435   4.220   0.570
 8659SOL     OW26875   3.694   0.356   3.538
 8659SOL    HW126876   3.763   0.428   3.531
 8659SOL    HW226877   3.638   0.372   3.620
 8660SOL     OW26878   6.751   4.484   1.102
 8660SOL    HW126879   6.818   4.412   1.086
 8660SOL    HW226880   6.739   4.538   1.019
 8661SOL     OW26881   5.991   3.426   1.871
 8661SOL    HW126882   5.970   3.356   1.939
 8661SOL    HW226883   5.978   3.390   1.779
 8662SOL     OW26884   1.854   2.697   2.486
 8662SOL    HW126885   1.880   2.780   2.437
 8662SOL    HW226886   1.873   2.710   2.584
 8663SOL     OW26887   3.222   4.880   2.347
 8663SOL    HW126888   3.141   4.822   2.355
 8663SOL    HW226889   3.213   4.958   2.409
 8664SOL     OW26890   3.283   5.858   4.210
 8664SOL    HW126891   3.281   5.832   4.113
 8664SOL    HW226892   3.221   5.935   4.226
 8665SOL     OW26893   0.803   3.560   6.948
 8665SOL    HW126894   0.824   3.566   6.851
 8665SOL    HW226895   0.888   3.558   7.001
 8666SOL     OW26896   5.005   6.967   2.978
 8666SOL    HW126897   4.989   0.035   3.000
 8666SOL    HW226898   5.011   6.957   2.878
 8667SOL     OW26899   4.533   2.226   2.488
 8667SOL    HW126900   4.628   2.215   2.518
 8667SOL    HW226901   4.516   2.323   2.471
 8668SOL     OW26902   3.643   2.072   3.289
 8668SOL    HW126903   3.729   2.113   3.259
 8668SOL    HW226904   3.578   2.070   3.213
 8669SOL     OW26905   0.562   6.034   5.609
 8669SOL    HW126906   0.514   5.957   5.650
 8669SOL    HW226907   0.619   6.078   5.678
 8670SOL     OW26908   0.124   5.123   4.785
 8670SOL    HW126909   0.155   5.056   4.852
 8670SOL    HW226910   0.024   5.132   4.790
 8671SOL     OW26911   0.249   3.691   3.781
 8671SOL    HW126912   0.314   3.766   3.769
 8671SOL    HW226913   0.286   3.625   3.847
 8672SOL     OW26914   6.585   1.439   2.456
 8672SOL    HW126915   6.591   1.404   2.362
 8672SOL    HW226916   6.629   1.529   2.460
 8673SOL     OW26917   0.560   1.531   1.487
 8673SOL    HW126918   0.621   1.558   1.562
 8673SOL    HW226919   0.467   1.561   1.506
 8674SOL     OW26920   0.060   3.143   4.403
 8674SOL    HW126921   0.005   3.083   4.460
 8674SOL    HW226922   0.154   3.110   4.399
 8675SOL     OW26923   4.982   2.517   4.974
 8675SOL    HW126924   5.017   2.501   5.067
 8675SOL    HW226925   4.966   2.615   4.961
 8676SOL     OW26926   4.637   3.239   0.773
 8676SOL    HW126927   4.732   3.209   0.767
 8676SOL    HW226928   4.629   3.331   0.736
 8677SOL     OW26929   3.282   0.760   0.465
 8677SOL    HW126930   3.230   0.828   0.413
 8677SOL    HW226931   3.235   0.671   0.461
 8678SOL     OW26932   3.342   2.128   0.149
 8678SOL    HW126933   3.370   2.186   0.225
 8678SOL    HW226934   3.276   2.060   0.181
 8679SOL     OW26935   1.612   1.974   6.637
 8679SOL    HW126936   1.668   2.056   6.632
 8679SOL    HW226937   1.614   1.938   6.730
 8680SOL     OW26938   0.495   6.809   1.611
 8680SOL    HW126939   0.500   6.880   1.681
 8680SOL    HW226940   0.577   6.813   1.554
 8681SOL     OW26941   5.026   5.345   0.999
 8681SOL    HW126942   5.113   5.352   0.950
 8681SOL    HW226943   4.953   5.385   0.944
 8682SOL     OW26944   1.797   1.362   2.130
 8682SOL    HW126945   1.810   1.391   2.035
 8682SOL    HW226946   1.854   1.417   2.191
 8683SOL     OW26947   2.375   4.316   4.239
 8683SOL    HW126948   2.309   4.388   4.261
 8683SOL    HW226949   2.371   4.245   4.309
 8684SOL     OW26950   2.179   4.005   3.555
 8684SOL    HW126951   2.265   4.054   3.537
 8684SOL    HW226952   2.102   4.064   3.531
 8685SOL     OW26953   5.077   3.335   5.706
 8685SOL    HW126954   4.979   3.316   5.695
 8685SOL    HW226955   5.111   3.286   5.787
 8686SOL     OW26956   1.039   4.881   2.585
 8686SOL    HW126957   1.115   4.942   2.607
 8686SOL    HW226958   0.961   4.936   2.553
 8687SOL     OW26959   6.262   4.174   5.474
 8687SOL    HW126960   6.218   4.228   5.401
 8687SOL    HW226961   6.191   4.126   5.526
 8688SOL     OW26962   1.154   3.570   4.868
 8688SOL    HW126963   1.238   3.620   4.844
 8688SOL    HW226964   1.117   3.526   4.786
 8689SOL     OW26965   5.281   3.370   1.555
 8689SOL    HW126966   5.326   3.290   1.516
 8689SOL    HW226967   5.223   3.342   1.631
 8690SOL     OW26968   1.809   2.154   2.121
 8690SOL    HW126969   1.747   2.193   2.189
 8690SOL    HW226970   1.886   2.217   2.106
 8691SOL     OW26971   3.181   0.886   0.242
 8691SOL    HW126972   3.223   0.802   0.208
 8691SOL    HW226973   3.207   0.963   0.184
 8692SOL     OW26974   5.898   2.383   4.224
 8692SOL    HW126975   5.836   2.306   4.239
 8692SOL    HW226976   5.859   2.466   4.265
 8693SOL     OW26977   0.569   6.691   5.430
 8693SOL    HW126978   0.579   6.695   5.331
 8693SOL    HW226979   0.618   6.767   5.472
 8694SOL     OW26980   4.021   3.995   5.448
 8694SOL    HW126981   4.032   4.076   5.391
 8694SOL    HW226982   4.109   3.947   5.455
 8695SOL     OW26983   3.987   4.044   1.075
 8695SOL    HW126984   4.079   4.005   1.078
 8695SOL    HW226985   3.990   4.139   1.106
 8696SOL     OW26986   2.968   5.231   6.650
 8696SOL    HW126987   2.972   5.141   6.693
 8696SOL    HW226988   2.879   5.272   6.668
 8697SOL     OW26989   0.829   2.953   4.967
 8697SOL    HW126990   0.768   2.922   4.894
 8697SOL    HW226991   0.921   2.917   4.952
 8698SOL     OW26992   5.794   4.297   6.302
 8698SOL    HW126993   5.760   4.361   6.233
 8698SOL    HW226994   5.879   4.255   6.270
 8699SOL     OW26995   2.346   2.120   1.388
 8699SOL    HW126996   2.407   2.045   1.413
 8699SOL    HW226997   2.327   2.176   1.469
 8700SOL     OW26998   0.358   2.130   4.341
 8700SOL    HW126999   0.366   2.173   4.252
 8700SOL    HW227000   0.281   2.066   4.341
 8701SOL     OW27001   2.462   3.202   6.768
 8701SOL    HW127002   2.494   3.118   6.812
 8701SOL    HW227003   2.408   3.255   6.833
 8702SOL     OW27004   5.595   4.410   0.795
 8702SOL    HW127005   5.641   4.328   0.760
 8702SOL    HW227006   5.657   4.488   0.787
 8703SOL     OW27007   2.082   5.129   1.518
 8703SOL    HW127008   2.136   5.061   1.567
 8703SOL    HW227009   1.986   5.101   1.517
 8704SOL     OW27010   6.454   0.987   3.517
 8704SOL    HW127011   6.400   1.052   3.463
 8704SOL    HW227012   6.523   0.944   3.459
 8705SOL     OW27013   3.813   2.196   0.261
 8705SOL    HW127014   3.871   2.134   0.313
 8705SOL    HW227015   3.775   2.148   0.182
 8706SOL     OW27016   4.666   2.936   5.163
 8706SOL    HW127017   4.649   2.864   5.095
 8706SOL    HW227018   4.583   2.954   5.215
 8707SOL     OW27019   1.589   1.110   4.461
 8707SOL    HW127020   1.581   1.012   4.440
 8707SOL    HW227021   1.592   1.163   4.376
 8708SOL     OW27022   5.400   2.521   0.952
 8708SOL    HW127023   5.464   2.444   0.950
 8708SOL    HW227024   5.408   2.573   0.867
 8709SOL     OW27025   6.734   6.151   4.142
 8709SOL    HW127026   6.834   6.149   4.145
 8709SOL    HW227027   6.698   6.086   4.208
 8710SOL     OW27028   2.218   2.821   3.501
 8710SOL    HW127029   2.241   2.866   3.588
 8710SOL    HW227030   2.158   2.744   3.518
 8711SOL     OW27031   1.013   1.918   2.421
 8711SOL    HW127032   0.958   1.981   2.476
 8711SOL    HW227033   1.108   1.950   2.419
 8712SOL     OW27034   1.486   3.938   4.004
 8712SOL    HW127035   1.524   3.856   3.962
 8712SOL    HW227036   1.469   4.007   3.933
 8713SOL     OW27037   0.135   4.579   3.610
 8713SOL    HW127038   0.037   4.589   3.626
 8713SOL    HW227039   0.186   4.640   3.670
 8714SOL     OW27040   0.852   4.551   6.012
 8714SOL    HW127041   0.759   4.562   5.978
 8714SOL    HW227042   0.864   4.603   6.096
 8715SOL     OW27043   1.985   4.580   1.369
 8715SOL    HW127044   2.040   4.553   1.448
 8715SOL    HW227045   1.910   4.515   1.358
 8716SOL     OW27046   5.326   0.021   2.800
 8716SOL    HW127047   5.327   0.120   2.817
 8716SOL    HW227048   5.420   7.017   2.791
 8717SOL     OW27049   3.672   2.480   6.635
 8717SOL    HW127050   3.620   2.420   6.697
 8717SOL    HW227051   3.760   2.501   6.676
 8718SOL     OW27052   3.063   5.088   5.878
 8718SOL    HW127053   3.007   5.097   5.795
 8718SOL    HW227054   3.042   5.162   5.941
 8719SOL     OW27055   3.005   2.077   4.389
 8719SOL    HW127056   2.916   2.062   4.348
 8719SOL    HW227057   2.994   2.103   4.485
 8720SOL     OW27058   6.990   6.468   5.111
 8720SOL    HW127059   0.022   6.508   5.042
 8720SOL    HW227060   6.917   6.419   5.065
 8721SOL     OW27061   0.584   0.442   1.803
 8721SOL    HW127062   0.527   0.370   1.764
 8721SOL    HW227063   0.587   0.432   1.903
 8722SOL     OW27064   3.856   1.129   0.354
 8722SOL    HW127065   3.826   1.179   0.435
 8722SOL    HW227066   3.809   1.165   0.274
 8723SOL     OW27067   3.629   6.904   2.670
 8723SOL    HW127068   3.614   6.814   2.711
 8723SOL    HW227069   3.640   6.972   2.743
 8724SOL     OW27070   4.492   0.645   5.261
 8724SOL    HW127071   4.447   0.723   5.305
 8724SOL    HW227072   4.587   0.639   5.292
 8725SOL     OW27073   6.715   1.064   2.663
 8725SOL    HW127074   6.778   1.081   2.739
 8725SOL    HW227075   6.656   0.987   2.685
 8726SOL     OW27076   0.021   1.291   0.631
 8726SOL    HW127077   6.971   1.255   0.681
 8726SOL    HW227078   0.045   1.228   0.557
 8727SOL     OW27079   5.014   5.607   6.260
 8727SOL    HW127080   4.985   5.699   6.285
 8727SOL    HW227081   5.070   5.611   6.177
 8728SOL     OW27082   5.712   6.887   4.168
 8728SOL    HW127083   5.752   6.967   4.213
 8728SOL    HW227084   5.674   6.826   4.238
 8729SOL     OW27085   5.750   6.488   6.232
 8729SOL    HW127086   5.672   6.474   6.292
 8729SOL    HW227087   5.791   6.578   6.251
 8730SOL     OW27088   4.113   4.822   1.550
 8730SOL    HW127089   4.196   4.790   1.505
 8730SOL    HW227090   4.086   4.911   1.514
 8731SOL     OW27091   0.239   2.163   3.898
 8731SOL    HW127092   0.241   2.261   3.920
 8731SOL    HW227093   0.215   2.151   3.802
 8732SOL     OW27094   5.380   6.084   5.289
 8732SOL    HW127095   5.379   5.985   5.279
 8732SOL    HW227096   5.419   6.109   5.377
 8733SOL     OW27097   5.646   4.558   2.362
 8733SOL    HW127098   5.561   4.593   2.402
 8733SOL    HW227099   5.719   4.624   2.376
 8734SOL     OW27100   0.636   6.063   1.422
 8734SOL    HW127101   0.612   5.966   1.431
 8734SOL    HW227102   0.556   6.119   1.439
 8735SOL     OW27103   1.340   2.181   6.345
 8735SOL    HW127104   1.417   2.238   6.315
 8735SOL    HW227105   1.276   2.238   6.398
 8736SOL     OW27106   1.122   6.233   3.957
 8736SOL    HW127107   1.128   6.143   3.915
 8736SOL    HW227108   1.052   6.287   3.911
 8737SOL     OW27109   0.546   5.545   0.121
 8737SOL    HW127110   0.602   5.601   0.060
 8737SOL    HW227111   0.587   5.545   0.212
 8738SOL     OW27112   2.159   2.460   2.701
 8738SOL    HW127113   2.172   2.479   2.603
 8738SOL    HW227114   2.236   2.407   2.735
 8739SOL     OW27115   4.470   4.713   3.543
 8739SOL    HW127116   4.490   4.615   3.549
 8739SOL    HW227117   4.549   4.761   3.506
 8740SOL     OW27118   2.064   0.592   3.661
 8740SOL    HW127119   2.088   0.499   3.688
 8740SOL    HW227120   1.972   0.593   3.624
 8741SOL     OW27121   2.197   2.131   2.847
 8741SOL    HW127122   2.289   2.167   2.839
 8741SOL    HW227123   2.181   2.064   2.775
 8742SOL     OW27124   1.401   3.280   1.067
 8742SOL    HW127125   1.326   3.333   1.106
 8742SOL    HW227126   1.408   3.193   1.115
 8743SOL     OW27127   1.771   2.883   0.340
 8743SOL    HW127128   1.823   2.802   0.311
 8743SOL    HW227129   1.698   2.854   0.403
 8744SOL     OW27130   2.542   3.834   6.031
 8744SOL    HW127131   2.581   3.853   5.941
 8744SOL    HW227132   2.613   3.839   6.100
 8745SOL     OW27133   5.609   1.481   6.650
 8745SOL    HW127134   5.644   1.397   6.691
 8745SOL    HW227135   5.587   1.465   6.554
 8746SOL     OW27136   4.668   4.704   4.382
 8746SOL    HW127137   4.618   4.783   4.347
 8746SOL    HW227138   4.611   4.622   4.373
 8747SOL     OW27139   0.225   6.490   1.660
 8747SOL    HW127140   0.315   6.512   1.623
 8747SOL    HW227141   0.161   6.470   1.586
 8748SOL     OW27142   6.141   1.309   4.979
 8748SOL    HW127143   6.058   1.352   4.942
 8748SOL    HW227144   6.221   1.363   4.952
 8749SOL     OW27145   2.199   0.938   3.966
 8749SOL    HW127146   2.292   0.936   3.930
 8749SOL    HW227147   2.135   0.924   3.890
 8750SOL     OW27148   3.946   3.438   2.012
 8750SOL    HW127149   4.014   3.493   1.963
 8750SOL    HW227150   3.872   3.497   2.044
 8751SOL     OW27151   1.872   6.549   6.694
 8751SOL    HW127152   1.834   6.498   6.772
 8751SOL    HW227153   1.856   6.497   6.610
 8752SOL     OW27154   1.201   3.025   6.835
 8752SOL    HW127155   1.291   3.069   6.827
 8752SOL    HW227156   1.166   3.003   6.744
 8753SOL     OW27157   1.590   1.690   1.057
 8753SOL    HW127158   1.508   1.688   0.999
 8753SOL    HW227159   1.661   1.744   1.013
 8754SOL     OW27160   1.302   6.118   6.542
 8754SOL    HW127161   1.266   6.083   6.628
 8754SOL    HW227162   1.311   6.043   6.476
 8755SOL     OW27163   0.393   2.084   1.750
 8755SOL    HW127164   0.324   2.145   1.791
 8755SOL    HW227165   0.401   2.001   1.804
 8756SOL     OW27166   1.730   1.615   2.459
 8756SOL    HW127167   1.802   1.571   2.405
 8756SOL    HW227168   1.735   1.714   2.447
 8757SOL     OW27169   5.197   5.835   4.766
 8757SOL    HW127170   5.233   5.753   4.722
 8757SOL    HW227171   5.257   5.912   4.749
 8758SOL     OW27172   3.560   4.700   6.690
 8758SOL    HW127173   3.528   4.746   6.607
 8758SOL    HW227174   3.486   4.699   6.758
 8759SOL     OW27175   6.684   1.324   1.366
 8759SOL    HW127176   6.700   1.348   1.462
 8759SOL    HW227177   6.598   1.273   1.359
 8760SOL     OW27178   1.364   2.822   4.613
 8760SOL    HW127179   1.394   2.869   4.696
 8760SOL    HW227180   1.400   2.870   4.533
 8761SOL     OW27181   5.382   2.859   3.251
 8761SOL    HW127182   5.297   2.909   3.272
 8761SOL    HW227183   5.376   2.818   3.160
 8762SOL     OW27184   4.106   6.458   2.429
 8762SOL    HW127185   4.158   6.540   2.453
 8762SOL    HW227186   4.009   6.474   2.446
 8763SOL     OW27187   0.083   1.976   5.580
 8763SOL    HW127188   0.173   1.986   5.622
 8763SOL    HW227189   0.093   1.954   5.483
 8764SOL     OW27190   2.747   5.104   6.239
 8764SOL    HW127191   2.839   5.086   6.272
 8764SOL    HW227192   2.706   5.019   6.205
 8765SOL     OW27193   4.417   6.877   3.504
 8765SOL    HW127194   4.497   6.909   3.453
 8765SOL    HW227195   4.345   6.946   3.500
 8766SOL     OW27196   6.292   7.019   5.103
 8766SOL    HW127197   6.317   6.974   5.017
 8766SOL    HW227198   6.375   0.004   5.158
 8767SOL     OW27199   2.071   1.433   4.791
 8767SOL    HW127200   2.015   1.461   4.869
 8767SOL    HW227201   2.107   1.514   4.745
 8768SOL     OW27202   6.695   1.988   1.006
 8768SOL    HW127203   6.695   2.078   0.961
 8768SOL    HW227204   6.688   1.916   0.937
 8769SOL     OW27205   0.052   6.956   0.235
 8769SOL    HW127206   0.091   6.933   0.324
 8769SOL    HW227207   0.125   6.985   0.173
 8770SOL     OW27208   4.570   1.874   0.602
 8770SOL    HW127209   4.489   1.895   0.546
 8770SOL    HW227210   4.547   1.885   0.699
 8771SOL     OW27211   1.162   2.697   6.625
 8771SOL    HW127212   1.198   2.686   6.718
 8771SOL    HW227213   1.170   2.793   6.597
 8772SOL     OW27214   0.501   6.333   3.705
 8772SOL    HW127215   0.424   6.397   3.702
 8772SOL    HW227216   0.558   6.345   3.624
 8773SOL     OW27217   6.230   1.547   4.128
 8773SOL    HW127218   6.203   1.453   4.149
 8773SOL    HW227219   6.305   1.547   4.062
 8774SOL     OW27220   1.313   2.431   6.749
 8774SOL    HW127221   1.329   2.498   6.822
 8774SOL    HW227222   1.217   2.436   6.721
 8775SOL     OW27223   4.518   1.860   2.093
 8775SOL    HW127224   4.452   1.797   2.134
 8775SOL    HW227225   4.536   1.936   2.156
 8776SOL     OW27226   5.900   3.199   1.664
 8776SOL    HW127227   5.813   3.179   1.619
 8776SOL    HW227228   5.954   3.115   1.668
 8777SOL     OW27229   6.238   2.240   3.814
 8777SOL    HW127230   6.161   2.215   3.873
 8777SOL    HW227231   6.223   2.332   3.777
 8778SOL     OW27232   1.723   4.369   6.517
 8778SOL    HW127233   1.751   4.438   6.451
 8778SOL    HW227234   1.648   4.405   6.573
 8779SOL     OW27235   3.554   6.581   3.083
 8779SOL    HW127236   3.599   6.649   3.141
 8779SOL    HW227237   3.540   6.620   2.992
 8780SOL     OW27238   1.130   3.176   4.689
 8780SOL    HW127239   1.149   3.185   4.787
 8780SOL    HW227240   1.031   3.182   4.674
 8781SOL     OW27241   4.146   1.383   1.976
 8781SOL    HW127242   4.056   1.344   1.959
 8781SOL    HW227243   4.158   1.466   1.921
 8782SOL     OW27244   6.542   2.268   0.090
 8782SOL    HW127245   6.637   2.244   0.071
 8782SOL    HW227246   6.490   2.270   0.004
 8783SOL     OW27247   3.690   3.851   6.219
 8783SOL    HW127248   3.670   3.908   6.299
 8783SOL    HW227249   3.706   3.909   6.139
 8784SOL     OW27250   4.395   1.078   5.514
 8784SOL    HW127251   4.326   1.108   5.579
 8784SOL    HW227252   4.371   1.111   5.422
 8785SOL     OW27253   0.062   6.622   6.266
 8785SOL    HW127254   7.019   6.681   6.302
 8785SOL    HW227255   0.131   6.606   6.337
 8786SOL     OW27256   5.468   2.674   3.036
 8786SOL    HW127257   5.425   2.668   2.946
 8786SOL    HW227258   5.510   2.586   3.058
 8787SOL     OW27259   3.463   5.243   2.581
 8787SOL    HW127260   3.437   5.324   2.633
 8787SOL    HW227261   3.386   5.213   2.526
 8788SOL     OW27262   0.119   6.860   3.789
 8788SOL    HW127263   0.070   6.791   3.843
 8788SOL    HW227264   0.071   6.876   3.703
 8789SOL     OW27265   2.254   3.433   6.919
 8789SOL    HW127266   2.210   3.518   6.946
 8789SOL    HW227267   2.185   3.363   6.903
 8790SOL     OW27268   4.792   3.177   5.195
 8790SOL    HW127269   4.845   3.186   5.110
 8790SOL    HW227270   4.739   3.093   5.193
 8791SOL     OW27271   4.161   6.507   5.390
 8791SOL    HW127272   4.105   6.424   5.399
 8791SOL    HW227273   4.256   6.486   5.416
 8792SOL     OW27274   5.265   4.875   0.684
 8792SOL    HW127275   5.334   4.943   0.660
 8792SOL    HW227276   5.306   4.805   0.743
 8793SOL     OW27277   6.455   0.478   5.673
 8793SOL    HW127278   6.546   0.500   5.707
 8793SOL    HW227279   6.421   0.397   5.720
 8794SOL     OW27280   0.259   2.985   3.208
 8794SOL    HW127281   0.211   2.901   3.180
 8794SOL    HW227282   0.268   2.986   3.308
 8795SOL     OW27283   1.705   0.660   0.003
 8795SOL    HW127284   1.720   0.664   0.102
 8795SOL    HW227285   1.641   0.732   7.004
 8796SOL     OW27286   5.756   5.283   4.168
 8796SOL    HW127287   5.783   5.295   4.263
 8796SOL    HW227288   5.659   5.305   4.157
 8797SOL     OW27289   5.644   5.891   5.207
 8797SOL    HW127290   5.648   5.806   5.154
 8797SOL    HW227291   5.656   5.969   5.145
 8798SOL     OW27292   1.491   5.469   7.010
 8798SOL    HW127293   1.496   5.440   0.077
 8798SOL    HW227294   1.534   5.399   6.952
 8799SOL     OW27295   1.605   6.467   2.347
 8799SOL    HW127296   1.576   6.493   2.255
 8799SOL    HW227297   1.675   6.531   2.380
 8800SOL     OW27298   6.665   6.014   4.391
 8800SOL    HW127299   6.589   5.950   4.383
 8800SOL    HW227300   6.751   5.964   4.389
 8801SOL     OW27301   5.079   3.273   6.494
 8801SOL    HW127302   5.016   3.287   6.417
 8801SOL    HW227303   5.055   3.337   6.567
 8802SOL     OW27304   0.900   6.720   0.121
 8802SOL    HW127305   0.979   6.780   0.134
 8802SOL    HW227306   0.918   6.656   0.047
 8803SOL     OW27307   4.629   4.742   5.497
 8803SOL    HW127308   4.682   4.808   5.443
 8803SOL    HW227309   4.647   4.755   5.594
 8804SOL     OW27310   2.153   6.336   1.476
 8804SOL    HW127311   2.152   6.425   1.431
 8804SOL    HW227312   2.100   6.341   1.561
 8805SOL     OW27313   4.531   5.286   0.854
 8805SOL    HW127314   4.445   5.247   0.820
 8805SOL    HW227315   4.603   5.217   0.849
 8806SOL     OW27316   1.540   1.308   1.874
 8806SOL    HW127317   1.633   1.342   1.877
 8806SOL    HW227318   1.483   1.371   1.821
 8807SOL     OW27319   5.703   2.455   2.199
 8807SOL    HW127320   5.791   2.461   2.152
 8807SOL    HW227321   5.669   2.361   2.194
 8808SOL     OW27322   1.704   1.196   0.795
 8808SOL    HW127323   1.707   1.212   0.697
 8808SOL    HW227324   1.647   1.266   0.839
 8809SOL     OW27325   0.793   3.189   3.014
 8809SOL    HW127326   0.750   3.261   3.069
 8809SOL    HW227327   0.732   3.165   2.938
 8810SOL     OW27328   6.242   2.507   3.715
 8810SOL    HW127329   6.326   2.559   3.695
 8810SOL    HW227330   6.176   2.568   3.759
 8811SOL     OW27331   3.927   5.780   3.114
 8811SOL    HW127332   3.964   5.781   3.207
 8811SOL    HW227333   3.849   5.718   3.110
 8812SOL     OW27334   5.490   0.596   0.178
 8812SOL    HW127335   5.469   0.509   0.222
 8812SOL    HW227336   5.405   0.642   0.153
 8813SOL     OW27337   1.305   2.390   1.594
 8813SOL    HW127338   1.218   2.398   1.642
 8813SOL    HW227339   1.359   2.472   1.609
 8814SOL     OW27340   6.017   6.729   5.157
 8814SOL    HW127341   6.016   6.827   5.139
 8814SOL    HW227342   5.941   6.706   5.218
 8815SOL     OW27343   4.580   0.200   1.103
 8815SOL    HW127344   4.517   0.168   1.174
 8815SOL    HW227345   4.528   0.221   1.021
 8816SOL     OW27346   0.266   0.852   2.929
 8816SOL    HW127347   0.364   0.865   2.948
 8816SOL    HW227348   0.256   0.806   2.841
 8817SOL     OW27349   0.894   2.672   4.528
 8817SOL    HW127350   0.962   2.606   4.496
 8817SOL    HW227351   0.834   2.698   4.452
 8818SOL     OW27352   1.217   5.677   6.323
 8818SOL    HW127353   1.197   5.663   6.226
 8818SOL    HW227354   1.136   5.715   6.368
 8819SOL     OW27355   5.414   6.384   6.330
 8819SOL    HW127356   5.375   6.387   6.422
 8819SOL    HW227357   5.462   6.296   6.318
 8820SOL     OW27358   3.475   6.507   6.099
 8820SOL    HW127359   3.388   6.484   6.143
 8820SOL    HW227360   3.463   6.510   6.000
 8821SOL     OW27361   1.883   5.280   5.283
 8821SOL    HW127362   1.804   5.340   5.277
 8821SOL    HW227363   1.868   5.199   5.227
 8822SOL     OW27364   0.159   0.542   5.059
 8822SOL    HW127365   0.152   0.602   4.979
 8822SOL    HW227366   0.159   0.597   5.142
 8823SOL     OW27367   4.343   2.349   3.143
 8823SOL    HW127368   4.292   2.317   3.224
 8823SOL    HW227369   4.396   2.430   3.167
 8824SOL     OW27370   1.524   0.383   4.118
 8824SOL    HW127371   1.619   0.400   4.089
 8824SOL    HW227372   1.506   0.285   4.118
 8825SOL     OW27373   1.173   6.987   0.507
 8825SOL    HW127374   1.110   0.031   0.479
 8825SOL    HW227375   1.122   6.906   0.534
 8826SOL     OW27376   0.557   3.792   0.194
 8826SOL    HW127377   0.521   3.730   0.263
 8826SOL    HW227378   0.641   3.835   0.227
 8827SOL     OW27379   5.218   5.901   4.033
 8827SOL    HW127380   5.181   5.986   4.070
 8827SOL    HW227381   5.228   5.833   4.106
 8828SOL     OW27382   5.076   2.715   5.616
 8828SOL    HW127383   5.079   2.811   5.646
 8828SOL    HW227384   5.074   2.712   5.516
 8829SOL     OW27385   6.503   0.579   2.902
 8829SOL    HW127386   6.555   0.494   2.911
 8829SOL    HW227387   6.456   0.599   2.988
 8830SOL     OW27388   2.775   0.987   2.586
 8830SOL    HW127389   2.812   1.073   2.550
 8830SOL    HW227390   2.762   0.996   2.685
 8831SOL     OW27391   0.722   2.232   2.573
 8831SOL    HW127392   0.658   2.245   2.649
 8831SOL    HW227393   0.794   2.302   2.578
 8832SOL     OW27394   6.108   0.098   4.932
 8832SOL    HW127395   6.185   0.075   4.992
 8832SOL    HW227396   6.135   0.085   4.837
 8833SOL     OW27397   4.754   2.760   1.051
 8833SOL    HW127398   4.676   2.715   1.095
 8833SOL    HW227399   4.752   2.741   0.953
 8834SOL     OW27400   6.576   4.526   5.795
 8834SOL    HW127401   6.648   4.595   5.795
 8834SOL    HW227402   6.597   4.455   5.862
 8835SOL     OW27403   6.705   0.755   5.232
 8835SOL    HW127404   6.729   0.753   5.330
 8835SOL    HW227405   6.711   0.850   5.199
 8836SOL     OW27406   4.483   1.622   0.804
 8836SOL    HW127407   4.449   1.710   0.837
 8836SOL    HW227408   4.414   1.552   0.822
 8837SOL     OW27409   5.629   5.022   0.289
 8837SOL    HW127410   5.579   4.971   0.219
 8837SOL    HW227411   5.702   4.965   0.326
 8838SOL     OW27412   1.513   3.310   1.953
 8838SOL    HW127413   1.420   3.330   1.983
 8838SOL    HW227414   1.529   3.353   1.864
 8839SOL     OW27415   4.518   4.573   1.526
 8839SOL    HW127416   4.478   4.487   1.557
 8839SOL    HW227417   4.444   4.638   1.507
 8840SOL     OW27418   0.236   0.000   1.292
 8840SOL    HW127419   0.330   0.002   1.327
 8840SOL    HW227420   0.194   0.090   1.305
 8841SOL     OW27421   4.737   2.032   0.455
 8841SOL    HW127422   4.690   2.105   0.405
 8841SOL    HW227423   4.669   1.978   0.505
 8842SOL     OW27424   3.925   3.032   3.682
 8842SOL    HW127425   3.977   3.089   3.745
 8842SOL    HW227426   3.832   3.017   3.717
 8843SOL     OW27427   2.571   6.300   4.743
 8843SOL    HW127428   2.573   6.229   4.813
 8843SOL    HW227429   2.578   6.258   4.652
 8844SOL     OW27430   4.094   2.832   5.323
 8844SOL    HW127431   4.137   2.757   5.273
 8844SOL    HW227432   4.000   2.845   5.290
 8845SOL     OW27433   0.506   4.110   2.364
 8845SOL    HW127434   0.499   4.018   2.325
 8845SOL    HW227435   0.599   4.144   2.354
 8846SOL     OW27436   6.052   5.276   4.698
 8846SOL    HW127437   5.994   5.345   4.742
 8846SOL    HW227438   6.018   5.185   4.721
 8847SOL     OW27439   0.868   2.617   3.830
 8847SOL    HW127440   0.930   2.651   3.760
 8847SOL    HW227441   0.811   2.692   3.864
 8848SOL     OW27442   5.824   2.630   1.173
 8848SOL    HW127443   5.786   2.691   1.104
 8848SOL    HW227444   5.887   2.681   1.231
 8849SOL     OW27445   3.292   4.989   4.716
 8849SOL    HW127446   3.383   4.972   4.678
 8849SOL    HW227447   3.298   4.996   4.816
 8850SOL     OW27448   3.876   2.088   1.141
 8850SOL    HW127449   3.912   2.180   1.128
 8850SOL    HW227450   3.951   2.027   1.168
 8851SOL     OW27451   0.191   5.643   3.256
 8851SOL    HW127452   0.186   5.585   3.174
 8851SOL    HW227453   0.114   5.624   3.316
 8852SOL     OW27454   5.888   3.934   4.723
 8852SOL    HW127455   5.796   3.903   4.697
 8852SOL    HW227456   5.881   4.004   4.794
 8853SOL     OW27457   4.754   1.927   4.356
 8853SOL    HW127458   4.727   1.855   4.293
 8853SOL    HW227459   4.698   2.008   4.339
 8854SOL     OW27460   3.191   0.474   6.385
 8854SOL    HW127461   3.281   0.491   6.425
 8854SOL    HW227462   3.143   0.561   6.372
 8855SOL     OW27463   6.191   4.900   6.228
 8855SOL    HW127464   6.214   4.812   6.187
 8855SOL    HW227465   6.249   4.971   6.188
 8856SOL     OW27466   5.343   2.034   5.672
 8856SOL    HW127467   5.345   2.127   5.710
 8856SOL    HW227468   5.257   1.990   5.698
 8857SOL     OW27469   1.504   2.962   4.417
 8857SOL    HW127470   1.604   2.963   4.426
 8857SOL    HW227471   1.478   3.006   4.331
 8858SOL     OW27472   0.672   3.340   5.523
 8858SOL    HW127473   0.682   3.268   5.591
 8858SOL    HW227474   0.575   3.359   5.508
 8859SOL     OW27475   2.503   6.201   5.250
 8859SOL    HW127476   2.562   6.132   5.291
 8859SOL    HW227477   2.415   6.159   5.226
 8860SOL     OW27478   2.135   1.278   1.662
 8860SOL    HW127479   2.130   1.258   1.760
 8860SOL    HW227480   2.078   1.213   1.612
 8861SOL     OW27481   1.933   1.804   7.014
 8861SOL    HW127482   1.920   1.720   6.961
 8861SOL    HW227483   1.995   1.786   0.062
 8862SOL     OW27484   6.927   2.966   4.021
 8862SOL    HW127485   6.976   2.879   4.024
 8862SOL    HW227486   6.904   2.988   3.926
 8863SOL     OW27487   1.713   5.582   5.069
 8863SOL    HW127488   1.709   5.547   5.163
 8863SOL    HW227489   1.720   5.682   5.071
 8864SOL     OW27490   2.114   4.588   5.668
 8864SOL    HW127491   2.143   4.671   5.716
 8864SOL    HW227492   2.192   4.526   5.658
 8865SOL     OW27493   2.730   1.913   5.858
 8865SOL    HW127494   2.640   1.918   5.902
 8865SOL    HW227495   2.735   1.980   5.784
 8866SOL     OW27496   4.800   6.961   5.589
 8866SOL    HW127497   4.838   6.917   5.670
 8866SOL    HW227498   4.821   6.906   5.508
 8867SOL     OW27499   5.709   0.689   3.297
 8867SOL    HW127500   5.675   0.617   3.358
 8867SOL    HW227501   5.683   0.668   3.203
 8868SOL     OW27502   5.769   3.053   0.641
 8868SOL    HW127503   5.827   2.971   0.635
 8868SOL    HW227504   5.826   3.133   0.654
 8869SOL     OW27505   2.356   1.915   3.602
 8869SOL    HW127506   2.311   1.843   3.655
 8869SOL    HW227507   2.336   1.902   3.505
 8870SOL     OW27508   4.019   6.796   1.937
 8870SOL    HW127509   4.029   6.747   2.023
 8870SOL    HW227510   4.041   6.736   1.860
 8871SOL     OW27511   1.549   2.226   4.090
 8871SOL    HW127512   1.538   2.309   4.145
 8871SOL    HW227513   1.519   2.243   3.996
 8872SOL     OW27514   1.279   2.009   2.429
 8872SOL    HW127515   1.359   1.981   2.483
 8872SOL    HW227516   1.307   2.024   2.334
 8873SOL     OW27517   6.641   5.626   4.796
 8873SOL    HW127518   6.717   5.678   4.832
 8873SOL    HW227519   6.651   5.530   4.821
 8874SOL     OW27520   1.352   1.240   6.064
 8874SOL    HW127521   1.309   1.325   6.034
 8874SOL    HW227522   1.337   1.169   5.995
 8875SOL     OW27523   1.579   1.359   4.308
 8875SOL    HW127524   1.541   1.355   4.401
 8875SOL    HW227525   1.529   1.427   4.255
 8876SOL     OW27526   2.765   1.221   4.694
 8876SOL    HW127527   2.731   1.146   4.636
 8876SOL    HW227528   2.738   1.309   4.654
 8877SOL     OW27529   3.138   6.313   4.532
 8877SOL    HW127530   3.157   6.265   4.618
 8877SOL    HW227531   3.044   6.346   4.532
 8878SOL     OW27532   5.419   4.592   5.647
 8878SOL    HW127533   5.392   4.595   5.551
 8878SOL    HW227534   5.405   4.499   5.683
 8879SOL     OW27535   5.798   5.521   4.801
 8879SOL    HW127536   5.846   5.485   4.881
 8879SOL    HW227537   5.713   5.471   4.788
 8880SOL     OW27538   1.148   6.838   4.759
 8880SOL    HW127539   1.228   6.806   4.708
 8880SOL    HW227540   1.067   6.833   4.701
 8881SOL     OW27541   6.736   1.995   2.481
 8881SOL    HW127542   6.758   2.008   2.578
 8881SOL    HW227543   6.722   2.084   2.438
 8882SOL     OW27544   5.577   2.096   0.748
 8882SOL    HW127545   5.573   1.996   0.743
 8882SOL    HW227546   5.672   2.125   0.754
 8883SOL     OW27547   6.055   1.339   5.644
 8883SOL    HW127548   6.154   1.348   5.653
 8883SOL    HW227549   6.034   1.254   5.595
 8884SOL     OW27550   0.261   1.143   6.575
 8884SOL    HW127551   0.311   1.181   6.652
 8884SOL    HW227552   0.314   1.069   6.534
 8885SOL     OW27553   6.110   4.199   1.067
 8885SOL    HW127554   6.043   4.212   1.140
 8885SOL    HW227555   6.131   4.101   1.059
 8886SOL     OW27556   3.245   5.949   6.011
 8886SOL    HW127557   3.263   6.027   5.952
 8886SOL    HW227558   3.227   5.868   5.955
 8887SOL     OW27559   1.150   1.110   1.020
 8887SOL    HW127560   1.172   1.198   0.979
 8887SOL    HW227561   1.065   1.117   1.073
 8888SOL     OW27562   2.819   2.136   3.087
 8888SOL    HW127563   2.885   2.061   3.092
 8888SOL    HW227564   2.837   2.200   3.161
 8889SOL     OW27565   3.306   1.559   4.741
 8889SOL    HW127566   3.354   1.539   4.827
 8889SOL    HW227567   3.360   1.622   4.686
 8890SOL     OW27568   6.819   4.720   3.948
 8890SOL    HW127569   6.804   4.783   3.871
 8890SOL    HW227570   6.900   4.664   3.930
 8891SOL     OW27571   3.753   1.384   6.103
 8891SOL    HW127572   3.731   1.301   6.155
 8891SOL    HW227573   3.826   1.434   6.149
 8892SOL     OW27574   1.168   6.913   3.156
 8892SOL    HW127575   1.112   6.902   3.073
 8892SOL    HW227576   1.258   6.948   3.130
 8893SOL     OW27577   0.127   1.097   0.448
 8893SOL    HW127578   0.081   1.063   0.366
 8893SOL    HW227579   0.174   1.022   0.494
 8894SOL     OW27580   4.510   2.447   5.689
 8894SOL    HW127581   4.552   2.479   5.774
 8894SOL    HW227582   4.566   2.476   5.611
 8895SOL     OW27583   1.133   1.074   3.350
 8895SOL    HW127584   1.187   1.011   3.294
 8895SOL    HW227585   1.148   1.053   3.447
 8896SOL     OW27586   1.663   4.241   5.094
 8896SOL    HW127587   1.688   4.171   5.161
 8896SOL    HW227588   1.739   4.306   5.083
 8897SOL     OW27589   1.138   2.414   1.828
 8897SOL    HW127590   1.092   2.369   1.905
 8897SOL    HW227591   1.216   2.467   1.862
 8898SOL     OW27592   6.664   2.784   5.304
 8898SOL    HW127593   6.588   2.720   5.294
 8898SOL    HW227594   6.692   2.789   5.400
 8899SOL     OW27595   3.539   5.771   2.394
 8899SOL    HW127596   3.551   5.675   2.369
 8899SOL    HW227597   3.628   5.818   2.389
 8900SOL     OW27598   6.858   1.746   3.576
 8900SOL    HW127599   6.891   1.826   3.626
 8900SOL    HW227600   6.767   1.764   3.540
 8901SOL     OW27601   2.128   0.218   2.269
 8901SOL    HW127602   2.072   0.220   2.186
 8901SOL    HW227603   2.108   0.300   2.324
 8902SOL     OW27604   4.104   6.896   6.000
 8902SOL    HW127605   4.009   6.871   6.020
 8902SOL    HW227606   4.105   6.959   5.922
 8903SOL     OW27607   6.438   1.044   3.141
 8903SOL    HW127608   6.490   0.970   3.183
 8903SOL    HW227609   6.436   1.123   3.203
 8904SOL     OW27610   1.769   3.585   4.049
 8904SOL    HW127611   1.695   3.527   4.084
 8904SOL    HW227612   1.820   3.536   3.978
 8905SOL     OW27613   1.912   4.206   4.806
 8905SOL    HW127614   2.006   4.178   4.821
 8905SOL    HW227615   1.903   4.250   4.717
 8906SOL     OW27616   2.163   5.218   4.788
 8906SOL    HW127617   2.247   5.273   4.786
 8906SOL    HW227618   2.115   5.229   4.701
 8907SOL     OW27619   3.681   2.844   6.139
 8907SOL    HW127620   3.684   2.757   6.187
 8907SOL    HW227621   3.762   2.898   6.162
 8908SOL     OW27622   0.552   3.480   2.644
 8908SOL    HW127623   0.573   3.577   2.658
 8908SOL    HW227624   0.638   3.429   2.633
 8909SOL     OW27625   3.373   6.715   5.435
 8909SOL    HW127626   3.472   6.721   5.423
 8909SOL    HW227627   3.341   6.627   5.399
 8910SOL     OW27628   4.418   2.583   0.043
 8910SOL    HW127629   4.471   2.563   0.126
 8910SOL    HW227630   4.459   2.535   6.994
 8911SOL     OW27631   4.938   2.980   4.534
 8911SOL    HW127632   4.870   3.000   4.463
 8911SOL    HW227633   4.987   2.897   4.511
 8912SOL     OW27634   4.071   0.727   0.168
 8912SOL    HW127635   4.010   0.649   0.179
 8912SOL    HW227636   4.021   0.805   0.130
 8913SOL     OW27637   4.049   3.992   0.767
 8913SOL    HW127638   4.101   4.062   0.717
 8913SOL    HW227639   4.066   4.003   0.866
 8914SOL     OW27640   5.123   3.244   3.887
 8914SOL    HW127641   5.161   3.154   3.867
 8914SOL    HW227642   5.196   3.313   3.881
 8915SOL     OW27643   0.655   5.676   2.267
 8915SOL    HW127644   0.572   5.730   2.284
 8915SOL    HW227645   0.731   5.738   2.247
 8916SOL     OW27646   5.758   3.603   1.465
 8916SOL    HW127647   5.687   3.647   1.411
 8916SOL    HW227648   5.728   3.594   1.560
 8917SOL     OW27649   5.632   4.216   5.692
 8917SOL    HW127650   5.574   4.140   5.660
 8917SOL    HW227651   5.680   4.188   5.775
 8918SOL     OW27652   4.703   4.253   5.877
 8918SOL    HW127653   4.636   4.234   5.948
 8918SOL    HW227654   4.753   4.336   5.899
 8919SOL     OW27655   1.923   3.255   1.407
 8919SOL    HW127656   1.829   3.254   1.373
 8919SOL    HW227657   1.968   3.169   1.382
 8920SOL     OW27658   6.269   5.824   5.885
 8920SOL    HW127659   6.351   5.857   5.839
 8920SOL    HW227660   6.267   5.858   5.979
 8921SOL     OW27661   1.084   5.627   3.525
 8921SOL    HW127662   1.113   5.532   3.535
 8921SOL    HW227663   1.138   5.685   3.585
 8922SOL     OW27664   0.517   2.507   6.820
 8922SOL    HW127665   0.471   2.581   6.771
 8922SOL    HW227666   0.552   2.541   6.907
 8923SOL     OW27667   2.243   4.546   4.312
 8923SOL    HW127668   2.197   4.540   4.401
 8923SOL    HW227669   2.206   4.624   4.261
 8924SOL     OW27670   2.280   6.512   4.595
 8924SOL    HW127671   2.190   6.550   4.616
 8924SOL    HW227672   2.277   6.412   4.599
 8925SOL     OW27673   4.316   5.705   0.901
 8925SOL    HW127674   4.238   5.744   0.951
 8925SOL    HW227675   4.389   5.683   0.965
 8926SOL     OW27676   5.763   0.228   6.642
 8926SOL    HW127677   5.855   0.267   6.637
 8926SOL    HW227678   5.696   0.302   6.641
 8927SOL     OW27679   2.860   2.226   4.828
 8927SOL    HW127680   2.797   2.303   4.837
 8927SOL    HW227681   2.884   2.192   4.919
 8928SOL     OW27682   1.478   0.641   5.353
 8928SOL    HW127683   1.574   0.668   5.341
 8928SOL    HW227684   1.455   0.646   5.450
 8929SOL     OW27685   4.696   4.475   3.085
 8929SOL    HW127686   4.790   4.473   3.050
 8929SOL    HW227687   4.633   4.486   3.008
 8930SOL     OW27688   0.216   5.600   5.302
 8930SOL    HW127689   0.191   5.686   5.345
 8930SOL    HW227690   0.149   5.530   5.328
 8931SOL     OW27691   4.895   0.793   1.879
 8931SOL    HW127692   4.869   0.879   1.836
 8931SOL    HW227693   4.815   0.750   1.921
 8932SOL     OW27694   4.650   0.708   0.399
 8932SOL    HW127695   4.567   0.731   0.451
 8932SOL    HW227696   4.650   0.759   0.313
 8933SOL     OW27697   1.765   0.014   5.448
 8933SOL    HW127698   1.742   0.069   5.368
 8933SOL    HW227699   1.773   0.074   5.528
 8934SOL     OW27700   3.220   6.614   3.965
 8934SOL    HW127701   3.142   6.669   3.937
 8934SOL    HW227702   3.271   6.662   4.036
 8935SOL     OW27703   6.017   1.928   2.380
 8935SOL    HW127704   5.959   1.935   2.461
 8935SOL    HW227705   5.975   1.866   2.314
 8936SOL     OW27706   1.187   3.984   2.008
 8936SOL    HW127707   1.172   3.888   2.029
 8936SOL    HW227708   1.280   3.998   1.976
 8937SOL     OW27709   2.980   6.491   4.960
 8937SOL    HW127710   2.899   6.459   4.911
 8937SOL    HW227711   3.011   6.577   4.921
 8938SOL     OW27712   5.281   6.683   2.075
 8938SOL    HW127713   5.319   6.657   2.164
 8938SOL    HW227714   5.208   6.750   2.089
 8939SOL     OW27715   6.411   3.138   4.601
 8939SOL    HW127716   6.450   3.062   4.654
 8939SOL    HW227717   6.384   3.105   4.511
 8940SOL     OW27718   6.023   4.015   2.623
 8940SOL    HW127719   6.033   4.084   2.551
 8940SOL    HW227720   5.927   3.992   2.635
 8941SOL     OW27721   5.632   2.367   3.340
 8941SOL    HW127722   5.618   2.285   3.396
 8941SOL    HW227723   5.579   2.442   3.379
 8942SOL     OW27724   4.826   6.032   4.526
 8942SOL    HW127725   4.905   6.084   4.495
 8942SOL    HW227726   4.856   5.950   4.573
 8943SOL     OW27727   4.304   3.699   0.289
 8943SOL    HW127728   4.285   3.634   0.216
 8943SOL    HW227729   4.218   3.732   0.329
 8944SOL     OW27730   4.547   5.795   5.519
 8944SOL    HW127731   4.474   5.856   5.489
 8944SOL    HW227732   4.605   5.843   5.586
 8945SOL     OW27733   6.830   4.864   2.064
 8945SOL    HW127734   6.828   4.958   2.029
 8945SOL    HW227735   6.893   4.810   2.008
 8946SOL     OW27736   3.706   2.105   3.677
 8946SOL    HW127737   3.788   2.133   3.726
 8946SOL    HW227738   3.625   2.125   3.733
 8947SOL     OW27739   2.617   5.356   0.696
 8947SOL    HW127740   2.610   5.408   0.780
 8947SOL    HW227741   2.643   5.261   0.717
 8948SOL     OW27742   5.590   0.285   2.653
 8948SOL    HW127743   5.646   0.367   2.641
 8948SOL    HW227744   5.507   0.310   2.704
 8949SOL     OW27745   4.047   6.717   1.020
 8949SOL    HW127746   4.012   6.807   1.044
 8949SOL    HW227747   3.972   6.660   0.986
 8950SOL     OW27748   3.549   3.871   3.810
 8950SOL    HW127749   3.548   3.960   3.857
 8950SOL    HW227750   3.555   3.885   3.712
 8951SOL     OW27751   0.822   1.086   4.117
 8951SOL    HW127752   0.833   0.986   4.114
 8951SOL    HW227753   0.752   1.114   4.052
 8952SOL     OW27754   1.953   3.376   5.041
 8952SOL    HW127755   2.022   3.306   5.024
 8952SOL    HW227756   1.998   3.464   5.057
 8953SOL     OW27757   0.903   5.835   1.114
 8953SOL    HW127758   0.908   5.752   1.059
 8953SOL    HW227759   0.962   5.826   1.194
 8954SOL     OW27760   2.542   4.265   5.630
 8954SOL    HW127761   2.629   4.238   5.671
 8954SOL    HW227762   2.530   4.219   5.543
 8955SOL     OW27763   6.526   3.199   5.511
 8955SOL    HW127764   6.472   3.207   5.427
 8955SOL    HW227765   6.543   3.290   5.549
 8956SOL     OW27766   1.151   6.426   1.307
 8956SOL    HW127767   1.223   6.452   1.372
 8956SOL    HW227768   1.064   6.465   1.336
 8957SOL     OW27769   0.547   6.878   3.174
 8957SOL    HW127770   0.481   6.811   3.141
 8957SOL    HW227771   0.509   6.926   3.253
 8958SOL     OW27772   6.900   3.136   4.713
 8958SOL    HW127773   6.901   3.100   4.620
 8958SOL    HW227774   6.978   3.196   4.727
 8959SOL     OW27775   4.928   1.502   3.748
 8959SOL    HW127776   5.003   1.461   3.696
 8959SOL    HW227777   4.942   1.601   3.755
 8960SOL     OW27778   4.083   6.312   2.167
 8960SOL    HW127779   4.082   6.339   2.263
 8960SOL    HW227780   3.991   6.283   2.140
 8961SOL     OW27781   2.539   1.884   5.554
 8961SOL    HW127782   2.521   1.822   5.630
 8961SOL    HW227783   2.569   1.973   5.591
 8962SOL     OW27784   6.536   6.171   1.264
 8962SOL    HW127785   6.448   6.177   1.311
 8962SOL    HW227786   6.554   6.256   1.214
 8963SOL     OW27787   2.606   4.966   6.033
 8963SOL    HW127788   2.657   4.990   5.950
 8963SOL    HW227789   2.586   4.868   6.034
 8964SOL     OW27790   1.083   3.069   4.423
 8964SOL    HW127791   1.155   3.015   4.379
 8964SOL    HW227792   1.109   3.088   4.518
 8965SOL     OW27793   3.051   5.825   6.803
 8965SOL    HW127794   3.025   5.747   6.860
 8965SOL    HW227795   2.972   5.857   6.751
 8966SOL     OW27796   5.071   6.738   5.127
 8966SOL    HW127797   5.158   6.751   5.175
 8966SOL    HW227798   5.022   6.825   5.123
 8967SOL     OW27799   2.486   0.460   3.455
 8967SOL    HW127800   2.389   0.479   3.462
 8967SOL    HW227801   2.510   0.386   3.518
 8968SOL     OW27802   2.744   5.638   2.163
 8968SOL    HW127803   2.786   5.556   2.123
 8968SOL    HW227804   2.806   5.679   2.229
 8969SOL     OW27805   6.971   1.159   1.987
 8969SOL    HW127806   0.009   1.163   1.913
 8969SOL    HW227807   6.982   1.074   2.037
 8970SOL     OW27808   2.340   1.893   4.320
 8970SOL    HW127809   2.366   1.829   4.247
 8970SOL    HW227810   2.253   1.936   4.296
 8971SOL     OW27811   3.238   5.286   1.422
 8971SOL    HW127812   3.182   5.364   1.450
 8971SOL    HW227813   3.318   5.280   1.481
 8972SOL     OW27814   6.541   3.674   6.096
 8972SOL    HW127815   6.517   3.725   6.013
 8972SOL    HW227816   6.637   3.646   6.092
 8973SOL     OW27817   2.529   1.635   3.186
 8973SOL    HW127818   2.563   1.722   3.151
 8973SOL    HW227819   2.441   1.649   3.232
 8974SOL     OW27820   1.492   4.800   5.146
 8974SOL    HW127821   1.398   4.779   5.174
 8974SOL    HW227822   1.554   4.732   5.186
 8975SOL     OW27823   0.751   3.842   6.150
 8975SOL    HW127824   0.698   3.878   6.074
 8975SOL    HW227825   0.689   3.809   6.222
 8976SOL     OW27826   5.634   0.143   1.247
 8976SOL    HW127827   5.694   0.064   1.262
 8976SOL    HW227828   5.677   0.225   1.286
 8977SOL     OW27829   0.863   5.099   5.949
 8977SOL    HW127830   0.808   5.179   5.972
 8977SOL    HW227831   0.907   5.113   5.861
 8978SOL     OW27832   6.421   5.027   5.261
 8978SOL    HW127833   6.455   4.937   5.234
 8978SOL    HW227834   6.357   5.061   5.192
 8979SOL     OW27835   1.807   4.149   3.623
 8979SOL    HW127836   1.823   4.066   3.569
 8979SOL    HW227837   1.884   4.164   3.686
 8980SOL     OW27838   5.196   0.659   0.437
 8980SOL    HW127839   5.289   0.691   0.420
 8980SOL    HW227840   5.144   0.730   0.485
 8981SOL     OW27841   3.941   2.233   6.682
 8981SOL    HW127842   3.896   2.295   6.747
 8981SOL    HW227843   4.006   2.175   6.731
 8982SOL     OW27844   0.697   0.501   3.103
 8982SOL    HW127845   0.754   0.442   3.161
 8982SOL    HW227846   0.663   0.578   3.158
 8983SOL     OW27847   1.806   6.604   2.477
 8983SOL    HW127848   1.822   6.522   2.531
 8983SOL    HW227849   1.891   6.656   2.470
 8984SOL     OW27850   6.081   0.608   3.718
 8984SOL    HW127851   6.114   0.663   3.795
 8984SOL    HW227852   6.033   0.667   3.653
 8985SOL     OW27853   5.145   0.740   1.617
 8985SOL    HW127854   5.162   0.667   1.683
 8985SOL    HW227855   5.125   0.700   1.527
 8986SOL     OW27856   1.037   6.896   6.592
 8986SOL    HW127857   1.001   6.805   6.614
 8986SOL    HW227858   1.120   6.886   6.538
 8987SOL     OW27859   2.721   6.641   2.540
 8987SOL    HW127860   2.699   6.564   2.480
 8987SOL    HW227861   2.636   6.688   2.566
 8988SOL     OW27862   2.339   6.670   1.010
 8988SOL    HW127863   2.352   6.765   0.982
 8988SOL    HW227864   2.243   6.646   1.004
 8989SOL     OW27865   6.733   1.334   2.673
 8989SOL    HW127866   6.683   1.376   2.597
 8989SOL    HW227867   6.727   1.235   2.667
 8990SOL     OW27868   3.901   1.093   3.127
 8990SOL    HW127869   3.896   1.028   3.051
 8990SOL    HW227870   3.845   1.060   3.203
 8991SOL     OW27871   1.358   2.036   0.580
 8991SOL    HW127872   1.440   2.050   0.635
 8991SOL    HW227873   1.279   2.023   0.641
 8992SOL     OW27874   1.239   5.519   5.027
 8992SOL    HW127875   1.291   5.536   5.111
 8992SOL    HW227876   1.245   5.423   5.003
 8993SOL     OW27877   5.675   4.131   3.682
 8993SOL    HW127878   5.726   4.177   3.754
 8993SOL    HW227879   5.659   4.036   3.708
 8994SOL     OW27880   1.242   6.400   2.114
 8994SOL    HW127881   1.266   6.381   2.019
 8994SOL    HW227882   1.268   6.322   2.171
 8995SOL     OW27883   1.980   4.258   3.810
 8995SOL    HW127884   2.029   4.193   3.868
 8995SOL    HW227885   2.015   4.350   3.825
 8996SOL     OW27886   2.832   3.409   1.352
 8996SOL    HW127887   2.789   3.492   1.388
 8996SOL    HW227888   2.762   3.339   1.339
 8997SOL     OW27889   4.297   1.602   4.694
 8997SOL    HW127890   4.340   1.683   4.733
 8997SOL    HW227891   4.208   1.626   4.655
 8998SOL     OW27892   0.924   1.539   6.611
 8998SOL    HW127893   0.914   1.442   6.587
 8998SOL    HW227894   0.935   1.547   6.710
 8999SOL     OW27895   5.987   2.894   5.363
 8999SOL    HW127896   6.078   2.918   5.396
 8999SOL    HW227897   5.923   2.968   5.387
 9000SOL     OW27898   4.885   5.084   1.313
 9000SOL    HW127899   4.927   5.080   1.222
 9000SOL    HW227900   4.788   5.064   1.305
 9001SOL     OW27901   0.339   3.092   4.410
 9001SOL    HW127902   0.381   3.181   4.430
 9001SOL    HW227903   0.326   3.042   4.495
 9002SOL     OW27904   4.955   3.053   5.977
 9002SOL    HW127905   4.951   2.958   6.006
 9002SOL    HW227906   4.865   3.095   5.988
 9003SOL     OW27907   0.556   3.687   6.953
 9003SOL    HW127908   0.548   3.744   0.007
 9003SOL    HW227909   0.647   3.646   6.950
 9004SOL     OW27910   4.660   5.851   0.302
 9004SOL    HW127911   4.738   5.904   0.337
 9004SOL    HW227912   4.654   5.863   0.203
 9005SOL     OW27913   4.858   3.716   4.081
 9005SOL    HW127914   4.902   3.627   4.075
 9005SOL    HW227915   4.866   3.763   3.994
 9006SOL     OW27916   3.281   6.422   2.022
 9006SOL    HW127917   3.376   6.418   1.990
 9006SOL    HW227918   3.278   6.398   2.119
 9007SOL     OW27919   2.320   6.622   5.635
 9007SOL    HW127920   2.257   6.545   5.640
 9007SOL    HW227921   2.413   6.589   5.623
 9008SOL     OW27922   0.184   4.691   1.764
 9008SOL    HW127923   0.233   4.667   1.680
 9008SOL    HW227924   0.160   4.788   1.762
 9009SOL     OW27925   3.742   6.611   6.898
 9009SOL    HW127926   3.779   6.556   6.822
 9009SOL    HW227927   3.696   6.550   6.963
 9010SOL     OW27928   0.046   5.927   4.829
 9010SOL    HW127929   0.111   5.876   4.773
 9010SOL    HW227930   0.081   5.936   4.922
 9011SOL     OW27931   4.527   2.550   2.198
 9011SOL    HW127932   4.488   2.518   2.111
 9011SOL    HW227933   4.603   2.613   2.179
 9012SOL     OW27934   4.342   5.069   2.965
 9012SOL    HW127935   4.319   5.017   3.047
 9012SOL    HW227936   4.301   5.025   2.885
 9013SOL     OW27937   3.582   6.136   1.928
 9013SOL    HW127938   3.610   6.162   1.835
 9013SOL    HW227939   3.582   6.036   1.935
 9014SOL     OW27940   2.095   1.507   1.958
 9014SOL    HW127941   2.073   1.417   1.921
 9014SOL    HW227942   2.192   1.510   1.985
 9015SOL     OW27943   6.096   2.347   4.611
 9015SOL    HW127944   6.078   2.249   4.619
 9015SOL    HW227945   6.041   2.397   4.679
 9016SOL     OW27946   0.036   5.199   6.391
 9016SOL    HW127947   7.016   5.272   6.343
 9016SOL    HW227948   0.036   5.116   6.335
 9017SOL     OW27949   6.027   3.375   2.630
 9017SOL    HW127950   6.125   3.376   2.613
 9017SOL    HW227951   5.979   3.347   2.547
 9018SOL     OW27952   5.267   1.105   6.879
 9018SOL    HW127953   5.201   1.110   6.954
 9018SOL    HW227954   5.219   1.116   6.792
 9019SOL     OW27955   1.759   5.595   0.221
 9019SOL    HW127956   1.708   5.681   0.224
 9019SOL    HW227957   1.706   5.523   0.266
 9020SOL     OW27958   0.648   5.086   4.474
 9020SOL    HW127959   0.549   5.104   4.474
 9020SOL    HW227960   0.696   5.169   4.502
 9021SOL     OW27961   6.276   5.356   5.357
 9021SOL    HW127962   6.285   5.297   5.277
 9021SOL    HW227963   6.270   5.452   5.327
 9022SOL     OW27964   1.153   6.839   6.228
 9022SOL    HW127965   1.187   6.806   6.315
 9022SOL    HW227966   1.190   6.930   6.209
 9023SOL     OW27967   3.493   3.633   4.176
 9023SOL    HW127968   3.523   3.545   4.214
 9023SOL    HW227969   3.416   3.668   4.229
 9024SOL     OW27970   1.031   0.103   0.024
 9024SOL    HW127971   1.056   0.013   7.016
 9024SOL    HW227972   1.106   0.167   0.010
 9025SOL     OW27973   0.681   2.906   0.443
 9025SOL    HW127974   0.646   2.998   0.458
 9025SOL    HW227975   0.751   2.908   0.372
 9026SOL     OW27976   3.137   4.043   5.833
 9026SOL    HW127977   3.082   4.115   5.876
 9026SOL    HW227978   3.226   4.038   5.878
 9027SOL     OW27979   1.399   3.170   2.373
 9027SOL    HW127980   1.426   3.223   2.454
 9027SOL    HW227981   1.481   3.136   2.327
 9028SOL     OW27982   1.703   4.497   4.881
 9028SOL    HW127983   1.713   4.467   4.786
 9028SOL    HW227984   1.789   4.483   4.930
 9029SOL     OW27985   5.472   5.260   2.624
 9029SOL    HW127986   5.464   5.202   2.705
 9029SOL    HW227987   5.463   5.356   2.651
 9030SOL     OW27988   4.891   2.588   3.066
 9030SOL    HW127989   4.818   2.566   3.002
 9030SOL    HW227990   4.951   2.656   3.025
 9031SOL     OW27991   2.583   1.150   2.208
 9031SOL    HW127992   2.560   1.209   2.286
 9031SOL    HW227993   2.596   1.056   2.241
 9032SOL     OW27994   0.387   3.935   2.780
 9032SOL    HW127995   0.364   3.957   2.874
 9032SOL    HW227996   0.306   3.899   2.733
 9033SOL     OW27997   1.321   3.637   2.804
 9033SOL    HW127998   1.392   3.631   2.733
 9033SOL    HW227999   1.237   3.594   2.771
 9034SOL     OW28000   1.365   6.581   0.253
 9034SOL    HW128001   1.405   6.591   0.344
 9034SOL    HW228002   1.422   6.518   0.198
 9035SOL     OW28003   6.105   1.093   4.352
 9035SOL    HW128004   6.120   1.044   4.438
 9035SOL    HW228005   6.032   1.049   4.300
 9036SOL     OW28006   0.405   1.635   4.627
 9036SOL    HW128007   0.498   1.596   4.625
 9036SOL    HW228008   0.411   1.734   4.634
 9037SOL     OW28009   2.671   4.152   5.999
 9037SOL    HW128010   2.696   4.060   5.968
 9037SOL    HW228011   2.706   4.166   6.092
 9038SOL     OW28012   4.006   5.643   5.636
 9038SOL    HW128013   4.065   5.625   5.714
 9038SOL    HW228014   3.933   5.574   5.633
 9039SOL     OW28015   2.733   5.155   0.096
 9039SOL    HW128016   2.687   5.113   0.017
 9039SOL    HW228017   2.668   5.166   0.171
 9040SOL     OW28018   3.159   1.234   2.203
 9040SOL    HW128019   3.237   1.208   2.260
 9040SOL    HW228020   3.189   1.249   2.109
 9041SOL     OW28021   2.004   2.577   5.394
 9041SOL    HW128022   2.041   2.602   5.304
 9041SOL    HW228023   1.906   2.559   5.385
 9042SOL     OW28024   1.690   5.194   2.352
 9042SOL    HW128025   1.731   5.117   2.402
 9042SOL    HW228026   1.682   5.170   2.256
 9043SOL     OW28027   0.475   1.680   0.362
 9043SOL    HW128028   0.568   1.670   0.327
 9043SOL    HW228029   0.410   1.670   0.288
 9044SOL     OW28030   0.643   4.228   0.458
 9044SOL    HW128031   0.607   4.139   0.486
 9044SOL    HW228032   0.569   4.283   0.418
 9045SOL     OW28033   2.085   4.596   4.853
 9045SOL    HW128034   1.990   4.621   4.835
 9045SOL    HW228035   2.121   4.652   4.927
 9046SOL     OW28036   3.626   4.272   5.844
 9046SOL    HW128037   3.594   4.263   5.749
 9046SOL    HW228038   3.568   4.336   5.893
 9047SOL     OW28039   0.968   4.308   4.008
 9047SOL    HW128040   0.956   4.406   4.027
 9047SOL    HW228041   1.059   4.280   4.039
 9048SOL     OW28042   1.526   2.768   5.385
 9048SOL    HW128043   1.542   2.847   5.326
 9048SOL    HW228044   1.613   2.735   5.421
 9049SOL     OW28045   4.773   6.330   5.800
 9049SOL    HW128046   4.696   6.320   5.737
 9049SOL    HW228047   4.850   6.274   5.768
 9050SOL     OW28048   0.000   3.919   6.461
 9050SOL    HW128049   6.958   3.851   6.479
 9050SOL    HW228050   0.001   3.987   6.534
 9051SOL     OW28051   0.032   6.167   6.515
 9051SOL    HW128052   6.992   6.227   6.475
 9051SOL    HW228053   7.016   6.100   6.574
 9052SOL     OW28054   2.536   4.883   4.941
 9052SOL    HW128055   2.467   4.919   4.878
 9052SOL    HW228056   2.593   4.817   4.892
 9053SOL     OW28057   1.293   0.751   2.623
 9053SOL    HW128058   1.342   0.665   2.640
 9053SOL    HW228059   1.314   0.815   2.697
 9054SOL     OW28060   1.765   6.971   1.951
 9054SOL    HW128061   1.855   6.976   1.908
 9054SOL    HW228062   1.721   0.032   1.946
 9055SOL     OW28063   1.619   2.479   5.100
 9055SOL    HW128064   1.649   2.537   5.024
 9055SOL    HW228065   1.522   2.494   5.118
 9056SOL     OW28066   5.016   2.041   1.453
 9056SOL    HW128067   4.999   2.101   1.531
 9056SOL    HW228068   4.975   1.952   1.470
 9057SOL     OW28069   3.509   6.788   6.164
 9057SOL    HW128070   3.526   6.691   6.148
 9057SOL    HW228071   3.573   6.822   6.234
 9058SOL     OW28072   2.245   2.949   3.727
 9058SOL    HW128073   2.237   2.959   3.826
 9058SOL    HW228074   2.222   3.036   3.683
 9059SOL     OW28075   6.900   0.495   2.422
 9059SOL    HW128076   6.894   0.455   2.330
 9059SOL    HW228077   6.903   0.594   2.415
 9060SOL     OW28078   0.425   5.110   6.937
 9060SOL    HW128079   0.407   5.087   6.841
 9060SOL    HW228080   0.424   5.027   6.992
 9061SOL     OW28081   4.489   4.690   2.588
 9061SOL    HW128082   4.497   4.596   2.621
 9061SOL    HW228083   4.413   4.697   2.523
 9062SOL     OW28084   0.301   5.998   2.480
 9062SOL    HW128085   0.346   6.050   2.553
 9062SOL    HW228086   0.238   5.932   2.520
 9063SOL     OW28087   6.029   6.755   0.930
 9063SOL    HW128088   5.977   6.727   1.011
 9063SOL    HW228089   5.979   6.828   0.883
 9064SOL     OW28090   1.469   5.676   3.179
 9064SOL    HW128091   1.376   5.713   3.192
 9064SOL    HW228092   1.531   5.750   3.153
 9065SOL     OW28093   2.917   3.875   6.944
 9065SOL    HW128094   2.935   3.812   6.868
 9065SOL    HW228095   3.003   3.898   6.990
 9066SOL     OW28096   5.422   4.507   3.303
 9066SOL    HW128097   5.495   4.442   3.281
 9066SOL    HW228098   5.429   4.587   3.245
 9067SOL     OW28099   1.989   6.846   4.139
 9067SOL    HW128100   2.064   6.841   4.074
 9067SOL    HW228101   2.018   6.808   4.227
 9068SOL     OW28102   4.945   0.188   5.518
 9068SOL    HW128103   4.868   0.144   5.564
 9068SOL    HW228104   4.937   0.174   5.419
 9069SOL     OW28105   4.580   2.186   1.929
 9069SOL    HW128106   4.494   2.137   1.913
 9069SOL    HW228107   4.611   2.167   2.022
 9070SOL     OW28108   1.657   0.786   6.752
 9070SOL    HW128109   1.592   0.817   6.822
 9070SOL    HW228110   1.750   0.790   6.789
 9071SOL     OW28111   4.903   2.933   6.733
 9071SOL    HW128112   4.922   2.909   6.829
 9071SOL    HW228113   4.961   2.879   6.673
 9072SOL     OW28114   6.373   1.111   1.994
 9072SOL    HW128115   6.359   1.016   1.967
 9072SOL    HW228116   6.414   1.161   1.918
 9073SOL     OW28117   4.905   2.796   6.001
 9073SOL    HW128118   4.807   2.787   6.018
 9073SOL    HW228119   4.942   2.708   5.971
 9074SOL     OW28120   1.991   0.780   3.352
 9074SOL    HW128121   2.004   0.702   3.413
 9074SOL    HW228122   2.074   0.835   3.349
 9075SOL     OW28123   4.826   5.485   0.928
 9075SOL    HW128124   4.801   5.440   1.014
 9075SOL    HW228125   4.761   5.559   0.909
 9076SOL     OW28126   1.172   6.520   2.353
 9076SOL    HW128127   1.174   6.486   2.259
 9076SOL    HW228128   1.128   6.453   2.412
 9077SOL     OW28129   6.558   1.231   6.465
 9077SOL    HW128130   6.526   1.140   6.439
 9077SOL    HW228131   6.493   1.272   6.530
 9078SOL     OW28132   5.149   6.815   6.442
 9078SOL    HW128133   5.130   6.911   6.465
 9078SOL    HW228134   5.150   6.760   6.525
 9079SOL     OW28135   1.862   1.880   6.224
 9079SOL    HW128136   1.946   1.924   6.192
 9079SOL    HW228137   1.817   1.833   6.147
 9080SOL     OW28138   6.446   4.473   0.828
 9080SOL    HW128139   6.435   4.423   0.742
 9080SOL    HW228140   6.391   4.430   0.899
 9081SOL     OW28141   4.841   1.361   6.791
 9081SOL    HW128142   4.791   1.443   6.821
 9081SOL    HW228143   4.790   1.280   6.819
 9082SOL     OW28144   3.213   4.702   6.790
 9082SOL    HW128145   3.126   4.658   6.767
 9082SOL    HW228146   3.224   4.703   6.889
 9083SOL     OW28147   4.062   0.440   0.793
 9083SOL    HW128148   4.062   0.340   0.790
 9083SOL    HW228149   4.047   0.476   0.701
 9084SOL     OW28150   6.901   4.954   4.529
 9084SOL    HW128151   6.821   4.955   4.469
 9084SOL    HW228152   6.972   5.014   4.492
 9085SOL     OW28153   3.313   4.732   1.193
 9085SOL    HW128154   3.249   4.807   1.177
 9085SOL    HW228155   3.279   4.675   1.268
 9086SOL     OW28156   6.652   1.770   0.455
 9086SOL    HW128157   6.672   1.798   0.361
 9086SOL    HW228158   6.726   1.802   0.515
 9087SOL     OW28159   4.921   1.387   0.733
 9087SOL    HW128160   4.971   1.395   0.819
 9087SOL    HW228161   4.914   1.477   0.690
 9088SOL     OW28162   5.300   6.588   6.932
 9088SOL    HW128163   5.364   6.533   6.878
 9088SOL    HW228164   5.346   6.672   6.962
 9089SOL     OW28165   5.289   5.646   2.889
 9089SOL    HW128166   5.306   5.680   2.981
 9089SOL    HW228167   5.280   5.546   2.892
 9090SOL     OW28168   5.995   5.404   4.987
 9090SOL    HW128169   6.080   5.435   5.029
 9090SOL    HW228170   5.955   5.331   5.043
 9091SOL     OW28171   2.321   2.120   1.694
 9091SOL    HW128172   2.226   2.139   1.718
 9091SOL    HW228173   2.348   2.032   1.732
 9092SOL     OW28174   3.089   1.942   5.319
 9092SOL    HW128175   3.132   2.032   5.312
 9092SOL    HW228176   3.034   1.938   5.403
 9093SOL     OW28177   2.062   3.238   0.522
 9093SOL    HW128178   2.093   3.318   0.472
 9093SOL    HW228179   1.962   3.232   0.518
 9094SOL     OW28180   6.705   2.223   6.830
 9094SOL    HW128181   6.623   2.198   6.779
 9094SOL    HW228182   6.784   2.175   6.792
 9095SOL     OW28183   2.257   2.736   0.456
 9095SOL    HW128184   2.310   2.706   0.377
 9095SOL    HW228185   2.190   2.805   0.426
 9096SOL     OW28186   6.928   4.487   2.514
 9096SOL    HW128187   6.978   4.407   2.480
 9096SOL    HW228188   6.934   4.491   2.613
 9097SOL     OW28189   6.962   5.725   6.204
 9097SOL    HW128190   6.967   5.771   6.293
 9097SOL    HW228191   6.867   5.705   6.181
 9098SOL     OW28192   3.989   3.346   5.603
 9098SOL    HW128193   4.005   3.378   5.510
 9098SOL    HW228194   3.947   3.255   5.600
 9099SOL     OW28195   2.145   2.739   6.654
 9099SOL    HW128196   2.107   2.810   6.595
 9099SOL    HW228197   2.228   2.702   6.613
 9100SOL     OW28198   1.273   2.839   0.698
 9100SOL    HW128199   1.197   2.904   0.704
 9100SOL    HW228200   1.336   2.868   0.626
 9101SOL     OW28201   2.267   2.384   0.207
 9101SOL    HW128202   2.349   2.349   0.163
 9101SOL    HW228203   2.192   2.385   0.141
 9102SOL     OW28204   4.600   6.564   2.281
 9102SOL    HW128205   4.659   6.578   2.361
 9102SOL    HW228206   4.648   6.593   2.199
 9103SOL     OW28207   1.082   4.336   5.850
 9103SOL    HW128208   0.984   4.338   5.829
 9103SOL    HW228209   1.133   4.365   5.769
 9104SOL     OW28210   4.511   0.015   2.726
 9104SOL    HW128211   4.460   0.097   2.750
 9104SOL    HW228212   4.572   7.019   2.801
 9105SOL     OW28213   3.316   2.384   5.775
 9105SOL    HW128214   3.315   2.383   5.875
 9105SOL    HW228215   3.308   2.478   5.743
 9106SOL     OW28216   6.164   5.389   1.642
 9106SOL    HW128217   6.152   5.290   1.646
 9106SOL    HW228218   6.231   5.417   1.710
 9107SOL     OW28219   5.263   6.048   6.476
 9107SOL    HW128220   5.245   5.957   6.513
 9107SOL    HW228221   5.209   6.116   6.526
 9108SOL     OW28222   3.587   5.542   0.631
 9108SOL    HW128223   3.665   5.594   0.596
 9108SOL    HW228224   3.520   5.528   0.558
 9109SOL     OW28225   3.477   1.867   3.951
 9109SOL    HW128226   3.414   1.867   4.029
 9109SOL    HW228227   3.497   1.961   3.924
 9110SOL     OW28228   0.941   3.497   3.851
 9110SOL    HW128229   0.850   3.470   3.881
 9110SOL    HW228230   0.934   3.575   3.788
 9111SOL     OW28231   3.721   4.061   1.480
 9111SOL    HW128232   3.650   3.999   1.446
 9111SOL    HW228233   3.744   4.036   1.574
 9112SOL     OW28234   1.020   6.342   2.494
 9112SOL    HW128235   1.112   6.314   2.522
 9112SOL    HW228236   0.957   6.265   2.505
 9113SOL     OW28237   2.694   5.779   0.215
 9113SOL    HW128238   2.745   5.752   0.297
 9113SOL    HW228239   2.694   5.879   0.207
 9114SOL     OW28240   2.368   3.650   1.639
 9114SOL    HW128241   2.411   3.740   1.645
 9114SOL    HW228242   2.404   3.591   1.711
 9115SOL     OW28243   1.510   3.831   4.545
 9115SOL    HW128244   1.525   3.892   4.467
 9115SOL    HW228245   1.479   3.884   4.623
 9116SOL     OW28246   2.651   2.284   6.221
 9116SOL    HW128247   2.748   2.285   6.246
 9116SOL    HW228248   2.642   2.264   6.124
 9117SOL     OW28249   0.961   2.664   0.148
 9117SOL    HW128250   0.999   2.582   0.191
 9117SOL    HW228251   1.034   2.717   0.107
 9118SOL     OW28252   0.285   6.638   1.897
 9118SOL    HW128253   0.333   6.582   1.965
 9118SOL    HW228254   0.286   6.592   1.809
 9119SOL     OW28255   6.246   6.855   1.253
 9119SOL    HW128256   6.230   6.756   1.265
 9119SOL    HW228257   6.170   6.894   1.201
 9120SOL     OW28258   6.172   0.419   0.089
 9120SOL    HW128259   6.166   0.516   0.111
 9120SOL    HW228260   6.196   0.367   0.171
 9121SOL     OW28261   1.426   1.430   6.450
 9121SOL    HW128262   1.449   1.527   6.448
 9121SOL    HW228263   1.340   1.417   6.500
 9122SOL     OW28264   0.683   2.964   1.315
 9122SOL    HW128265   0.705   3.060   1.334
 9122SOL    HW228266   0.681   2.950   1.216
 9123SOL     OW28267   1.456   6.637   6.413
 9123SOL    HW128268   1.392   6.564   6.438
 9123SOL    HW228269   1.468   6.638   6.314
 9124SOL     OW28270   0.287   4.227   5.063
 9124SOL    HW128271   0.298   4.175   4.978
 9124SOL    HW228272   0.377   4.246   5.102
 9125SOL     OW28273   4.780   6.198   1.003
 9125SOL    HW128274   4.773   6.295   1.026
 9125SOL    HW228275   4.688   6.160   0.988
 9126SOL     OW28276   5.487   0.427   3.322
 9126SOL    HW128277   5.446   0.346   3.365
 9126SOL    HW228278   5.562   0.398   3.263
 9127SOL     OW28279   6.135   5.568   5.816
 9127SOL    HW128280   6.189   5.630   5.873
 9127SOL    HW228281   6.091   5.500   5.874
 9128SOL     OW28282   4.828   2.850   5.382
 9128SOL    HW128283   4.779   2.874   5.298
 9128SOL    HW228284   4.808   2.918   5.453
 9129SOL     OW28285   3.044   1.228   0.368
 9129SOL    HW128286   3.112   1.226   0.441
 9129SOL    HW228287   3.085   1.264   0.285
 9130SOL     OW28288   5.682   5.590   0.736
 9130SOL    HW128289   5.690   5.660   0.807
 9130SOL    HW228290   5.760   5.595   0.674
 9131SOL     OW28291   1.456   4.784   4.009
 9131SOL    HW128292   1.410   4.704   3.971
 9131SOL    HW228293   1.449   4.783   4.108
 9132SOL     OW28294   1.376   2.831   4.176
 9132SOL    HW128295   1.460   2.791   4.213
 9132SOL    HW228296   1.397   2.879   4.091
 9133SOL     OW28297   1.588   5.095   0.932
 9133SOL    HW128298   1.639   5.180   0.949
 9133SOL    HW228299   1.647   5.017   0.952
 9134SOL     OW28300   3.007   5.008   6.253
 9134SOL    HW128301   3.091   5.042   6.296
 9134SOL    HW228302   3.003   4.908   6.262
 9135SOL     OW28303   1.334   6.341   3.812
 9135SOL    HW128304   1.260   6.323   3.877
 9135SOL    HW228305   1.318   6.429   3.767
 9136SOL     OW28306   3.342   5.265   5.220
 9136SOL    HW128307   3.277   5.199   5.257
 9136SOL    HW228308   3.311   5.358   5.242
 9137SOL     OW28309   4.198   0.593   2.339
 9137SOL    HW128310   4.156   0.508   2.307
 9137SOL    HW228311   4.127   0.653   2.376
 9138SOL     OW28312   3.238   4.701   0.909
 9138SOL    HW128313   3.297   4.720   0.988
 9138SOL    HW228314   3.154   4.657   0.941
 9139SOL     OW28315   3.482   0.754   5.726
 9139SOL    HW128316   3.432   0.797   5.652
 9139SOL    HW228317   3.422   0.688   5.772
 9140SOL     OW28318   6.355   2.970   3.188
 9140SOL    HW128319   6.452   2.990   3.181
 9140SOL    HW228320   6.313   2.975   3.097
 9141SOL     OW28321   5.444   0.682   5.818
 9141SOL    HW128322   5.391   0.597   5.808
 9141SOL    HW228323   5.383   0.756   5.844
 9142SOL     OW28324   1.445   3.909   6.580
 9142SOL    HW128325   1.451   3.975   6.655
 9142SOL    HW228326   1.379   3.838   6.603
 9143SOL     OW28327   6.099   4.386   0.135
 9143SOL    HW128328   6.068   4.465   0.189
 9143SOL    HW228329   6.199   4.387   0.129
 9144SOL     OW28330   0.988   5.604   4.672
 9144SOL    HW128331   1.000   5.603   4.572
 9144SOL    HW228332   0.969   5.512   4.704
 9145SOL     OW28333   1.068   3.649   6.516
 9145SOL    HW128334   1.092   3.615   6.425
 9145SOL    HW228335   1.011   3.732   6.507
 9146SOL     OW28336   0.748   1.336   0.804
 9146SOL    HW128337   0.796   1.373   0.725
 9146SOL    HW228338   0.667   1.392   0.824
 9147SOL     OW28339   4.358   5.424   6.507
 9147SOL    HW128340   4.408   5.509   6.523
 9147SOL    HW228341   4.349   5.374   6.594
 9148SOL     OW28342   3.337   4.997   2.949
 9148SOL    HW128343   3.390   4.989   2.865
 9148SOL    HW228344   3.240   5.011   2.927
 9149SOL     OW28345   6.681   3.350   5.174
 9149SOL    HW128346   6.703   3.363   5.078
 9149SOL    HW228347   6.731   3.271   5.209
 9150SOL     OW28348   4.122   1.180   2.826
 9150SOL    HW128349   4.181   1.212   2.752
 9150SOL    HW228350   4.128   1.243   2.903
 9151SOL     OW28351   6.731   3.223   2.087
 9151SOL    HW128352   6.737   3.316   2.051
 9151SOL    HW228353   6.722   3.226   2.186
 9152SOL     OW28354   2.453   4.917   3.165
 9152SOL    HW128355   2.492   4.828   3.140
 9152SOL    HW228356   2.518   4.990   3.142
 9153SOL     OW28357   2.196   2.868   6.910
 9153SOL    HW128358   2.181   2.822   6.822
 9153SOL    HW228359   2.160   2.811   6.984
 9154SOL     OW28360   0.792   5.520   0.737
 9154SOL    HW128361   0.830   5.428   0.729
 9154SOL    HW228362   0.834   5.580   0.668
 9155SOL     OW28363   1.443   4.712   0.289
 9155SOL    HW128364   1.530   4.751   0.319
 9155SOL    HW228365   1.384   4.697   0.368
 9156SOL     OW28366   4.712   2.595   1.659
 9156SOL    HW128367   4.685   2.646   1.741
 9156SOL    HW228368   4.661   2.628   1.580
 9157SOL     OW28369   5.688   3.587   5.550
 9157SOL    HW128370   5.619   3.554   5.486
 9157SOL    HW228371   5.648   3.591   5.642
 9158SOL     OW28372   1.223   4.212   4.057
 9158SOL    HW128373   1.194   4.124   4.095
 9158SOL    HW228374   1.298   4.248   4.112
 9159SOL     OW28375   6.954   4.732   1.858
 9159SOL    HW128376   6.894   4.755   1.781
 9159SOL    HW228377   0.014   4.701   1.823
 9160SOL     OW28378   0.487   0.049   1.406
 9160SOL    HW128379   0.556   7.019   1.363
 9160SOL    HW228380   0.532   0.108   1.473
 9161SOL     OW28381   4.987   4.450   2.370
 9161SOL    HW128382   4.990   4.398   2.285
 9161SOL    HW228383   5.068   4.429   2.425
 9162SOL     OW28384   5.049   2.802   3.247
 9162SOL    HW128385   4.952   2.825   3.258
 9162SOL    HW228386   5.071   2.793   3.149
 9163SOL     OW28387   3.720   0.814   5.004
 9163SOL    HW128388   3.686   0.905   5.029
 9163SOL    HW228389   3.708   0.799   4.906
 9164SOL     OW28390   2.784   0.446   0.905
 9164SOL    HW128391   2.805   0.357   0.865
 9164SOL    HW228392   2.862   0.477   0.959
 9165SOL     OW28393   4.798   6.160   0.534
 9165SOL    HW128394   4.850   6.111   0.465
 9165SOL    HW228395   4.758   6.094   0.598
 9166SOL     OW28396   3.114   5.508   1.199
 9166SOL    HW128397   3.084   5.475   1.109
 9166SOL    HW228398   3.034   5.526   1.256
 9167SOL     OW28399   0.602   3.623   4.499
 9167SOL    HW128400   0.533   3.685   4.534
 9167SOL    HW228401   0.608   3.633   4.399
 9168SOL     OW28402   3.518   0.452   0.449
 9168SOL    HW128403   3.492   0.469   0.544
 9168SOL    HW228404   3.597   0.391   0.447
 9169SOL     OW28405   0.377   6.768   3.675
 9169SOL    HW128406   0.465   6.817   3.680
 9169SOL    HW228407   0.304   6.829   3.706
 9170SOL     OW28408   6.564   6.148   0.217
 9170SOL    HW128409   6.627   6.171   0.290
 9170SOL    HW228410   6.523   6.058   0.235
 9171SOL     OW28411   3.512   5.548   5.540
 9171SOL    HW128412   3.546   5.549   5.446
 9171SOL    HW228413   3.584   5.515   5.601
 9172SOL     OW28414   2.561   2.533   4.173
 9172SOL    HW128415   2.645   2.479   4.179
 9172SOL    HW228416   2.530   2.556   4.265
 9173SOL     OW28417   0.005   5.450   5.389
 9173SOL    HW128418   6.994   5.405   5.309
 9173SOL    HW228419   6.965   5.454   5.461
 9174SOL     OW28420   0.202   5.725   6.358
 9174SOL    HW128421   0.146   5.646   6.334
 9174SOL    HW228422   0.186   5.749   6.454
 9175SOL     OW28423   2.405   6.111   5.662
 9175SOL    HW128424   2.352   6.095   5.578
 9175SOL    HW228425   2.381   6.042   5.730
 9176SOL     OW28426   1.521   2.171   5.609
 9176SOL    HW128427   1.594   2.207   5.666
 9176SOL    HW228428   1.540   2.191   5.513
 9177SOL     OW28429   1.195   4.447   3.044
 9177SOL    HW128430   1.175   4.522   3.107
 9177SOL    HW228431   1.153   4.465   2.955
 9178SOL     OW28432   1.915   4.017   0.595
 9178SOL    HW128433   1.942   3.931   0.638
 9178SOL    HW228434   1.816   4.020   0.585
 9179SOL     OW28435   2.799   5.079   5.255
 9179SOL    HW128436   2.707   5.117   5.247
 9179SOL    HW228437   2.797   4.981   5.235
 9180SOL     OW28438   5.227   1.934   2.606
 9180SOL    HW128439   5.182   1.938   2.516
 9180SOL    HW228440   5.160   1.949   2.678
 9181SOL     OW28441   4.125   1.117   2.431
 9181SOL    HW128442   4.178   1.059   2.370
 9181SOL    HW228443   4.052   1.162   2.380
 9182SOL     OW28444   2.251   6.740   1.989
 9182SOL    HW128445   2.272   6.689   2.072
 9182SOL    HW228446   2.333   6.786   1.956
 9183SOL     OW28447   5.486   5.127   6.084
 9183SOL    HW128448   5.561   5.098   6.145
 9183SOL    HW228449   5.473   5.225   6.093
 9184SOL     OW28450   4.865   6.719   0.136
 9184SOL    HW128451   4.908   6.632   0.158
 9184SOL    HW228452   4.822   6.713   0.046
 9185SOL     OW28453   5.059   1.718   4.708
 9185SOL    HW128454   5.106   1.792   4.660
 9185SOL    HW228455   4.968   1.749   4.737
 9186SOL     OW28456   5.476   0.617   6.206
 9186SOL    HW128457   5.451   0.549   6.137
 9186SOL    HW228458   5.403   0.684   6.215
 9187SOL     OW28459   2.368   6.291   2.968
 9187SOL    HW128460   2.406   6.342   2.891
 9187SOL    HW228461   2.316   6.213   2.933
 9188SOL     OW28462   2.551   5.478   0.935
 9188SOL    HW128463   2.491   5.411   0.978
 9188SOL    HW228464   2.513   5.570   0.947
 9189SOL     OW28465   5.209   5.158   1.922
 9189SOL    HW128466   5.213   5.082   1.987
 9189SOL    HW228467   5.119   5.202   1.929
 9190SOL     OW28468   1.235   5.836   7.013
 9190SOL    HW128469   1.209   5.833   6.917
 9190SOL    HW228470   1.230   5.744   0.023
 9191SOL     OW28471   0.160   0.956   5.575
 9191SOL    HW128472   0.130   1.016   5.648
 9191SOL    HW228473   0.157   1.005   5.488
 9192SOL     OW28474   1.086   3.745   5.230
 9192SOL    HW128475   0.988   3.728   5.226
 9192SOL    HW228476   1.108   3.791   5.316
 9193SOL     OW28477   2.926   3.848   0.661
 9193SOL    HW128478   2.847   3.866   0.602
 9193SOL    HW228479   2.964   3.758   0.639
 9194SOL     OW28480   3.078   0.989   4.047
 9194SOL    HW128481   3.143   0.913   4.048
 9194SOL    HW228482   3.128   1.076   4.054
 9195SOL     OW28483   1.589   1.093   4.060
 9195SOL    HW128484   1.674   1.146   4.065
 9195SOL    HW228485   1.511   1.155   4.053
 9196SOL     OW28486   5.320   1.229   5.793
 9196SOL    HW128487   5.369   1.312   5.821
 9196SOL    HW228488   5.341   1.209   5.697
 9197SOL     OW28489   2.130   3.481   0.420
 9197SOL    HW128490   2.090   3.562   0.464
 9197SOL    HW228491   2.202   3.510   0.357
 9198SOL     OW28492   0.942   4.693   4.658
 9198SOL    HW128493   0.855   4.742   4.655
 9198SOL    HW228494   0.964   4.670   4.753
 9199SOL     OW28495   5.928   4.556   4.955
 9199SOL    HW128496   5.865   4.601   4.892
 9199SOL    HW228497   5.964   4.473   4.913
 9200SOL     OW28498   2.799   6.725   0.362
 9200SOL    HW128499   2.728   6.654   0.366
 9200SOL    HW228500   2.871   6.697   0.298
 9201SOL     OW28501   2.054   4.304   0.689
 9201SOL    HW128502   1.990   4.232   0.662
 9201SOL    HW228503   2.003   4.385   0.717
 9202SOL     OW28504   2.381   0.777   3.642
 9202SOL    HW128505   2.473   0.738   3.650
 9202SOL    HW228506   2.330   0.730   3.570
 9203SOL     OW28507   6.688   6.744   0.748
 9203SOL    HW128508   6.777   6.703   0.733
 9203SOL    HW228509   6.633   6.739   0.665
 9204SOL     OW28510   6.030   0.723   5.217
 9204SOL    HW128511   5.981   0.689   5.298
 9204SOL    HW228512   5.994   0.812   5.192
 9205SOL     OW28513   6.860   5.477   2.051
 9205SOL    HW128514   6.794   5.454   2.122
 9205SOL    HW228515   6.840   5.424   1.968
 9206SOL     OW28516   3.937   6.947   7.003
 9206SOL    HW128517   3.945   6.867   0.034
 9206SOL    HW228518   3.927   0.000   0.030
 9207SOL     OW28519   5.916   5.714   6.025
 9207SOL    HW128520   5.988   5.770   5.984
 9207SOL    HW228521   5.908   5.628   5.974
 9208SOL     OW28522   1.223   3.831   2.549
 9208SOL    HW128523   1.307   3.864   2.593
 9208SOL    HW228524   1.153   3.817   2.619
 9209SOL     OW28525   2.144   6.414   6.709
 9209SOL    HW128526   2.208   6.338   6.698
 9209SOL    HW228527   2.169   6.488   6.646
 9210SOL     OW28528   6.335   0.585   4.093
 9210SOL    HW128529   6.359   0.649   4.166
 9210SOL    HW228530   6.393   0.504   4.099
 9211SOL     OW28531   0.350   1.478   2.850
 9211SOL    HW128532   0.292   1.397   2.866
 9211SOL    HW228533   0.395   1.503   2.936
 9212SOL     OW28534   3.612   5.212   4.299
 9212SOL    HW128535   3.584   5.146   4.229
 9212SOL    HW228536   3.530   5.256   4.337
 9213SOL     OW28537   5.988   3.816   6.818
 9213SOL    HW128538   6.022   3.897   6.865
 9213SOL    HW228539   5.943   3.755   6.883
 9214SOL     OW28540   0.328   5.340   0.361
 9214SOL    HW128541   0.361   5.271   0.425
 9214SOL    HW228542   0.348   5.311   0.267
 9215SOL     OW28543   1.430   1.347   0.845
 9215SOL    HW128544   1.471   1.427   0.802
 9215SOL    HW228545   1.331   1.359   0.851
 9216SOL     OW28546   1.990   0.313   3.692
 9216SOL    HW128547   1.953   0.347   3.605
 9216SOL    HW228548   2.054   0.238   3.674
 9217SOL     OW28549   0.500   2.269   0.683
 9217SOL    HW128550   0.517   2.205   0.758
 9217SOL    HW228551   0.478   2.359   0.721
 9218SOL     OW28552   2.337   0.784   0.728
 9218SOL    HW128553   2.284   0.762   0.809
 9218SOL    HW228554   2.301   0.868   0.686
 9219SOL     OW28555   5.963   1.937   0.455
 9219SOL    HW128556   5.937   1.843   0.433
 9219SOL    HW228557   6.037   1.936   0.522
 9220SOL     OW28558   3.137   6.427   0.514
 9220SOL    HW128559   3.218   6.371   0.495
 9220SOL    HW228560   3.161   6.497   0.582
 9221SOL     OW28561   2.665   4.682   4.801
 9221SOL    HW128562   2.748   4.672   4.856
 9221SOL    HW228563   2.617   4.594   4.796
 9222SOL     OW28564   3.064   2.220   6.771
 9222SOL    HW128565   3.018   2.204   6.684
 9222SOL    HW228566   3.159   2.246   6.754
 9223SOL     OW28567   2.871   3.272   5.111
 9223SOL    HW128568   2.779   3.241   5.089
 9223SOL    HW228569   2.883   3.367   5.082
 9224SOL     OW28570   2.209   4.741   5.057
 9224SOL    HW128571   2.160   4.675   5.114
 9224SOL    HW228572   2.203   4.832   5.098
 9225SOL     OW28573   1.684   6.141   6.957
 9225SOL    HW128574   1.747   6.083   6.906
 9225SOL    HW228575   1.605   6.086   6.987
 9226SOL     OW28576   4.476   6.378   0.978
 9226SOL    HW128577   4.407   6.374   0.905
 9226SOL    HW228578   4.475   6.293   1.030
 9227SOL     OW28579   1.094   6.461   1.686
 9227SOL    HW128580   1.051   6.383   1.732
 9227SOL    HW228581   1.081   6.543   1.741
 9228SOL     OW28582   0.679   6.565   6.613
 9228SOL    HW128583   0.580   6.567   6.598
 9228SOL    HW228584   0.703   6.487   6.672
 9229SOL     OW28585   0.997   6.062   5.410
 9229SOL    HW128586   0.900   6.043   5.394
 9229SOL    HW228587   1.036   5.991   5.469
 9230SOL     OW28588   4.721   1.942   3.400
 9230SOL    HW128589   4.768   1.959   3.313
 9230SOL    HW228590   4.622   1.951   3.387
 9231SOL     OW28591   2.133   3.493   3.464
 9231SOL    HW128592   2.163   3.587   3.446
 9231SOL    HW228593   2.169   3.432   3.394
 9232SOL     OW28594   4.430   5.120   1.420
 9232SOL    HW128595   4.512   5.126   1.363
 9232SOL    HW228596   4.450   5.158   1.511
 9233SOL     OW28597   5.715   4.872   6.982
 9233SOL    HW128598   5.717   4.914   6.891
 9233SOL    HW228599   5.636   4.907   0.004
 9234SOL     OW28600   1.510   6.270   4.040
 9234SOL    HW128601   1.469   6.297   3.953
 9234SOL    HW228602   1.508   6.170   4.049
 9235SOL     OW28603   0.897   2.409   3.342
 9235SOL    HW128604   0.873   2.505   3.355
 9235SOL    HW228605   0.987   2.392   3.381
 9236SOL     OW28606   3.310   2.661   6.097
 9236SOL    HW128607   3.238   2.600   6.127
 9236SOL    HW228608   3.270   2.741   6.052
 9237SOL     OW28609   1.445   3.696   3.202
 9237SOL    HW128610   1.394   3.728   3.282
 9237SOL    HW228611   1.539   3.677   3.228
 9238SOL     OW28612   4.513   3.323   6.704
 9238SOL    HW128613   4.512   3.330   6.804
 9238SOL    HW228614   4.472   3.237   6.675
 9239SOL     OW28615   2.235   3.111   6.287
 9239SOL    HW128616   2.314   3.050   6.291
 9239SOL    HW228617   2.259   3.193   6.235
 9240SOL     OW28618   5.066   0.958   2.699
 9240SOL    HW128619   5.049   0.863   2.725
 9240SOL    HW228620   4.991   0.991   2.641
 9241SOL     OW28621   0.576   5.639   6.054
 9241SOL    HW128622   0.506   5.697   6.095
 9241SOL    HW228623   0.547   5.611   5.962
 9242SOL     OW28624   5.357   6.291   1.950
 9242SOL    HW128625   5.378   6.248   1.862
 9242SOL    HW228626   5.443   6.312   1.998
 9243SOL     OW28627   5.802   0.062   4.300
 9243SOL    HW128628   5.713   0.100   4.326
 9243SOL    HW228629   5.869   0.135   4.289
 9244SOL     OW28630   3.599   6.193   0.373
 9244SOL    HW128631   3.613   6.118   0.438
 9244SOL    HW228632   3.687   6.234   0.351
 9245SOL     OW28633   0.283   6.927   1.847
 9245SOL    HW128634   0.212   6.921   1.776
 9245SOL    HW228635   0.318   6.835   1.865
 9246SOL     OW28636   7.002   5.124   3.960
 9246SOL    HW128637   7.027   5.179   3.879
 9246SOL    HW228638   7.003   5.183   4.041
 9247SOL     OW28639   1.281   0.345   3.251
 9247SOL    HW128640   1.233   0.392   3.176
 9247SOL    HW228641   1.232   0.362   3.336
 9248SOL     OW28642   3.982   1.614   6.162
 9248SOL    HW128643   4.075   1.591   6.133
 9248SOL    HW228644   3.940   1.675   6.095
 9249SOL     OW28645   3.948   6.410   3.761
 9249SOL    HW128646   3.966   6.479   3.831
 9249SOL    HW228647   3.851   6.410   3.739
 9250SOL     OW28648   5.189   4.051   2.999
 9250SOL    HW128649   5.281   4.061   2.962
 9250SOL    HW228650   5.123   4.094   2.937
 9251SOL     OW28651   3.797   1.502   2.388
 9251SOL    HW128652   3.751   1.590   2.400
 9251SOL    HW228653   3.785   1.471   2.294
 9252SOL     OW28654   1.595   6.935   4.244
 9252SOL    HW128655   1.576   6.999   4.319
 9252SOL    HW228656   1.536   6.855   4.254
 9253SOL     OW28657   1.297   6.842   6.473
 9253SOL    HW128658   1.362   6.917   6.481
 9253SOL    HW228659   1.346   6.755   6.463
 9254SOL     OW28660   5.151   2.451   1.055
 9254SOL    HW128661   5.213   2.484   0.984
 9254SOL    HW228662   5.204   2.425   1.136
 9255SOL     OW28663   0.025   5.419   0.613
 9255SOL    HW128664   0.060   5.511   0.595
 9255SOL    HW228665   0.096   5.365   0.660
 9256SOL     OW28666   3.994   5.226   2.770
 9256SOL    HW128667   3.909   5.204   2.721
 9256SOL    HW228668   4.002   5.325   2.781
 9257SOL     OW28669   0.536   3.511   0.994
 9257SOL    HW128670   0.468   3.451   0.950
 9257SOL    HW228671   0.536   3.600   0.949
 9258SOL     OW28672   3.276   3.089   4.448
 9258SOL    HW128673   3.193   3.087   4.505
 9258SOL    HW228674   3.265   3.026   4.372
 9259SOL     OW28675   1.606   2.533   0.267
 9259SOL    HW128676   1.620   2.439   0.300
 9259SOL    HW228677   1.511   2.559   0.280
 9260SOL     OW28678   6.918   3.672   0.138
 9260SOL    HW128679   6.945   3.762   0.105
 9260SOL    HW228680   6.934   3.667   0.237
 9261SOL     OW28681   2.983   6.773   5.646
 9261SOL    HW128682   2.947   6.715   5.718
 9261SOL    HW228683   3.082   6.757   5.636
 9262SOL     OW28684   6.019   0.201   6.050
 9262SOL    HW128685   5.964   0.196   6.134
 9262SOL    HW228686   6.113   0.228   6.073
 9263SOL     OW28687   5.830   4.216   2.251
 9263SOL    HW128688   5.787   4.285   2.194
 9263SOL    HW228689   5.769   4.191   2.326
 9264SOL     OW28690   5.790   2.843   0.244
 9264SOL    HW128691   5.734   2.862   0.163
 9264SOL    HW228692   5.742   2.874   0.326
 9265SOL     OW28693   1.632   2.289   5.298
 9265SOL    HW128694   1.615   2.353   5.223
 9265SOL    HW228695   1.626   2.195   5.265
 9266SOL     OW28696   2.772   6.224   2.480
 9266SOL    HW128697   2.698   6.160   2.500
 9266SOL    HW228698   2.860   6.176   2.487
 9267SOL     OW28699   2.814   4.929   5.885
 9267SOL    HW128700   2.821   4.833   5.915
 9267SOL    HW228701   2.895   4.979   5.914
 9268SOL     OW28702   1.473   1.185   3.120
 9268SOL    HW128703   1.506   1.142   3.036
 9268SOL    HW228704   1.404   1.253   3.097
 9269SOL     OW28705   4.145   1.232   5.301
 9269SOL    HW128706   4.227   1.202   5.252
 9269SOL    HW228707   4.168   1.252   5.396
 9270SOL     OW28708   1.434   0.606   5.620
 9270SOL    HW128709   1.508   0.586   5.685
 9270SOL    HW228710   1.396   0.520   5.586
 9271SOL     OW28711   0.551   5.091   5.961
 9271SOL    HW128712   0.610   5.016   5.993
 9271SOL    HW228713   0.581   5.176   6.004
 9272SOL     OW28714   2.504   5.463   6.713
 9272SOL    HW128715   2.451   5.496   6.791
 9272SOL    HW228716   2.442   5.429   6.643
 9273SOL     OW28717   4.067   5.905   5.916
 9273SOL    HW128718   3.973   5.883   5.943
 9273SOL    HW228719   4.066   5.973   5.843
 9274SOL     OW28720   5.256   2.246   2.200
 9274SOL    HW128721   5.321   2.172   2.185
 9274SOL    HW228722   5.181   2.214   2.258
 9275SOL     OW28723   0.352   0.183   5.867
 9275SOL    HW128724   0.311   0.099   5.904
 9275SOL    HW228725   0.280   0.250   5.849
 9276SOL     OW28726   4.244   6.571   4.152
 9276SOL    HW128727   4.289   6.486   4.177
 9276SOL    HW228728   4.213   6.618   4.234
 9277SOL     OW28729   4.910   2.580   0.220
 9277SOL    HW128730   4.889   2.484   0.240
 9277SOL    HW228731   4.824   2.631   0.209
 9278SOL     OW28732   1.268   2.357   1.308
 9278SOL    HW128733   1.366   2.357   1.288
 9278SOL    HW228734   1.253   2.358   1.407
 9279SOL     OW28735   2.345   6.300   0.422
 9279SOL    HW128736   2.336   6.346   0.334
 9279SOL    HW228737   2.440   6.270   0.434
 9280SOL     OW28738   1.315   0.432   2.835
 9280SOL    HW128739   1.327   0.334   2.850
 9280SOL    HW228740   1.349   0.456   2.744
 9281SOL     OW28741   2.083   2.470   0.372
 9281SOL    HW128742   2.160   2.433   0.320
 9281SOL    HW228743   2.110   2.479   0.468
 9282SOL     OW28744   4.077   1.310   6.698
 9282SOL    HW128745   3.998   1.348   6.746
 9282SOL    HW228746   4.051   1.225   6.653
 9283SOL     OW28747   5.245   2.566   2.880
 9283SOL    HW128748   5.320   2.548   2.818
 9283SOL    HW228749   5.231   2.486   2.939
 9284SOL     OW28750   3.723   3.806   1.865
 9284SOL    HW128751   3.760   3.751   1.791
 9284SOL    HW228752   3.632   3.772   1.890
 9285SOL     OW28753   6.679   2.995   6.395
 9285SOL    HW128754   6.774   3.025   6.390
 9285SOL    HW228755   6.648   2.997   6.490
 9286SOL     OW28756   5.798   5.335   4.450
 9286SOL    HW128757   5.856   5.409   4.482
 9286SOL    HW228758   5.809   5.256   4.510
 9287SOL     OW28759   2.788   6.948   2.521
 9287SOL    HW128760   2.724   6.872   2.511
 9287SOL    HW228761   2.780   6.987   2.612
 9288SOL     OW28762   4.689   2.219   6.292
 9288SOL    HW128763   4.725   2.283   6.360
 9288SOL    HW228764   4.765   2.175   6.244
 9289SOL     OW28765   5.577   4.312   2.598
 9289SOL    HW128766   5.659   4.365   2.575
 9289SOL    HW228767   5.596   4.252   2.676
 9290SOL     OW28768   4.658   2.121   3.905
 9290SOL    HW128769   4.598   2.130   3.825
 9290SOL    HW228770   4.685   2.025   3.916
 9291SOL     OW28771   0.839   2.151   5.070
 9291SOL    HW128772   0.795   2.107   5.149
 9291SOL    HW228773   0.823   2.250   5.075
 9292SOL     OW28774   0.364   3.986   0.238
 9292SOL    HW128775   0.372   4.006   0.336
 9292SOL    HW228776   0.427   3.912   0.214
 9293SOL     OW28777   6.472   3.740   5.773
 9293SOL    HW128778   6.381   3.704   5.757
 9293SOL    HW228779   6.532   3.668   5.807
 9294SOL     OW28780   5.408   5.815   6.210
 9294SOL    HW128781   5.490   5.783   6.162
 9294SOL    HW228782   5.412   5.785   6.305
 9295SOL     OW28783   4.755   2.829   3.269
 9295SOL    HW128784   4.725   2.828   3.174
 9295SOL    HW228785   4.736   2.741   3.312
 9296SOL     OW28786   6.724   0.174   5.065
 9296SOL    HW128787   6.790   0.177   5.140
 9296SOL    HW228788   6.766   0.212   4.982
 9297SOL     OW28789   0.881   0.497   1.775
 9297SOL    HW128790   0.919   0.504   1.868
 9297SOL    HW228791   0.783   0.482   1.780
 9298SOL     OW28792   0.888   6.903   5.012
 9298SOL    HW128793   0.831   6.853   4.947
 9298SOL    HW228794   0.931   6.980   4.965
 9299SOL     OW28795   1.957   3.020   4.252
 9299SOL    HW128796   1.969   2.981   4.161
 9299SOL    HW228797   2.046   3.028   4.297
 9300SOL     OW28798   5.652   4.806   3.305
 9300SOL    HW128799   5.598   4.784   3.224
 9300SOL    HW228800   5.747   4.776   3.290
 9301SOL     OW28801   6.406   4.701   1.194
 9301SOL    HW128802   6.459   4.653   1.264
 9301SOL    HW228803   6.317   4.727   1.231
 9302SOL     OW28804   1.578   2.147   2.335
 9302SOL    HW128805   1.513   2.106   2.272
 9302SOL    HW228806   1.542   2.235   2.367
 9303SOL     OW28807   4.767   3.998   0.454
 9303SOL    HW128808   4.744   4.045   0.368
 9303SOL    HW228809   4.687   3.946   0.486
 9304SOL     OW28810   4.463   3.738   0.799
 9304SOL    HW128811   4.377   3.690   0.819
 9304SOL    HW228812   4.500   3.777   0.883
 9305SOL     OW28813   4.871   3.694   2.134
 9305SOL    HW128814   4.774   3.677   2.115
 9305SOL    HW228815   4.912   3.744   2.058
 9306SOL     OW28816   6.966   5.823   4.153
 9306SOL    HW128817   6.908   5.745   4.177
 9306SOL    HW228818   6.955   5.843   4.056
 9307SOL     OW28819   2.214   1.085   5.669
 9307SOL    HW128820   2.129   1.048   5.707
 9307SOL    HW228821   2.267   1.012   5.627
 9308SOL     OW28822   6.871   2.534   0.390
 9308SOL    HW128823   6.940   2.464   0.370
 9308SOL    HW228824   6.795   2.523   0.326
 9309SOL     OW28825   5.230   2.752   6.366
 9309SOL    HW128826   5.214   2.751   6.267
 9309SOL    HW228827   5.201   2.841   6.403
 9310SOL     OW28828   3.826   0.007   1.568
 9310SOL    HW128829   3.808   6.972   1.493
 9310SOL    HW228830   3.915   0.051   1.554
 9311SOL     OW28831   0.063   3.774   1.738
 9311SOL    HW128832   0.029   3.774   1.644
 9311SOL    HW228833   0.141   3.836   1.746
 9312SOL     OW28834   1.873   3.872   4.846
 9312SOL    HW128835   1.877   3.849   4.749
 9312SOL    HW228836   1.797   3.935   4.862
 9313SOL     OW28837   6.428   6.706   2.223
 9313SOL    HW128838   6.358   6.755   2.170
 9313SOL    HW228839   6.394   6.616   2.248
 9314SOL     OW28840   6.766   4.342   0.438
 9314SOL    HW128841   6.845   4.360   0.380
 9314SOL    HW228842   6.738   4.247   0.427
 9315SOL     OW28843   0.343   6.400   6.273
 9315SOL    HW128844   0.432   6.377   6.311
 9315SOL    HW228845   0.272   6.385   6.342
 9316SOL     OW28846   3.374   5.330   4.399
 9316SOL    HW128847   3.405   5.420   4.429
 9316SOL    HW228848   3.315   5.290   4.470
 9317SOL     OW28849   4.311   4.165   5.523
 9317SOL    HW128850   4.317   4.066   5.536
 9317SOL    HW228851   4.297   4.209   5.612
 9318SOL     OW28852   6.839   6.672   5.975
 9318SOL    HW128853   6.754   6.650   6.023
 9318SOL    HW228854   6.899   6.591   5.975
 9319SOL     OW28855   6.040   3.619   4.509
 9319SOL    HW128856   5.986   3.687   4.460
 9319SOL    HW228857   6.131   3.656   4.526
 9320SOL     OW28858   4.176   2.925   5.987
 9320SOL    HW128859   4.201   2.867   5.910
 9320SOL    HW228860   4.154   2.867   6.066
 9321SOL     OW28861   6.172   6.109   4.242
 9321SOL    HW128862   6.099   6.112   4.175
 9321SOL    HW228863   6.223   6.195   4.240
 9322SOL     OW28864   1.036   5.936   0.615
 9322SOL    HW128865   1.127   5.949   0.576
 9322SOL    HW228866   1.041   5.938   0.714
 9323SOL     OW28867   0.635   1.069   6.678
 9323SOL    HW128868   0.653   1.026   6.766
 9323SOL    HW228869   0.634   1.000   6.606
 9324SOL     OW28870   1.618   5.239   6.699
 9324SOL    HW128871   1.527   5.221   6.737
 9324SOL    HW228872   1.610   5.260   6.601
 9325SOL     OW28873   6.903   2.462   0.065
 9325SOL    HW128874   6.824   2.469   0.126
 9325SOL    HW228875   6.896   2.377   0.012
 9326SOL     OW28876   2.577   5.815   1.534
 9326SOL    HW128877   2.582   5.796   1.632
 9326SOL    HW228878   2.670   5.819   1.497
 9327SOL     OW28879   2.637   1.559   3.511
 9327SOL    HW128880   2.733   1.537   3.528
 9327SOL    HW228881   2.618   1.654   3.535
 9328SOL     OW28882   2.587   0.866   2.261
 9328SOL    HW128883   2.667   0.857   2.321
 9328SOL    HW228884   2.510   0.816   2.301
 9329SOL     OW28885   0.796   3.829   1.998
 9329SOL    HW128886   0.840   3.767   2.064
 9329SOL    HW228887   0.723   3.781   1.950
 9330SOL     OW28888   5.111   6.239   6.642
 9330SOL    HW128889   5.192   6.290   6.674
 9330SOL    HW228890   5.030   6.274   6.688
 9331SOL     OW28891   0.745   1.942   0.283
 9331SOL    HW128892   0.652   1.976   0.273
 9331SOL    HW228893   0.791   1.944   0.195
 9332SOL     OW28894   3.638   3.872   5.364
 9332SOL    HW128895   3.582   3.790   5.348
 9332SOL    HW228896   3.648   3.886   5.463
 9333SOL     OW28897   4.955   6.006   0.890
 9333SOL    HW128898   4.932   5.985   0.795
 9333SOL    HW228899   4.887   6.069   0.927
 9334SOL     OW28900   2.412   6.794   4.310
 9334SOL    HW128901   2.436   6.707   4.354
 9334SOL    HW228902   2.429   6.869   4.373
 9335SOL     OW28903   0.412   1.791   1.940
 9335SOL    HW128904   0.322   1.749   1.941
 9335SOL    HW228905   0.443   1.806   2.034
 9336SOL     OW28906   2.910   0.116   5.234
 9336SOL    HW128907   2.999   0.148   5.202
 9336SOL    HW228908   2.920   0.080   5.327
 9337SOL     OW28909   4.942   6.978   2.707
 9337SOL    HW128910   4.953   0.021   2.639
 9337SOL    HW228911   4.995   6.897   2.678
 9338SOL     OW28912   2.856   6.689   2.234
 9338SOL    HW128913   2.939   6.645   2.199
 9338SOL    HW228914   2.808   6.625   2.295
 9339SOL     OW28915   3.749   5.646   1.403
 9339SOL    HW128916   3.794   5.565   1.364
 9339SOL    HW228917   3.673   5.616   1.462
 9340SOL     OW28918   6.493   2.843   0.807
 9340SOL    HW128919   6.407   2.793   0.814
 9340SOL    HW228920   6.477   2.930   0.761
 9341SOL     OW28921   0.771   4.298   5.840
 9341SOL    HW128922   0.723   4.298   5.752
 9341SOL    HW228923   0.738   4.375   5.895
 9342SOL     OW28924   1.710   0.707   0.299
 9342SOL    HW128925   1.679   0.795   0.336
 9342SOL    HW228926   1.805   0.692   0.325
 9343SOL     OW28927   5.716   6.712   3.627
 9343SOL    HW128928   5.737   6.647   3.700
 9343SOL    HW228929   5.617   6.714   3.611
 9344SOL     OW28930   5.272   6.778   0.552
 9344SOL    HW128931   5.245   6.682   0.561
 9344SOL    HW228932   5.361   6.783   0.506
 9345SOL     OW28933   0.346   2.579   0.715
 9345SOL    HW128934   0.396   2.618   0.638
 9345SOL    HW228935   0.410   2.555   0.788
 9346SOL     OW28936   5.727   0.788   0.330
 9346SOL    HW128937   5.774   0.701   0.345
 9346SOL    HW228938   5.703   0.796   0.233
 9347SOL     OW28939   1.906   6.467   2.031
 9347SOL    HW128940   1.963   6.507   1.960
 9347SOL    HW228941   1.932   6.503   2.121
 9348SOL     OW28942   3.028   5.259   0.429
 9348SOL    HW128943   3.060   5.246   0.335
 9348SOL    HW228944   2.964   5.186   0.453
 9349SOL     OW28945   1.275   6.281   2.563
 9349SOL    HW128946   1.368   6.306   2.588
 9349SOL    HW228947   1.275   6.189   2.524
 9350SOL     OW28948   0.422   3.204   5.877
 9350SOL    HW128949   0.505   3.162   5.840
 9350SOL    HW228950   0.363   3.133   5.916
 9351SOL     OW28951   3.257   6.873   6.605
 9351SOL    HW128952   3.234   6.904   6.697
 9351SOL    HW228953   3.176   6.831   6.563
 9352SOL     OW28954   2.871   4.681   5.977
 9352SOL    HW128955   2.916   4.732   6.050
 9352SOL    HW228956   2.823   4.602   6.016
 9353SOL     OW28957   5.997   0.891   0.922
 9353SOL    HW128958   6.055   0.877   0.841
 9353SOL    HW228959   5.912   0.935   0.894
 9354SOL     OW28960   1.108   1.037   6.183
 9354SOL    HW128961   1.198   0.998   6.164
 9354SOL    HW228962   1.064   1.063   6.097
 9355SOL     OW28963   1.027   1.697   4.928
 9355SOL    HW128964   1.079   1.639   4.864
 9355SOL    HW228965   0.929   1.684   4.913
 9356SOL     OW28966   4.220   6.956   3.719
 9356SOL    HW128967   4.186   6.935   3.627
 9356SOL    HW228968   4.147   6.939   3.786
 9357SOL     OW28969   1.997   2.259   0.250
 9357SOL    HW128970   1.903   2.245   0.218
 9357SOL    HW228971   2.001   2.345   0.301
 9358SOL     OW28972   1.086   2.027   0.965
 9358SOL    HW128973   1.093   2.097   1.037
 9358SOL    HW228974   1.127   2.062   0.881
 9359SOL     OW28975   0.853   0.695   5.168
 9359SOL    HW128976   0.899   0.769   5.119
 9359SOL    HW228977   0.837   0.619   5.106
 9360SOL     OW28978   0.188   0.387   5.783
 9360SOL    HW128979   0.088   0.391   5.784
 9360SOL    HW228980   0.221   0.399   5.689
 9361SOL     OW28981   2.300   5.486   4.621
 9361SOL    HW128982   2.329   5.449   4.709
 9361SOL    HW228983   2.299   5.412   4.553
 9362SOL     OW28984   1.662   0.640   2.579
 9362SOL    HW128985   1.681   0.668   2.484
 9362SOL    HW228986   1.640   0.720   2.634
 9363SOL     OW28987   1.930   2.918   2.363
 9363SOL    HW128988   1.926   3.017   2.348
 9363SOL    HW228989   2.017   2.883   2.330
 9364SOL     OW28990   0.284   2.303   6.894
 9364SOL    HW128991   0.246   2.392   6.921
 9364SOL    HW228992   0.381   2.300   6.921
 9365SOL     OW28993   2.305   1.245   5.281
 9365SOL    HW128994   2.368   1.201   5.217
 9365SOL    HW228995   2.346   1.247   5.373
 9366SOL     OW28996   3.489   6.857   2.184
 9366SOL    HW128997   3.393   6.837   2.163
 9366SOL    HW228998   3.547   6.815   2.115
 9367SOL     OW28999   6.843   0.389   1.394
 9367SOL    HW129000   6.789   0.449   1.452
 9367SOL    HW229001   6.917   0.349   1.448
 9368SOL     OW29002   2.193   0.378   3.353
 9368SOL    HW129003   2.095   0.361   3.365
 9368SOL    HW229004   2.209   0.477   3.350
 9369SOL     OW29005   4.008   5.199   1.050
 9369SOL    HW129006   4.073   5.194   0.975
 9369SOL    HW229007   4.054   5.178   1.136
 9370SOL     OW29008   4.622   2.435   5.120
 9370SOL    HW129009   4.681   2.454   5.042
 9370SOL    HW229010   4.576   2.519   5.149
 9371SOL     OW29011   4.135   4.651   0.920
 9371SOL    HW129012   4.143   4.581   0.849
 9371SOL    HW229013   4.056   4.632   0.978
 9372SOL     OW29014   4.674   6.935   1.359
 9372SOL    HW129015   4.660   6.859   1.295
 9372SOL    HW229016   4.672   6.900   1.453
 9373SOL     OW29017   0.101   2.726   1.819
 9373SOL    HW129018   0.147   2.645   1.781
 9373SOL    HW229019   0.168   2.786   1.861
 9374SOL     OW29020   6.860   5.330   6.083
 9374SOL    HW129021   6.852   5.361   6.178
 9374SOL    HW229022   6.955   5.338   6.053
 9375SOL     OW29023   1.652   1.243   6.917
 9375SOL    HW129024   1.737   1.211   6.960
 9375SOL    HW229025   1.671   1.274   6.824
 9376SOL     OW29026   3.200   3.416   0.188
 9376SOL    HW129027   3.119   3.474   0.193
 9376SOL    HW229028   3.192   3.342   0.255
 9377SOL     OW29029   1.108   0.374   3.468
 9377SOL    HW129030   1.057   0.439   3.524
 9377SOL    HW229031   1.054   0.291   3.456
 9378SOL     OW29032   3.635   1.544   5.108
 9378SOL    HW129033   3.663   1.485   5.184
 9378SOL    HW229034   3.629   1.639   5.139
 9379SOL     OW29035   4.069   0.263   4.653
 9379SOL    HW129036   4.042   0.359   4.666
 9379SOL    HW229037   4.017   0.205   4.716
 9380SOL     OW29038   5.126   6.031   1.111
 9380SOL    HW129039   5.067   6.006   1.034
 9380SOL    HW229040   5.083   6.002   1.197
 9381SOL     OW29041   5.322   0.899   4.745
 9381SOL    HW129042   5.331   0.831   4.817
 9381SOL    HW229043   5.248   0.963   4.769
 9382SOL     OW29044   3.230   5.456   6.312
 9382SOL    HW129045   3.276   5.439   6.399
 9382SOL    HW229046   3.133   5.436   6.320
 9383SOL     OW29047   6.228   3.863   1.410
 9383SOL    HW129048   6.150   3.860   1.472
 9383SOL    HW229049   6.304   3.910   1.455
 9384SOL     OW29050   3.656   6.857   0.658
 9384SOL    HW129051   3.675   6.764   0.629
 9384SOL    HW229052   3.741   6.899   0.690
 9385SOL     OW29053   4.040   2.252   4.058
 9385SOL    HW129054   4.129   2.286   4.029
 9385SOL    HW229055   4.025   2.273   4.154
 9386SOL     OW29056   5.665   6.933   0.859
 9386SOL    HW129057   5.761   6.959   0.860
 9386SOL    HW229058   5.608   7.014   0.848
 9387SOL     OW29059   2.324   2.080   6.951
 9387SOL    HW129060   2.286   2.139   6.880
 9387SOL    HW229061   2.254   2.065   7.021
 9388SOL     OW29062   2.417   6.720   4.732
 9388SOL    HW129063   2.394   6.816   4.722
 9388SOL    HW229064   2.363   6.666   4.668
 9389SOL     OW29065   2.133   4.098   2.252
 9389SOL    HW129066   2.079   4.014   2.248
 9389SOL    HW229067   2.074   4.174   2.277
 9390SOL     OW29068   5.780   5.070   3.783
 9390SOL    HW129069   5.797   5.036   3.691
 9390SOL    HW229070   5.685   5.101   3.791
 9391SOL     OW29071   1.004   4.585   3.976
 9391SOL    HW129072   1.017   4.663   3.915
 9391SOL    HW229073   1.090   4.565   4.023
 9392SOL     OW29074   3.952   4.812   2.414
 9392SOL    HW129075   3.888   4.742   2.444
 9392SOL    HW229076   3.913   4.863   2.337
 9393SOL     OW29077   1.760   5.102   6.909
 9393SOL    HW129078   1.701   5.132   6.834
 9393SOL    HW229079   1.794   5.181   6.959
 9394SOL     OW29080   4.523   0.484   6.746
 9394SOL    HW129081   4.529   0.451   6.840
 9394SOL    HW229082   4.607   0.533   6.723
 9395SOL     OW29083   0.990   1.614   1.567
 9395SOL    HW129084   1.043   1.664   1.635
 9395SOL    HW229085   0.921   1.557   1.613
 9396SOL     OW29086   0.976   0.719   6.316
 9396SOL    HW129087   0.885   0.708   6.356
 9396SOL    HW229088   0.974   0.794   6.250
 9397SOL     OW29089   3.135   1.636   5.037
 9397SOL    HW129090   3.208   1.570   5.022
 9397SOL    HW229091   3.088   1.615   5.123
 9398SOL     OW29092   6.936   2.052   6.776
 9398SOL    HW129093   6.895   1.961   6.780
 9398SOL    HW229094   6.987   2.063   6.691
 9399SOL     OW29095   1.336   2.266   4.451
 9399SOL    HW129096   1.342   2.365   4.437
 9399SOL    HW229097   1.325   2.246   4.548
 9400SOL     OW29098   6.171   1.194   1.329
 9400SOL    HW129099   6.195   1.133   1.404
 9400SOL    HW229100   6.143   1.141   1.249
 9401SOL     OW29101   0.348   2.184   3.461
 9401SOL    HW129102   0.404   2.136   3.392
 9401SOL    HW229103   0.263   2.214   3.419
 9402SOL     OW29104   3.365   6.190   5.553
 9402SOL    HW129105   3.405   6.264   5.499
 9402SOL    HW229106   3.437   6.135   5.595
 9403SOL     OW29107   5.195   2.057   1.202
 9403SOL    HW129108   5.161   2.139   1.155
 9403SOL    HW229109   5.129   2.029   1.272
 9404SOL     OW29110   2.550   2.778   0.604
 9404SOL    HW129111   2.567   2.850   0.537
 9404SOL    HW229112   2.453   2.779   0.630
 9405SOL     OW29113   6.123   5.994   5.158
 9405SOL    HW129114   6.189   6.004   5.233
 9405SOL    HW229115   6.167   6.020   5.072
 9406SOL     OW29116   1.382   1.041   1.174
 9406SOL    HW129117   1.324   1.049   1.093
 9406SOL    HW229118   1.477   1.025   1.146
 9407SOL     OW29119   1.233   4.658   4.492
 9407SOL    HW129120   1.142   4.698   4.490
 9407SOL    HW229121   1.260   4.642   4.587
 9408SOL     OW29122   5.738   4.877   3.573
 9408SOL    HW129123   5.665   4.885   3.505
 9408SOL    HW229124   5.823   4.850   3.527
 9409SOL     OW29125   5.689   5.616   1.514
 9409SOL    HW129126   5.780   5.590   1.548
 9409SOL    HW229127   5.699   5.671   1.431
 9410SOL     OW29128   4.741   0.045   0.345
 9410SOL    HW129129   4.812   0.107   0.379
 9410SOL    HW229130   4.753   6.984   0.386
 9411SOL     OW29131   3.013   3.685   3.953
 9411SOL    HW129132   2.970   3.732   4.030
 9411SOL    HW229133   3.107   3.660   3.978
 9412SOL     OW29134   4.249   0.001   1.548
 9412SOL    HW129135   4.171   0.062   1.562
 9412SOL    HW229136   4.303   7.026   1.632
 9413SOL     OW29137   4.070   4.766   3.514
 9413SOL    HW129138   4.137   4.707   3.467
 9413SOL    HW229139   4.009   4.806   3.446
 9414SOL     OW29140   1.778   1.092   2.011
 9414SOL    HW129141   1.784   1.188   2.041
 9414SOL    HW229142   1.686   1.074   1.976
 9415SOL     OW29143   5.051   0.503   1.045
 9415SOL    HW129144   5.145   0.475   1.028
 9415SOL    HW229145   5.011   0.541   0.962
 9416SOL     OW29146   6.266   4.862   5.606
 9416SOL    HW129147   6.309   4.802   5.538
 9416SOL    HW229148   6.257   4.954   5.567
 9417SOL     OW29149   4.004   6.328   2.844
 9417SOL    HW129150   3.940   6.290   2.911
 9417SOL    HW229151   4.097   6.323   2.881
 9418SOL     OW29152   3.038   2.136   4.648
 9418SOL    HW129153   3.132   2.129   4.679
 9418SOL    HW229154   2.985   2.191   4.713
 9419SOL     OW29155   2.282   2.348   6.229
 9419SOL    HW129156   2.300   2.261   6.184
 9419SOL    HW229157   2.243   2.412   6.163
 9420SOL     OW29158   5.825   3.251   5.740
 9420SOL    HW129159   5.911   3.254   5.689
 9420SOL    HW229160   5.814   3.160   5.779
 9421SOL     OW29161   3.828   6.711   0.130
 9421SOL    HW129162   3.922   6.686   0.154
 9421SOL    HW229163   3.805   6.672   0.041
 9422SOL     OW29164   2.236   6.395   5.952
 9422SOL    HW129165   2.176   6.340   6.009
 9422SOL    HW229166   2.290   6.336   5.892
 9423SOL     OW29167   4.376   5.038   0.635
 9423SOL    HW129168   4.449   5.103   0.616
 9423SOL    HW229169   4.338   5.004   0.549
 9424SOL     OW29170   6.135   6.985   3.508
 9424SOL    HW129171   6.225   6.945   3.493
 9424SOL    HW229172   6.097   6.951   3.594
 9425SOL     OW29173   6.907   5.508   0.932
 9425SOL    HW129174   6.936   5.461   1.015
 9425SOL    HW229175   6.811   5.488   0.913
 9426SOL     OW29176   4.052   2.001   6.264
 9426SOL    HW129177   4.086   2.016   6.171
 9426SOL    HW229178   4.117   1.944   6.314
 9427SOL     OW29179   3.833   5.566   2.227
 9427SOL    HW129180   3.780   5.563   2.311
 9427SOL    HW229181   3.911   5.504   2.234
 9428SOL     OW29182   0.629   6.296   4.858
 9428SOL    HW129183   0.588   6.223   4.805
 9428SOL    HW229184   0.660   6.369   4.797
 9429SOL     OW29185   3.029   2.207   3.977
 9429SOL    HW129186   3.045   2.124   3.924
 9429SOL    HW229187   3.085   2.205   4.060
 9430SOL     OW29188   1.274   6.970   3.955
 9430SOL    HW129189   1.358   6.983   3.903
 9430SOL    HW229190   1.203   0.004   3.922
 9431SOL     OW29191   1.352   5.193   4.583
 9431SOL    HW129192   1.287   5.227   4.651
 9431SOL    HW229193   1.328   5.099   4.558
 9432SOL     OW29194   6.895   1.464   3.468
 9432SOL    HW129195   6.869   1.549   3.514
 9432SOL    HW229196   6.868   1.470   3.372
 9433SOL     OW29197   3.939   5.250   1.908
 9433SOL    HW129198   3.887   5.324   1.950
 9433SOL    HW229199   4.014   5.223   1.969
 9434SOL     OW29200   4.702   5.580   5.495
 9434SOL    HW129201   4.705   5.556   5.398
 9434SOL    HW229202   4.640   5.657   5.509
 9435SOL     OW29203   6.522   4.120   6.683
 9435SOL    HW129204   6.542   4.147   6.589
 9435SOL    HW229205   6.463   4.039   6.683
 9436SOL     OW29206   2.950   1.866   2.327
 9436SOL    HW129207   2.965   1.767   2.320
 9436SOL    HW229208   3.029   1.913   2.288
 9437SOL     OW29209   5.025   1.498   4.052
 9437SOL    HW129210   4.955   1.428   4.053
 9437SOL    HW229211   5.058   1.514   4.145
 9438SOL     OW29212   5.312   0.502   3.048
 9438SOL    HW129213   5.369   0.571   3.093
 9438SOL    HW229214   5.253   0.459   3.116
 9439SOL     OW29215   2.034   4.736   1.130
 9439SOL    HW129216   1.983   4.696   1.207
 9439SOL    HW229217   2.132   4.717   1.142
 9440SOL     OW29218   2.053   5.517   5.400
 9440SOL    HW129219   2.001   5.433   5.386
 9440SOL    HW229220   2.076   5.557   5.312
 9441SOL     OW29221   6.687   6.065   3.890
 9441SOL    HW129222   6.644   5.977   3.873
 9441SOL    HW229223   6.672   6.092   3.986
 9442SOL     OW29224   6.292   2.651   1.219
 9442SOL    HW129225   6.378   2.604   1.201
 9442SOL    HW229226   6.256   2.621   1.308
 9443SOL     OW29227   1.748   4.454   1.346
 9443SOL    HW129228   1.709   4.400   1.271
 9443SOL    HW229229   1.676   4.480   1.410
 9444SOL     OW29230   2.145   5.723   6.068
 9444SOL    HW129231   2.127   5.633   6.108
 9444SOL    HW229232   2.086   5.736   5.989
 9445SOL     OW29233   0.763   0.839   4.048
 9445SOL    HW129234   0.786   0.793   4.134
 9445SOL    HW229235   0.676   0.804   4.014
 9446SOL     OW29236   5.507   5.409   4.045
 9446SOL    HW129237   5.535   5.458   3.962
 9446SOL    HW229238   5.440   5.339   4.021
 9447SOL     OW29239   5.663   5.328   2.238
 9447SOL    HW129240   5.572   5.290   2.222
 9447SOL    HW229241   5.659   5.395   2.312
 9448SOL     OW29242   4.801   2.527   6.196
 9448SOL    HW129243   4.884   2.546   6.145
 9448SOL    HW229244   4.816   2.448   6.255
 9449SOL     OW29245   4.872   6.662   2.842
 9449SOL    HW129246   4.775   6.641   2.856
 9449SOL    HW229247   4.888   6.759   2.859
 9450SOL     OW29248   1.037   0.428   2.236
 9450SOL    HW129249   0.948   0.424   2.280
 9450SOL    HW229250   1.028   0.471   2.146
 9451SOL     OW29251   4.039   5.356   0.682
 9451SOL    HW129252   3.986   5.400   0.754
 9451SOL    HW229253   3.977   5.317   0.614
 9452SOL     OW29254   6.415   3.098   6.309
 9452SOL    HW129255   6.503   3.066   6.343
 9452SOL    HW229256   6.395   3.054   6.221
 9453SOL     OW29257   6.776   4.867   2.351
 9453SOL    HW129258   6.767   4.858   2.252
 9453SOL    HW229259   6.866   4.904   2.374
 9454SOL     OW29260   4.934   5.389   0.716
 9454SOL    HW129261   4.884   5.418   0.797
 9454SOL    HW229262   4.943   5.289   0.715
 9455SOL     OW29263   4.810   0.453   1.587
 9455SOL    HW129264   4.796   0.532   1.528
 9455SOL    HW229265   4.745   0.381   1.562
 9456SOL     OW29266   6.795   2.884   2.430
 9456SOL    HW129267   6.777   2.823   2.353
 9456SOL    HW229268   6.884   2.928   2.418
 9457SOL     OW29269   6.664   6.264   4.466
 9457SOL    HW129270   6.656   6.165   4.459
 9457SOL    HW229271   6.653   6.292   4.562
 9458SOL     OW29272   6.958   4.299   6.989
 9458SOL    HW129273   7.018   4.373   6.957
 9458SOL    HW229274   6.863   4.320   6.964
 9459SOL     OW29275   5.022   4.551   5.129
 9459SOL    HW129276   4.951   4.558   5.059
 9459SOL    HW229277   5.086   4.627   5.119
 9460SOL     OW29278   2.016   2.844   3.051
 9460SOL    HW129279   1.973   2.754   3.043
 9460SOL    HW229280   2.003   2.895   2.966
 9461SOL     OW29281   1.967   1.619   1.413
 9461SOL    HW129282   1.898   1.646   1.346
 9461SOL    HW229283   2.050   1.672   1.398
 9462SOL     OW29284   0.118   1.173   5.324
 9462SOL    HW129285   0.200   1.213   5.284
 9462SOL    HW229286   0.063   1.246   5.365
 9463SOL     OW29287   6.689   5.515   0.499
 9463SOL    HW129288   6.604   5.552   0.535
 9463SOL    HW229289   6.728   5.450   0.565
 9464SOL     OW29290   1.617   0.379   2.422
 9464SOL    HW129291   1.673   0.457   2.451
 9464SOL    HW229292   1.599   0.386   2.323
 9465SOL     OW29293   0.151   5.939   0.270
 9465SOL    HW129294   0.189   5.980   0.353
 9465SOL    HW229295   0.194   5.850   0.255
 9466SOL     OW29296   4.268   4.109   6.092
 9466SOL    HW129297   4.264   4.202   6.053
 9466SOL    HW229298   4.176   4.082   6.122
 9467SOL     OW29299   1.409   3.719   1.265
 9467SOL    HW129300   1.471   3.732   1.342
 9467SOL    HW229301   1.316   3.741   1.293
 9468SOL     OW29302   6.507   1.552   1.272
 9468SOL    HW129303   6.557   1.487   1.330
 9468SOL    HW229304   6.450   1.610   1.330
 9469SOL     OW29305   6.343   6.507   1.893
 9469SOL    HW129306   6.380   6.428   1.941
 9469SOL    HW229307   6.255   6.533   1.933
 9470SOL     OW29308   3.928   3.454   1.265
 9470SOL    HW129309   3.988   3.468   1.344
 9470SOL    HW229310   3.980   3.468   1.181
 9471SOL     OW29311   6.312   3.431   4.363
 9471SOL    HW129312   6.386   3.397   4.305
 9471SOL    HW229313   6.251   3.356   4.386
 9472SOL     OW29314   2.392   3.709   6.454
 9472SOL    HW129315   2.361   3.799   6.422
 9472SOL    HW229316   2.420   3.654   6.375
 9473SOL     OW29317   2.878   3.215   1.532
 9473SOL    HW129318   2.880   3.304   1.486
 9473SOL    HW229319   2.866   3.143   1.464
 9474SOL     OW29320   6.160   4.555   0.674
 9474SOL    HW129321   6.121   4.473   0.716
 9474SOL    HW229322   6.228   4.595   0.735
 9475SOL     OW29323   6.217   3.439   6.911
 9475SOL    HW129324   6.178   3.481   6.829
 9475SOL    HW229325   6.219   3.506   6.985
 9476SOL     OW29326   3.621   3.857   0.797
 9476SOL    HW129327   3.637   3.767   0.757
 9476SOL    HW229328   3.689   3.922   0.762
 9477SOL     OW29329   1.506   5.933   0.418
 9477SOL    HW129330   1.519   5.909   0.514
 9477SOL    HW229331   1.416   5.974   0.405
 9478SOL     OW29332   0.034   3.414   5.403
 9478SOL    HW129333   6.993   3.434   5.472
 9478SOL    HW229334   0.038   3.489   5.337
 9479SOL     OW29335   4.601   1.190   1.959
 9479SOL    HW129336   4.672   1.218   2.024
 9479SOL    HW229337   4.511   1.210   1.998
 9480SOL     OW29338   5.416   0.577   0.675
 9480SOL    HW129339   5.512   0.602   0.660
 9480SOL    HW229340   5.363   0.659   0.695
 9481SOL     OW29341   4.572   0.035   3.799
 9481SOL    HW129342   4.529   0.108   3.851
 9481SOL    HW229343   4.524   6.978   3.816
 9482SOL     OW29344   6.243   4.560   5.741
 9482SOL    HW129345   6.288   4.519   5.662
 9482SOL    HW229346   6.313   4.596   5.803
 9483SOL     OW29347   6.390   5.071   6.699
 9483SOL    HW129348   6.369   4.991   6.642
 9483SOL    HW229349   6.337   5.149   6.668
 9484SOL     OW29350   1.587   5.698   4.139
 9484SOL    HW129351   1.496   5.660   4.125
 9484SOL    HW229352   1.617   5.744   4.055
 9485SOL     OW29353   0.644   1.233   5.331
 9485SOL    HW129354   0.620   1.317   5.282
 9485SOL    HW229355   0.737   1.205   5.307
 9486SOL     OW29356   6.882   5.749   6.514
 9486SOL    HW129357   6.818   5.815   6.475
 9486SOL    HW229358   6.831   5.684   6.571
 9487SOL     OW29359   3.117   3.303   3.345
 9487SOL    HW129360   3.137   3.396   3.314
 9487SOL    HW229361   3.159   3.238   3.283
 9488SOL     OW29362   0.856   0.939   2.550
 9488SOL    HW129363   0.859   1.024   2.496
 9488SOL    HW229364   0.948   0.902   2.559
 9489SOL     OW29365   6.864   4.356   6.653
 9489SOL    HW129366   6.820   4.379   6.567
 9489SOL    HW229367   6.892   4.440   6.700
 9490SOL     OW29368   5.684   3.532   5.073
 9490SOL    HW129369   5.769   3.483   5.095
 9490SOL    HW229370   5.686   3.622   5.116
 9491SOL     OW29371   5.074   6.877   2.099
 9491SOL    HW129372   5.076   6.952   2.033
 9491SOL    HW229373   5.078   6.915   2.192
 9492SOL     OW29374   4.817   2.971   4.068
 9492SOL    HW129375   4.908   2.943   4.099
 9492SOL    HW229376   4.825   3.031   3.989
 9493SOL     OW29377   2.991   6.261   2.095
 9493SOL    HW129378   3.048   6.205   2.156
 9493SOL    HW229379   2.936   6.200   2.038
 9494SOL     OW29380   5.051   2.619   2.597
 9494SOL    HW129381   4.998   2.702   2.612
 9494SOL    HW229382   4.996   2.539   2.622
 9495SOL     OW29383   5.198   3.380   1.187
 9495SOL    HW129384   5.156   3.305   1.238
 9495SOL    HW229385   5.233   3.448   1.252
 9496SOL     OW29386   6.210   3.168   1.094
 9496SOL    HW129387   6.147   3.224   1.040
 9496SOL    HW229388   6.174   3.075   1.102
 9497SOL     OW29389   4.800   4.111   5.105
 9497SOL    HW129390   4.772   4.084   5.013
 9497SOL    HW229391   4.869   4.183   5.098
 9498SOL     OW29392   1.094   6.192   6.019
 9498SOL    HW129393   1.027   6.122   6.041
 9498SOL    HW229394   1.184   6.166   6.054
 9499SOL     OW29395   5.655   6.677   3.911
 9499SOL    HW129396   5.666   6.775   3.925
 9499SOL    HW229397   5.558   6.657   3.893
 9500SOL     OW29398   2.805   2.028   0.831
 9500SOL    HW129399   2.779   2.123   0.814
 9500SOL    HW229400   2.903   2.023   0.850
 9501SOL     OW29401   1.410   3.371   5.407
 9501SOL    HW129402   1.446   3.308   5.476
 9501SOL    HW229403   1.345   3.322   5.348
 9502SOL     OW29404   5.806   4.300   3.850
 9502SOL    HW129405   5.863   4.301   3.933
 9502SOL    HW229406   5.764   4.390   3.838
 9503SOL     OW29407   6.239   1.169   0.016
 9503SOL    HW129408   6.217   1.201   0.108
 9503SOL    HW229409   6.165   1.194   6.982
 9504SOL     OW29410   6.411   5.161   2.810
 9504SOL    HW129411   6.437   5.214   2.890
 9504SOL    HW229412   6.478   5.088   2.795
 9505SOL     OW29413   4.749   3.166   7.006
 9505SOL    HW129414   4.738   3.253   6.958
 9505SOL    HW229415   4.844   3.137   7.003
 9506SOL     OW29416   3.657   1.624   1.720
 9506SOL    HW129417   3.585   1.557   1.737
 9506SOL    HW229418   3.617   1.706   1.678
 9507SOL     OW29419   6.677   6.136   1.825
 9507SOL    HW129420   6.688   6.134   1.924
 9507SOL    HW229421   6.639   6.224   1.798
 9508SOL     OW29422   5.027   1.236   2.252
 9508SOL    HW129423   5.116   1.199   2.278
 9508SOL    HW229424   4.981   1.273   2.334
 9509SOL     OW29425   5.965   1.590   3.836
 9509SOL    HW129426   6.037   1.527   3.866
 9509SOL    HW229427   5.965   1.671   3.894
 9510SOL     OW29428   1.517   3.685   2.061
 9510SOL    HW129429   1.420   3.664   2.055
 9510SOL    HW229430   1.531   3.768   2.115
 9511SOL     OW29431   0.713   1.677   0.557
 9511SOL    HW129432   0.638   1.627   0.599
 9511SOL    HW229433   0.722   1.767   0.602
 9512SOL     OW29434   6.272   2.805   1.465
 9512SOL    HW129435   6.273   2.803   1.565
 9512SOL    HW229436   6.366   2.804   1.430
 9513SOL     OW29437   4.792   4.103   4.822
 9513SOL    HW129438   4.753   4.170   4.759
 9513SOL    HW229439   4.884   4.079   4.792
 9514SOL     OW29440   3.485   3.331   1.416
 9514SOL    HW129441   3.516   3.409   1.362
 9514SOL    HW229442   3.490   3.248   1.361
 9515SOL     OW29443   6.825   6.179   2.920
 9515SOL    HW129444   6.868   6.094   2.890
 9515SOL    HW229445   6.816   6.241   2.842
 9516SOL     OW29446   0.671   3.600   6.537
 9516SOL    HW129447   0.604   3.542   6.585
 9516SOL    HW229448   0.753   3.610   6.594
 9517SOL     OW29449   0.942   6.285   2.101
 9517SOL    HW129450   1.018   6.222   2.084
 9517SOL    HW229451   0.869   6.237   2.149
 9518SOL     OW29452   0.431   0.530   1.385
 9518SOL    HW129453   0.353   0.556   1.329
 9518SOL    HW229454   0.490   0.467   1.334
 9519SOL     OW29455   1.646   2.718   5.786
 9519SOL    HW129456   1.735   2.732   5.744
 9519SOL    HW229457   1.598   2.644   5.738
 9520SOL     OW29458   4.363   6.822   2.054
 9520SOL    HW129459   4.329   6.905   2.098
 9520SOL    HW229460   4.329   6.742   2.102
 9521SOL     OW29461   5.261   4.816   3.380
 9521SOL    HW129462   5.184   4.848   3.436
 9521SOL    HW229463   5.343   4.808   3.437
 9522SOL     OW29464   3.424   5.056   5.794
 9522SOL    HW129465   3.516   5.053   5.756
 9522SOL    HW229466   3.427   5.027   5.890
 9523SOL     OW29467   1.512   0.057   4.877
 9523SOL    HW129468   1.462   7.013   4.926
 9523SOL    HW229469   1.517   0.138   4.935
 9524SOL     OW29470   6.086   3.254   0.490
 9524SOL    HW129471   6.107   3.226   0.396
 9524SOL    HW229472   6.136   3.337   0.513
 9525SOL     OW29473   3.836   0.300   4.134
 9525SOL    HW129474   3.930   0.324   4.109
 9525SOL    HW229475   3.812   0.213   4.091
 9526SOL     OW29476   4.565   5.065   0.198
 9526SOL    HW129477   4.557   5.164   0.193
 9526SOL    HW229478   4.655   5.037   0.166
 9527SOL     OW29479   6.866   1.863   0.625
 9527SOL    HW129480   6.897   1.954   0.599
 9527SOL    HW229481   6.945   1.805   0.648
 9528SOL     OW29482   5.934   1.131   1.506
 9528SOL    HW129483   6.026   1.166   1.494
 9528SOL    HW229484   5.930   1.035   1.476
 9529SOL     OW29485   1.931   2.513   5.723
 9529SOL    HW129486   1.879   2.583   5.675
 9529SOL    HW229487   1.986   2.462   5.656
 9530SOL     OW29488   2.028   1.132   3.807
 9530SOL    HW129489   2.091   1.209   3.803
 9530SOL    HW229490   2.070   1.053   3.762
 9531SOL     OW29491   2.307   6.157   4.221
 9531SOL    HW129492   2.235   6.226   4.218
 9531SOL    HW229493   2.382   6.184   4.161
 9532SOL     OW29494   3.460   1.432   1.734
 9532SOL    HW129495   3.498   1.362   1.795
 9532SOL    HW229496   3.411   1.388   1.659
 9533SOL     OW29497   0.282   1.817   4.198
 9533SOL    HW129498   0.250   1.870   4.119
 9533SOL    HW229499   0.233   1.847   4.280
 9534SOL     OW29500   5.509   1.086   4.120
 9534SOL    HW129501   5.432   1.146   4.140
 9534SOL    HW229502   5.585   1.139   4.084
 9535SOL     OW29503   2.784   1.449   4.479
 9535SOL    HW129504   2.833   1.535   4.497
 9535SOL    HW229505   2.686   1.463   4.491
 9536SOL     OW29506   2.271   5.948   6.938
 9536SOL    HW129507   2.333   5.923   7.012
 9536SOL    HW229508   2.318   5.940   6.850
 9537SOL     OW29509   2.073   0.253   0.349
 9537SOL    HW129510   2.049   0.164   0.310
 9537SOL    HW229511   2.167   0.251   0.383
 9538SOL     OW29512   5.689   4.129   2.857
 9538SOL    HW129513   5.680   4.084   2.768
 9538SOL    HW229514   5.779   4.110   2.896
 9539SOL     OW29515   1.079   3.551   0.019
 9539SOL    HW129516   1.169   3.530   0.057
 9539SOL    HW229517   1.073   3.649   7.028
 9540SOL     OW29518   5.787   3.079   5.411
 9540SOL    HW129519   5.755   3.146   5.479
 9540SOL    HW229520   5.781   3.119   5.320
 9541SOL     OW29521   6.473   2.082   3.421
 9541SOL    HW129522   6.417   2.165   3.414
 9541SOL    HW229523   6.431   2.009   3.366
 9542SOL     OW29524   4.989   3.745   4.547
 9542SOL    HW129525   4.945   3.655   4.549
 9542SOL    HW229526   4.990   3.782   4.640
 9543SOL     OW29527   4.327   1.943   0.438
 9543SOL    HW129528   4.305   1.973   0.345
 9543SOL    HW229529   4.258   1.878   0.469
 9544SOL     OW29530   5.412   0.068   1.650
 9544SOL    HW129531   5.313   0.073   1.663
 9544SOL    HW229532   5.433   0.007   1.573
 9545SOL     OW29533   1.270   6.616   4.480
 9545SOL    HW129534   1.236   6.553   4.549
 9545SOL    HW229535   1.292   6.704   4.524
 9546SOL     OW29536   2.876   3.809   1.477
 9546SOL    HW129537   2.785   3.790   1.515
 9546SOL    HW229538   2.936   3.732   1.498
 9547SOL     OW29539   5.367   6.282   2.506
 9547SOL    HW129540   5.368   6.200   2.450
 9547SOL    HW229541   5.416   6.356   2.460
 9548SOL     OW29542   6.112   6.496   2.043
 9548SOL    HW129543   6.025   6.485   1.995
 9548SOL    HW229544   6.096   6.494   2.142
 9549SOL     OW29545   1.978   6.014   6.963
 9549SOL    HW129546   1.943   6.062   0.014
 9549SOL    HW229547   2.077   6.004   6.971
 9550SOL     OW29548   1.809   0.490   0.558
 9550SOL    HW129549   1.879   0.560   0.569
 9550SOL    HW229550   1.822   0.418   0.626
 9551SOL     OW29551   1.434   5.720   4.959
 9551SOL    HW129552   1.497   5.700   5.034
 9551SOL    HW229553   1.353   5.661   4.968
 9552SOL     OW29554   6.889   5.133   2.920
 9552SOL    HW129555   6.822   5.160   2.990
 9552SOL    HW229556   6.878   5.192   2.840
 9553SOL     OW29557   6.060   4.161   6.633
 9553SOL    HW129558   5.961   4.146   6.629
 9553SOL    HW229559   6.107   4.079   6.600
 9554SOL     OW29560   1.666   2.350   1.802
 9554SOL    HW129561   1.656   2.317   1.708
 9554SOL    HW229562   1.729   2.290   1.852
 9555SOL     OW29563   0.011   2.648   6.462
 9555SOL    HW129564   7.017   2.551   6.448
 9555SOL    HW229565   6.956   2.700   6.478
 9556SOL     OW29566   6.354   0.102   1.212
 9556SOL    HW129567   6.413   0.130   1.288
 9556SOL    HW229568   6.298   0.025   1.241
 9557SOL     OW29569   5.028   1.888   1.866
 9557SOL    HW129570   4.981   1.866   1.781
 9557SOL    HW229571   5.061   1.982   1.862
 9558SOL     OW29572   6.838   3.828   1.564
 9558SOL    HW129573   6.813   3.908   1.618
 9558SOL    HW229574   6.759   3.796   1.512
 9559SOL     OW29575   0.711   4.927   3.318
 9559SOL    HW129576   0.632   4.874   3.287
 9559SOL    HW229577   0.689   5.024   3.318
 9560SOL     OW29578   3.746   1.676   5.992
 9560SOL    HW129579   3.679   1.749   6.009
 9560SOL    HW229580   3.715   1.592   6.038
 9561SOL     OW29581   3.366   4.959   6.939
 9561SOL    HW129582   3.319   5.040   6.905
 9561SOL    HW229583   3.370   4.890   6.868
 9562SOL     OW29584   6.623   5.354   3.897
 9562SOL    HW129585   6.704   5.332   3.842
 9562SOL    HW229586   6.550   5.290   3.876
 9563SOL     OW29587   0.614   0.422   6.148
 9563SOL    HW129588   0.572   0.333   6.166
 9563SOL    HW229589   0.713   0.416   6.165
 9564SOL     OW29590   0.659   0.522   5.851
 9564SOL    HW129591   0.748   0.549   5.812
 9564SOL    HW229592   0.674   0.462   5.929
 9565SOL     OW29593   2.732   5.444   5.317
 9565SOL    HW129594   2.808   5.422   5.379
 9565SOL    HW229595   2.669   5.366   5.313
 9566SOL     OW29596   2.271   5.805   5.143
 9566SOL    HW129597   2.350   5.801   5.204
 9566SOL    HW229598   2.226   5.716   5.141
 9567SOL     OW29599   6.274   5.195   4.097
 9567SOL    HW129600   6.370   5.170   4.087
 9567SOL    HW229601   6.259   5.286   4.060
 9568SOL     OW29602   5.856   3.401   5.429
 9568SOL    HW129603   5.935   3.353   5.468
 9568SOL    HW229604   5.842   3.486   5.480
 9569SOL     OW29605   5.140   6.880   1.286
 9569SOL    HW129606   5.198   6.799   1.299
 9569SOL    HW229607   5.196   6.962   1.290
 9570SOL     OW29608   0.396   2.742   6.734
 9570SOL    HW129609   0.376   2.755   6.831
 9570SOL    HW229610   0.394   2.831   6.687
 9571SOL     OW29611   3.671   1.750   0.532
 9571SOL    HW129612   3.677   1.764   0.433
 9571SOL    HW229613   3.621   1.826   0.574
 9572SOL     OW29614   0.840   3.398   0.961
 9572SOL    HW129615   0.905   3.385   1.036
 9572SOL    HW229616   0.765   3.457   0.992
 9573SOL     OW29617   4.810   2.082   1.886
 9573SOL    HW129618   4.720   2.125   1.883
 9573SOL    HW229619   4.801   1.984   1.865
 9574SOL     OW29620   1.968   1.732   4.130
 9574SOL    HW129621   1.927   1.745   4.220
 9574SOL    HW229622   2.062   1.765   4.131
 9575SOL     OW29623   3.477   1.525   2.652
 9575SOL    HW129624   3.407   1.523   2.580
 9575SOL    HW229625   3.433   1.545   2.739
 9576SOL     OW29626   4.215   3.180   6.007
 9576SOL    HW129627   4.205   3.081   6.020
 9576SOL    HW229628   4.310   3.207   6.022
 9577SOL     OW29629   0.435   5.302   3.743
 9577SOL    HW129630   0.429   5.281   3.841
 9577SOL    HW229631   0.518   5.261   3.705
 9578SOL     OW29632   6.678   4.614   0.889
 9578SOL    HW129633   6.593   4.570   0.862
 9578SOL    HW229634   6.658   4.697   0.941
 9579SOL     OW29635   1.369   4.858   2.786
 9579SOL    HW129636   1.336   4.911   2.708
 9579SOL    HW229637   1.324   4.769   2.787
 9580SOL     OW29638   3.829   4.189   5.084
 9580SOL    HW129639   3.740   4.167   5.123
 9580SOL    HW229640   3.869   4.107   5.044
 9581SOL     OW29641   1.300   7.007   6.819
 9581SOL    HW129642   1.261   6.963   6.900
 9581SOL    HW229643   1.243   6.988   6.740
 9582SOL     OW29644   4.259   6.038   3.706
 9582SOL    HW129645   4.266   5.985   3.622
 9582SOL    HW229646   4.203   6.120   3.689
 9583SOL     OW29647   0.999   4.627   2.621
 9583SOL    HW129648   1.022   4.720   2.591
 9583SOL    HW229649   0.976   4.572   2.541
 9584SOL     OW29650   5.502   3.960   6.857
 9584SOL    HW129651   5.501   3.934   6.954
 9584SOL    HW229652   5.591   3.936   6.818
 9585SOL     OW29653   6.076   1.033   2.790
 9585SOL    HW129654   6.101   1.001   2.698
 9585SOL    HW229655   6.159   1.052   2.842
 9586SOL     OW29656   4.629   4.372   2.600
 9586SOL    HW129657   4.532   4.370   2.575
 9586SOL    HW229658   4.682   4.322   2.532
 9587SOL     OW29659   4.402   6.331   1.549
 9587SOL    HW129660   4.314   6.307   1.590
 9587SOL    HW229661   4.406   6.294   1.456
 9588SOL     OW29662   6.296   1.358   3.714
 9588SOL    HW129663   6.237   1.361   3.634
 9588SOL    HW229664   6.367   1.289   3.700
 9589SOL     OW29665   4.060   1.922   5.218
 9589SOL    HW129666   4.019   1.845   5.170
 9589SOL    HW229667   4.043   2.007   5.168
 9590SOL     OW29668   0.326   4.934   4.639
 9590SOL    HW129669   0.374   4.860   4.592
 9590SOL    HW229670   0.229   4.911   4.645
 9591SOL     OW29671   6.833   4.548   2.266
 9591SOL    HW129672   6.871   4.524   2.355
 9591SOL    HW229673   6.904   4.540   2.196
 9592SOL     OW29674   4.286   5.485   0.523
 9592SOL    HW129675   4.201   5.456   0.568
 9592SOL    HW229676   4.319   5.569   0.566
 9593SOL     OW29677   2.171   2.477   3.768
 9593SOL    HW129678   2.212   2.442   3.684
 9593SOL    HW229679   2.206   2.569   3.786
 9594SOL     OW29680   5.758   0.124   0.663
 9594SOL    HW129681   5.744   0.219   0.635
 9594SOL    HW229682   5.851   0.096   0.640
 9595SOL     OW29683   2.406   4.940   5.644
 9595SOL    HW129684   2.351   5.021   5.661
 9595SOL    HW229685   2.356   4.878   5.583
 9596SOL     OW29686   5.448   5.009   2.193
 9596SOL    HW129687   5.466   5.017   2.291
 9596SOL    HW229688   5.353   4.981   2.180
 9597SOL     OW29689   1.657   4.222   1.893
 9597SOL    HW129690   1.580   4.260   1.842
 9597SOL    HW229691   1.642   4.236   1.991
 9598SOL     OW29692   0.648   6.324   5.318
 9598SOL    HW129693   0.710   6.310   5.242
 9598SOL    HW229694   0.697   6.369   5.393
 9599SOL     OW29695   3.676   1.888   5.507
 9599SOL    HW129696   3.623   1.837   5.575
 9599SOL    HW229697   3.615   1.947   5.454
 9600SOL     OW29698   1.558   5.686   6.854
 9600SOL    HW129699   1.513   5.615   6.908
 9600SOL    HW229700   1.657   5.683   6.871
 9601SOL     OW29701   1.367   6.848   4.575
 9601SOL    HW129702   1.322   6.933   4.549
 9601SOL    HW229703   1.463   6.866   4.597
 9602SOL     OW29704   1.162   5.609   6.068
 9602SOL    HW129705   1.240   5.661   6.033
 9602SOL    HW229706   1.100   5.587   5.992
 9603SOL     OW29707   1.418   5.204   2.121
 9603SOL    HW129708   1.509   5.175   2.091
 9603SOL    HW229709   1.372   5.129   2.169
 9604SOL     OW29710   6.769   0.532   5.987
 9604SOL    HW129711   6.827   0.452   5.967
 9604SOL    HW229712   6.784   0.602   5.917
 9605SOL     OW29713   3.644   4.224   0.918
 9605SOL    HW129714   3.551   4.199   0.946
 9605SOL    HW229715   3.703   4.229   0.998
 9606SOL     OW29716   6.844   1.855   4.869
 9606SOL    HW129717   6.762   1.904   4.840
 9606SOL    HW229718   6.869   1.787   4.800
 9607SOL     OW29719   6.977   3.173   3.449
 9607SOL    HW129720   0.041   3.163   3.485
 9607SOL    HW229721   6.934   3.083   3.442
 9608SOL     OW29722   5.551   1.161   1.266
 9608SOL    HW129723   5.612   1.087   1.238
 9608SOL    HW229724   5.502   1.196   1.185
 9609SOL     OW29725   1.059   2.271   4.318
 9609SOL    HW129726   1.069   2.298   4.222
 9609SOL    HW229727   1.128   2.203   4.341
 9610SOL     OW29728   5.187   1.009   6.017
 9610SOL    HW129729   5.192   1.017   5.918
 9610SOL    HW229730   5.234   1.086   6.060
 9611SOL     OW29731   4.723   5.707   1.466
 9611SOL    HW129732   4.691   5.619   1.432
 9611SOL    HW229733   4.686   5.780   1.409
 9612SOL     OW29734   4.970   3.729   3.817
 9612SOL    HW129735   5.063   3.717   3.852
 9612SOL    HW229736   4.972   3.744   3.718
 9613SOL     OW29737   5.496   0.818   5.034
 9613SOL    HW129738   5.406   0.787   5.003
 9613SOL    HW229739   5.531   0.754   5.102
 9614SOL     OW29740   3.008   2.211   0.221
 9614SOL    HW129741   3.040   2.161   0.140
 9614SOL    HW229742   3.082   2.218   0.287
 9615SOL     OW29743   6.290   6.471   3.425
 9615SOL    HW129744   6.320   6.548   3.483
 9615SOL    HW229745   6.366   6.441   3.368
 9616SOL     OW29746   0.100   2.079   1.170
 9616SOL    HW129747   0.113   2.173   1.138
 9616SOL    HW229748   0.043   2.080   1.252
 9617SOL     OW29749   0.467   3.524   3.598
 9617SOL    HW129750   0.557   3.483   3.614
 9617SOL    HW229751   0.461   3.612   3.647
 9618SOL     OW29752   5.224   4.248   2.281
 9618SOL    HW129753   5.281   4.169   2.261
 9618SOL    HW229754   5.147   4.251   2.218
 9619SOL     OW29755   1.252   0.467   1.128
 9619SOL    HW129756   1.296   0.555   1.114
 9619SOL    HW229757   1.158   0.481   1.162
 9620SOL     OW29758   4.076   1.307   6.298
 9620SOL    HW129759   4.009   1.295   6.371
 9620SOL    HW229760   4.128   1.392   6.314
 9621SOL     OW29761   6.488   1.304   0.841
 9621SOL    HW129762   6.518   1.280   0.749
 9621SOL    HW229763   6.423   1.235   0.873
 9622SOL     OW29764   6.428   6.775   4.920
 9622SOL    HW129765   6.433   6.846   4.850
 9622SOL    HW229766   6.373   6.698   4.886
 9623SOL     OW29767   2.536   6.118   6.058
 9623SOL    HW129768   2.534   6.206   6.011
 9623SOL    HW229769   2.446   6.101   6.100
 9624SOL     OW29770   4.225   4.634   6.683
 9624SOL    HW129771   4.271   4.545   6.678
 9624SOL    HW229772   4.261   4.684   6.762
 9625SOL     OW29773   5.534   4.739   5.915
 9625SOL    HW129774   5.576   4.749   5.825
 9625SOL    HW229775   5.458   4.675   5.909
 9626SOL     OW29776   2.720   2.588   6.496
 9626SOL    HW129777   2.649   2.572   6.428
 9626SOL    HW229778   2.747   2.502   6.538
 9627SOL     OW29779   6.453   5.990   0.542
 9627SOL    HW129780   6.426   6.061   0.607
 9627SOL    HW229781   6.372   5.955   0.496
 9628SOL     OW29782   6.152   1.600   5.562
 9628SOL    HW129783   6.075   1.541   5.586
 9628SOL    HW229784   6.199   1.629   5.645
 9629SOL     OW29785   0.803   5.768   4.087
 9629SOL    HW129786   0.722   5.751   4.143
 9629SOL    HW229787   0.784   5.842   4.022
 9630SOL     OW29788   6.444   0.202   5.982
 9630SOL    HW129789   6.370   0.196   6.049
 9630SOL    HW229790   6.408   0.230   5.893
 9631SOL     OW29791   4.575   6.325   0.350
 9631SOL    HW129792   4.558   6.287   0.442
 9631SOL    HW229793   4.671   6.311   0.326
 9632SOL     OW29794   2.954   5.686   2.384
 9632SOL    HW129795   2.934   5.618   2.454
 9632SOL    HW229796   3.049   5.677   2.354
 9633SOL     OW29797   3.282   3.272   5.318
 9633SOL    HW129798   3.282   3.317   5.229
 9633SOL    HW229799   3.376   3.261   5.350
 9634SOL     OW29800   6.408   4.650   3.085
 9634SOL    HW129801   6.400   4.645   2.985
 9634SOL    HW229802   6.322   4.683   3.124
 9635SOL     OW29803   0.740   5.455   4.204
 9635SOL    HW129804   0.654   5.404   4.203
 9635SOL    HW229805   0.723   5.548   4.235
 9636SOL     OW29806   5.281   3.524   3.648
 9636SOL    HW129807   5.363   3.477   3.679
 9636SOL    HW229808   5.249   3.483   3.563
 9637SOL     OW29809   3.219   2.767   6.589
 9637SOL    HW129810   3.267   2.759   6.502
 9637SOL    HW229811   3.120   2.758   6.573
 9638SOL     OW29812   0.596   4.636   5.647
 9638SOL    HW129813   0.514   4.672   5.601
 9638SOL    HW229814   0.677   4.683   5.611
 9639SOL     OW29815   5.388   2.899   1.848
 9639SOL    HW129816   5.477   2.854   1.847
 9639SOL    HW229817   5.342   2.883   1.761
 9640SOL     OW29818   3.524   0.234   3.353
 9640SOL    HW129819   3.588   0.254   3.428
 9640SOL    HW229820   3.481   0.145   3.370
 9641SOL     OW29821   0.784   2.605   4.762
 9641SOL    HW129822   0.825   2.619   4.672
 9641SOL    HW229823   0.754   2.510   4.771
 9642SOL     OW29824   0.561   2.598   5.007
 9642SOL    HW129825   0.563   2.620   5.105
 9642SOL    HW229826   0.584   2.680   4.955
 9643SOL     OW29827   6.448   5.209   4.382
 9643SOL    HW129828   6.352   5.231   4.402
 9643SOL    HW229829   6.452   5.122   4.333
 9644SOL     OW29830   0.458   4.776   3.311
 9644SOL    HW129831   0.362   4.769   3.340
 9644SOL    HW229832   0.490   4.687   3.279
 9645SOL     OW29833   0.784   4.927   0.269
 9645SOL    HW129834   0.703   4.879   0.303
 9645SOL    HW229835   0.866   4.882   0.305
 9646SOL     OW29836   2.888   4.979   0.481
 9646SOL    HW129837   2.931   4.902   0.528
 9646SOL    HW229838   2.791   4.983   0.506
 9647SOL     OW29839   5.421   0.117   3.121
 9647SOL    HW129840   5.395   0.119   3.024
 9647SOL    HW229841   5.517   0.092   3.129
 9648SOL     OW29842   3.623   2.156   0.954
 9648SOL    HW129843   3.719   2.164   0.982
 9648SOL    HW229844   3.570   2.230   0.994
 9649SOL     OW29845   0.056   6.005   0.780
 9649SOL    HW129846   0.005   6.055   0.850
 9649SOL    HW229847   0.154   6.024   0.791
 9650SOL     OW29848   0.137   5.493   5.060
 9650SOL    HW129849   0.174   5.407   5.094
 9650SOL    HW229850   0.142   5.563   5.131
 9651SOL     OW29851   3.841   1.451   6.802
 9651SOL    HW129852   3.854   1.542   6.843
 9651SOL    HW229853   3.745   1.441   6.776
 9652SOL     OW29854   0.290   3.821   0.581
 9652SOL    HW129855   0.333   3.911   0.575
 9652SOL    HW229856   0.224   3.820   0.656
 9653SOL     OW29857   5.713   3.832   5.366
 9653SOL    HW129858   5.746   3.740   5.389
 9653SOL    HW229859   5.771   3.872   5.295
 9654SOL     OW29860   4.172   3.434   4.946
 9654SOL    HW129861   4.175   3.407   4.850
 9654SOL    HW229862   4.221   3.520   4.958
 9655SOL     OW29863   4.814   0.350   0.931
 9655SOL    HW129864   4.909   0.342   0.902
 9655SOL    HW229865   4.797   0.289   1.008
 9656SOL     OW29866   4.940   4.626   5.783
 9656SOL    HW129867   4.992   4.547   5.754
 9656SOL    HW229868   4.940   4.695   5.710
 9657SOL     OW29869   5.101   5.398   2.725
 9657SOL    HW129870   5.078   5.431   2.817
 9657SOL    HW229871   5.074   5.302   2.717
 9658SOL     OW29872   5.405   0.960   2.999
 9658SOL    HW129873   5.412   0.993   2.905
 9658SOL    HW229874   5.336   1.014   3.047
 9659SOL     OW29875   3.645   3.089   0.521
 9659SOL    HW129876   3.574   3.126   0.581
 9659SOL    HW229877   3.618   2.998   0.489
 9660SOL     OW29878   2.659   6.671   1.738
 9660SOL    HW129879   2.665   6.679   1.638
 9660SOL    HW229880   2.612   6.586   1.762
 9661SOL     OW29881   4.038   3.652   2.320
 9661SOL    HW129882   4.085   3.592   2.384
 9661SOL    HW229883   3.940   3.633   2.322
 9662SOL     OW29884   4.214   0.540   4.895
 9662SOL    HW129885   4.288   0.528   4.961
 9662SOL    HW229886   4.132   0.493   4.929
 9663SOL     OW29887   1.341   6.000   2.753
 9663SOL    HW129888   1.270   6.066   2.777
 9663SOL    HW229889   1.424   6.020   2.805
 9664SOL     OW29890   2.034   4.458   3.137
 9664SOL    HW129891   2.016   4.476   3.234
 9664SOL    HW229892   1.954   4.415   3.096
 9665SOL     OW29893   6.286   3.760   6.500
 9665SOL    HW129894   6.238   3.697   6.561
 9665SOL    HW229895   6.360   3.712   6.454
 9666SOL     OW29896   4.862   4.197   0.672
 9666SOL    HW129897   4.776   4.190   0.621
 9666SOL    HW229898   4.857   4.140   0.754
 9667SOL     OW29899   6.204   6.386   6.576
 9667SOL    HW129900   6.228   6.483   6.571
 9667SOL    HW229901   6.105   6.376   6.562
 9668SOL     OW29902   2.371   0.285   0.471
 9668SOL    HW129903   2.417   0.340   0.541
 9668SOL    HW229904   2.351   0.342   0.392
 9669SOL     OW29905   3.465   0.056   0.178
 9669SOL    HW129906   3.459   6.988   0.151
 9669SOL    HW229907   3.376   0.086   0.212
 9670SOL     OW29908   0.975   0.009   2.327
 9670SOL    HW129909   0.878   0.021   2.303
 9670SOL    HW229910   1.032   0.060   2.263
 9671SOL     OW29911   1.076   6.059   6.312
 9671SOL    HW129912   1.143   6.086   6.381
 9671SOL    HW229913   1.028   6.141   6.279
 9672SOL     OW29914   0.576   4.856   5.300
 9672SOL    HW129915   0.599   4.950   5.273
 9672SOL    HW229916   0.626   4.832   5.383
 9673SOL     OW29917   2.118   2.928   5.712
 9673SOL    HW129918   2.137   2.858   5.643
 9673SOL    HW229919   2.196   2.990   5.719
 9674SOL     OW29920   1.734   0.082   3.669
 9674SOL    HW129921   1.717   0.180   3.664
 9674SOL    HW229922   1.827   0.065   3.701
 9675SOL     OW29923   6.404   3.958   6.095
 9675SOL    HW129924   6.466   4.017   6.043
 9675SOL    HW229925   6.388   3.997   6.185
 9676SOL     OW29926   0.891   2.854   6.384
 9676SOL    HW129927   0.985   2.874   6.414
 9676SOL    HW229928   0.892   2.775   6.323
 9677SOL     OW29929   0.516   5.176   2.743
 9677SOL    HW129930   0.457   5.098   2.727
 9677SOL    HW229931   0.557   5.169   2.834
 9678SOL     OW29932   4.915   3.324   6.273
 9678SOL    HW129933   4.950   3.377   6.196
 9678SOL    HW229934   4.831   3.278   6.246
 9679SOL     OW29935   1.579   1.217   4.744
 9679SOL    HW129936   1.653   1.284   4.746
 9679SOL    HW229937   1.580   1.170   4.656
 9680SOL     OW29938   4.496   0.317   2.124
 9680SOL    HW129939   4.473   0.243   2.187
 9680SOL    HW229940   4.559   0.283   2.054
 9681SOL     OW29941   0.377   2.667   1.363
 9681SOL    HW129942   0.325   2.637   1.282
 9681SOL    HW229943   0.472   2.685   1.336
 9682SOL     OW29944   3.794   6.220   5.244
 9682SOL    HW129945   3.755   6.144   5.295
 9682SOL    HW229946   3.894   6.217   5.251
 9683SOL     OW29947   3.260   5.783   3.944
 9683SOL    HW129948   3.348   5.810   3.905
 9683SOL    HW229949   3.222   5.708   3.890
 9684SOL     OW29950   1.098   2.571   6.390
 9684SOL    HW129951   1.148   2.622   6.320
 9684SOL    HW229952   1.115   2.612   6.480
 9685SOL     OW29953   3.733   4.449   1.683
 9685SOL    HW129954   3.688   4.518   1.740
 9685SOL    HW229955   3.674   4.425   1.606
 9686SOL     OW29956   0.583   1.621   5.949
 9686SOL    HW129957   0.579   1.667   5.860
 9686SOL    HW229958   0.679   1.609   5.975
 9687SOL     OW29959   5.691   0.619   3.932
 9687SOL    HW129960   5.750   0.542   3.955
 9687SOL    HW229961   5.597   0.598   3.958
 9688SOL     OW29962   0.562   5.517   2.507
 9688SOL    HW129963   0.588   5.595   2.564
 9688SOL    HW229964   0.593   5.532   2.413
 9689SOL     OW29965   1.790   5.319   1.370
 9689SOL    HW129966   1.824   5.370   1.290
 9689SOL    HW229967   1.789   5.380   1.449
 9690SOL     OW29968   6.442   4.720   4.752
 9690SOL    HW129969   6.542   4.726   4.747
 9690SOL    HW229970   6.414   4.625   4.734
 9691SOL     OW29971   3.779   3.613   2.127
 9691SOL    HW129972   3.824   3.698   2.101
 9691SOL    HW229973   3.704   3.633   2.191
 9692SOL     OW29974   5.691   4.926   0.611
 9692SOL    HW129975   5.781   4.969   0.609
 9692SOL    HW229976   5.697   4.836   0.568
 9693SOL     OW29977   4.392   3.088   6.625
 9693SOL    HW129978   4.458   3.030   6.673
 9693SOL    HW229979   4.301   3.047   6.630
 9694SOL     OW29980   3.083   6.343   0.964
 9694SOL    HW129981   3.180   6.323   0.974
 9694SOL    HW229982   3.050   6.305   0.877
 9695SOL     OW29983   1.996   2.628   3.515
 9695SOL    HW129984   1.922   2.681   3.476
 9695SOL    HW229985   2.006   2.650   3.612
 9696SOL     OW29986   4.967   3.820   3.525
 9696SOL    HW129987   4.893   3.881   3.554
 9696SOL    HW229988   4.948   3.786   3.433
 9697SOL     OW29989   6.317   0.061   2.163
 9697SOL    HW129990   6.317   0.043   2.261
 9697SOL    HW229991   6.409   0.048   2.126
 9698SOL     OW29992   6.865   2.851   1.217
 9698SOL    HW129993   6.878   2.861   1.315
 9698SOL    HW229994   6.805   2.923   1.183
 9699SOL     OW29995   1.685   6.875   2.254
 9699SOL    HW129996   1.633   6.871   2.339
 9699SOL    HW229997   1.727   6.965   2.245
 9700SOL     OW29998   6.265   0.646   5.601
 9700SOL    HW129999   6.181   0.597   5.625
 9700SOL    HW230000   6.344   0.590   5.626
 9701SOL     OW30001   5.936   3.892   6.541
 9701SOL    HW130002   5.967   3.871   6.634
 9701SOL    HW230003   5.864   3.828   6.515
 9702SOL     OW30004   2.979   3.533   1.791
 9702SOL    HW130005   3.032   3.448   1.793
 9702SOL    HW230006   2.961   3.563   1.884
 9703SOL     OW30007   6.855   4.852   2.890
 9703SOL    HW130008   6.796   4.837   2.811
 9703SOL    HW230009   6.873   4.949   2.901
 9704SOL     OW30010   0.703   5.095   2.157
 9704SOL    HW130011   0.658   5.041   2.087
 9704SOL    HW230012   0.780   5.144   2.117
 9705SOL     OW30013   0.211   4.238   5.786
 9705SOL    HW130014   0.146   4.293   5.733
 9705SOL    HW230015   0.220   4.148   5.743
 9706SOL     OW30016   0.553   6.609   2.379
 9706SOL    HW130017   0.532   6.701   2.347
 9706SOL    HW230018   0.646   6.585   2.351
 9707SOL     OW30019   1.553   4.783   2.125
 9707SOL    HW130020   1.564   4.786   2.224
 9707SOL    HW230021   1.637   4.813   2.081
 9708SOL     OW30022   2.786   0.969   1.541
 9708SOL    HW130023   2.834   0.886   1.511
 9708SOL    HW230024   2.818   0.994   1.632
 9709SOL     OW30025   4.369   1.663   2.228
 9709SOL    HW130026   4.423   1.594   2.181
 9709SOL    HW230027   4.276   1.628   2.243
 9710SOL     OW30028   5.018   4.487   4.405
 9710SOL    HW130029   4.945   4.527   4.460
 9710SOL    HW230030   5.017   4.527   4.313
 9711SOL     OW30031   2.822   0.206   6.915
 9711SOL    HW130032   2.825   0.166   6.823
 9711SOL    HW230033   2.895   0.273   6.925
 9712SOL     OW30034   4.676   6.685   5.186
 9712SOL    HW130035   4.586   6.642   5.194
 9712SOL    HW230036   4.667   6.772   5.138
 9713SOL     OW30037   0.983   0.720   3.091
 9713SOL    HW130038   0.946   0.680   3.174
 9713SOL    HW230039   0.937   0.806   3.070
 9714SOL     OW30040   2.447   2.750   4.047
 9714SOL    HW130041   2.475   2.666   4.095
 9714SOL    HW230042   2.393   2.807   4.109
 9715SOL     OW30043   6.919   1.500   6.719
 9715SOL    HW130044   6.952   1.503   6.814
 9715SOL    HW230045   6.857   1.422   6.708
 9716SOL     OW30046   1.885   6.306   0.421
 9716SOL    HW130047   1.966   6.250   0.440
 9716SOL    HW230048   1.804   6.247   0.417
 9717SOL     OW30049   4.448   2.294   6.167
 9717SOL    HW130050   4.403   2.214   6.127
 9717SOL    HW230051   4.545   2.274   6.180
 9718SOL     OW30052   2.913   2.352   6.381
 9718SOL    HW130053   2.939   2.261   6.348
 9718SOL    HW230054   2.845   2.343   6.454
 9719SOL     OW30055   4.074   0.067   5.583
 9719SOL    HW130056   4.064   0.042   5.679
 9719SOL    HW230057   3.986   0.057   5.537
 9720SOL     OW30058   2.178   2.614   2.115
 9720SOL    HW130059   2.165   2.539   2.180
 9720SOL    HW230060   2.276   2.624   2.095
 9721SOL     OW30061   0.803   2.154   1.490
 9721SOL    HW130062   0.865   2.223   1.527
 9721SOL    HW230063   0.787   2.173   1.393
 9722SOL     OW30064   3.411   2.923   5.420
 9722SOL    HW130065   3.464   2.866   5.483
 9722SOL    HW230066   3.339   2.970   5.471
 9723SOL     OW30067   5.526   0.995   5.274
 9723SOL    HW130068   5.439   1.029   5.240
 9723SOL    HW230069   5.535   0.898   5.252
 9724SOL     OW30070   1.808   5.077   1.507
 9724SOL    HW130071   1.831   5.002   1.445
 9724SOL    HW230072   1.810   5.164   1.457
 9725SOL     OW30073   5.446   5.509   4.297
 9725SOL    HW130074   5.467   5.471   4.206
 9725SOL    HW230075   5.483   5.448   4.367
 9726SOL     OW30076   7.027   0.041   3.332
 9726SOL    HW130077   0.019   0.035   3.430
 9726SOL    HW230078   6.934   0.010   3.315
 9727SOL     OW30079   6.563   3.144   1.519
 9727SOL    HW130080   6.593   3.123   1.612
 9727SOL    HW230081   6.539   3.241   1.513
 9728SOL     OW30082   5.966   1.585   5.044
 9728SOL    HW130083   5.882   1.627   5.078
 9728SOL    HW230084   5.947   1.531   4.962
 9729SOL     OW30085   0.203   3.845   2.416
 9729SOL    HW130086   0.115   3.807   2.386
 9729SOL    HW230087   0.276   3.808   2.359
 9730SOL     OW30088   0.889   5.974   3.703
 9730SOL    HW130089   0.903   6.044   3.633
 9730SOL    HW230090   0.814   6.002   3.763
 9731SOL     OW30091   6.558   1.642   1.543
 9731SOL    HW130092   6.580   1.595   1.628
 9731SOL    HW230093   6.616   1.723   1.533
 9732SOL     OW30094   0.227   2.592   3.339
 9732SOL    HW130095   0.234   2.674   3.283
 9732SOL    HW230096   0.190   2.517   3.284
 9733SOL     OW30097   5.394   5.878   0.200
 9733SOL    HW130098   5.323   5.933   0.245
 9733SOL    HW230099   5.457   5.842   0.269
 9734SOL     OW30100   3.983   3.823   0.097
 9734SOL    HW130101   4.056   3.755   0.104
 9734SOL    HW230102   3.902   3.791   0.145
 9735SOL     OW30103   1.276   1.625   0.303
 9735SOL    HW130104   1.199   1.619   0.367
 9735SOL    HW230105   1.255   1.692   0.232
 9736SOL     OW30106   5.334   2.429   5.982
 9736SOL    HW130107   5.389   2.351   5.953
 9736SOL    HW230108   5.392   2.511   5.988
 9737SOL     OW30109   5.250   3.180   5.209
 9737SOL    HW130110   5.213   3.200   5.300
 9737SOL    HW230111   5.322   3.245   5.187
 9738SOL     OW30112   2.583   6.107   1.447
 9738SOL    HW130113   2.677   6.127   1.419
 9738SOL    HW230114   2.581   6.023   1.501
 9739SOL     OW30115   5.645   6.653   0.668
 9739SOL    HW130116   5.574   6.666   0.737
 9739SOL    HW230117   5.727   6.616   0.712
 9740SOL     OW30118   6.554   0.971   1.042
 9740SOL    HW130119   6.654   0.978   1.045
 9740SOL    HW230120   6.523   0.983   0.948
 9741SOL     OW30121   2.424   2.686   2.987
 9741SOL    HW130122   2.484   2.612   2.958
 9741SOL    HW230123   2.426   2.693   3.087
 9742SOL     OW30124   4.156   0.470   6.982
 9742SOL    HW130125   4.195   0.482   6.890
 9742SOL    HW230126   4.210   0.523   0.019
 9743SOL     OW30127   6.292   3.714   4.489
 9743SOL    HW130128   6.325   3.623   4.465
 9743SOL    HW230129   6.360   3.761   4.545
 9744SOL     OW30130   1.687   2.914   1.993
 9744SOL    HW130131   1.687   2.818   1.963
 9744SOL    HW230132   1.596   2.939   2.026
 9745SOL     OW30133   1.342   6.708   6.003
 9745SOL    HW130134   1.261   6.761   6.028
 9745SOL    HW230135   1.328   6.668   5.912
 9746SOL     OW30136   3.387   6.214   5.910
 9746SOL    HW130137   3.357   6.305   5.882
 9746SOL    HW230138   3.446   6.221   5.991
 9747SOL     OW30139   4.198   1.609   3.484
 9747SOL    HW130140   4.288   1.651   3.468
 9747SOL    HW230141   4.129   1.656   3.428
 9748SOL     OW30142   0.356   2.045   2.565
 9748SOL    HW130143   0.266   2.086   2.572
 9748SOL    HW230144   0.370   2.013   2.471
 9749SOL     OW30145   6.731   0.472   1.640
 9749SOL    HW130146   6.735   0.572   1.651
 9749SOL    HW230147   6.646   0.437   1.680
 9750SOL     OW30148   5.854   1.867   4.939
 9750SOL    HW130149   5.952   1.881   4.926
 9750SOL    HW230150   5.839   1.810   5.020
 9751SOL     OW30151   2.731   5.653   1.121
 9751SOL    HW130152   2.710   5.622   1.028
 9751SOL    HW230153   2.647   5.651   1.176
 9752SOL     OW30154   4.068   3.712   0.692
 9752SOL    HW130155   4.048   3.644   0.763
 9752SOL    HW230156   4.038   3.802   0.723
 9753SOL     OW30157   6.352   6.644   3.149
 9753SOL    HW130158   6.270   6.622   3.203
 9753SOL    HW230159   6.346   6.600   3.060
 9754SOL     OW30160   3.161   0.488   1.913
 9754SOL    HW130161   3.152   0.388   1.906
 9754SOL    HW230162   3.091   0.531   1.856
 9755SOL     OW30163   3.151   4.259   1.094
 9755SOL    HW130164   3.170   4.201   1.173
 9755SOL    HW230165   3.179   4.212   1.010
 9756SOL     OW30166   4.931   6.889   6.757
 9756SOL    HW130167   4.883   6.975   6.739
 9756SOL    HW230168   5.029   6.901   6.737
 9757SOL     OW30169   4.874   4.088   4.185
 9757SOL    HW130170   4.834   4.007   4.227
 9757SOL    HW230171   4.972   4.072   4.168
 9758SOL     OW30172   3.496   0.915   1.787
 9758SOL    HW130173   3.451   0.907   1.699
 9758SOL    HW230174   3.511   0.824   1.825
 9759SOL     OW30175   6.673   1.755   0.870
 9759SOL    HW130176   6.726   1.772   0.787
 9759SOL    HW230177   6.589   1.705   0.846
 9760SOL     OW30178   4.593   1.071   6.520
 9760SOL    HW130179   4.549   0.993   6.477
 9760SOL    HW230180   4.691   1.052   6.530
 9761SOL     OW30181   0.744   2.009   1.958
 9761SOL    HW130182   0.816   2.048   2.016
 9761SOL    HW230183   0.702   2.082   1.904
 9762SOL     OW30184   3.692   0.895   5.861
 9762SOL    HW130185   3.655   0.837   5.789
 9762SOL    HW230186   3.728   0.838   5.935
 9763SOL     OW30187   5.504   1.590   1.149
 9763SOL    HW130188   5.551   1.529   1.213
 9763SOL    HW230189   5.430   1.637   1.196
 9764SOL     OW30190   0.441   2.439   3.409
 9764SOL    HW130191   0.407   2.348   3.433
 9764SOL    HW230192   0.368   2.492   3.367
 9765SOL     OW30193   6.134   2.283   1.293
 9765SOL    HW130194   6.054   2.328   1.255
 9765SOL    HW230195   6.212   2.296   1.232
 9766SOL     OW30196   0.196   2.607   2.841
 9766SOL    HW130197   0.185   2.673   2.767
 9766SOL    HW230198   0.155   2.520   2.815
 9767SOL     OW30199   3.678   1.671   4.437
 9767SOL    HW130200   3.712   1.755   4.395
 9767SOL    HW230201   3.714   1.592   4.387
 9768SOL     OW30202   4.837   2.392   6.461
 9768SOL    HW130203   4.869   2.320   6.522
 9768SOL    HW230204   4.894   2.474   6.471
 9769SOL     OW30205   3.761   1.045   5.286
 9769SOL    HW130206   3.712   0.962   5.313
 9769SOL    HW230207   3.855   1.022   5.262
 9770SOL     OW30208   2.219   3.121   5.503
 9770SOL    HW130209   2.133   3.166   5.527
 9770SOL    HW230210   2.200   3.045   5.441
 9771SOL     OW30211   3.371   0.920   2.205
 9771SOL    HW130212   3.279   0.914   2.166
 9771SOL    HW230213   3.388   0.842   2.264
 9772SOL     OW30214   0.324   0.476   2.018
 9772SOL    HW130215   0.376   0.540   2.075
 9772SOL    HW230216   0.323   0.510   1.924
 9773SOL     OW30217   4.710   6.185   1.875
 9773SOL    HW130218   4.806   6.212   1.882
 9773SOL    HW230219   4.657   6.229   1.948
 9774SOL     OW30220   1.663   5.629   4.595
 9774SOL    HW130221   1.601   5.555   4.571
 9774SOL    HW230222   1.616   5.693   4.657
 9775SOL     OW30223   1.482   0.892   3.087
 9775SOL    HW130224   1.492   0.982   3.129
 9775SOL    HW230225   1.563   0.838   3.105
 9776SOL     OW30226   1.260   5.808   1.803
 9776SOL    HW130227   1.261   5.894   1.854
 9776SOL    HW230228   1.329   5.746   1.839
 9777SOL     OW30229   4.509   1.971   5.180
 9777SOL    HW130230   4.423   1.990   5.133
 9777SOL    HW230231   4.504   1.882   5.225
 9778SOL     OW30232   1.345   3.820   2.998
 9778SOL    HW130233   1.373   3.761   3.074
 9778SOL    HW230234   1.315   3.763   2.921
 9779SOL     OW30235   2.417   1.156   2.710
 9779SOL    HW130236   2.487   1.093   2.744
 9779SOL    HW230237   2.445   1.251   2.729
 9780SOL     OW30238   1.462   1.825   0.811
 9780SOL    HW130239   1.496   1.918   0.802
 9780SOL    HW230240   1.368   1.827   0.843
 9781SOL     OW30241   1.492   1.172   2.512
 9781SOL    HW130242   1.401   1.202   2.541
 9781SOL    HW230243   1.508   1.202   2.418
 9782SOL     OW30244   6.964   2.702   0.179
 9782SOL    HW130245   7.007   2.670   0.263
 9782SOL    HW230246   6.937   2.623   0.123
 9783SOL     OW30247   4.586   1.450   2.504
 9783SOL    HW130248   4.490   1.471   2.524
 9783SOL    HW230249   4.591   1.390   2.424
 9784SOL     OW30250   2.237   1.026   0.591
 9784SOL    HW130251   2.240   1.115   0.637
 9784SOL    HW230252   2.266   1.037   0.496
 9785SOL     OW30253   1.322   3.461   4.469
 9785SOL    HW130254   1.337   3.367   4.500
 9785SOL    HW230255   1.393   3.520   4.506
 9786SOL     OW30256   2.956   4.373   6.601
 9786SOL    HW130257   2.874   4.423   6.628
 9786SOL    HW230258   2.984   4.312   6.675
 9787SOL     OW30259   2.331   3.441   0.672
 9787SOL    HW130260   2.234   3.415   0.675
 9787SOL    HW230261   2.367   3.425   0.580
 9788SOL     OW30262   2.163   0.013   2.424
 9788SOL    HW130263   2.153   0.091   2.362
 9788SOL    HW230264   2.074   7.019   2.464
 9789SOL     OW30265   4.619   1.815   0.172
 9789SOL    HW130266   4.525   1.781   0.174
 9789SOL    HW230267   4.623   1.900   0.120
 9790SOL     OW30268   4.660   5.970   5.006
 9790SOL    HW130269   4.755   5.995   5.023
 9790SOL    HW230270   4.655   5.878   4.968
 9791SOL     OW30271   0.262   1.207   1.344
 9791SOL    HW130272   0.243   1.259   1.261
 9791SOL    HW230273   0.347   1.240   1.385
 9792SOL     OW30274   3.405   3.396   0.557
 9792SOL    HW130275   3.446   3.329   0.619
 9792SOL    HW230276   3.313   3.419   0.589
 9793SOL     OW30277   5.930   1.176   1.806
 9793SOL    HW130278   5.912   1.139   1.897
 9793SOL    HW230279   5.925   1.103   1.738
 9794SOL     OW30280   4.222   5.680   4.719
 9794SOL    HW130281   4.270   5.754   4.765
 9794SOL    HW230282   4.195   5.610   4.786
 9795SOL     OW30283   1.825   4.291   3.031
 9795SOL    HW130284   1.855   4.207   3.075
 9795SOL    HW230285   1.748   4.330   3.083
 9796SOL     OW30286   3.835   3.497   4.986
 9796SOL    HW130287   3.930   3.521   5.006
 9796SOL    HW230288   3.830   3.403   4.952
 9797SOL     OW30289   3.253   5.528   6.872
 9797SOL    HW130290   3.335   5.571   6.834
 9797SOL    HW230291   3.183   5.520   6.800
 9798SOL     OW30292   0.323   4.468   6.538
 9798SOL    HW130293   0.306   4.382   6.585
 9798SOL    HW230294   0.375   4.450   6.454
 9799SOL     OW30295   3.811   6.396   6.502
 9799SOL    HW130296   3.866   6.478   6.516
 9799SOL    HW230297   3.740   6.414   6.434
 9800SOL     OW30298   6.920   4.584   4.768
 9800SOL    HW130299   6.909   4.592   4.867
 9800SOL    HW230300   7.014   4.554   4.747
 9801SOL     OW30301   4.197   0.135   0.616
 9801SOL    HW130302   4.138   0.056   0.601
 9801SOL    HW230303   4.263   0.114   0.689
 9802SOL     OW30304   3.886   2.983   0.377
 9802SOL    HW130305   3.858   3.062   0.431
 9802SOL    HW230306   3.831   2.904   0.403
 9803SOL     OW30307   2.562   3.564   0.457
 9803SOL    HW130308   2.510   3.479   0.464
 9803SOL    HW230309   2.652   3.545   0.419
 9804SOL     OW30310   1.098   4.059   2.904
 9804SOL    HW130311   1.125   4.125   2.975
 9804SOL    HW230312   1.040   4.104   2.837
 9805SOL     OW30313   0.094   5.212   5.081
 9805SOL    HW130314   0.189   5.200   5.108
 9805SOL    HW230315   0.035   5.166   5.146
 9806SOL     OW30316   3.382   0.772   6.554
 9806SOL    HW130317   3.440   0.799   6.476
 9806SOL    HW230318   3.396   0.837   6.629
 9807SOL     OW30319   3.582   3.199   4.139
 9807SOL    HW130320   3.507   3.136   4.159
 9807SOL    HW230321   3.562   3.249   4.055
 9808SOL     OW30322   2.859   5.942   2.648
 9808SOL    HW130323   2.824   5.850   2.666
 9808SOL    HW230324   2.888   5.949   2.552
 9809SOL     OW30325   6.226   3.421   1.304
 9809SOL    HW130326   6.189   3.333   1.273
 9809SOL    HW230327   6.191   3.441   1.395
 9810SOL     OW30328   3.978   2.947   0.992
 9810SOL    HW130329   3.952   3.042   0.974
 9810SOL    HW230330   3.940   2.888   0.921
 9811SOL     OW30331   5.356   3.499   4.047
 9811SOL    HW130332   5.376   3.415   3.998
 9811SOL    HW230333   5.387   3.491   4.142
 9812SOL     OW30334   3.285   5.041   6.567
 9812SOL    HW130335   3.311   5.096   6.647
 9812SOL    HW230336   3.202   4.990   6.588
 9813SOL     OW30337   4.695   0.685   2.014
 9813SOL    HW130338   4.760   0.634   2.071
 9813SOL    HW230339   4.634   0.621   1.968
 9814SOL     OW30340   6.684   1.376   6.225
 9814SOL    HW130341   6.696   1.472   6.252
 9814SOL    HW230342   6.643   1.326   6.301
 9815SOL     OW30343   5.730   2.429   4.538
 9815SOL    HW130344   5.797   2.461   4.606
 9815SOL    HW230345   5.726   2.495   4.463
 9816SOL     OW30346   3.248   0.445   0.376
 9816SOL    HW130347   3.206   0.398   0.453
 9816SOL    HW230348   3.346   0.459   0.394
 9817SOL     OW30349   6.062   0.449   1.318
 9817SOL    HW130350   6.133   0.465   1.387
 9817SOL    HW230351   6.029   0.537   1.283
 9818SOL     OW30352   3.744   2.312   5.498
 9818SOL    HW130353   3.718   2.408   5.488
 9818SOL    HW230354   3.843   2.303   5.492
 9819SOL     OW30355   2.436   0.607   1.816
 9819SOL    HW130356   2.472   0.615   1.724
 9819SOL    HW230357   2.480   0.675   1.875
 9820SOL     OW30358   3.616   2.459   0.035
 9820SOL    HW130359   3.589   2.403   6.985
 9820SOL    HW230360   3.646   2.549   0.002
 9821SOL     OW30361   0.577   6.101   6.805
 9821SOL    HW130362   0.536   6.050   6.730
 9821SOL    HW230363   0.505   6.129   6.870
 9822SOL     OW30364   0.399   0.659   2.186
 9822SOL    HW130365   0.306   0.634   2.214
 9822SOL    HW230366   0.433   0.731   2.246
 9823SOL     OW30367   3.549   6.744   1.937
 9823SOL    HW130368   3.546   6.650   1.903
 9823SOL    HW230369   3.616   6.797   1.886
 9824SOL     OW30370   2.043   3.995   5.402
 9824SOL    HW130371   2.098   4.025   5.480
 9824SOL    HW230372   2.097   3.932   5.346
 9825SOL     OW30373   3.855   5.143   5.074
 9825SOL    HW130374   3.757   5.159   5.072
 9825SOL    HW230375   3.887   5.143   5.169
 9826SOL     OW30376   5.400   6.585   5.419
 9826SOL    HW130377   5.382   6.667   5.364
 9826SOL    HW230378   5.317   6.558   5.467
 9827SOL     OW30379   0.669   5.438   4.867
 9827SOL    HW130380   0.670   5.535   4.843
 9827SOL    HW230381   0.757   5.397   4.842
 9828SOL     OW30382   2.488   1.509   0.068
 9828SOL    HW130383   2.401   1.458   0.072
 9828SOL    HW230384   2.471   1.605   0.092
 9829SOL     OW30385   2.796   4.000   1.691
 9829SOL    HW130386   2.859   4.061   1.738
 9829SOL    HW230387   2.847   3.937   1.632
 9830SOL     OW30388   6.063   1.793   1.240
 9830SOL    HW130389   6.043   1.755   1.149
 9830SOL    HW230390   6.014   1.740   1.309
 9831SOL     OW30391   5.829   6.384   1.451
 9831SOL    HW130392   5.730   6.373   1.447
 9831SOL    HW230393   5.856   6.466   1.400
 9832SOL     OW30394   3.007   3.607   0.576
 9832SOL    HW130395   2.965   3.571   0.493
 9832SOL    HW230396   3.063   3.536   0.618
 9833SOL     OW30397   4.945   4.294   6.893
 9833SOL    HW130398   5.028   4.311   6.839
 9833SOL    HW230399   4.966   4.299   6.990
 9834SOL     OW30400   2.044   2.746   3.813
 9834SOL    HW130401   2.131   2.796   3.806
 9834SOL    HW230402   1.995   2.777   3.894
 9835SOL     OW30403   5.434   1.726   4.400
 9835SOL    HW130404   5.522   1.707   4.356
 9835SOL    HW230405   5.363   1.733   4.331
 9836SOL     OW30406   5.327   5.459   1.642
 9836SOL    HW130407   5.423   5.432   1.638
 9836SOL    HW230408   5.275   5.406   1.575
 9837SOL     OW30409   2.668   5.858   5.749
 9837SOL    HW130410   2.577   5.862   5.791
 9837SOL    HW230411   2.679   5.934   5.686
 9838SOL     OW30412   6.846   6.082   5.049
 9838SOL    HW130413   6.939   6.078   5.087
 9838SOL    HW230414   6.786   6.131   5.113
 9839SOL     OW30415   5.711   3.482   2.649
 9839SOL    HW130416   5.803   3.447   2.631
 9839SOL    HW230417   5.688   3.467   2.745
 9840SOL     OW30418   5.750   0.315   0.125
 9840SOL    HW130419   5.773   0.375   0.049
 9840SOL    HW230420   5.656   0.282   0.114
 9841SOL     OW30421   2.189   2.968   4.494
 9841SOL    HW130422   2.247   2.913   4.553
 9841SOL    HW230423   2.140   3.036   4.549
 9842SOL     OW30424   3.253   3.327   3.865
 9842SOL    HW130425   3.235   3.414   3.911
 9842SOL    HW230426   3.176   3.304   3.806
 9843SOL     OW30427   6.165   4.743   3.160
 9843SOL    HW130428   6.089   4.690   3.123
 9843SOL    HW230429   6.132   4.802   3.234
 9844SOL     OW30430   5.109   0.289   1.964
 9844SOL    HW130431   5.032   0.337   1.921
 9844SOL    HW230432   5.178   0.355   1.991
 9845SOL     OW30433   1.442   1.584   4.160
 9845SOL    HW130434   1.466   1.615   4.252
 9845SOL    HW230435   1.371   1.643   4.122
 9846SOL     OW30436   2.923   3.300   3.925
 9846SOL    HW130437   2.825   3.281   3.938
 9846SOL    HW230438   2.933   3.384   3.872
 9847SOL     OW30439   2.254   4.250   4.640
 9847SOL    HW130440   2.242   4.184   4.714
 9847SOL    HW230441   2.236   4.206   4.552
 9848SOL     OW30442   6.222   4.049   0.110
 9848SOL    HW130443   6.154   4.082   0.176
 9848SOL    HW230444   6.296   4.003   0.159
 9849SOL     OW30445   6.619   6.130   5.210
 9849SOL    HW130446   6.612   6.048   5.268
 9849SOL    HW230447   6.628   6.211   5.269
 9850SOL     OW30448   4.845   0.787   3.387
 9850SOL    HW130449   4.916   0.790   3.317
 9850SOL    HW230450   4.759   0.754   3.346
 9851SOL     OW30451   5.078   2.439   5.223
 9851SOL    HW130452   5.025   2.513   5.264
 9851SOL    HW230453   5.138   2.399   5.293
 9852SOL     OW30454   5.662   1.690   4.258
 9852SOL    HW130455   5.717   1.622   4.306
 9852SOL    HW230456   5.700   1.706   4.167
 9853SOL     OW30457   0.864   5.214   1.435
 9853SOL    HW130458   0.826   5.122   1.428
 9853SOL    HW230459   0.799   5.280   1.397
 9854SOL     OW30460   3.596   6.632   3.877
 9854SOL    HW130461   3.651   6.673   3.805
 9854SOL    HW230462   3.643   6.639   3.965
 9855SOL     OW30463   1.877   4.496   0.735
 9855SOL    HW130464   1.817   4.484   0.814
 9855SOL    HW230465   1.835   4.562   0.672
 9856SOL     OW30466   3.771   3.196   1.551
 9856SOL    HW130467   3.728   3.244   1.628
 9856SOL    HW230468   3.705   3.133   1.511
 9857SOL     OW30469   6.540   4.726   2.845
 9857SOL    HW130470   6.450   4.736   2.803
 9857SOL    HW230471   6.580   4.638   2.819
 9858SOL     OW30472   3.539   1.646   1.394
 9858SOL    HW130473   3.558   1.568   1.333
 9858SOL    HW230474   3.446   1.636   1.431
 9859SOL     OW30475   0.377   6.702   1.031
 9859SOL    HW130476   0.362   6.658   1.119
 9859SOL    HW230477   0.376   6.634   0.958
 9860SOL     OW30478   0.707   0.952   2.786
 9860SOL    HW130479   0.657   1.038   2.780
 9860SOL    HW230480   0.771   0.944   2.710
 9861SOL     OW30481   3.041   6.617   3.670
 9861SOL    HW130482   3.054   6.522   3.699
 9861SOL    HW230483   2.950   6.627   3.630
 9862SOL     OW30484   0.364   1.973   1.159
 9862SOL    HW130485   0.274   2.014   1.174
 9862SOL    HW230486   0.435   2.035   1.193
 9863SOL     OW30487   3.980   0.216   0.387
 9863SOL    HW130488   4.055   0.237   0.450
 9863SOL    HW230489   3.893   0.229   0.434
 9864SOL     OW30490   4.459   6.182   3.162
 9864SOL    HW130491   4.384   6.199   3.226
 9864SOL    HW230492   4.546   6.184   3.212
 9865SOL     OW30493   1.969   3.202   4.027
 9865SOL    HW130494   1.929   3.148   3.953
 9865SOL    HW230495   1.931   3.171   4.114
 9866SOL     OW30496   3.276   4.915   3.500
 9866SOL    HW130497   3.195   4.943   3.552
 9866SOL    HW230498   3.257   4.828   3.455
 9867SOL     OW30499   4.001   6.759   6.348
 9867SOL    HW130500   4.052   6.821   6.288
 9867SOL    HW230501   3.904   6.782   6.344
 9868SOL     OW30502   1.532   5.167   5.375
 9868SOL    HW130503   1.434   5.174   5.391
 9868SOL    HW230504   1.549   5.147   5.279
 9869SOL     OW30505   1.684   4.276   2.801
 9869SOL    HW130506   1.733   4.259   2.886
 9869SOL    HW230507   1.643   4.368   2.804
 9870SOL     OW30508   3.989   5.050   1.437
 9870SOL    HW130509   4.069   5.069   1.381
 9870SOL    HW230510   4.001   5.090   1.528
 9871SOL     OW30511   1.732   2.268   5.748
 9871SOL    HW130512   1.758   2.217   5.830
 9871SOL    HW230513   1.783   2.354   5.746
 9872SOL     OW30514   1.400   4.144   3.345
 9872SOL    HW130515   1.430   4.225   3.396
 9872SOL    HW230516   1.334   4.094   3.400
 9873SOL     OW30517   1.782   1.541   0.581
 9873SOL    HW130518   1.700   1.572   0.533
 9873SOL    HW230519   1.797   1.444   0.562
 9874SOL     OW30520   1.322   4.114   5.102
 9874SOL    HW130521   1.318   4.079   5.196
 9874SOL    HW230522   1.415   4.106   5.068
 9875SOL     OW30523   1.265   1.342   2.996
 9875SOL    HW130524   1.232   1.346   3.090
 9875SOL    HW230525   1.196   1.381   2.935
 9876SOL     OW30526   6.588   5.846   2.393
 9876SOL    HW130527   6.500   5.893   2.390
 9876SOL    HW230528   6.609   5.809   2.302
 9877SOL     OW30529   4.103   0.437   1.464
 9877SOL    HW130530   4.105   0.393   1.374
 9877SOL    HW230531   4.010   0.472   1.481
 9878SOL     OW30532   0.142   0.730   5.259
 9878SOL    HW130533   0.226   0.776   5.287
 9878SOL    HW230534   0.104   0.681   5.338
 9879SOL     OW30535   5.210   5.368   4.766
 9879SOL    HW130536   5.261   5.334   4.845
 9879SOL    HW230537   5.117   5.391   4.793
 9880SOL     OW30538   1.221   2.253   4.093
 9880SOL    HW130539   1.286   2.311   4.141
 9880SOL    HW230540   1.184   2.302   4.014
 9881SOL     OW30541   0.062   1.384   6.157
 9881SOL    HW130542   0.067   1.445   6.236
 9881SOL    HW230543   0.154   1.353   6.132
 9882SOL     OW30544   2.165   2.314   3.179
 9882SOL    HW130545   2.202   2.329   3.087
 9882SOL    HW230546   2.166   2.401   3.229
 9883SOL     OW30547   2.944   1.210   2.504
 9883SOL    HW130548   3.016   1.203   2.574
 9883SOL    HW230549   2.907   1.302   2.505
 9884SOL     OW30550   3.184   0.494   3.985
 9884SOL    HW130551   3.231   0.502   3.897
 9884SOL    HW230552   3.091   0.531   3.977
 9885SOL     OW30553   6.602   3.589   4.285
 9885SOL    HW130554   6.592   3.495   4.251
 9885SOL    HW230555   6.519   3.641   4.266
 9886SOL     OW30556   0.366   3.111   1.827
 9886SOL    HW130557   0.447   3.067   1.787
 9886SOL    HW230558   0.304   3.042   1.862
 9887SOL     OW30559   4.788   6.534   5.990
 9887SOL    HW130560   4.766   6.447   5.947
 9887SOL    HW230561   4.887   6.541   6.004
 9888SOL     OW30562   6.586   5.289   6.413
 9888SOL    HW130563   6.641   5.334   6.342
 9888SOL    HW230564   6.647   5.254   6.484
 9889SOL     OW30565   0.307   5.769   0.802
 9889SOL    HW130566   0.375   5.700   0.827
 9889SOL    HW230567   0.216   5.738   0.830
 9890SOL     OW30568   0.910   2.783   0.540
 9890SOL    HW130569   0.820   2.824   0.529
 9890SOL    HW230570   0.981   2.851   0.520
 9891SOL     OW30571   5.088   1.052   1.944
 9891SOL    HW130572   5.107   1.118   2.016
 9891SOL    HW230573   4.989   1.050   1.926
 9892SOL     OW30574   0.741   7.015   0.015
 9892SOL    HW130575   0.819   0.032   0.057
 9892SOL    HW230576   0.695   6.958   0.083
 9893SOL     OW30577   2.433   1.181   6.799
 9893SOL    HW130578   2.387   1.109   6.851
 9893SOL    HW230579   2.431   1.158   6.702
 9894SOL     OW30580   2.235   0.708   1.380
 9894SOL    HW130581   2.198   0.655   1.303
 9894SOL    HW230582   2.184   0.793   1.389
 9895SOL     OW30583   4.501   2.838   5.417
 9895SOL    HW130584   4.573   2.833   5.486
 9895SOL    HW230585   4.413   2.853   5.461
 9896SOL     OW30586   6.752   6.651   5.733
 9896SOL    HW130587   6.784   6.670   5.825
 9896SOL    HW230588   6.825   6.672   5.667
 9897SOL     OW30589   5.072   4.912   4.947
 9897SOL    HW130590   5.106   4.863   5.027
 9897SOL    HW230591   5.133   4.989   4.927
 9898SOL     OW30592   2.820   7.018   6.157
 9898SOL    HW130593   2.803   6.934   6.107
 9898SOL    HW230594   2.750   0.057   6.133
 9899SOL     OW30595   0.223   4.631   0.232
 9899SOL    HW130596   0.246   4.625   0.135
 9899SOL    HW230597   0.126   4.614   0.245
 9900SOL     OW30598   2.269   4.308   3.488
 9900SOL    HW130599   2.176   4.276   3.473
 9900SOL    HW230600   2.289   4.384   3.425
 9901SOL     OW30601   1.566   3.240   5.593
 9901SOL    HW130602   1.656   3.270   5.563
 9901SOL    HW230603   1.575   3.171   5.664
 9902SOL     OW30604   2.540   4.524   0.779
 9902SOL    HW130605   2.462   4.577   0.812
 9902SOL    HW230606   2.529   4.428   0.804
 9903SOL     OW30607   5.437   1.189   4.506
 9903SOL    HW130608   5.492   1.110   4.479
 9903SOL    HW230609   5.396   1.230   4.424
 9904SOL     OW30610   6.216   2.059   0.844
 9904SOL    HW130611   6.309   2.094   0.830
 9904SOL    HW230612   6.214   2.003   0.926
 9905SOL     OW30613   4.903   0.124   0.077
 9905SOL    HW130614   4.953   0.043   0.110
 9905SOL    HW230615   4.909   0.197   0.145
 9906SOL     OW30616   3.252   3.430   5.059
 9906SOL    HW130617   3.238   3.510   5.117
 9906SOL    HW230618   3.209   3.445   4.970
 9907SOL     OW30619   1.340   6.448   1.520
 9907SOL    HW130620   1.262   6.455   1.582
 9907SOL    HW230621   1.412   6.394   1.563
 9908SOL     OW30622   5.047   3.777   1.941
 9908SOL    HW130623   5.096   3.864   1.941
 9908SOL    HW230624   5.084   3.718   1.869
 9909SOL     OW30625   2.038   0.514   4.972
 9909SOL    HW130626   1.987   0.590   5.011
 9909SOL    HW230627   1.991   0.481   4.890
 9910SOL     OW30628   6.896   4.587   3.611
 9910SOL    HW130629   6.856   4.679   3.606
 9910SOL    HW230630   6.826   4.521   3.635
 9911SOL     OW30631   2.958   5.980   2.389
 9911SOL    HW130632   3.014   6.013   2.312
 9911SOL    HW230633   2.934   5.884   2.374
 9912SOL     OW30634   4.400   0.938   6.175
 9912SOL    HW130635   4.349   0.912   6.093
 9912SOL    HW230636   4.481   0.880   6.184
 9913SOL     OW30637   4.924   3.368   0.553
 9913SOL    HW130638   4.905   3.444   0.615
 9913SOL    HW230639   4.935   3.403   0.460
 9914SOL     OW30640   0.051   4.293   4.712
 9914SOL    HW130641   0.069   4.266   4.617
 9914SOL    HW230642   0.111   4.369   4.737
 9915SOL     OW30643   4.697   1.729   3.704
 9915SOL    HW130644   4.695   1.688   3.612
 9915SOL    HW230645   4.646   1.671   3.767
 9916SOL     OW30646   1.496   3.068   1.806
 9916SOL    HW130647   1.579   3.058   1.751
 9916SOL    HW230648   1.512   3.137   1.877
 9917SOL     OW30649   6.286   4.528   5.237
 9917SOL    HW130650   6.316   4.586   5.313
 9917SOL    HW230651   6.303   4.576   5.151
 9918SOL     OW30652   4.904   3.134   2.235
 9918SOL    HW130653   4.984   3.074   2.233
 9918SOL    HW230654   4.841   3.107   2.161
 9919SOL     OW30655   5.649   5.920   0.784
 9919SOL    HW130656   5.716   5.884   0.849
 9919SOL    HW230657   5.682   6.006   0.746
 9920SOL     OW30658   4.834   1.417   2.775
 9920SOL    HW130659   4.761   1.482   2.797
 9920SOL    HW230660   4.794   1.326   2.765
 9921SOL     OW30661   4.200   5.031   6.632
 9921SOL    HW130662   4.298   5.019   6.650
 9921SOL    HW230663   4.151   5.037   6.718
 9922SOL     OW30664   0.171   6.041   1.387
 9922SOL    HW130665   0.186   6.090   1.302
 9922SOL    HW230666   0.132   5.951   1.367
 9923SOL     OW30667   5.770   4.487   1.029
 9923SOL    HW130668   5.702   4.414   1.015
 9923SOL    HW230669   5.739   4.570   0.982
 9924SOL     OW30670   1.506   3.596   4.665
 9924SOL    HW130671   1.475   3.606   4.760
 9924SOL    HW230672   1.517   3.686   4.624
 9925SOL     OW30673   5.164   2.458   4.217
 9925SOL    HW130674   5.116   2.480   4.133
 9925SOL    HW230675   5.109   2.486   4.296
 9926SOL     OW30676   3.145   4.954   1.155
 9926SOL    HW130677   3.211   4.981   1.084
 9926SOL    HW230678   3.103   5.036   1.193
 9927SOL     OW30679   5.080   0.064   4.263
 9927SOL    HW130680   4.980   0.058   4.267
 9927SOL    HW230681   5.120   7.003   4.279
 9928SOL     OW30682   4.792   4.555   2.098
 9928SOL    HW130683   4.892   4.559   2.089
 9928SOL    HW230684   4.751   4.530   2.010
 9929SOL     OW30685   1.095   4.406   2.764
 9929SOL    HW130686   1.026   4.348   2.806
 9929SOL    HW230687   1.051   4.482   2.716
 9930SOL     OW30688   5.821   0.943   3.251
 9930SOL    HW130689   5.785   0.949   3.157
 9930SOL    HW230690   5.792   0.857   3.292
 9931SOL     OW30691   1.028   5.414   5.609
 9931SOL    HW130692   1.116   5.411   5.657
 9931SOL    HW230693   1.036   5.472   5.528
 9932SOL     OW30694   0.803   6.042   4.846
 9932SOL    HW130695   0.864   5.979   4.798
 9932SOL    HW230696   0.792   6.125   4.792
 9933SOL     OW30697   0.056   6.620   2.920
 9933SOL    HW130698   0.091   6.624   2.826
 9933SOL    HW230699   7.005   6.680   2.928
 9934SOL     OW30700   0.068   1.986   4.880
 9934SOL    HW130701   7.011   1.950   4.917
 9934SOL    HW230702   0.122   2.026   4.954
 9935SOL     OW30703   2.348   0.278   6.252
 9935SOL    HW130704   2.447   0.264   6.253
 9935SOL    HW230705   2.305   0.201   6.205
 9936SOL     OW30706   1.324   3.673   3.903
 9936SOL    HW130707   1.413   3.719   3.906
 9936SOL    HW230708   1.322   3.599   3.971
 9937SOL     OW30709   6.701   2.284   6.110
 9937SOL    HW130710   6.686   2.374   6.070
 9937SOL    HW230711   6.767   2.233   6.055
 9938SOL     OW30712   6.789   6.361   2.731
 9938SOL    HW130713   6.798   6.335   2.635
 9938SOL    HW230714   6.716   6.429   2.740
 9939SOL     OW30715   3.178   3.578   3.321
 9939SOL    HW130716   3.131   3.649   3.268
 9939SOL    HW230717   3.241   3.621   3.386
 9940SOL     OW30718   0.538   1.260   1.051
 9940SOL    HW130719   0.439   1.270   1.065
 9940SOL    HW230720   0.555   1.236   0.956
 9941SOL     OW30721   3.197   5.610   4.402
 9941SOL    HW130722   3.211   5.536   4.336
 9941SOL    HW230723   3.285   5.651   4.424
 9942SOL     OW30724   2.541   5.383   4.068
 9942SOL    HW130725   2.587   5.466   4.038
 9942SOL    HW230726   2.568   5.306   4.011
 9943SOL     OW30727   0.388   6.889   4.744
 9943SOL    HW130728   0.321   6.950   4.702
 9943SOL    HW230729   0.469   6.884   4.686
 9944SOL     OW30730   1.401   4.522   6.393
 9944SOL    HW130731   1.465   4.519   6.315
 9944SOL    HW230732   1.453   4.519   6.478
 9945SOL     OW30733   0.273   5.780   6.919
 9945SOL    HW130734   0.323   5.789   7.005
 9945SOL    HW230735   0.298   5.695   6.874
 9946SOL     OW30736   5.598   0.894   4.292
 9946SOL    HW130737   5.559   0.965   4.233
 9946SOL    HW230738   5.528   0.864   4.356
 9947SOL     OW30739   6.348   4.685   3.623
 9947SOL    HW130740   6.249   4.697   3.626
 9947SOL    HW230741   6.372   4.632   3.542
 9948SOL     OW30742   5.466   3.781   3.543
 9948SOL    HW130743   5.378   3.809   3.504
 9948SOL    HW230744   5.483   3.685   3.521
 9949SOL     OW30745   6.035   5.300   1.946
 9949SOL    HW130746   6.132   5.276   1.949
 9949SOL    HW230747   5.988   5.262   2.025
 9950SOL     OW30748   3.612   6.593   6.612
 9950SOL    HW130749   3.622   6.506   6.563
 9950SOL    HW230750   3.701   6.625   6.642
 9951SOL     OW30751   6.576   3.117   2.826
 9951SOL    HW130752   6.555   3.060   2.747
 9951SOL    HW230753   6.538   3.076   2.908
 9952SOL     OW30754   0.121   3.873   6.241
 9952SOL    HW130755   0.128   3.774   6.229
 9952SOL    HW230756   0.071   3.892   6.325
 9953SOL     OW30757   5.209   3.002   3.790
 9953SOL    HW130758   5.294   2.966   3.830
 9953SOL    HW230759   5.199   2.968   3.697
 9954SOL     OW30760   4.428   0.418   4.710
 9954SOL    HW130761   4.396   0.356   4.639
 9954SOL    HW230762   4.351   0.467   4.750
 9955SOL     OW30763   0.753   4.679   4.095
 9955SOL    HW130764   0.839   4.629   4.088
 9955SOL    HW230765   0.758   4.743   4.172
 9956SOL     OW30766   1.348   6.248   0.509
 9956SOL    HW130767   1.310   6.286   0.593
 9956SOL    HW230768   1.448   6.245   0.516
 9957SOL     OW30769   5.823   5.343   2.509
 9957SOL    HW130770   5.898   5.377   2.453
 9957SOL    HW230771   5.740   5.395   2.489
 9958SOL     OW30772   3.055   4.519   0.980
 9958SOL    HW130773   3.070   4.426   1.016
 9958SOL    HW230774   2.959   4.528   0.952
 9959SOL     OW30775   3.222   3.976   1.133
 9959SOL    HW130776   3.226   3.916   1.213
 9959SOL    HW230777   3.292   3.947   1.067
 9960SOL     OW30778   0.658   0.768   2.412
 9960SOL    HW130779   0.724   0.821   2.466
 9960SOL    HW230780   0.624   0.691   2.467
 9961SOL     OW30781   2.127   3.496   4.777
 9961SOL    HW130782   2.118   3.512   4.679
 9961SOL    HW230783   2.220   3.464   4.797
 9962SOL     OW30784   5.126   6.415   4.846
 9962SOL    HW130785   5.145   6.408   4.944
 9962SOL    HW230786   5.194   6.362   4.795
 9963SOL     OW30787   2.893   1.699   0.703
 9963SOL    HW130788   2.920   1.610   0.741
 9963SOL    HW230789   2.854   1.756   0.775
 9964SOL     OW30790   5.641   6.597   4.845
 9964SOL    HW130791   5.583   6.581   4.764
 9964SOL    HW230792   5.636   6.517   4.905
 9965SOL     OW30793   5.424   6.593   0.829
 9965SOL    HW130794   5.404   6.522   0.762
 9965SOL    HW230795   5.344   6.652   0.840
 9966SOL     OW30796   6.250   1.161   3.004
 9966SOL    HW130797   6.169   1.131   3.055
 9966SOL    HW230798   6.330   1.111   3.036
 9967SOL     OW30799   1.225   5.702   0.515
 9967SOL    HW130800   1.225   5.652   0.428
 9967SOL    HW230801   1.180   5.791   0.503
 9968SOL     OW30802   3.504   3.608   3.042
 9968SOL    HW130803   3.468   3.683   3.098
 9968SOL    HW230804   3.429   3.548   3.013
 9969SOL     OW30805   1.488   3.183   1.471
 9969SOL    HW130806   1.544   3.126   1.531
 9969SOL    HW230807   1.546   3.233   1.407
 9970SOL     OW30808   6.193   4.776   2.188
 9970SOL    HW130809   6.188   4.708   2.261
 9970SOL    HW230810   6.118   4.841   2.197
 9971SOL     OW30811   2.792   6.653   6.866
 9971SOL    HW130812   2.787   6.564   6.822
 9971SOL    HW230813   2.885   6.690   6.855
 9972SOL     OW30814   6.766   5.315   1.569
 9972SOL    HW130815   6.817   5.331   1.484
 9972SOL    HW230816   6.732   5.402   1.605
 9973SOL     OW30817   5.505   6.511   3.731
 9973SOL    HW130818   5.479   6.536   3.637
 9973SOL    HW230819   5.424   6.502   3.787
 9974SOL     OW30820   2.071   0.568   4.336
 9974SOL    HW130821   2.119   0.484   4.312
 9974SOL    HW230822   2.077   0.634   4.261
 9975SOL     OW30823   0.153   4.313   1.180
 9975SOL    HW130824   0.175   4.294   1.084
 9975SOL    HW230825   0.058   4.286   1.199
 9976SOL     OW30826   3.389   6.627   4.252
 9976SOL    HW130827   3.327   6.551   4.237
 9976SOL    HW230828   3.484   6.596   4.241
 9977SOL     OW30829   6.519   4.738   3.818
 9977SOL    HW130830   6.610   4.772   3.794
 9977SOL    HW230831   6.470   4.715   3.734
 9978SOL     OW30832   6.598   2.744   4.257
 9978SOL    HW130833   6.610   2.820   4.193
 9978SOL    HW230834   6.639   2.767   4.345
 9979SOL     OW30835   0.785   4.160   5.241
 9979SOL    HW130836   0.697   4.116   5.227
 9979SOL    HW230837   0.777   4.258   5.223
 9980SOL     OW30838   3.010   6.367   5.233
 9980SOL    HW130839   2.999   6.272   5.263
 9980SOL    HW230840   3.035   6.368   5.136
 9981SOL     OW30841   4.233   2.241   3.381
 9981SOL    HW130842   4.212   2.156   3.332
 9981SOL    HW230843   4.178   2.245   3.464
 9982SOL     OW30844   6.423   6.759   2.494
 9982SOL    HW130845   6.372   6.686   2.538
 9982SOL    HW230846   6.486   6.720   2.427
 9983SOL     OW30847   6.555   0.489   1.340
 9983SOL    HW130848   6.639   0.437   1.331
 9983SOL    HW230849   6.511   0.498   1.250
 9984SOL     OW30850   3.130   0.744   6.378
 9984SOL    HW130851   3.215   0.760   6.429
 9984SOL    HW230852   3.063   0.815   6.400
 9985SOL     OW30853   1.970   1.113   1.481
 9985SOL    HW130854   1.937   1.021   1.502
 9985SOL    HW230855   1.927   1.146   1.397
 9986SOL     OW30856   5.155   3.963   4.503
 9986SOL    HW130857   5.082   3.894   4.498
 9986SOL    HW230858   5.132   4.040   4.443
 9987SOL     OW30859   0.310   4.009   5.643
 9987SOL    HW130860   0.266   3.983   5.557
 9987SOL    HW230861   0.370   4.087   5.627
 9988SOL     OW30862   6.759   0.807   4.361
 9988SOL    HW130863   6.744   0.881   4.427
 9988SOL    HW230864   6.685   0.741   4.368
 9989SOL     OW30865   2.055   2.530   4.405
 9989SOL    HW130866   2.021   2.478   4.484
 9989SOL    HW230867   2.150   2.556   4.421
 9990SOL     OW30868   0.925   4.685   1.637
 9990SOL    HW130869   0.995   4.714   1.703
 9990SOL    HW230870   0.836   4.685   1.682
 9991SOL     OW30871   3.743   1.920   3.475
 9991SOL    HW130872   3.726   1.961   3.565
 9991SOL    HW230873   3.716   1.985   3.404
 9992SOL     OW30874   6.127   5.288   6.347
 9992SOL    HW130875   6.146   5.376   6.304
 9992SOL    HW230876   6.036   5.291   6.389
 9993SOL     OW30877   1.288   0.522   2.304
 9993SOL    HW130878   1.202   0.482   2.273
 9993SOL    HW230879   1.351   0.530   2.226
 9994SOL     OW30880   6.423   4.323   3.830
 9994SOL    HW130881   6.418   4.408   3.882
 9994SOL    HW230882   6.357   4.257   3.866
 9995SOL     OW30883   5.551   1.724   4.647
 9995SOL    HW130884   5.582   1.629   4.645
 9995SOL    HW230885   5.497   1.743   4.565
 9996SOL     OW30886   3.032   3.064   0.512
 9996SOL    HW130887   3.113   3.083   0.456
 9996SOL    HW230888   3.004   2.969   0.498
 9997SOL     OW30889   2.453   0.791   4.352
 9997SOL    HW130890   2.496   0.742   4.428
 9997SOL    HW230891   2.424   0.881   4.383
 9998SOL     OW30892   5.971   6.006   4.797
 9998SOL    HW130893   5.969   6.009   4.697
 9998SOL    HW230894   6.066   6.000   4.829
 9999SOL     OW30895   0.289   1.246   4.905
 9999SOL    HW130896   0.217   1.279   4.967
 9999SOL    HW230897   0.341   1.324   4.871
10000SOL     OW30898   6.745   4.727   0.589
10000SOL    HW130899   6.715   4.755   0.680
10000SOL    HW230900   6.772   4.807   0.536
10001SOL     OW30901   3.967   0.715   3.869
10001SOL    HW130902   3.872   0.732   3.844
10001SOL    HW230903   3.994   0.625   3.835
10002SOL     OW30904   1.070   1.707   1.315
10002SOL    HW130905   1.022   1.667   1.393
10002SOL    HW230906   1.134   1.777   1.348
10003SOL     OW30907   5.200   3.997   1.936
10003SOL    HW130908   5.196   4.095   1.918
10003SOL    HW230909   5.277   3.977   1.998
10004SOL     OW30910   6.914   3.629   4.061
10004SOL    HW130911   6.923   3.719   4.019
10004SOL    HW230912   6.974   3.564   4.014
10005SOL     OW30913   4.552   0.455   3.650
10005SOL    HW130914   4.577   0.457   3.553
10005SOL    HW230915   4.613   0.514   3.702
10006SOL     OW30916   4.948   2.457   4.015
10006SOL    HW130917   4.901   2.543   4.036
10006SOL    HW230918   4.918   2.424   3.925
10007SOL     OW30919   5.445   5.163   4.282
10007SOL    HW130920   5.531   5.204   4.252
10007SOL    HW230921   5.460   5.067   4.305
10008SOL     OW30922   3.095   6.928   4.031
10008SOL    HW130923   3.151   6.986   3.972
10008SOL    HW230924   3.083   6.974   4.120
10009SOL     OW30925   2.010   4.258   1.277
10009SOL    HW130926   2.027   4.172   1.228
10009SOL    HW230927   1.988   4.330   1.211
10010SOL     OW30928   5.912   0.825   6.274
10010SOL    HW130929   5.953   0.895   6.332
10010SOL    HW230930   5.973   0.747   6.268
10011SOL     OW30931   7.022   6.646   3.564
10011SOL    HW130932   0.066   6.618   3.501
10011SOL    HW230933   6.998   6.742   3.548
10012SOL     OW30934   5.044   0.618   5.182
10012SOL    HW130935   5.052   0.602   5.281
10012SOL    HW230936   4.967   0.565   5.146
10013SOL     OW30937   1.012   0.513   1.217
10013SOL    HW130938   0.937   0.560   1.263
10013SOL    HW230939   1.004   0.415   1.232
10014SOL     OW30940   1.596   4.621   5.759
10014SOL    HW130941   1.544   4.683   5.700
10014SOL    HW230942   1.538   4.544   5.786
10015SOL     OW30943   2.427   6.326   6.207
10015SOL    HW130944   2.391   6.418   6.195
10015SOL    HW230945   2.526   6.330   6.218
10016SOL     OW30946   2.120   1.451   5.242
10016SOL    HW130947   2.192   1.382   5.246
10016SOL    HW230948   2.031   1.405   5.233
10017SOL     OW30949   7.011   2.129   3.596
10017SOL    HW130950   6.981   2.198   3.531
10017SOL    HW230951   6.939   2.114   3.664
10018SOL     OW30952   5.385   6.445   6.590
10018SOL    HW130953   5.296   6.457   6.633
10018SOL    HW230954   5.417   6.532   6.553
10019SOL     OW30955   0.923   0.603   3.339
10019SOL    HW130956   0.835   0.614   3.386
10019SOL    HW230957   0.925   0.514   3.292
10020SOL     OW30958   0.969   3.776   0.305
10020SOL    HW130959   0.968   3.678   0.324
10020SOL    HW230960   1.034   3.821   0.367
10021SOL     OW30961   4.889   2.934   1.233
10021SOL    HW130962   4.841   2.889   1.157
10021SOL    HW230963   4.857   2.895   1.319
10022SOL     OW30964   2.118   0.935   6.308
10022SOL    HW130965   2.114   1.005   6.379
10022SOL    HW230966   2.210   0.933   6.268
10023SOL     OW30967   0.429   3.671   0.401
10023SOL    HW130968   0.387   3.580   0.396
10023SOL    HW230969   0.370   3.731   0.454
10024SOL     OW30970   1.040   3.795   2.805
10024SOL    HW130971   1.002   3.752   2.887
10024SOL    HW230972   1.077   3.885   2.829
10025SOL     OW30973   0.832   1.416   0.581
10025SOL    HW130974   0.825   1.515   0.573
10025SOL    HW230975   0.921   1.386   0.546
10026SOL     OW30976   6.232   1.176   4.722
10026SOL    HW130977   6.292   1.254   4.740
10026SOL    HW230978   6.261   1.098   4.777
10027SOL     OW30979   5.998   2.949   5.764
10027SOL    HW130980   5.928   2.898   5.714
10027SOL    HW230981   6.088   2.925   5.728
10028SOL     OW30982   1.786   1.470   1.884
10028SOL    HW130983   1.770   1.568   1.896
10028SOL    HW230984   1.824   1.454   1.793
10029SOL     OW30985   3.553   1.344   4.367
10029SOL    HW130986   3.597   1.427   4.332
10029SOL    HW230987   3.612   1.304   4.438
10030SOL     OW30988   0.595   1.213   2.245
10030SOL    HW130989   0.597   1.270   2.163
10030SOL    HW230990   0.500   1.200   2.273
10031SOL     OW30991   0.340   4.998   3.121
10031SOL    HW130992   0.258   5.055   3.113
10031SOL    HW230993   0.328   4.914   3.069
10032SOL     OW30994   3.600   2.160   5.321
10032SOL    HW130995   3.539   2.102   5.376
10032SOL    HW230996   3.654   2.218   5.382
10033SOL     OW30997   5.859   2.848   3.361
10033SOL    HW130998   5.836   2.771   3.420
10033SOL    HW230999   5.775   2.893   3.331
10034SOL     OW31000   3.840   6.300   5.873
10034SOL    HW131001   3.920   6.256   5.914
10034SOL    HW231002   3.817   6.253   5.788
10035SOL     OW31003   0.286   6.829   4.096
10035SOL    HW131004   0.194   6.797   4.073
10035SOL    HW231005   0.347   6.750   4.105
10036SOL     OW31006   6.344   0.503   0.397
10036SOL    HW131007   6.298   0.592   0.405
10036SOL    HW231008   6.277   0.433   0.376
10037SOL     OW31009   0.159   6.879   1.007
10037SOL    HW131010   0.169   6.950   1.077
10037SOL    HW231011   0.219   6.802   1.028
10038SOL     OW31012   6.045   0.068   1.162
10038SOL    HW131013   6.066   0.162   1.137
10038SOL    HW231014   6.016   0.064   1.257
10039SOL     OW31015   4.217   0.938   2.917
10039SOL    HW131016   4.174   1.007   2.858
10039SOL    HW231017   4.257   0.984   2.996
10040SOL     OW31018   0.865   2.015   0.518
10040SOL    HW131019   0.802   1.964   0.460
10040SOL    HW231020   0.816   2.054   0.596
10041SOL     OW31021   1.148   6.444   0.394
10041SOL    HW131022   1.224   6.383   0.416
10041SOL    HW231023   1.171   6.537   0.424
10042SOL     OW31024   6.642   1.950   3.556
10042SOL    HW131025   6.586   1.905   3.626
10042SOL    HW231026   6.583   2.004   3.496
10043SOL     OW31027   2.280   2.530   5.711
10043SOL    HW131028   2.252   2.605   5.652
10043SOL    HW231029   2.253   2.550   5.805
10044SOL     OW31030   4.300   0.842   0.012
10044SOL    HW131031   4.209   0.852   7.000
10044SOL    HW231032   4.305   0.897   0.095
10045SOL     OW31033   2.372   0.351   1.174
10045SOL    HW131034   2.360   0.357   1.074
10045SOL    HW231035   2.469   0.352   1.196
10046SOL     OW31036   0.707   5.677   7.000
10046SOL    HW131037   0.732   5.585   6.969
10046SOL    HW231038   0.737   5.743   6.931
10047SOL     OW31039   1.456   3.696   0.792
10047SOL    HW131040   1.443   3.759   0.869
10047SOL    HW231041   1.377   3.701   0.731
10048SOL     OW31042   6.121   3.609   1.109
10048SOL    HW131043   6.026   3.617   1.141
10048SOL    HW231044   6.157   3.519   1.134
10049SOL     OW31045   6.609   1.784   4.646
10049SOL    HW131046   6.594   1.717   4.573
10049SOL    HW231047   6.561   1.869   4.624
10050SOL     OW31048   0.023   2.523   6.077
10050SOL    HW131049   7.001   2.497   6.160
10050SOL    HW231050   0.109   2.568   6.103
10051SOL     OW31051   1.646   0.455   3.199
10051SOL    HW131052   1.709   0.526   3.230
10051SOL    HW231053   1.672   0.368   3.240
10052SOL     OW31054   1.138   0.300   4.008
10052SOL    HW131055   1.039   0.302   4.021
10052SOL    HW231056   1.161   0.237   3.934
10053SOL     OW31057   5.802   5.701   2.577
10053SOL    HW131058   5.834   5.784   2.530
10053SOL    HW231059   5.772   5.634   2.510
10054SOL     OW31060   5.227   3.875   3.471
10054SOL    HW131061   5.241   3.958   3.526
10054SOL    HW231062   5.136   3.839   3.488
10055SOL     OW31063   1.688   1.861   6.900
10055SOL    HW131064   1.662   1.782   6.845
10055SOL    HW231065   1.776   1.843   6.944
10056SOL     OW31066   5.066   2.774   4.444
10056SOL    HW131067   5.139   2.786   4.377
10056SOL    HW231068   5.042   2.677   4.450
10057SOL     OW31069   5.850   4.146   4.891
10057SOL    HW131070   5.778   4.158   4.960
10057SOL    HW231071   5.884   4.235   4.862
10058SOL     OW31072   6.063   3.928   3.926
10058SOL    HW131073   6.028   4.021   3.909
10058SOL    HW231074   6.144   3.912   3.871
10059SOL     OW31075   5.183   5.929   5.599
10059SOL    HW131076   5.217   5.961   5.687
10059SOL    HW231077   5.258   5.886   5.548
10060SOL     OW31078   2.838   1.815   2.032
10060SOL    HW131079   2.912   1.749   2.019
10060SOL    HW231080   2.750   1.769   2.021
10061SOL     OW31081   4.112   6.937   3.416
10061SOL    HW131082   4.027   6.946   3.468
10061SOL    HW231083   4.106   6.858   3.355
10062SOL     OW31084   6.922   0.239   4.864
10062SOL    HW131085   6.990   0.188   4.917
10062SOL    HW231086   6.967   0.293   4.793
10063SOL     OW31087   3.905   2.170   3.488
10063SOL    HW131088   3.988   2.147   3.539
10063SOL    HW231089   3.825   2.147   3.544
10064SOL     OW31090   2.396   6.401   2.503
10064SOL    HW131091   2.493   6.427   2.506
10064SOL    HW231092   2.346   6.452   2.572
10065SOL     OW31093   6.461   1.945   1.514
10065SOL    HW131094   6.541   2.004   1.528
10065SOL    HW231095   6.486   1.850   1.534
10066SOL     OW31096   6.309   4.204   3.585
10066SOL    HW131097   6.348   4.285   3.629
10066SOL    HW231098   6.377   4.132   3.581
10067SOL     OW31099   5.460   3.345   5.144
10067SOL    HW131100   5.537   3.281   5.139
10067SOL    HW231101   5.485   3.430   5.099
10068SOL     OW31102   2.048   3.488   2.982
10068SOL    HW131103   2.035   3.406   2.926
10068SOL    HW231104   2.069   3.460   3.076
10069SOL     OW31105   3.104   5.201   1.868
10069SOL    HW131106   3.044   5.234   1.795
10069SOL    HW231107   3.138   5.279   1.921
10070SOL     OW31108   5.144   0.531   0.007
10070SOL    HW131109   5.049   0.513   7.011
10070SOL    HW231110   5.201   0.530   6.954
10071SOL     OW31111   5.245   0.744   4.993
10071SOL    HW131112   5.189   0.663   5.011
10071SOL    HW231113   5.198   0.825   5.030
10072SOL     OW31114   5.883   3.255   2.032
10072SOL    HW131115   5.876   3.157   2.053
10072SOL    HW231116   5.793   3.290   2.006
10073SOL     OW31117   5.720   5.690   5.353
10073SOL    HW131118   5.688   5.774   5.311
10073SOL    HW231119   5.818   5.678   5.335
10074SOL     OW31120   1.688   4.475   0.961
10074SOL    HW131121   1.588   4.484   0.960
10074SOL    HW231122   1.727   4.546   1.019
10075SOL     OW31123   0.568   3.297   1.501
10075SOL    HW131124   0.660   3.276   1.469
10075SOL    HW231125   0.501   3.246   1.448
10076SOL     OW31126   6.058   4.748   3.686
10076SOL    HW131127   6.051   4.707   3.777
10076SOL    HW231128   6.054   4.847   3.694
10077SOL     OW31129   4.140   3.686   6.768
10077SOL    HW131130   4.080   3.740   6.828
10077SOL    HW231131   4.230   3.730   6.763
10078SOL     OW31132   5.923   5.869   3.834
10078SOL    HW131133   5.889   5.794   3.777
10078SOL    HW231134   5.964   5.939   3.776
10079SOL     OW31135   5.681   5.145   3.145
10079SOL    HW131136   5.729   5.230   3.166
10079SOL    HW231137   5.608   5.130   3.212
10080SOL     OW31138   5.276   2.725   4.890
10080SOL    HW131139   5.229   2.793   4.946
10080SOL    HW231140   5.236   2.635   4.906
10081SOL     OW31141   1.214   4.839   0.855
10081SOL    HW131142   1.298   4.855   0.907
10081SOL    HW231143   1.207   4.906   0.781
10082SOL     OW31144   0.345   4.217   1.605
10082SOL    HW131145   0.356   4.221   1.506
10082SOL    HW231146   0.260   4.263   1.631
10083SOL     OW31147   3.119   6.247   2.625
10083SOL    HW131148   3.087   6.153   2.636
10083SOL    HW231149   3.184   6.270   2.698
10084SOL     OW31150   1.744   3.000   4.739
10084SOL    HW131151   1.729   3.043   4.650
10084SOL    HW231152   1.838   2.966   4.744
10085SOL     OW31153   3.767   6.875   1.828
10085SOL    HW131154   3.776   6.955   1.768
10085SOL    HW231155   3.850   6.864   1.881
10086SOL     OW31156   2.506   0.820   3.290
10086SOL    HW131157   2.577   0.766   3.335
10086SOL    HW231158   2.498   0.909   3.335
10087SOL     OW31159   1.709   5.594   6.257
10087SOL    HW131160   1.777   5.578   6.328
10087SOL    HW231161   1.622   5.622   6.299
10088SOL     OW31162   5.886   1.560   0.846
10088SOL    HW131163   5.841   1.642   0.812
10088SOL    HW231164   5.878   1.556   0.946
10089SOL     OW31165   3.481   6.692   2.821
10089SOL    HW131166   3.395   6.643   2.803
10089SOL    HW231167   3.463   6.770   2.880
10090SOL     OW31168   3.373   6.014   2.149
10090SOL    HW131169   3.445   5.962   2.103
10090SOL    HW231170   3.409   6.104   2.175
10091SOL     OW31171   5.236   6.074   3.064
10091SOL    HW131172   5.178   6.154   3.058
10091SOL    HW231173   5.331   6.102   3.079
10092SOL     OW31174   6.991   1.513   2.582
10092SOL    HW131175   6.922   1.543   2.648
10092SOL    HW231176   6.995   1.413   2.582
10093SOL     OW31177   4.550   4.140   6.418
10093SOL    HW131178   4.541   4.234   6.383
10093SOL    HW231179   4.559   4.143   6.518
10094SOL     OW31180   3.809   2.548   0.361
10094SOL    HW131181   3.827   2.524   0.265
10094SOL    HW231182   3.731   2.494   0.394
10095SOL     OW31183   4.455   2.633   5.256
10095SOL    HW131184   4.366   2.636   5.211
10095SOL    HW231185   4.464   2.710   5.318
10096SOL     OW31186   6.802   5.068   1.674
10096SOL    HW131187   6.795   5.167   1.665
10096SOL    HW231188   6.764   5.040   1.762
10097SOL     OW31189   1.181   1.135   1.358
10097SOL    HW131190   1.237   1.082   1.294
10097SOL    HW231191   1.208   1.231   1.353
10098SOL     OW31192   3.911   5.294   0.425
10098SOL    HW131193   3.870   5.203   0.413
10098SOL    HW231194   4.006   5.291   0.397
10099SOL     OW31195   6.737   6.194   3.449
10099SOL    HW131196   6.757   6.181   3.352
10099SOL    HW231197   6.815   6.235   3.494
10100SOL     OW31198   5.219   5.644   4.197
10100SOL    HW131199   5.138   5.632   4.254
10100SOL    HW231200   5.294   5.587   4.232
10101SOL     OW31201   0.079   2.117   6.566
10101SOL    HW131202   0.062   2.032   6.516
10101SOL    HW231203   0.178   2.132   6.573
10102SOL     OW31204   0.570   5.123   3.010
10102SOL    HW131205   0.656   5.073   3.016
10102SOL    HW231206   0.500   5.074   3.062
10103SOL     OW31207   0.157   0.253   0.043
10103SOL    HW131208   0.173   0.154   0.044
10103SOL    HW231209   0.069   0.273   0.087
10104SOL     OW31210   2.488   1.487   4.567
10104SOL    HW131211   2.453   1.579   4.586
10104SOL    HW231212   2.424   1.440   4.506
10105SOL     OW31213   3.506   1.478   3.983
10105SOL    HW131214   3.459   1.545   3.925
10105SOL    HW231215   3.442   1.442   4.051
10106SOL     OW31216   6.441   3.835   1.020
10106SOL    HW131217   6.417   3.768   1.091
10106SOL    HW231218   6.488   3.912   1.062
10107SOL     OW31219   5.249   5.442   5.783
10107SOL    HW131220   5.240   5.464   5.686
10107SOL    HW231221   5.321   5.498   5.823
10108SOL     OW31222   3.158   1.884   4.915
10108SOL    HW131223   3.143   1.802   4.970
10108SOL    HW231224   3.106   1.878   4.830
10109SOL     OW31225   1.013   2.938   0.967
10109SOL    HW131226   1.053   2.868   1.025
10109SOL    HW231227   0.918   2.954   0.994
10110SOL     OW31228   6.003   6.245   1.609
10110SOL    HW131229   5.983   6.224   1.705
10110SOL    HW231230   5.926   6.295   1.569
10111SOL     OW31231   6.477   2.382   1.969
10111SOL    HW131232   6.393   2.398   1.918
10111SOL    HW231233   6.491   2.284   1.982
10112SOL     OW31234   0.259   2.959   3.487
10112SOL    HW131235   0.349   2.916   3.485
10112SOL    HW231236   0.249   3.012   3.571
10113SOL     OW31237   7.005   6.836   6.419
10113SOL    HW131238   0.074   6.850   6.439
10113SOL    HW231239   6.957   6.812   6.503
10114SOL     OW31240   5.933   4.492   1.221
10114SOL    HW131241   5.982   4.579   1.221
10114SOL    HW231242   5.904   4.469   1.128
10115SOL     OW31243   3.398   1.857   6.342
10115SOL    HW131244   3.376   1.939   6.289
10115SOL    HW231245   3.375   1.872   6.438
10116SOL     OW31246   0.932   6.639   6.634
10116SOL    HW131247   0.995   6.613   6.561
10116SOL    HW231248   0.838   6.623   6.605
10117SOL     OW31249   0.715   4.259   1.296
10117SOL    HW131250   0.696   4.262   1.395
10117SOL    HW231251   0.662   4.330   1.250
10118SOL     OW31252   4.005   5.152   3.813
10118SOL    HW131253   3.939   5.153   3.888
10118SOL    HW231254   4.092   5.190   3.844
10119SOL     OW31255   5.559   5.815   6.741
10119SOL    HW131256   5.571   5.743   6.810
10119SOL    HW231257   5.637   5.815   6.679
10120SOL     OW31258   2.602   2.451   2.919
10120SOL    HW131259   2.641   2.470   3.009
10120SOL    HW231260   2.672   2.411   2.860
10121SOL     OW31261   6.615   5.911   1.200
10121SOL    HW131262   6.594   5.999   1.242
10121SOL    HW231263   6.576   5.908   1.107
10122SOL     OW31264   2.010   6.857   3.308
10122SOL    HW131265   2.048   6.905   3.386
10122SOL    HW231266   1.980   6.766   3.336
10123SOL     OW31267   6.201   6.673   6.570
10123SOL    HW131268   6.147   6.717   6.499
10123SOL    HW231269   6.181   6.716   6.658
10124SOL     OW31270   0.674   5.209   3.344
10124SOL    HW131271   0.661   5.229   3.441
10124SOL    HW231272   0.771   5.209   3.323
10125SOL     OW31273   1.788   2.470   4.156
10125SOL    HW131274   1.850   2.504   4.086
10125SOL    HW231275   1.826   2.387   4.198
10126SOL     OW31276   6.815   5.877   4.610
10126SOL    HW131277   6.745   5.814   4.576
10126SOL    HW231278   6.888   5.885   4.541
10127SOL     OW31279   2.633   0.975   4.601
10127SOL    HW131280   2.621   0.882   4.638
10127SOL    HW231281   2.570   0.989   4.525
10128SOL     OW31282   2.951   0.974   0.713
10128SOL    HW131283   2.967   0.985   0.615
10128SOL    HW231284   2.999   1.047   0.763
10129SOL     OW31285   6.776   1.555   5.825
10129SOL    HW131286   6.850   1.595   5.771
10129SOL    HW231287   6.812   1.483   5.884
10130SOL     OW31288   1.399   2.926   3.285
10130SOL    HW131289   1.372   2.861   3.356
10130SOL    HW231290   1.495   2.912   3.261
10131SOL     OW31291   2.461   1.136   5.070
10131SOL    HW131292   2.427   1.171   4.983
10131SOL    HW231293   2.559   1.114   5.061
10132SOL     OW31294   5.872   0.385   2.067
10132SOL    HW131295   5.936   0.451   2.106
10132SOL    HW231296   5.779   0.412   2.091
10133SOL     OW31297   4.559   5.463   1.392
10133SOL    HW131298   4.494   5.537   1.377
10133SOL    HW231299   4.559   5.439   1.490
10134SOL     OW31300   6.603   1.235   2.911
10134SOL    HW131301   6.680   1.271   2.859
10134SOL    HW231302   6.575   1.147   2.873
10135SOL     OW31303   6.784   6.652   2.953
10135SOL    HW131304   6.791   6.555   2.928
10135SOL    HW231305   6.775   6.659   3.053
10136SOL     OW31306   4.828   0.745   2.946
10136SOL    HW131307   4.731   0.761   2.966
10136SOL    HW231308   4.880   0.829   2.959
10137SOL     OW31309   5.984   5.977   2.712
10137SOL    HW131310   6.030   6.065   2.716
10137SOL    HW231311   5.937   5.967   2.624
10138SOL     OW31312   0.004   2.044   2.391
10138SOL    HW131313   6.976   2.012   2.315
10138SOL    HW231314   6.990   2.020   2.478
10139SOL     OW31315   4.328   2.714   0.781
10139SOL    HW131316   4.410   2.657   0.779
10139SOL    HW231317   4.350   2.803   0.820
10140SOL     OW31318   5.929   6.391   3.705
10140SOL    HW131319   6.007   6.453   3.711
10140SOL    HW231320   5.860   6.417   3.773
10141SOL     OW31321   0.918   1.898   4.405
10141SOL    HW131322   0.879   1.896   4.313
10141SOL    HW231323   0.882   1.978   4.454
10142SOL     OW31324   4.469   6.590   1.701
10142SOL    HW131325   4.511   6.579   1.791
10142SOL    HW231326   4.444   6.500   1.665
10143SOL     OW31327   0.117   3.382   0.221
10143SOL    HW131328   0.024   3.397   0.188
10143SOL    HW231329   0.182   3.398   0.146
10144SOL     OW31330   4.975   0.380   2.656
10144SOL    HW131331   4.938   0.431   2.578
10144SOL    HW231332   4.919   0.396   2.737
10145SOL     OW31333   6.225   0.198   5.338
10145SOL    HW131334   6.316   0.237   5.350
10145SOL    HW231335   6.227   0.101   5.363
10146SOL     OW31336   1.444   1.661   5.510
10146SOL    HW131337   1.353   1.651   5.552
10146SOL    HW231338   1.436   1.657   5.411
10147SOL     OW31339   3.274   4.580   0.554
10147SOL    HW131340   3.225   4.552   0.471
10147SOL    HW231341   3.257   4.677   0.571
10148SOL     OW31342   6.987   5.540   6.832
10148SOL    HW131343   7.001   5.466   6.898
10148SOL    HW231344   6.917   5.512   6.766
10149SOL     OW31345   3.425   2.978   4.151
10149SOL    HW131346   3.327   2.959   4.157
10149SOL    HW231347   3.460   2.942   4.064
10150SOL     OW31348   6.351   4.381   0.013
10150SOL    HW131349   6.391   4.297   0.049
10150SOL    HW231350   6.311   4.364   6.951
10151SOL     OW31351   0.327   0.552   0.425
10151SOL    HW131352   0.315   0.588   0.333
10151SOL    HW231353   0.413   0.586   0.464
10152SOL     OW31354   3.732   6.338   4.005
10152SOL    HW131355   3.658   6.271   4.015
10152SOL    HW231356   3.732   6.375   3.912
10153SOL     OW31357   4.682   4.285   1.310
10153SOL    HW131358   4.641   4.336   1.234
10153SOL    HW231359   4.777   4.263   1.288
10154SOL     OW31360   4.989   4.851   6.194
10154SOL    HW131361   5.076   4.831   6.240
10154SOL    HW231362   4.975   4.786   6.119
10155SOL     OW31363   4.757   2.436   4.894
10155SOL    HW131364   4.770   2.340   4.869
10155SOL    HW231365   4.843   2.475   4.925
10156SOL     OW31366   3.378   1.890   6.627
10156SOL    HW131367   3.451   1.951   6.656
10156SOL    HW231368   3.368   1.816   6.693
10157SOL     OW31369   6.835   5.777   2.143
10157SOL    HW131370   6.882   5.723   2.074
10157SOL    HW231371   6.738   5.751   2.146
10158SOL     OW31372   0.084   4.959   6.208
10158SOL    HW131373   0.018   4.899   6.163
10158SOL    HW231374   0.152   4.990   6.141
10159SOL     OW31375   4.035   3.133   1.613
10159SOL    HW131376   4.099   3.209   1.621
10159SOL    HW231377   3.946   3.167   1.581
10160SOL     OW31378   0.112   4.347   2.333
10160SOL    HW131379   0.097   4.345   2.234
10160SOL    HW231380   0.168   4.269   2.359
10161SOL     OW31381   6.453   2.468   0.518
10161SOL    HW131382   6.524   2.508   0.576
10161SOL    HW231383   6.495   2.407   0.451
10162SOL     OW31384   1.966   2.337   2.033
10162SOL    HW131385   2.017   2.406   2.084
10162SOL    HW231386   1.965   2.361   1.936
10163SOL     OW31387   3.520   5.236   4.771
10163SOL    HW131388   3.422   5.257   4.761
10163SOL    HW231389   3.574   5.315   4.743
10164SOL     OW31390   0.509   1.080   3.903
10164SOL    HW131391   0.579   1.152   3.895
10164SOL    HW231392   0.532   1.004   3.842
10165SOL     OW31393   2.161   3.167   3.589
10165SOL    HW131394   2.126   3.187   3.497
10165SOL    HW231395   2.153   3.248   3.646
10166SOL     OW31396   2.912   6.018   3.193
10166SOL    HW131397   2.923   6.083   3.118
10166SOL    HW231398   2.995   6.018   3.249
10167SOL     OW31399   4.137   1.585   0.128
10167SOL    HW131400   4.222   1.535   0.107
10167SOL    HW231401   4.120   1.581   0.227
10168SOL     OW31402   0.394   0.946   0.009
10168SOL    HW131403   0.443   0.894   0.078
10168SOL    HW231404   0.374   0.887   6.959
10169SOL     OW31405   4.612   5.028   2.940
10169SOL    HW131406   4.516   5.043   2.961
10169SOL    HW231407   4.621   4.951   2.876
10170SOL     OW31408   4.585   6.539   6.834
10170SOL    HW131409   4.511   6.548   6.900
10170SOL    HW231410   4.665   6.590   6.866
10171SOL     OW31411   1.442   4.250   2.971
10171SOL    HW131412   1.354   4.219   3.006
10171SOL    HW231413   1.433   4.273   2.874
10172SOL     OW31414   0.876   0.906   3.398
10172SOL    HW131415   0.937   0.848   3.343
10172SOL    HW231416   0.879   1.000   3.364
10173SOL     OW31417   4.388   2.434   4.620
10173SOL    HW131418   4.291   2.417   4.606
10173SOL    HW231419   4.433   2.447   4.532
10174SOL     OW31420   4.650   5.063   1.135
10174SOL    HW131421   4.566   5.021   1.170
10174SOL    HW231422   4.651   5.057   1.035
10175SOL     OW31423   6.473   6.631   4.025
10175SOL    HW131424   6.483   6.730   4.016
10175SOL    HW231425   6.505   6.601   4.115
10176SOL     OW31426   6.931   1.418   5.231
10176SOL    HW131427   6.950   1.438   5.327
10176SOL    HW231428   6.850   1.361   5.224
10177SOL     OW31429   3.193   0.852   4.727
10177SOL    HW131430   3.153   0.802   4.651
10177SOL    HW231431   3.154   0.944   4.731
10178SOL     OW31432   6.472   1.620   2.222
10178SOL    HW131433   6.547   1.675   2.259
10178SOL    HW231434   6.507   1.530   2.196
10179SOL     OW31435   6.935   6.181   0.959
10179SOL    HW131436   6.852   6.165   0.905
10179SOL    HW231437   6.911   6.232   1.042
10180SOL     OW31438   1.626   0.130   6.184
10180SOL    HW131439   1.650   0.192   6.259
10180SOL    HW231440   1.692   0.056   6.180
10181SOL     OW31441   0.447   3.966   1.961
10181SOL    HW131442   0.488   3.881   1.927
10181SOL    HW231443   0.512   4.041   1.949
10182SOL     OW31444   2.813   6.550   6.404
10182SOL    HW131445   2.755   6.513   6.331
10182SOL    HW231446   2.825   6.481   6.475
10183SOL     OW31447   3.807   5.802   6.040
10183SOL    HW131448   3.855   5.845   6.116
10183SOL    HW231449   3.717   5.844   6.029
10184SOL     OW31450   4.619   2.682   3.778
10184SOL    HW131451   4.645   2.696   3.873
10184SOL    HW231452   4.658   2.755   3.722
10185SOL     OW31453   3.094   4.643   1.685
10185SOL    HW131454   3.022   4.576   1.704
10185SOL    HW231455   3.107   4.702   1.765
10186SOL     OW31456   3.617   2.839   1.843
10186SOL    HW131457   3.616   2.741   1.820
10186SOL    HW231458   3.691   2.858   1.906
10187SOL     OW31459   1.285   3.600   5.554
10187SOL    HW131460   1.224   3.532   5.594
10187SOL    HW231461   1.289   3.586   5.455
10188SOL     OW31462   2.322   6.946   6.886
10188SOL    HW131463   2.314   6.846   6.887
10188SOL    HW231464   2.246   6.985   6.937
10189SOL     OW31465   2.032   1.763   5.353
10189SOL    HW131466   2.124   1.798   5.374
10189SOL    HW231467   2.039   1.667   5.327
10190SOL     OW31468   3.021   3.845   1.015
10190SOL    HW131469   2.969   3.901   0.950
10190SOL    HW231470   3.080   3.904   1.070
10191SOL     OW31471   6.187   0.684   0.177
10191SOL    HW131472   6.219   0.721   0.264
10191SOL    HW231473   6.214   0.745   0.102
10192SOL     OW31474   2.816   0.666   4.257
10192SOL    HW131475   2.868   0.622   4.184
10192SOL    HW231476   2.721   0.679   4.228
10193SOL     OW31477   3.760   3.684   3.523
10193SOL    HW131478   3.742   3.653   3.616
10193SOL    HW231479   3.829   3.626   3.480
10194SOL     OW31480   3.058   5.715   2.861
10194SOL    HW131481   3.014   5.724   2.950
10194SOL    HW231482   3.145   5.666   2.871
10195SOL     OW31483   5.233   0.127   2.369
10195SOL    HW131484   5.254   0.145   2.273
10195SOL    HW231485   5.316   0.140   2.424
10196SOL     OW31486   4.693   4.885   4.037
10196SOL    HW131487   4.712   4.943   3.958
10196SOL    HW231488   4.611   4.830   4.019
10197SOL     OW31489   5.562   1.672   2.809
10197SOL    HW131490   5.635   1.634   2.751
10197SOL    HW231491   5.480   1.688   2.754
10198SOL     OW31492   3.898   1.305   1.882
10198SOL    HW131493   3.880   1.212   1.849
10198SOL    HW231494   3.911   1.366   1.803
10199SOL     OW31495   1.016   1.783   6.939
10199SOL    HW131496   1.011   1.796   0.009
10199SOL    HW231497   1.105   1.813   6.905
10200SOL     OW31498   5.084   0.144   3.701
10200SOL    HW131499   5.017   0.074   3.726
10200SOL    HW231500   5.141   0.166   3.780
10201SOL     OW31501   0.796   5.413   3.527
10201SOL    HW131502   0.895   5.426   3.524
10201SOL    HW231503   0.752   5.478   3.464
10202SOL     OW31504   1.399   2.265   3.422
10202SOL    HW131505   1.490   2.231   3.447
10202SOL    HW231506   1.370   2.335   3.486
10203SOL     OW31507   5.912   2.367   1.173
10203SOL    HW131508   5.903   2.466   1.185
10203SOL    HW231509   5.861   2.320   1.246
10204SOL     OW31510   1.648   6.172   4.477
10204SOL    HW131511   1.642   6.077   4.446
10204SOL    HW231512   1.658   6.233   4.399
10205SOL     OW31513   3.699   6.599   0.582
10205SOL    HW131514   3.696   6.529   0.653
10205SOL    HW231515   3.761   6.571   0.510
10206SOL     OW31516   5.836   6.083   6.761
10206SOL    HW131517   5.846   6.009   6.695
10206SOL    HW231518   5.887   6.061   6.844
10207SOL     OW31519   3.542   1.610   2.139
10207SOL    HW131520   3.494   1.648   2.060
10207SOL    HW231521   3.519   1.513   2.149
10208SOL     OW31522   0.308   2.142   6.365
10208SOL    HW131523   0.360   2.185   6.439
10208SOL    HW231524   0.370   2.098   6.301
10209SOL     OW31525   3.684   6.216   6.861
10209SOL    HW131526   3.700   6.141   6.797
10209SOL    HW231527   3.618   6.187   6.931
10210SOL     OW31528   4.520   6.435   6.544
10210SOL    HW131529   4.429   6.474   6.532
10210SOL    HW231530   4.562   6.473   6.627
10211SOL     OW31531   3.784   5.094   4.796
10211SOL    HW131532   3.691   5.127   4.812
10211SOL    HW231533   3.838   5.105   4.879
10212SOL     OW31534   6.470   6.246   5.738
10212SOL    HW131535   6.452   6.200   5.825
10212SOL    HW231536   6.565   6.230   5.711
10213SOL     OW31537   3.859   6.908   4.666
10213SOL    HW131538   3.849   6.988   4.726
10213SOL    HW231539   3.853   6.937   4.571
10214SOL     OW31540   6.815   0.842   0.684
10214SOL    HW131541   6.792   0.793   0.600
10214SOL    HW231542   6.895   0.799   0.727
10215SOL     OW31543   5.064   2.750   0.402
10215SOL    HW131544   5.013   2.692   0.339
10215SOL    HW231545   5.003   2.782   0.474
10216SOL     OW31546   5.329   0.452   2.604
10216SOL    HW131547   5.268   0.531   2.615
10216SOL    HW231548   5.332   0.426   2.507
10217SOL     OW31549   3.061   1.904   6.421
10217SOL    HW131550   3.116   1.889   6.504
10217SOL    HW231551   3.005   1.824   6.404
10218SOL     OW31552   3.846   0.839   6.494
10218SOL    HW131553   3.817   0.746   6.471
10218SOL    HW231554   3.891   0.839   6.583
10219SOL     OW31555   0.210   5.223   1.043
10219SOL    HW131556   0.232   5.131   1.075
10219SOL    HW231557   0.219   5.287   1.118
10220SOL     OW31558   4.106   2.770   6.207
10220SOL    HW131559   4.027   2.710   6.194
10220SOL    HW231560   4.168   2.729   6.274
10221SOL     OW31561   2.413   6.991   4.728
10221SOL    HW131562   2.448   6.962   4.817
10221SOL    HW231563   2.342   0.031   4.741
10222SOL     OW31564   2.537   4.950   5.329
10222SOL    HW131565   2.589   4.884   5.275
10222SOL    HW231566   2.527   4.915   5.422
10223SOL     OW31567   2.082   5.491   6.199
10223SOL    HW131568   2.095   5.392   6.193
10223SOL    HW231569   2.009   5.511   6.264
10224SOL     OW31570   3.844   5.946   5.485
10224SOL    HW131571   3.932   5.905   5.508
10224SOL    HW231572   3.773   5.908   5.545
10225SOL     OW31573   5.132   6.968   4.786
10225SOL    HW131574   5.052   6.921   4.823
10225SOL    HW231575   5.207   6.965   4.853
10226SOL     OW31576   6.520   2.347   6.504
10226SOL    HW131577   6.578   2.426   6.487
10226SOL    HW231578   6.564   2.288   6.573
10227SOL     OW31579   4.351   4.727   5.365
10227SOL    HW131580   4.266   4.739   5.416
10227SOL    HW231581   4.424   4.700   5.428
10228SOL     OW31582   1.206   2.666   1.354
10228SOL    HW131583   1.193   2.569   1.374
10228SOL    HW231584   1.291   2.698   1.398
10229SOL     OW31585   2.967   0.670   1.805
10229SOL    HW131586   2.918   0.742   1.854
10229SOL    HW231587   2.903   0.614   1.753
10230SOL     OW31588   5.208   0.264   3.201
10230SOL    HW131589   5.292   0.213   3.182
10230SOL    HW231590   5.195   0.270   3.300
10231SOL     OW31591   5.406   6.771   4.709
10231SOL    HW131592   5.319   6.738   4.675
10231SOL    HW231593   5.391   6.847   4.773
10232SOL     OW31594   4.326   2.339   2.870
10232SOL    HW131595   4.321   2.339   2.970
10232SOL    HW231596   4.392   2.408   2.840
10233SOL     OW31597   5.016   6.101   5.457
10233SOL    HW131598   5.093   6.052   5.498
10233SOL    HW231599   4.993   6.059   5.369
10234SOL     OW31600   4.150   4.289   0.916
10234SOL    HW131601   4.218   4.220   0.943
10234SOL    HW231602   4.192   4.354   0.853
10235SOL     OW31603   4.883   0.329   6.930
10235SOL    HW131604   4.871   0.235   6.962
10235SOL    HW231605   4.847   0.392   6.998
10236SOL     OW31606   1.526   4.770   1.316
10236SOL    HW131607   1.534   4.731   1.407
10236SOL    HW231608   1.505   4.868   1.323
10237SOL     OW31609   6.049   2.495   2.849
10237SOL    HW131610   6.054   2.442   2.765
10237SOL    HW231611   5.966   2.551   2.849
10238SOL     OW31612   5.282   4.863   6.178
10238SOL    HW131613   5.361   4.912   6.141
10238SOL    HW231614   5.308   4.815   6.261
10239SOL     OW31615   5.372   3.838   4.125
10239SOL    HW131616   5.297   3.903   4.139
10239SOL    HW231617   5.343   3.747   4.155
10240SOL     OW31618   4.833   4.002   2.576
10240SOL    HW131619   4.831   4.074   2.645
10240SOL    HW231620   4.921   4.005   2.528
10241SOL     OW31621   1.428   2.748   2.231
10241SOL    HW131622   1.416   2.823   2.166
10241SOL    HW231623   1.525   2.737   2.251
10242SOL     OW31624   0.790   5.285   6.843
10242SOL    HW131625   0.823   5.209   6.788
10242SOL    HW231626   0.700   5.314   6.811
10243SOL     OW31627   0.285   5.665   3.913
10243SOL    HW131628   0.190   5.677   3.884
10243SOL    HW231629   0.333   5.608   3.847
10244SOL     OW31630   3.035   6.065   0.129
10244SOL    HW131631   3.091   6.045   0.210
10244SOL    HW231632   3.021   6.163   0.121
10245SOL     OW31633   3.658   3.511   1.272
10245SOL    HW131634   3.661   3.610   1.256
10245SOL    HW231635   3.751   3.475   1.275
10246SOL     OW31636   3.155   4.101   4.689
10246SOL    HW131637   3.246   4.067   4.667
10246SOL    HW231638   3.162   4.173   4.758
10247SOL     OW31639   1.110   5.330   6.392
10247SOL    HW131640   1.088   5.335   6.295
10247SOL    HW231641   1.032   5.363   6.445
10248SOL     OW31642   6.040   0.302   3.852
10248SOL    HW131643   6.082   0.260   3.933
10248SOL    HW231644   6.015   0.396   3.872
10249SOL     OW31645   4.622   0.999   5.744
10249SOL    HW131646   4.529   1.028   5.767
10249SOL    HW231647   4.679   1.080   5.728
10250SOL     OW31648   4.247   5.816   0.627
10250SOL    HW131649   4.320   5.832   0.560
10250SOL    HW231650   4.287   5.800   0.717
10251SOL     OW31651   3.766   4.295   1.278
10251SOL    HW131652   3.803   4.213   1.320
10251SOL    HW231653   3.821   4.319   1.198
10252SOL     OW31654   0.056   4.624   0.514
10252SOL    HW131655   7.018   4.607   0.442
10252SOL    HW231656   0.008   4.637   0.601
10253SOL     OW31657   5.241   4.169   6.914
10253SOL    HW131658   5.190   4.220   6.845
10253SOL    HW231659   5.314   4.116   6.871
10254SOL     OW31660   3.054   2.620   5.572
10254SOL    HW131661   2.971   2.576   5.606
10254SOL    HW231662   3.053   2.621   5.472
10255SOL     OW31663   3.115   4.999   3.963
10255SOL    HW131664   3.055   4.932   4.008
10255SOL    HW231665   3.131   5.077   4.024
10256SOL     OW31666   5.110   5.524   0.305
10256SOL    HW131667   5.100   5.616   0.268
10256SOL    HW231668   5.068   5.520   0.396
10257SOL     OW31669   1.685   4.086   4.876
10257SOL    HW131670   1.661   4.137   4.959
10257SOL    HW231671   1.757   4.135   4.827
10258SOL     OW31672   4.795   1.022   2.474
10258SOL    HW131673   4.864   1.012   2.403
10258SOL    HW231674   4.710   0.979   2.444
10259SOL     OW31675   5.820   3.673   4.109
10259SOL    HW131676   5.756   3.746   4.083
10259SOL    HW231677   5.768   3.592   4.137
10260SOL     OW31678   6.779   5.731   2.856
10260SOL    HW131679   6.728   5.664   2.803
10260SOL    HW231680   6.733   5.744   2.945
10261SOL     OW31681   2.495   6.939   1.931
10261SOL    HW131682   2.561   6.864   1.941
10261SOL    HW231683   2.456   6.962   2.020
10262SOL     OW31684   6.850   6.571   3.766
10262SOL    HW131685   6.930   6.594   3.711
10262SOL    HW231686   6.860   6.478   3.803
10263SOL     OW31687   6.631   3.565   5.342
10263SOL    HW131688   6.662   3.500   5.273
10263SOL    HW231689   6.577   3.637   5.298
10264SOL     OW31690   0.532   0.653   0.585
10264SOL    HW131691   0.619   0.604   0.580
10264SOL    HW231692   0.503   0.660   0.680
10265SOL     OW31693   5.330   2.724   4.218
10265SOL    HW131694   5.391   2.646   4.202
10265SOL    HW231695   5.246   2.712   4.165
10266SOL     OW31696   3.197   3.608   6.929
10266SOL    HW131697   3.191   3.695   6.880
10266SOL    HW231698   3.107   3.566   6.933
10267SOL     OW31699   6.984   0.661   6.159
10267SOL    HW131700   7.011   0.743   6.210
10267SOL    HW231701   6.894   0.676   6.119
10268SOL     OW31702   6.916   4.614   0.290
10268SOL    HW131703   6.826   4.654   0.307
10268SOL    HW231704   6.933   4.611   0.192
10269SOL     OW31705   4.517   1.632   5.854
10269SOL    HW131706   4.534   1.617   5.952
10269SOL    HW231707   4.444   1.699   5.843
10270SOL     OW31708   3.678   6.384   2.933
10270SOL    HW131709   3.625   6.433   3.001
10270SOL    HW231710   3.753   6.336   2.979
10271SOL     OW31711   1.738   4.654   1.172
10271SOL    HW131712   1.780   4.581   1.226
10271SOL    HW231713   1.659   4.690   1.221
10272SOL     OW31714   2.160   3.426   4.188
10272SOL    HW131715   2.073   3.406   4.142
10272SOL    HW231716   2.233   3.429   4.120
10273SOL     OW31717   4.437   6.804   3.822
10273SOL    HW131718   4.401   6.828   3.732
10273SOL    HW231719   4.362   6.805   3.889
10274SOL     OW31720   1.573   4.601   6.966
10274SOL    HW131721   1.636   4.634   0.007
10274SOL    HW231722   1.621   4.540   6.903
10275SOL     OW31723   0.503   6.071   1.993
10275SOL    HW131724   0.464   6.126   2.067
10275SOL    HW231725   0.482   6.113   1.905
10276SOL     OW31726   1.966   7.026   0.315
10276SOL    HW131727   1.950   6.953   0.249
10276SOL    HW231728   1.887   0.004   0.377
10277SOL     OW31729   6.639   5.709   1.885
10277SOL    HW131730   6.698   5.757   1.820
10277SOL    HW231731   6.632   5.612   1.859
10278SOL     OW31732   6.659   1.026   5.097
10278SOL    HW131733   6.603   0.991   5.173
10278SOL    HW231734   6.700   1.114   5.123
10279SOL     OW31735   3.980   6.259   4.083
10279SOL    HW131736   4.007   6.191   4.014
10279SOL    HW231737   3.885   6.286   4.068
10280SOL     OW31738   2.787   2.603   0.040
10280SOL    HW131739   2.851   2.578   0.112
10280SOL    HW231740   2.771   2.525   7.009
10281SOL     OW31741   4.414   0.719   4.643
10281SOL    HW131742   4.405   0.792   4.710
10281SOL    HW231743   4.503   0.674   4.654
10282SOL     OW31744   1.776   3.045   4.461
10282SOL    HW131745   1.841   3.015   4.391
10282SOL    HW231746   1.775   3.145   4.465
10283SOL     OW31747   1.519   5.282   6.413
10283SOL    HW131748   1.433   5.241   6.441
10283SOL    HW231749   1.502   5.375   6.379
10284SOL     OW31750   5.282   3.240   0.291
10284SOL    HW131751   5.267   3.141   0.283
10284SOL    HW231752   5.322   3.275   0.206
10285SOL     OW31753   4.991   1.569   0.965
10285SOL    HW131754   5.026   1.489   1.013
10285SOL    HW231755   5.065   1.634   0.948
10286SOL     OW31756   3.718   0.092   4.001
10286SOL    HW131757   3.655   0.128   3.933
10286SOL    HW231758   3.667   0.046   4.073
10287SOL     OW31759   2.163   3.853   2.760
10287SOL    HW131760   2.161   3.915   2.681
10287SOL    HW231761   2.145   3.760   2.729
10288SOL     OW31762   4.522   6.463   4.297
10288SOL    HW131763   4.609   6.505   4.271
10288SOL    HW231764   4.512   6.376   4.249
10289SOL     OW31765   2.365   1.456   1.861
10289SOL    HW131766   2.307   1.445   1.780
10289SOL    HW231767   2.450   1.404   1.848
10290SOL     OW31768   3.288   3.025   3.763
10290SOL    HW131769   3.212   3.046   3.702
10290SOL    HW231770   3.332   3.110   3.792
10291SOL     OW31771   4.204   6.785   3.982
10291SOL    HW131772   4.136   6.824   4.044
10291SOL    HW231773   4.240   6.700   4.021
10292SOL     OW31774   6.617   3.109   4.350
10292SOL    HW131775   6.518   3.096   4.353
10292SOL    HW231776   6.653   3.068   4.266
10293SOL     OW31777   1.561   4.404   3.192
10293SOL    HW131778   1.507   4.370   3.116
10293SOL    HW231779   1.604   4.491   3.167
10294SOL     OW31780   6.007   0.810   2.966
10294SOL    HW131781   6.028   0.728   2.912
10294SOL    HW231782   5.987   0.886   2.904
10295SOL     OW31783   1.638   4.015   3.291
10295SOL    HW131784   1.558   4.020   3.351
10295SOL    HW231785   1.609   4.030   3.196
10296SOL     OW31786   6.554   3.727   1.452
10296SOL    HW131787   6.518   3.805   1.503
10296SOL    HW231788   6.538   3.740   1.354
10297SOL     OW31789   3.435   4.743   5.565
10297SOL    HW131790   3.499   4.768   5.638
10297SOL    HW231791   3.382   4.823   5.539
10298SOL     OW31792   6.017   3.473   2.878
10298SOL    HW131793   6.028   3.449   2.782
10298SOL    HW231794   5.929   3.518   2.891
10299SOL     OW31795   4.101   5.094   2.313
10299SOL    HW131796   4.066   5.032   2.383
10299SOL    HW231797   4.050   5.180   2.315
10300SOL     OW31798   7.004   5.938   2.301
10300SOL    HW131799   6.958   5.861   2.256
10300SOL    HW231800   0.057   5.963   2.249
10301SOL     OW31801   4.438   0.622   1.919
10301SOL    HW131802   4.347   0.588   1.896
10301SOL    HW231803   4.459   0.700   1.861
10302SOL     OW31804   0.563   3.861   3.119
10302SOL    HW131805   0.556   3.826   3.212
10302SOL    HW231806   0.657   3.854   3.087
10303SOL     OW31807   4.981   3.688   1.297
10303SOL    HW131808   5.066   3.692   1.349
10303SOL    HW231809   5.002   3.663   1.202
10304SOL     OW31810   5.785   5.896   4.186
10304SOL    HW131811   5.847   5.967   4.153
10304SOL    HW231812   5.740   5.852   4.108
10305SOL     OW31813   2.166   5.302   1.333
10305SOL    HW131814   2.126   5.224   1.381
10305SOL    HW231815   2.146   5.386   1.383
10306SOL     OW31816   4.622   3.764   0.186
10306SOL    HW131817   4.547   3.756   0.120
10306SOL    HW231818   4.709   3.773   0.137
10307SOL     OW31819   3.024   2.236   5.980
10307SOL    HW131820   3.017   2.174   5.902
10307SOL    HW231821   3.118   2.238   6.013
10308SOL     OW31822   2.872   5.244   4.014
10308SOL    HW131823   2.804   5.178   3.982
10308SOL    HW231824   2.844   5.337   3.990
10309SOL     OW31825   6.962   6.332   3.528
10309SOL    HW131826   7.010   6.335   3.440
10309SOL    HW231827   7.000   6.402   3.589
10310SOL     OW31828   3.425   4.101   4.198
10310SOL    HW131829   3.514   4.055   4.201
10310SOL    HW231830   3.412   4.153   4.282
10311SOL     OW31831   1.257   6.937   0.851
10311SOL    HW131832   1.310   6.893   0.778
10311SOL    HW231833   1.160   6.932   0.829
10312SOL     OW31834   2.676   4.470   0.546
10312SOL    HW131835   2.647   4.507   0.634
10312SOL    HW231836   2.621   4.389   0.525
10313SOL     OW31837   6.542   5.822   3.964
10313SOL    HW131838   6.507   5.729   3.970
10313SOL    HW231839   6.506   5.876   4.040
10314SOL     OW31840   6.910   5.351   5.162
10314SOL    HW131841   6.834   5.295   5.127
10314SOL    HW231842   6.991   5.336   5.106
10315SOL     OW31843   4.121   6.179   5.541
10315SOL    HW131844   4.117   6.080   5.552
10315SOL    HW231845   4.171   6.219   5.617
10316SOL     OW31846   6.963   2.658   3.802
10316SOL    HW131847   6.940   2.561   3.793
10316SOL    HW231848   6.989   2.694   3.712
10317SOL     OW31849   6.152   4.238   6.050
10317SOL    HW131850   6.119   4.157   6.097
10317SOL    HW231851   6.196   4.299   6.115
10318SOL     OW31852   4.790   5.123   2.624
10318SOL    HW131853   4.765   5.027   2.610
10318SOL    HW231854   4.882   5.128   2.661
10319SOL     OW31855   5.084   6.787   3.758
10319SOL    HW131856   5.092   6.808   3.855
10319SOL    HW231857   4.993   6.813   3.726
10320SOL     OW31858   3.449   6.633   1.659
10320SOL    HW131859   3.360   6.657   1.621
10320SOL    HW231860   3.437   6.568   1.734
10321SOL     OW31861   4.566   6.238   4.916
10321SOL    HW131862   4.660   6.261   4.940
10321SOL    HW231863   4.554   6.139   4.922
10322SOL     OW31864   6.776   1.260   6.636
10322SOL    HW131865   6.857   1.211   6.604
10322SOL    HW231866   6.704   1.254   6.566
10323SOL     OW31867   0.176   2.121   5.104
10323SOL    HW131868   0.217   2.205   5.140
10323SOL    HW231869   0.225   2.042   5.139
10324SOL     OW31870   3.158   3.549   4.835
10324SOL    HW131871   3.200   3.527   4.747
10324SOL    HW231872   3.193   3.637   4.867
10325SOL     OW31873   0.743   2.874   3.793
10325SOL    HW131874   0.775   2.928   3.871
10325SOL    HW231875   0.647   2.848   3.808
10326SOL     OW31876   6.116   1.438   1.203
10326SOL    HW131877   6.109   1.357   1.263
10326SOL    HW231878   6.210   1.445   1.168
10327SOL     OW31879   5.561   1.983   3.823
10327SOL    HW131880   5.475   2.028   3.847
10327SOL    HW231881   5.623   1.985   3.901
10328SOL     OW31882   6.742   3.752   1.924
10328SOL    HW131883   6.754   3.707   1.836
10328SOL    HW231884   6.813   3.721   1.987
10329SOL     OW31885   2.707   5.470   2.916
10329SOL    HW131886   2.720   5.557   2.868
10329SOL    HW231887   2.792   5.445   2.963
10330SOL     OW31888   3.801   3.225   0.918
10330SOL    HW131889   3.731   3.163   0.882
10330SOL    HW231890   3.828   3.196   1.009
10331SOL     OW31891   5.385   1.829   4.857
10331SOL    HW131892   5.365   1.737   4.892
10331SOL    HW231893   5.433   1.822   4.770
10332SOL     OW31894   1.521   2.777   6.651
10332SOL    HW131895   1.451   2.770   6.722
10332SOL    HW231896   1.484   2.746   6.563
10333SOL     OW31897   0.334   4.653   5.451
10333SOL    HW131898   0.321   4.554   5.448
10333SOL    HW231899   0.277   4.691   5.524
10334SOL     OW31900   1.196   4.967   5.498
10334SOL    HW131901   1.233   4.972   5.590
10334SOL    HW231902   1.161   4.875   5.480
10335SOL     OW31903   3.022   5.012   2.597
10335SOL    HW131904   2.970   4.928   2.578
10335SOL    HW231905   2.970   5.091   2.565
10336SOL     OW31906   4.149   0.090   3.206
10336SOL    HW131907   4.169   0.171   3.262
10336SOL    HW231908   4.153   0.008   3.263
10337SOL     OW31909   1.583   3.914   6.167
10337SOL    HW131910   1.634   3.946   6.088
10337SOL    HW231911   1.536   3.991   6.210
10338SOL     OW31912   2.144   4.107   2.884
10338SOL    HW131913   2.161   4.021   2.835
10338SOL    HW231914   2.091   4.168   2.825
10339SOL     OW31915   3.370   6.237   6.585
10339SOL    HW131916   3.465   6.230   6.556
10339SOL    HW231917   3.362   6.209   6.681
10340SOL     OW31918   1.945   6.025   1.091
10340SOL    HW131919   1.931   5.975   1.007
10340SOL    HW231920   1.988   6.113   1.071
10341SOL     OW31921   6.848   3.119   1.489
10341SOL    HW131922   6.860   3.166   1.401
10341SOL    HW231923   6.752   3.122   1.516
10342SOL     OW31924   3.409   5.327   3.691
10342SOL    HW131925   3.414   5.307   3.789
10342SOL    HW231926   3.483   5.280   3.644
10343SOL     OW31927   2.685   2.438   4.854
10343SOL    HW131928   2.615   2.445   4.925
10343SOL    HW231929   2.661   2.496   4.777
10344SOL     OW31930   5.235   3.941   1.335
10344SOL    HW131931   5.206   3.950   1.240
10344SOL    HW231932   5.199   4.019   1.388
10345SOL     OW31933   3.106   1.638   6.628
10345SOL    HW131934   3.202   1.617   6.611
10345SOL    HW231935   3.100   1.720   6.686
10346SOL     OW31936   6.419   5.906   0.219
10346SOL    HW131937   6.408   5.807   0.219
10346SOL    HW231938   6.328   5.949   0.224
10347SOL     OW31939   3.803   6.835   2.451
10347SOL    HW131940   3.727   6.853   2.513
10347SOL    HW231941   3.885   6.880   2.485
10348SOL     OW31942   0.360   3.710   4.592
10348SOL    HW131943   0.355   3.736   4.689
10348SOL    HW231944   0.269   3.719   4.551
10349SOL     OW31945   5.980   2.178   0.331
10349SOL    HW131946   5.985   2.086   0.369
10349SOL    HW231947   5.930   2.175   0.244
10350SOL     OW31948   2.026   5.231   4.535
10350SOL    HW131949   2.099   5.276   4.484
10350SOL    HW231950   1.938   5.254   4.494
10351SOL     OW31951   3.623   5.668   4.899
10351SOL    HW131952   3.574   5.617   4.970
10351SOL    HW231953   3.701   5.714   4.940
10352SOL     OW31954   0.491   1.160   1.768
10352SOL    HW131955   0.504   1.234   1.834
10352SOL    HW231956   0.577   1.140   1.722
10353SOL     OW31957   5.601   2.964   3.350
10353SOL    HW131958   5.582   2.901   3.275
10353SOL    HW231959   5.548   2.938   3.430
10354SOL     OW31960   6.884   2.981   1.859
10354SOL    HW131961   6.843   2.971   1.950
10354SOL    HW231962   6.968   2.927   1.854
10355SOL     OW31963   6.573   2.106   0.599
10355SOL    HW131964   6.562   2.068   0.507
10355SOL    HW231965   6.482   2.125   0.638
10356SOL     OW31966   6.159   2.482   6.631
10356SOL    HW131967   6.118   2.391   6.639
10356SOL    HW231968   6.133   2.536   6.711
10357SOL     OW31969   0.241   6.787   6.449
10357SOL    HW131970   0.259   6.753   6.541
10357SOL    HW231971   0.324   6.781   6.394
10358SOL     OW31972   0.699   3.433   4.196
10358SOL    HW131973   0.790   3.469   4.214
10358SOL    HW231974   0.695   3.398   4.102
10359SOL     OW31975   1.183   2.608   2.258
10359SOL    HW131976   1.144   2.657   2.336
10359SOL    HW231977   1.277   2.638   2.243
10360SOL     OW31978   5.963   4.715   0.600
10360SOL    HW131979   5.986   4.807   0.630
10360SOL    HW231980   6.040   4.654   0.618
10361SOL     OW31981   5.572   2.138   3.462
10361SOL    HW131982   5.493   2.190   3.493
10361SOL    HW231983   5.541   2.059   3.409
10362SOL     OW31984   0.178   6.797   2.313
10362SOL    HW131985   0.179   6.723   2.245
10362SOL    HW231986   0.148   6.882   2.269
10363SOL     OW31987   5.717   4.806   6.378
10363SOL    HW131988   5.739   4.786   6.283
10363SOL    HW231989   5.794   4.853   6.421
10364SOL     OW31990   6.074   5.564   0.812
10364SOL    HW131991   6.064   5.551   0.911
10364SOL    HW231992   5.991   5.608   0.776
10365SOL     OW31993   6.204   5.967   6.679
10365SOL    HW131994   6.227   6.064   6.691
10365SOL    HW231995   6.131   5.959   6.611
10366SOL     OW31996   2.921   0.149   3.321
10366SOL    HW131997   2.850   0.079   3.324
10366SOL    HW231998   3.010   0.106   3.304
10367SOL     OW31999   4.498   5.844   2.293
10367SOL    HW132000   4.538   5.929   2.326
10367SOL    HW232001   4.504   5.774   2.364
10368SOL     OW32002   1.421   5.389   1.623
10368SOL    HW132003   1.386   5.300   1.593
10368SOL    HW232004   1.412   5.456   1.550
10369SOL     OW32005   2.455   0.898   5.287
10369SOL    HW132006   2.412   0.896   5.377
10369SOL    HW232007   2.500   0.987   5.275
10370SOL     OW32008   1.817   2.168   6.649
10370SOL    HW132009   1.782   2.260   6.665
10370SOL    HW232010   1.904   2.156   6.697
10371SOL     OW32011   3.973   5.790   3.392
10371SOL    HW132012   4.037   5.714   3.384
10371SOL    HW232013   3.977   5.827   3.485
10372SOL     OW32014   0.930   6.284   1.823
10372SOL    HW132015   0.929   6.279   1.923
10372SOL    HW232016   0.925   6.192   1.784
10373SOL     OW32017   6.676   0.235   5.855
10373SOL    HW132018   6.638   0.326   5.872
10373SOL    HW232019   6.621   0.167   5.904
10374SOL     OW32020   2.296   4.915   2.234
10374SOL    HW132021   2.384   4.893   2.191
10374SOL    HW232022   2.293   5.013   2.256
10375SOL     OW32023   2.719   5.724   6.769
10375SOL    HW132024   2.781   5.645   6.762
10375SOL    HW232025   2.674   5.723   6.858
10376SOL     OW32026   1.901   4.569   4.023
10376SOL    HW132027   1.970   4.508   4.061
10376SOL    HW232028   1.914   4.576   3.924
10377SOL     OW32029   2.952   0.814   3.869
10377SOL    HW132030   3.012   0.804   3.789
10377SOL    HW232031   2.991   0.881   3.932
10378SOL     OW32032   0.210   6.932   5.387
10378SOL    HW132033   0.224   6.835   5.369
10378SOL    HW232034   0.212   6.949   5.486
10379SOL     OW32035   1.092   5.374   3.275
10379SOL    HW132036   1.123   5.456   3.323
10379SOL    HW232037   1.169   5.331   3.229
10380SOL     OW32038   2.860   1.414   4.235
10380SOL    HW132039   2.810   1.337   4.197
10380SOL    HW232040   2.836   1.426   4.331
10381SOL     OW32041   2.550   0.144   3.227
10381SOL    HW132042   2.494   0.102   3.156
10381SOL    HW232043   2.622   0.081   3.254
10382SOL     OW32044   4.188   5.735   2.485
10382SOL    HW132045   4.170   5.796   2.407
10382SOL    HW232046   4.186   5.788   2.570
10383SOL     OW32047   0.406   6.806   6.971
10383SOL    HW132048   0.347   6.739   6.925
10383SOL    HW232049   0.467   6.849   6.905
10384SOL     OW32050   4.871   5.460   1.626
10384SOL    HW132051   4.882   5.361   1.616
10384SOL    HW232052   4.849   5.482   1.721
10385SOL     OW32053   4.141   4.218   6.444
10385SOL    HW132054   4.092   4.300   6.474
10385SOL    HW232055   4.207   4.191   6.515
10386SOL     OW32056   0.318   0.204   2.106
10386SOL    HW132057   0.335   0.294   2.065
10386SOL    HW232058   0.398   0.176   2.159
10387SOL     OW32059   5.444   1.587   1.871
10387SOL    HW132060   5.493   1.670   1.899
10387SOL    HW232061   5.357   1.612   1.829
10388SOL     OW32062   1.032   0.090   4.234
10388SOL    HW132063   1.090   0.170   4.249
10388SOL    HW232064   1.087   0.013   4.201
10389SOL     OW32065   0.530   3.735   0.837
10389SOL    HW132066   0.466   3.682   0.781
10389SOL    HW232067   0.486   3.821   0.864
10390SOL     OW32068   2.191   2.117   2.366
10390SOL    HW132069   2.282   2.096   2.329
10390SOL    HW232070   2.122   2.062   2.319
10391SOL     OW32071   6.524   6.940   3.095
10391SOL    HW132072   6.464   6.905   3.167
10391SOL    HW232073   6.591   6.869   3.071
10392SOL     OW32074   6.328   3.568   3.527
10392SOL    HW132075   6.348   3.529   3.617
10392SOL    HW232076   6.372   3.513   3.456
10393SOL     OW32077   1.535   2.260   1.543
10393SOL    HW132078   1.605   2.319   1.505
10393SOL    HW232079   1.448   2.310   1.547
10394SOL     OW32080   2.726   5.993   3.654
10394SOL    HW132081   2.647   5.940   3.684
10394SOL    HW232082   2.783   5.936   3.594
10395SOL     OW32083   0.487   1.267   1.462
10395SOL    HW132084   0.466   1.228   1.551
10395SOL    HW232085   0.511   1.364   1.472
10396SOL     OW32086   3.418   2.098   5.106
10396SOL    HW132087   3.330   2.128   5.143
10396SOL    HW232088   3.490   2.118   5.173
10397SOL     OW32089   5.185   1.650   3.901
10397SOL    HW132090   5.133   1.578   3.946
10397SOL    HW232091   5.276   1.616   3.876
10398SOL     OW32092   4.842   2.985   2.470
10398SOL    HW132093   4.807   2.895   2.445
10398SOL    HW232094   4.818   3.051   2.399
10399SOL     OW32095   0.912   3.649   2.160
10399SOL    HW132096   0.883   3.684   2.249
10399SOL    HW232097   0.926   3.550   2.166
10400SOL     OW32098   2.231   6.433   0.208
10400SOL    HW132099   2.247   6.526   0.242
10400SOL    HW232100   2.169   6.436   0.130
10401SOL     OW32101   6.793   1.189   5.287
10401SOL    HW132102   6.761   1.220   5.377
10401SOL    HW232103   6.814   1.091   5.291
10402SOL     OW32104   6.789   4.738   5.365
10402SOL    HW132105   6.850   4.664   5.338
10402SOL    HW232106   6.793   4.811   5.296
10403SOL     OW32107   3.562   0.455   1.247
10403SOL    HW132108   3.577   0.452   1.346
10403SOL    HW232109   3.480   0.403   1.224
10404SOL     OW32110   0.419   5.783   5.724
10404SOL    HW132111   0.357   5.802   5.648
10404SOL    HW232112   0.442   5.686   5.725
10405SOL     OW32113   0.517   1.197   0.071
10405SOL    HW132114   0.470   1.133   0.011
10405SOL    HW232115   0.475   1.194   0.162
10406SOL     OW32116   1.662   5.495   0.971
10406SOL    HW132117   1.711   5.466   0.889
10406SOL    HW232118   1.716   5.563   1.020
10407SOL     OW32119   2.315   5.665   0.252
10407SOL    HW132120   2.217   5.652   0.266
10407SOL    HW232121   2.343   5.617   0.169
10408SOL     OW32122   4.543   0.373   7.007
10408SOL    HW132123   4.506   0.458   0.014
10408SOL    HW232124   4.559   0.309   0.053
10409SOL     OW32125   6.480   4.182   0.410
10409SOL    HW132126   6.414   4.110   0.387
10409SOL    HW232127   6.530   4.210   0.328
10410SOL     OW32128   4.220   6.935   0.825
10410SOL    HW132129   4.243   6.919   0.728
10410SOL    HW232130   4.265   6.865   0.881
10411SOL     OW32131   1.486   5.372   4.040
10411SOL    HW132132   1.514   5.332   4.127
10411SOL    HW232133   1.432   5.455   4.057
10412SOL     OW32134   5.209   0.300   1.396
10412SOL    HW132135   5.134   0.267   1.339
10412SOL    HW232136   5.176   0.317   1.489
10413SOL     OW32137   5.811   3.597   1.979
10413SOL    HW132138   5.873   3.520   1.967
10413SOL    HW232139   5.856   3.668   2.033
10414SOL     OW32140   5.723   3.425   4.137
10414SOL    HW132141   5.758   3.392   4.050
10414SOL    HW232142   5.629   3.392   4.150
10415SOL     OW32143   0.778   0.709   6.868
10415SOL    HW132144   0.746   0.654   6.791
10415SOL    HW232145   0.786   0.651   6.949
10416SOL     OW32146   5.305   3.134   3.515
10416SOL    HW132147   5.319   3.140   3.614
10416SOL    HW232148   5.221   3.082   3.497
10417SOL     OW32149   1.614   3.864   2.532
10417SOL    HW132150   1.697   3.902   2.573
10417SOL    HW232151   1.534   3.912   2.568
10418SOL     OW32152   1.848   5.821   6.173
10418SOL    HW132153   1.903   5.781   6.100
10418SOL    HW232154   1.788   5.751   6.212
10419SOL     OW32155   1.596   0.478   6.610
10419SOL    HW132156   1.686   0.440   6.630
10419SOL    HW232157   1.588   0.569   6.652
10420SOL     OW32158   0.561   2.552   2.388
10420SOL    HW132159   0.577   2.651   2.384
10420SOL    HW232160   0.637   2.504   2.344
10421SOL     OW32161   0.627   1.747   3.040
10421SOL    HW132162   0.571   1.811   2.987
10421SOL    HW232163   0.672   1.683   2.978
10422SOL     OW32164   5.393   2.301   0.230
10422SOL    HW132165   5.422   2.217   0.183
10422SOL    HW232166   5.437   2.379   0.186
10423SOL     OW32167   4.810   5.801   3.218
10423SOL    HW132168   4.745   5.783   3.144
10423SOL    HW232169   4.901   5.768   3.192
10424SOL     OW32170   4.122   1.537   6.579
10424SOL    HW132171   4.204   1.519   6.525
10424SOL    HW232172   4.082   1.451   6.609
10425SOL     OW32173   1.605   6.657   2.115
10425SOL    HW132174   1.653   6.731   2.162
10425SOL    HW232175   1.639   6.649   2.022
10426SOL     OW32176   6.579   4.166   6.427
10426SOL    HW132177   6.629   4.083   6.404
10426SOL    HW232178   6.486   4.160   6.392
10427SOL     OW32179   5.284   0.961   1.747
10427SOL    HW132180   5.268   0.879   1.692
10427SOL    HW232181   5.201   0.985   1.797
10428SOL     OW32182   4.457   2.014   3.388
10428SOL    HW132183   4.431   2.096   3.339
10428SOL    HW232184   4.396   1.939   3.363
10429SOL     OW32185   5.231   5.546   2.566
10429SOL    HW132186   5.201   5.480   2.634
10429SOL    HW232187   5.279   5.499   2.492
10430SOL     OW32188   4.259   6.310   2.957
10430SOL    HW132189   4.252   6.325   3.056
10430SOL    HW232190   4.306   6.224   2.939
10431SOL     OW32191   2.663   1.537   5.556
10431SOL    HW132192   2.687   1.492   5.469
10431SOL    HW232193   2.746   1.552   5.609
10432SOL     OW32194   4.287   0.303   4.492
10432SOL    HW132195   4.277   0.383   4.434
10432SOL    HW232196   4.196   0.270   4.520
10433SOL     OW32197   2.814   5.853   1.435
10433SOL    HW132198   2.859   5.847   1.346
10433SOL    HW232199   2.865   5.916   1.494
10434SOL     OW32200   3.235   2.170   5.325
10434SOL    HW132201   3.257   2.196   5.419
10434SOL    HW232202   3.219   2.252   5.270
10435SOL     OW32203   5.717   5.061   6.230
10435SOL    HW132204   5.787   5.023   6.169
10435SOL    HW232205   5.666   4.986   6.271
10436SOL     OW32206   0.286   1.191   2.670
10436SOL    HW132207   0.228   1.214   2.748
10436SOL    HW232208   0.252   1.107   2.627
10437SOL     OW32209   0.891   3.561   6.707
10437SOL    HW132210   0.964   3.612   6.663
10437SOL    HW232211   0.928   3.475   6.742
10438SOL     OW32212   3.231   0.009   5.886
10438SOL    HW132213   3.287   6.955   5.895
10438SOL    HW232214   3.159   0.008   5.955
10439SOL     OW32215   3.445   0.400   5.644
10439SOL    HW132216   3.398   0.445   5.721
10439SOL    HW232217   3.473   0.469   5.578
10440SOL     OW32218   0.938   5.593   0.966
10440SOL    HW132219   1.036   5.575   0.954
10440SOL    HW232220   0.887   5.549   0.892
10441SOL     OW32221   4.168   0.109   0.996
10441SOL    HW132222   4.101   0.088   1.068
10441SOL    HW232223   4.186   0.027   0.942
10442SOL     OW32224   4.053   6.172   6.008
10442SOL    HW132225   4.071   6.211   6.098
10442SOL    HW232226   4.055   6.072   6.014
10443SOL     OW32227   6.340   2.723   4.766
10443SOL    HW132228   6.384   2.805   4.801
10443SOL    HW232229   6.409   2.663   4.724
10444SOL     OW32230   4.294   5.209   5.224
10444SOL    HW132231   4.324   5.131   5.279
10444SOL    HW232232   4.258   5.280   5.284
10445SOL     OW32233   6.445   6.296   2.055
10445SOL    HW132234   6.471   6.213   2.103
10445SOL    HW232235   6.524   6.357   2.049
10446SOL     OW32236   1.209   6.497   6.164
10446SOL    HW132237   1.231   6.406   6.129
10446SOL    HW232238   1.255   6.566   6.108
10447SOL     OW32239   5.394   2.111   6.920
10447SOL    HW132240   5.422   2.092   6.826
10447SOL    HW232241   5.304   2.154   6.920
10448SOL     OW32242   3.610   3.716   2.312
10448SOL    HW132243   3.621   3.784   2.385
10448SOL    HW232244   3.516   3.681   2.313
10449SOL     OW32245   1.674   5.132   4.589
10449SOL    HW132246   1.575   5.147   4.587
10449SOL    HW232247   1.721   5.217   4.565
10450SOL     OW32248   0.331   3.544   0.750
10450SOL    HW132249   0.331   3.467   0.686
10450SOL    HW232250   0.240   3.586   0.751
10451SOL     OW32251   2.469   4.505   2.001
10451SOL    HW132252   2.470   4.481   1.904
10451SOL    HW232253   2.429   4.429   2.053
10452SOL     OW32254   2.103   3.126   5.982
10452SOL    HW132255   2.151   3.144   5.896
10452SOL    HW232256   2.014   3.085   5.963
10453SOL     OW32257   5.459   0.902   1.989
10453SOL    HW132258   5.407   0.928   1.907
10453SOL    HW232259   5.479   0.804   1.986
10454SOL     OW32260   4.662   4.835   2.747
10454SOL    HW132261   4.755   4.823   2.712
10454SOL    HW232262   4.597   4.787   2.687
10455SOL     OW32263   1.221   4.923   3.116
10455SOL    HW132264   1.243   4.984   3.192
10455SOL    HW232265   1.302   4.912   3.058
10456SOL     OW32266   3.856   6.851   1.345
10456SOL    HW132267   3.866   6.858   1.246
10456SOL    HW232268   3.823   6.760   1.369
10457SOL     OW32269   3.826   2.936   4.038
10457SOL    HW132270   3.801   2.840   4.040
10457SOL    HW232271   3.756   2.988   3.988
10458SOL     OW32272   6.505   6.044   2.153
10458SOL    HW132273   6.481   5.958   2.108
10458SOL    HW232274   6.603   6.061   2.141
10459SOL     OW32275   0.134   4.951   1.325
10459SOL    HW132276   0.127   5.022   1.395
10459SOL    HW232277   0.043   4.927   1.292
10460SOL     OW32278   1.147   4.046   1.677
10460SOL    HW132279   1.061   4.003   1.650
10460SOL    HW232280   1.159   4.039   1.776
10461SOL     OW32281   3.422   0.255   6.675
10461SOL    HW132282   3.478   0.179   6.708
10461SOL    HW232283   3.372   0.226   6.593
10462SOL     OW32284   5.265   6.526   1.390
10462SOL    HW132285   5.260   6.437   1.344
10462SOL    HW232286   5.211   6.523   1.474
10463SOL     OW32287   3.935   3.265   0.495
10463SOL    HW132288   3.866   3.327   0.457
10463SOL    HW232289   4.008   3.319   0.538
10464SOL     OW32290   5.910   6.449   2.272
10464SOL    HW132291   5.869   6.540   2.271
10464SOL    HW232292   5.838   6.380   2.283
10465SOL     OW32293   0.352   4.978   4.910
10465SOL    HW132294   0.388   5.070   4.923
10465SOL    HW232295   0.336   4.961   4.813
10466SOL     OW32296   4.712   6.138   5.490
10466SOL    HW132297   4.729   6.220   5.435
10466SOL    HW232298   4.647   6.160   5.562
10467SOL     OW32299   3.845   1.109   4.341
10467SOL    HW132300   3.789   1.097   4.422
10467SOL    HW232301   3.928   1.054   4.349
10468SOL     OW32302   2.886   4.824   3.207
10468SOL    HW132303   2.872   4.889   3.282
10468SOL    HW232304   2.979   4.833   3.171
10469SOL     OW32305   1.217   4.796   5.843
10469SOL    HW132306   1.290   4.782   5.776
10469SOL    HW232307   1.251   4.775   5.935
10470SOL     OW32308   2.433   2.105   4.452
10470SOL    HW132309   2.530   2.123   4.436
10470SOL    HW232310   2.408   2.019   4.408
10471SOL     OW32311   4.722   3.687   6.815
10471SOL    HW132312   4.714   3.588   6.824
10471SOL    HW232313   4.787   3.709   6.743
10472SOL     OW32314   3.930   1.124   3.894
10472SOL    HW132315   3.840   1.091   3.867
10472SOL    HW232316   3.920   1.209   3.947
10473SOL     OW32317   5.252   4.868   6.592
10473SOL    HW132318   5.188   4.931   6.548
10473SOL    HW232319   5.240   4.871   6.691
10474SOL     OW32320   4.830   1.023   4.201
10474SOL    HW132321   4.915   0.980   4.173
10474SOL    HW232322   4.753   0.964   4.177
10475SOL     OW32323   3.795   6.469   1.715
10475SOL    HW132324   3.788   6.563   1.682
10475SOL    HW232325   3.888   6.451   1.745
10476SOL     OW32326   0.604   4.849   6.436
10476SOL    HW132327   0.633   4.918   6.503
10476SOL    HW232328   0.553   4.893   6.363
10477SOL     OW32329   4.651   4.530   5.333
10477SOL    HW132330   4.598   4.449   5.358
10477SOL    HW232331   4.641   4.599   5.404
10478SOL     OW32332   0.711   6.444   2.958
10478SOL    HW132333   0.620   6.476   2.985
10478SOL    HW232334   0.760   6.518   2.912
10479SOL     OW32335   0.785   4.223   2.268
10479SOL    HW132336   0.812   4.311   2.230
10479SOL    HW232337   0.837   4.150   2.224
10480SOL     OW32338   4.839   1.351   0.286
10480SOL    HW132339   4.897   1.411   0.231
10480SOL    HW232340   4.890   1.316   0.364
10481SOL     OW32341   2.934   1.718   4.064
10481SOL    HW132342   2.986   1.781   4.122
10481SOL    HW232343   2.980   1.708   3.975
10482SOL     OW32344   0.726   6.344   6.785
10482SOL    HW132345   0.701   6.248   6.774
10482SOL    HW232346   0.817   6.351   6.825
10483SOL     OW32347   0.631   5.926   1.115
10483SOL    HW132348   0.730   5.914   1.123
10483SOL    HW232349   0.602   5.901   1.023
10484SOL     OW32350   6.929   1.622   1.881
10484SOL    HW132351   6.944   1.679   1.801
10484SOL    HW232352   7.016   1.603   1.926
10485SOL     OW32353   3.709   4.112   4.441
10485SOL    HW132354   3.733   4.028   4.489
10485SOL    HW232355   3.745   4.109   4.348
10486SOL     OW32356   6.190   5.135   5.537
10486SOL    HW132357   6.092   5.145   5.551
10486SOL    HW232358   6.216   5.178   5.451
10487SOL     OW32359   5.357   3.883   2.654
10487SOL    HW132360   5.409   3.925   2.580
10487SOL    HW232361   5.270   3.850   2.620
10488SOL     OW32362   0.258   2.347   5.894
10488SOL    HW132363   0.241   2.415   5.823
10488SOL    HW232364   0.318   2.386   5.964
10489SOL     OW32365   5.848   4.966   3.051
10489SOL    HW132366   5.763   5.015   3.070
10489SOL    HW232367   5.904   5.019   2.988
10490SOL     OW32368   4.959   6.392   6.489
10490SOL    HW132369   5.020   6.317   6.517
10490SOL    HW232370   4.951   6.458   6.563
10491SOL     OW32371   2.324   1.853   5.360
10491SOL    HW132372   2.405   1.886   5.409
10491SOL    HW232373   2.351   1.818   5.270
10492SOL     OW32374   3.278   6.318   0.189
10492SOL    HW132375   3.244   6.287   0.278
10492SOL    HW232376   3.202   6.324   0.125
10493SOL     OW32377   3.646   5.990   0.600
10493SOL    HW132378   3.704   5.919   0.639
10493SOL    HW232379   3.562   5.949   0.566
10494SOL     OW32380   0.082   5.325   3.413
10494SOL    HW132381   0.167   5.340   3.363
10494SOL    HW232382   0.102   5.277   3.499
10495SOL     OW32383   6.126   6.282   7.017
10495SOL    HW132384   6.124   6.191   6.976
10495SOL    HW232385   6.218   6.301   0.023
10496SOL     OW32386   0.912   4.068   5.914
10496SOL    HW132387   0.861   4.152   5.896
10496SOL    HW232388   0.929   4.060   6.012
10497SOL     OW32389   4.103   6.380   6.969
10497SOL    HW132390   4.032   6.361   6.901
10497SOL    HW232391   4.101   6.309   0.011
10498SOL     OW32392   3.097   3.858   0.191
10498SOL    HW132393   3.117   3.902   0.278
10498SOL    HW232394   3.181   3.853   0.136
10499SOL     OW32395   4.268   4.667   3.361
10499SOL    HW132396   4.331   4.669   3.439
10499SOL    HW232397   4.313   4.623   3.283
10500SOL     OW32398   1.780   3.341   5.475
10500SOL    HW132399   1.762   3.296   5.388
10500SOL    HW232400   1.879   3.344   5.492
10501SOL     OW32401   3.935   4.834   3.282
10501SOL    HW132402   3.986   4.917   3.302
10501SOL    HW232403   3.901   4.837   3.188
10502SOL     OW32404   2.969   3.801   2.662
10502SOL    HW132405   2.915   3.774   2.742
10502SOL    HW232406   2.912   3.855   2.600
10503SOL     OW32407   6.742   0.584   1.009
10503SOL    HW132408   6.683   0.593   1.089
10503SOL    HW232409   6.694   0.616   0.927
10504SOL     OW32410   1.162   2.615   5.842
10504SOL    HW132411   1.066   2.596   5.823
10504SOL    HW232412   1.169   2.686   5.912
10505SOL     OW32413   5.552   6.434   1.546
10505SOL    HW132414   5.511   6.438   1.455
10505SOL    HW232415   5.518   6.510   1.602
10506SOL     OW32416   1.290   5.237   5.107
10506SOL    HW132417   1.352   5.159   5.113
10506SOL    HW232418   1.265   5.268   5.199
10507SOL     OW32419   1.681   6.311   5.935
10507SOL    HW132420   1.724   6.373   6.001
10507SOL    HW232421   1.674   6.219   5.975
10508SOL     OW32422   1.886   6.372   1.224
10508SOL    HW132423   1.935   6.340   1.143
10508SOL    HW232424   1.845   6.293   1.271
10509SOL     OW32425   5.111   3.474   2.164
10509SOL    HW132426   5.040   3.516   2.107
10509SOL    HW232427   5.070   3.437   2.247
10510SOL     OW32428   5.770   6.208   2.231
10510SOL    HW132429   5.742   6.167   2.318
10510SOL    HW232430   5.809   6.138   2.172
10511SOL     OW32431   4.112   1.936   1.158
10511SOL    HW132432   4.130   1.838   1.159
10511SOL    HW232433   4.198   1.986   1.166
10512SOL     OW32434   3.995   0.423   4.970
10512SOL    HW132435   3.956   0.331   4.978
10512SOL    HW232436   3.951   0.483   5.036
10513SOL     OW32437   3.657   3.607   0.710
10513SOL    HW132438   3.675   3.555   0.794
10513SOL    HW232439   3.594   3.556   0.652
10514SOL     OW32440   1.673   5.135   2.064
10514SOL    HW132441   1.714   5.205   2.004
10514SOL    HW232442   1.717   5.047   2.047
10515SOL     OW32443   2.067   3.663   4.973
10515SOL    HW132444   2.075   3.595   4.900
10515SOL    HW232445   2.010   3.739   4.942
10516SOL     OW32446   5.443   2.078   1.992
10516SOL    HW132447   5.402   2.163   1.960
10516SOL    HW232448   5.537   2.096   2.022
10517SOL     OW32449   0.108   2.180   2.153
10517SOL    HW132450   0.180   2.242   2.185
10517SOL    HW232451   0.074   2.125   2.229
10518SOL     OW32452   1.007   5.889   2.892
10518SOL    HW132453   0.944   5.936   2.954
10518SOL    HW232454   1.074   5.838   2.946
10519SOL     OW32455   2.206   6.889   0.843
10519SOL    HW132456   2.168   6.824   0.777
10519SOL    HW232457   2.197   6.982   0.808
10520SOL     OW32458   3.041   2.837   5.736
10520SOL    HW132459   3.031   2.747   5.693
10520SOL    HW232460   3.122   2.883   5.698
10521SOL     OW32461   6.280   2.031   2.433
10521SOL    HW132462   6.360   2.013   2.375
10521SOL    HW232463   6.211   1.961   2.416
10522SOL     OW32464   5.176   1.531   2.989
10522SOL    HW132465   5.184   1.605   3.056
10522SOL    HW232466   5.130   1.565   2.907
10523SOL     OW32467   0.578   3.743   1.871
10523SOL    HW132468   0.548   3.660   1.917
10523SOL    HW232469   0.561   3.736   1.773
10524SOL     OW32470   5.856   6.685   4.697
10524SOL    HW132471   5.781   6.635   4.740
10524SOL    HW232472   5.885   6.760   4.757
10525SOL     OW32473   4.846   1.973   3.128
10525SOL    HW132474   4.751   1.999   3.110
10525SOL    HW232475   4.898   1.978   3.043
10526SOL     OW32476   1.565   5.932   5.954
10526SOL    HW132477   1.575   5.967   5.861
10526SOL    HW232478   1.640   5.966   6.011
10527SOL     OW32479   0.654   6.368   5.999
10527SOL    HW132480   0.747   6.390   6.029
10527SOL    HW232481   0.600   6.453   5.994
10528SOL     OW32482   2.369   6.399   5.117
10528SOL    HW132483   2.417   6.435   5.037
10528SOL    HW232484   2.420   6.322   5.155
10529SOL     OW32485   6.861   4.917   0.176
10529SOL    HW132486   6.801   4.883   0.248
10529SOL    HW232487   6.917   4.992   0.211
10530SOL     OW32488   5.790   0.355   1.303
10530SOL    HW132489   5.857   0.281   1.307
10530SOL    HW232490   5.831   0.439   1.338
10531SOL     OW32491   3.141   1.409   6.220
10531SOL    HW132492   3.078   1.451   6.154
10531SOL    HW232493   3.222   1.466   6.230
10532SOL     OW32494   4.695   5.473   5.936
10532SOL    HW132495   4.623   5.536   5.965
10532SOL    HW232496   4.696   5.393   5.997
10533SOL     OW32497   4.399   6.614   3.465
10533SOL    HW132498   4.383   6.711   3.486
10533SOL    HW232499   4.483   6.606   3.411
10534SOL     OW32500   0.678   6.387   4.307
10534SOL    HW132501   0.642   6.480   4.315
10534SOL    HW232502   0.756   6.387   4.244
10535SOL     OW32503   4.115   1.555   2.291
10535SOL    HW132504   4.088   1.461   2.269
10535SOL    HW232505   4.036   1.605   2.325
10536SOL     OW32506   5.793   4.047   4.167
10536SOL    HW132507   5.858   4.000   4.226
10536SOL    HW232508   5.835   4.064   4.077
10537SOL     OW32509   3.273   1.274   2.601
10537SOL    HW132510   3.372   1.265   2.599
10537SOL    HW232511   3.241   1.313   2.515
10538SOL     OW32512   6.345   2.834   3.657
10538SOL    HW132513   6.355   2.838   3.558
10538SOL    HW232514   6.254   2.869   3.682
10539SOL     OW32515   6.725   0.035   2.054
10539SOL    HW132516   6.708   6.997   2.127
10539SOL    HW232517   6.796   0.099   2.084
10540SOL     OW32518   1.656   2.853   6.175
10540SOL    HW132519   1.642   2.952   6.183
10540SOL    HW232520   1.673   2.815   6.266
10541SOL     OW32521   3.514   2.234   5.861
10541SOL    HW132522   3.465   2.302   5.806
10541SOL    HW232523   3.449   2.186   5.920
10542SOL     OW32524   3.704   6.635   2.256
10542SOL    HW132525   3.606   6.647   2.274
10542SOL    HW232526   3.754   6.713   2.293
10543SOL     OW32527   1.152   2.623   4.034
10543SOL    HW132528   1.109   2.713   4.026
10543SOL    HW232529   1.101   2.566   4.098
10544SOL     OW32530   2.913   2.246   2.336
10544SOL    HW132531   2.923   2.299   2.252
10544SOL    HW232532   2.816   2.233   2.356
10545SOL     OW32533   1.344   3.487   1.719
10545SOL    HW132534   1.412   3.487   1.646
10545SOL    HW232535   1.264   3.434   1.690
10546SOL     OW32536   1.816   0.002   4.841
10546SOL    HW132537   1.718   0.018   4.831
10546SOL    HW232538   1.831   6.954   4.904
10547SOL     OW32539   3.442   5.641   6.497
10547SOL    HW132540   3.383   5.704   6.547
10547SOL    HW232541   3.406   5.548   6.505
10548SOL     OW32542   1.500   5.030   2.973
10548SOL    HW132543   1.536   4.973   3.047
10548SOL    HW232544   1.467   4.971   2.899
10549SOL     OW32545   6.877   1.129   2.848
10549SOL    HW132546   6.906   1.207   2.905
10549SOL    HW232547   6.873   1.047   2.905
10550SOL     OW32548   6.821   5.204   2.345
10550SOL    HW132549   6.775   5.244   2.424
10550SOL    HW232550   6.884   5.132   2.377
10551SOL     OW32551   4.812   0.050   4.314
10551SOL    HW132552   4.720   0.031   4.279
10551SOL    HW232553   4.807   0.122   4.384
10552SOL     OW32554   2.668   6.927   3.248
10552SOL    HW132555   2.647   6.861   3.176
10552SOL    HW232556   2.743   6.892   3.304
10553SOL     OW32557   5.291   5.717   1.175
10553SOL    HW132558   5.341   5.762   1.101
10553SOL    HW232559   5.339   5.635   1.204
10554SOL     OW32560   5.929   5.878   1.196
10554SOL    HW132561   5.939   5.976   1.215
10554SOL    HW232562   6.016   5.841   1.165
10555SOL     OW32563   3.613   3.416   1.976
10555SOL    HW132564   3.687   3.483   1.981
10555SOL    HW232565   3.624   3.360   1.893
10556SOL     OW32566   2.488   2.326   1.961
10556SOL    HW132567   2.565   2.262   1.956
10556SOL    HW232568   2.408   2.284   1.916
10557SOL     OW32569   0.878   4.258   2.850
10557SOL    HW132570   0.811   4.317   2.895
10557SOL    HW232571   0.832   4.182   2.805
10558SOL     OW32572   5.031   4.985   4.603
10558SOL    HW132573   5.061   4.921   4.673
10558SOL    HW232574   5.076   5.074   4.617
10559SOL     OW32575   3.595   6.141   1.198
10559SOL    HW132576   3.643   6.076   1.257
10559SOL    HW232577   3.542   6.205   1.254
10560SOL     OW32578   5.961   0.271   4.254
10560SOL    HW132579   6.043   0.241   4.206
10560SOL    HW232580   5.984   0.347   4.315
10561SOL     OW32581   1.252   5.838   5.276
10561SOL    HW132582   1.164   5.869   5.240
10561SOL    HW232583   1.324   5.901   5.247
10562SOL     OW32584   3.197   0.938   2.885
10562SOL    HW132585   3.278   0.891   2.920
10562SOL    HW232586   3.128   0.871   2.859
10563SOL     OW32587   1.714   5.446   2.024
10563SOL    HW132588   1.626   5.455   2.070
10563SOL    HW232589   1.701   5.460   1.925
10564SOL     OW32590   5.309   5.058   3.135
10564SOL    HW132591   5.231   5.085   3.192
10564SOL    HW232592   5.393   5.060   3.190
10565SOL     OW32593   6.910   1.413   4.637
10565SOL    HW132594   6.907   1.353   4.557
10565SOL    HW232595   6.891   1.507   4.608
10566SOL     OW32596   3.898   1.858   0.210
10566SOL    HW132597   3.921   1.855   0.307
10566SOL    HW232598   3.805   1.827   0.196
10567SOL     OW32599   2.856   1.699   6.491
10567SOL    HW132600   2.948   1.682   6.528
10567SOL    HW232601   2.828   1.621   6.435
10568SOL     OW32602   5.891   1.994   6.455
10568SOL    HW132603   5.840   2.080   6.463
10568SOL    HW232604   5.977   2.003   6.505
10569SOL     OW32605   4.091   0.801   0.946
10569SOL    HW132606   4.014   0.769   1.002
10569SOL    HW232607   4.071   0.786   0.849
10570SOL     OW32608   1.200   4.198   3.129
10570SOL    HW132609   1.207   4.297   3.117
10570SOL    HW232610   1.258   4.169   3.204
10571SOL     OW32611   0.558   3.876   5.066
10571SOL    HW132612   0.546   3.943   5.140
10571SOL    HW232613   0.555   3.784   5.104
10572SOL     OW32614   0.178   5.140   0.796
10572SOL    HW132615   0.252   5.074   0.784
10572SOL    HW232616   0.175   5.169   0.892
10573SOL     OW32617   6.097   2.585   3.295
10573SOL    HW132618   6.006   2.580   3.254
10573SOL    HW232619   6.096   2.539   3.384
10574SOL     OW32620   5.052   2.228   2.393
10574SOL    HW132621   5.014   2.139   2.420
10574SOL    HW232622   5.127   2.251   2.455
10575SOL     OW32623   5.353   0.293   2.821
10575SOL    HW132624   5.327   0.340   2.905
10575SOL    HW232625   5.325   0.347   2.742
10576SOL     OW32626   1.565   3.039   5.297
10576SOL    HW132627   1.560   3.073   5.203
10576SOL    HW232628   1.578   3.115   5.360
10577SOL     OW32629   4.293   4.107   6.647
10577SOL    HW132630   4.278   4.013   6.617
10577SOL    HW232631   4.382   4.114   6.694
10578SOL     OW32632   1.337   3.629   2.388
10578SOL    HW132633   1.319   3.535   2.419
10578SOL    HW232634   1.275   3.692   2.436
10579SOL     OW32635   0.234   3.420   6.905
10579SOL    HW132636   0.287   3.337   6.886
10579SOL    HW232637   0.144   3.414   6.861
10580SOL     OW32638   5.329   6.785   6.230
10580SOL    HW132639   5.243   6.788   6.282
10580SOL    HW232640   5.404   6.817   6.287
10581SOL     OW32641   4.406   0.709   2.445
10581SOL    HW132642   4.336   0.661   2.393
10581SOL    HW232643   4.365   0.756   2.523
10582SOL     OW32644   6.945   3.402   0.452
10582SOL    HW132645   6.883   3.328   0.476
10582SOL    HW232646   0.009   3.367   0.443
10583SOL     OW32647   4.060   1.952   5.956
10583SOL    HW132648   3.975   1.998   5.931
10583SOL    HW232649   4.106   1.921   5.873
10584SOL     OW32650   6.333   0.547   3.798
10584SOL    HW132651   6.312   0.554   3.896
10584SOL    HW232652   6.266   0.486   3.755
10585SOL     OW32653   1.505   1.114   4.962
10585SOL    HW132654   1.410   1.141   4.976
10585SOL    HW232655   1.542   1.161   4.882
10586SOL     OW32656   4.744   3.706   6.174
10586SOL    HW132657   4.738   3.680   6.078
10586SOL    HW232658   4.764   3.804   6.181
10587SOL     OW32659   2.556   5.239   5.308
10587SOL    HW132660   2.555   5.262   5.406
10587SOL    HW232661   2.498   5.159   5.292
10588SOL     OW32662   1.004   4.224   4.374
10588SOL    HW132663   1.088   4.179   4.345
10588SOL    HW232664   0.978   4.191   4.465
10589SOL     OW32665   5.501   0.398   3.662
10589SOL    HW132666   5.428   0.426   3.600
10589SOL    HW232667   5.581   0.456   3.649
10590SOL     OW32668   0.367   6.382   2.043
10590SOL    HW132669   0.319   6.378   2.131
10590SOL    HW232670   0.465   6.395   2.060
10591SOL     OW32671   6.393   4.451   2.282
10591SOL    HW132672   6.345   4.538   2.293
10591SOL    HW232673   6.327   4.379   2.262
10592SOL     OW32674   6.371   3.625   4.815
10592SOL    HW132675   6.323   3.541   4.792
10592SOL    HW232676   6.455   3.633   4.761
10593SOL     OW32677   3.722   5.914   3.359
10593SOL    HW132678   3.660   5.872   3.293
10593SOL    HW232679   3.809   5.863   3.359
10594SOL     OW32680   4.112   6.037   3.942
10594SOL    HW132681   4.156   6.039   3.852
10594SOL    HW232682   4.057   5.954   3.951
10595SOL     OW32683   5.446   5.891   0.601
10595SOL    HW132684   5.518   5.908   0.668
10595SOL    HW232685   5.483   5.838   0.525
10596SOL     OW32686   5.611   3.946   0.491
10596SOL    HW132687   5.696   3.914   0.448
10596SOL    HW232688   5.560   3.867   0.526
10597SOL     OW32689   1.135   6.470   5.345
10597SOL    HW132690   1.040   6.502   5.336
10597SOL    HW232691   1.184   6.530   5.408
10598SOL     OW32692   3.237   1.856   1.064
10598SOL    HW132693   3.196   1.772   1.100
10598SOL    HW232694   3.312   1.885   1.125
10599SOL     OW32695   0.682   1.923   0.725
10599SOL    HW132696   0.634   1.922   0.637
10599SOL    HW232697   0.638   1.989   0.786
10600SOL     OW32698   4.880   1.449   2.103
10600SOL    HW132699   4.901   1.532   2.153
10600SOL    HW232700   4.955   1.384   2.112
10601SOL     OW32701   2.030   1.888   5.011
10601SOL    HW132702   2.103   1.834   4.970
10601SOL    HW232703   2.070   1.959   5.069
10602SOL     OW32704   6.886   6.985   1.425
10602SOL    HW132705   6.854   0.013   1.348
10602SOL    HW232706   6.941   6.910   1.390
10603SOL     OW32707   5.797   0.793   2.626
10603SOL    HW132708   5.697   0.782   2.624
10603SOL    HW232709   5.832   0.764   2.715
10604SOL     OW32710   5.422   2.328   5.184
10604SOL    HW132711   5.400   2.265   5.259
10604SOL    HW232712   5.371   2.302   5.103
10605SOL     OW32713   4.388   1.992   1.102
10605SOL    HW132714   4.438   1.912   1.135
10605SOL    HW232715   4.444   2.073   1.114
10606SOL     OW32716   5.561   1.395   0.742
10606SOL    HW132717   5.496   1.427   0.811
10606SOL    HW232718   5.548   1.447   0.657
10607SOL     OW32719   2.397   4.913   0.963
10607SOL    HW132720   2.468   4.860   1.009
10607SOL    HW232721   2.311   4.905   1.013
10608SOL     OW32722   5.270   4.534   2.748
10608SOL    HW132723   5.313   4.503   2.833
10608SOL    HW232724   5.238   4.454   2.697
10609SOL     OW32725   5.490   6.631   6.431
10609SOL    HW132726   5.556   6.690   6.385
10609SOL    HW232727   5.449   6.569   6.363
10610SOL     OW32728   0.386   1.895   3.311
10610SOL    HW132729   0.458   1.834   3.345
10610SOL    HW232730   0.304   1.883   3.367
10611SOL     OW32731   4.129   5.270   6.022
10611SOL    HW132732   4.042   5.225   6.000
10611SOL    HW232733   4.168   5.230   6.104
10612SOL     OW32734   5.321   2.534   3.261
10612SOL    HW132735   5.277   2.468   3.199
10612SOL    HW232736   5.339   2.619   3.212
10613SOL     OW32737   5.545   4.955   5.458
10613SOL    HW132738   5.613   4.883   5.473
10613SOL    HW232739   5.538   5.011   5.541
10614SOL     OW32740   4.220   2.110   6.729
10614SOL    HW132741   4.250   2.014   6.726
10614SOL    HW232742   4.289   2.168   6.686
10615SOL     OW32743   2.983   2.076   5.752
10615SOL    HW132744   2.922   2.153   5.733
10615SOL    HW232745   3.073   2.094   5.713
10616SOL     OW32746   1.195   5.595   0.253
10616SOL    HW132747   1.200   5.571   0.156
10616SOL    HW232748   1.100   5.608   0.280
10617SOL     OW32749   2.454   3.166   0.107
10617SOL    HW132750   2.415   3.258   0.114
10617SOL    HW232751   2.443   3.119   0.195
10618SOL     OW32752   0.005   4.745   4.301
10618SOL    HW132753   6.971   4.732   4.378
10618SOL    HW232754   6.991   4.807   4.235
10619SOL     OW32755   1.125   2.508   0.906
10619SOL    HW132756   1.058   2.574   0.873
10619SOL    HW232757   1.208   2.556   0.936
10620SOL     OW32758   3.820   0.996   5.581
10620SOL    HW132759   3.807   1.047   5.496
10620SOL    HW232760   3.787   1.052   5.658
10621SOL     OW32761   0.701   5.031   4.877
10621SOL    HW132762   0.606   5.055   4.896
10621SOL    HW232763   0.705   4.970   4.798
10622SOL     OW32764   3.777   1.970   6.290
10622SOL    HW132765   3.875   1.989   6.284
10622SOL    HW232766   3.726   2.034   6.233
10623SOL     OW32767   5.338   4.570   5.390
10623SOL    HW132768   5.255   4.518   5.412
10623SOL    HW232769   5.404   4.511   5.346
10624SOL     OW32770   0.212   1.487   5.807
10624SOL    HW132771   0.284   1.460   5.871
10624SOL    HW232772   0.240   1.466   5.713
10625SOL     OW32773   5.645   5.597   6.885
10625SOL    HW132774   5.586   5.523   6.852
10625SOL    HW232775   5.741   5.571   6.872
10626SOL     OW32776   5.429   3.869   2.038
10626SOL    HW132777   5.427   3.819   2.124
10626SOL    HW232778   5.456   3.807   1.964
10627SOL     OW32779   5.294   4.845   5.411
10627SOL    HW132780   5.382   4.885   5.433
10627SOL    HW232781   5.299   4.745   5.420
10628SOL     OW32782   2.872   5.747   1.728
10628SOL    HW132783   2.790   5.782   1.775
10628SOL    HW232784   2.889   5.802   1.646
10629SOL     OW32785   4.539   6.023   4.371
10629SOL    HW132786   4.537   6.083   4.451
10629SOL    HW232787   4.631   5.982   4.363
10630SOL     OW32788   4.105   0.788   1.420
10630SOL    HW132789   4.131   0.732   1.341
10630SOL    HW232790   4.055   0.868   1.389
10631SOL     OW32791   3.924   6.590   2.096
10631SOL    HW132792   3.917   6.532   2.015
10631SOL    HW232793   3.833   6.605   2.134
10632SOL     OW32794   5.650   0.253   4.659
10632SOL    HW132795   5.694   0.315   4.724
10632SOL    HW232796   5.720   0.209   4.602
10633SOL     OW32797   3.061   3.205   0.068
10633SOL    HW132798   2.990   3.275   0.067
10633SOL    HW232799   3.151   3.248   0.068
10634SOL     OW32800   0.716   4.122   0.125
10634SOL    HW132801   0.651   4.193   0.153
10634SOL    HW232802   0.721   4.051   0.196
10635SOL     OW32803   2.991   4.213   6.904
10635SOL    HW132804   2.968   4.129   6.855
10635SOL    HW232805   2.915   4.240   6.963
10636SOL     OW32806   6.930   2.724   0.781
10636SOL    HW132807   6.908   2.765   0.692
10636SOL    HW232808   6.848   2.684   0.820
10637SOL     OW32809   1.584   0.302   5.567
10637SOL    HW132810   1.586   0.239   5.644
10637SOL    HW232811   1.670   0.352   5.561
10638SOL     OW32812   6.033   4.876   6.668
10638SOL    HW132813   6.119   4.853   6.714
10638SOL    HW232814   5.987   4.950   6.717
10639SOL     OW32815   6.714   5.772   6.884
10639SOL    HW132816   6.679   5.699   6.943
10639SOL    HW232817   6.670   5.858   6.908
10640SOL     OW32818   4.104   5.832   4.506
10640SOL    HW132819   4.045   5.776   4.448
10640SOL    HW232820   4.143   5.776   4.579
10641SOL     OW32821   0.885   1.451   3.971
10641SOL    HW132822   0.876   1.497   4.059
10641SOL    HW232823   0.961   1.385   3.975
10642SOL     OW32824   0.386   1.811   6.509
10642SOL    HW132825   0.452   1.885   6.509
10642SOL    HW232826   0.425   1.732   6.556
10643SOL     OW32827   3.016   5.159   4.948
10643SOL    HW132828   2.991   5.216   4.870
10643SOL    HW232829   2.998   5.063   4.926
10644SOL     OW32830   1.314   3.266   3.382
10644SOL    HW132831   1.219   3.237   3.370
10644SOL    HW232832   1.319   3.366   3.374
10645SOL     OW32833   1.951   3.456   3.649
10645SOL    HW132834   1.880   3.501   3.595
10645SOL    HW232835   2.036   3.454   3.596
10646SOL     OW32836   5.134   1.520   3.467
10646SOL    HW132837   5.148   1.619   3.468
10646SOL    HW232838   5.219   1.475   3.439
10647SOL     OW32839   4.249   5.530   4.948
10647SOL    HW132840   4.212   5.444   4.980
10647SOL    HW232841   4.339   5.545   4.991
10648SOL     OW32842   4.657   3.524   5.768
10648SOL    HW132843   4.568   3.518   5.813
10648SOL    HW232844   4.708   3.601   5.806
10649SOL     OW32845   6.011   3.149   3.528
10649SOL    HW132846   6.075   3.154   3.605
10649SOL    HW232847   6.055   3.104   3.451
10650SOL     OW32848   0.922   0.349   3.197
10650SOL    HW132849   0.966   0.301   3.120
10650SOL    HW232850   0.849   0.293   3.234
10651SOL     OW32851   2.030   5.915   5.569
10651SOL    HW132852   2.001   5.896   5.475
10651SOL    HW232853   2.101   5.849   5.595
10652SOL     OW32854   2.999   0.632   0.094
10652SOL    HW132855   3.089   0.664   0.124
10652SOL    HW232856   2.928   0.681   0.144
10653SOL     OW32857   5.773   6.258   4.470
10653SOL    HW132858   5.848   6.317   4.437
10653SOL    HW232859   5.807   6.165   4.482
10654SOL     OW32860   6.640   1.542   4.255
10654SOL    HW132861   6.583   1.613   4.297
10654SOL    HW232862   6.595   1.453   4.267
10655SOL     OW32863   6.364   5.463   0.466
10655SOL    HW132864   6.426   5.386   0.482
10655SOL    HW232865   6.273   5.440   0.499
10656SOL     OW32866   6.257   0.595   6.017
10656SOL    HW132867   6.242   0.693   6.021
10656SOL    HW232868   6.355   0.576   6.008
10657SOL     OW32869   4.355   6.686   5.636
10657SOL    HW132870   4.421   6.649   5.571
10657SOL    HW232871   4.312   6.767   5.596
10658SOL     OW32872   1.468   1.358   5.295
10658SOL    HW132873   1.437   1.453   5.294
10658SOL    HW232874   1.391   1.297   5.278
10659SOL     OW32875   0.587   5.721   6.437
10659SOL    HW132876   0.559   5.635   6.395
10659SOL    HW232877   0.637   5.776   6.370
10660SOL     OW32878   6.275   2.461   6.319
10660SOL    HW132879   6.181   2.430   6.337
10660SOL    HW232880   6.338   2.413   6.380
10661SOL     OW32881   3.360   5.747   5.648
10661SOL    HW132882   3.413   5.672   5.608
10661SOL    HW232883   3.337   5.813   5.576
10662SOL     OW32884   3.057   2.017   0.955
10662SOL    HW132885   3.031   2.091   1.016
10662SOL    HW232886   3.129   1.962   0.998
10663SOL     OW32887   6.614   3.157   3.975
10663SOL    HW132888   6.669   3.228   3.932
10663SOL    HW232889   6.592   3.086   3.907
10664SOL     OW32890   1.080   6.237   4.823
10664SOL    HW132891   1.088   6.141   4.850
10664SOL    HW232892   1.125   6.295   4.891
10665SOL     OW32893   3.674   3.352   0.493
10665SOL    HW132894   3.685   3.254   0.504
10665SOL    HW232895   3.576   3.374   0.486
10666SOL     OW32896   4.758   3.591   1.453
10666SOL    HW132897   4.807   3.661   1.402
10666SOL    HW232898   4.794   3.501   1.430
10667SOL     OW32899   5.760   2.606   4.301
10667SOL    HW132900   5.845   2.654   4.319
10667SOL    HW232901   5.727   2.629   4.209
10668SOL     OW32902   3.291   3.621   6.189
10668SOL    HW132903   3.224   3.563   6.236
10668SOL    HW232904   3.369   3.565   6.162
10669SOL     OW32905   6.381   3.303   1.897
10669SOL    HW132906   6.357   3.299   1.799
10669SOL    HW232907   6.395   3.399   1.923
10670SOL     OW32908   4.523   4.445   4.229
10670SOL    HW132909   4.464   4.516   4.266
10670SOL    HW232910   4.499   4.428   4.134
10671SOL     OW32911   2.067   3.071   4.829
10671SOL    HW132912   2.019   3.137   4.771
10671SOL    HW232913   2.139   3.117   4.880
10672SOL     OW32914   6.112   4.743   1.253
10672SOL    HW132915   6.132   4.766   1.348
10672SOL    HW232916   6.139   4.818   1.193
10673SOL     OW32917   3.203   1.613   1.706
10673SOL    HW132918   3.116   1.570   1.681
10673SOL    HW232919   3.274   1.587   1.640
10674SOL     OW32920   3.944   3.273   4.874
10674SOL    HW132921   3.903   3.193   4.917
10674SOL    HW232922   4.044   3.264   4.873
10675SOL     OW32923   3.339   6.454   5.818
10675SOL    HW132924   3.244   6.467   5.792
10675SOL    HW232925   3.392   6.425   5.738
10676SOL     OW32926   1.441   1.547   4.558
10676SOL    HW132927   1.354   1.499   4.560
10676SOL    HW232928   1.454   1.596   4.644
10677SOL     OW32929   0.077   1.629   6.938
10677SOL    HW132930   0.102   1.538   6.972
10677SOL    HW232931   0.151   1.665   6.881
10678SOL     OW32932   3.516   4.941   2.260
10678SOL    HW132933   3.420   4.935   2.289
10678SOL    HW232934   3.524   5.006   2.185
10679SOL     OW32935   5.271   3.957   0.389
10679SOL    HW132936   5.353   3.990   0.342
10679SOL    HW232937   5.190   3.996   0.346
10680SOL     OW32938   4.664   1.330   5.066
10680SOL    HW132939   4.575   1.312   5.024
10680SOL    HW232940   4.687   1.427   5.056
10681SOL     OW32941   2.630   3.405   5.300
10681SOL    HW132942   2.587   3.488   5.335
10681SOL    HW232943   2.579   3.325   5.332
10682SOL     OW32944   5.045   3.502   6.058
10682SOL    HW132945   4.987   3.542   5.987
10682SOL    HW232946   5.093   3.422   6.022
10683SOL     OW32947   1.625   0.807   3.379
10683SOL    HW132948   1.554   0.742   3.354
10683SOL    HW232949   1.664   0.848   3.296
10684SOL     OW32950   4.506   4.076   1.406
10684SOL    HW132951   4.434   4.122   1.458
10684SOL    HW232952   4.563   4.145   1.361
10685SOL     OW32953   0.730   0.186   2.837
10685SOL    HW132954   0.795   0.110   2.847
10685SOL    HW232955   0.756   0.242   2.758
10686SOL     OW32956   3.033   1.025   6.518
10686SOL    HW132957   3.106   1.046   6.453
10686SOL    HW232958   3.014   1.105   6.574
10687SOL     OW32959   0.554   2.673   3.305
10687SOL    HW132960   0.542   2.575   3.324
10687SOL    HW232961   0.517   2.693   3.214
10688SOL     OW32962   5.257   0.781   3.769
10688SOL    HW132963   5.211   0.697   3.798
10688SOL    HW232964   5.268   0.841   3.849
10689SOL     OW32965   1.444   1.498   2.801
10689SOL    HW132966   1.408   1.425   2.742
10689SOL    HW232967   1.435   1.471   2.897
10690SOL     OW32968   0.594   6.738   4.245
10690SOL    HW132969   0.633   6.827   4.223
10690SOL    HW232970   0.558   6.739   4.338
10691SOL     OW32971   3.338   6.556   1.049
10691SOL    HW132972   3.298   6.626   0.990
10691SOL    HW232973   3.428   6.587   1.081
10692SOL     OW32974   2.673   2.204   4.357
10692SOL    HW132975   2.657   2.266   4.434
10692SOL    HW232976   2.728   2.250   4.287
10693SOL     OW32977   1.258   4.339   0.405
10693SOL    HW132978   1.193   4.410   0.378
10693SOL    HW232979   1.305   4.305   0.323
10694SOL     OW32980   5.605   1.483   5.377
10694SOL    HW132981   5.575   1.574   5.408
10694SOL    HW232982   5.579   1.470   5.281
10695SOL     OW32983   4.775   4.801   0.900
10695SOL    HW132984   4.837   4.812   0.822
10695SOL    HW232985   4.733   4.710   0.896
10696SOL     OW32986   6.328   4.477   4.656
10696SOL    HW132987   6.245   4.509   4.610
10696SOL    HW232988   6.344   4.381   4.632
10697SOL     OW32989   2.529   4.985   4.436
10697SOL    HW132990   2.436   4.951   4.452
10697SOL    HW232991   2.554   5.049   4.509
10698SOL     OW32992   3.741   4.534   6.964
10698SOL    HW132993   3.653   4.575   6.941
10698SOL    HW232994   3.727   4.460   0.001
10699SOL     OW32995   3.691   3.762   1.105
10699SOL    HW132996   3.763   3.806   1.158
10699SOL    HW232997   3.715   3.762   1.009
10700SOL     OW32998   4.860   0.510   1.304
10700SOL    HW132999   4.910   0.488   1.220
10700SOL    HW233000   4.804   0.432   1.331
10701SOL     OW33001   3.158   6.213   6.184
10701SOL    HW133002   3.188   6.121   6.161
10701SOL    HW233003   3.059   6.219   6.179
10702SOL     OW33004   5.508   2.651   2.534
10702SOL    HW133005   5.557   2.678   2.451
10702SOL    HW233006   5.454   2.729   2.567
10703SOL     OW33007   0.653   1.701   5.557
10703SOL    HW133008   0.585   1.745   5.616
10703SOL    HW233009   0.644   1.738   5.464
10704SOL     OW33010   5.576   6.847   1.939
10704SOL    HW133011   5.532   6.865   2.027
10704SOL    HW233012   5.649   6.913   1.924
10705SOL     OW33013   4.827   3.314   1.348
10705SOL    HW133014   4.924   3.319   1.323
10705SOL    HW233015   4.808   3.227   1.392
10706SOL     OW33016   3.196   1.094   1.778
10706SOL    HW133017   3.270   1.030   1.795
10706SOL    HW233018   3.194   1.163   1.850
10707SOL     OW33019   4.614   6.733   3.275
10707SOL    HW133020   4.544   6.758   3.207
10707SOL    HW233021   4.639   6.814   3.327
10708SOL     OW33022   4.536   0.925   1.173
10708SOL    HW133023   4.585   0.844   1.206
10708SOL    HW233024   4.453   0.938   1.228
10709SOL     OW33025   5.853   4.725   2.640
10709SOL    HW133026   5.822   4.632   2.622
10709SOL    HW233027   5.850   4.744   2.738
10710SOL     OW33028   4.408   1.737   3.372
10710SOL    HW133029   4.484   1.693   3.418
10710SOL    HW233030   4.435   1.765   3.280
10711SOL     OW33031   2.763   6.490   3.270
10711SOL    HW133032   2.821   6.559   3.227
10711SOL    HW233033   2.813   6.444   3.343
10712SOL     OW33034   5.734   0.823   3.571
10712SOL    HW133035   5.715   0.729   3.599
10712SOL    HW233036   5.655   0.859   3.521
10713SOL     OW33037   1.238   3.630   1.473
10713SOL    HW133038   1.174   3.560   1.440
10713SOL    HW233039   1.187   3.711   1.501
10714SOL     OW33040   3.163   4.246   5.399
10714SOL    HW133041   3.124   4.179   5.335
10714SOL    HW233042   3.126   4.337   5.378
10715SOL     OW33043   5.834   0.645   1.873
10715SOL    HW133044   5.871   0.569   1.819
10715SOL    HW233045   5.821   0.725   1.815
10716SOL     OW33046   4.867   1.169   3.583
10716SOL    HW133047   4.923   1.094   3.616
10716SOL    HW233048   4.826   1.143   3.495
10717SOL     OW33049   3.360   2.370   0.698
10717SOL    HW133050   3.390   2.454   0.653
10717SOL    HW233051   3.433   2.302   0.694
10718SOL     OW33052   1.786   5.223   6.351
10718SOL    HW133053   1.790   5.123   6.361
10718SOL    HW233054   1.690   5.251   6.342
10719SOL     OW33055   0.372   5.297   5.161
10719SOL    HW133056   0.326   5.295   5.250
10719SOL    HW233057   0.426   5.380   5.153
10720SOL     OW33058   0.113   5.136   3.083
10720SOL    HW133059   0.018   5.109   3.070
10720SOL    HW233060   0.156   5.152   2.994
10721SOL     OW33061   4.940   2.332   5.737
10721SOL    HW133062   4.894   2.244   5.746
10721SOL    HW233063   5.038   2.317   5.722
10722SOL     OW33064   0.352   3.770   4.849
10722SOL    HW133065   0.338   3.682   4.895
10722SOL    HW233066   0.346   3.844   4.916
10723SOL     OW33067   5.675   6.565   0.421
10723SOL    HW133068   5.654   6.594   0.514
10723SOL    HW233069   5.631   6.477   0.403
10724SOL     OW33070   0.640   6.025   6.139
10724SOL    HW133071   0.625   5.998   6.044
10724SOL    HW233072   0.714   5.969   6.178
10725SOL     OW33073   2.074   6.608   5.907
10725SOL    HW133074   2.115   6.686   5.860
10725SOL    HW233075   2.143   6.536   5.919
10726SOL     OW33076   4.026   0.669   4.246
10726SOL    HW133077   4.081   0.715   4.315
10726SOL    HW233078   4.085   0.633   4.173
10727SOL     OW33079   2.100   6.675   6.585
10727SOL    HW133080   2.098   6.774   6.598
10727SOL    HW233081   2.027   6.633   6.638
10728SOL     OW33082   5.044   5.874   1.320
10728SOL    HW133083   5.056   5.884   1.419
10728SOL    HW233084   5.055   5.778   1.294
10729SOL     OW33085   6.484   2.284   0.813
10729SOL    HW133086   6.480   2.379   0.783
10729SOL    HW233087   6.573   2.266   0.855
10730SOL     OW33088   4.619   0.630   3.160
10730SOL    HW133089   4.708   0.599   3.127
10730SOL    HW233090   4.592   0.712   3.108
10731SOL     OW33091   3.730   0.154   0.865
10731SOL    HW133092   3.636   0.134   0.891
10731SOL    HW233093   3.781   0.183   0.946
10732SOL     OW33094   1.157   3.644   6.249
10732SOL    HW133095   1.233   3.642   6.185
10732SOL    HW233096   1.099   3.723   6.230
10733SOL     OW33097   5.540   1.156   0.334
10733SOL    HW133098   5.576   1.130   0.245
10733SOL    HW233099   5.615   1.188   0.392
10734SOL     OW33100   6.415   3.004   1.918
10734SOL    HW133101   6.495   3.060   1.898
10734SOL    HW233102   6.366   3.042   1.997
10735SOL     OW33103   0.470   5.709   3.112
10735SOL    HW133104   0.462   5.781   3.181
10735SOL    HW233105   0.491   5.622   3.156
10736SOL     OW33106   2.126   1.663   4.657
10736SOL    HW133107   2.212   1.678   4.608
10736SOL    HW233108   2.055   1.722   4.619
10737SOL     OW33109   6.570   1.857   0.182
10737SOL    HW133110   6.631   1.880   0.107
10737SOL    HW233111   6.526   1.941   0.217
10738SOL     OW33112   3.905   0.529   3.588
10738SOL    HW133113   3.887   0.485   3.676
10738SOL    HW233114   4.003   0.540   3.575
10739SOL     OW33115   2.397   1.840   2.024
10739SOL    HW133116   2.383   1.839   1.925
10739SOL    HW233117   2.309   1.836   2.071
10740SOL     OW33118   4.976   6.264   3.399
10740SOL    HW133119   4.961   6.300   3.491
10740SOL    HW233120   4.954   6.167   3.397
10741SOL     OW33121   2.551   0.489   3.138
10741SOL    HW133122   2.452   0.505   3.147
10741SOL    HW233123   2.593   0.486   3.229
10742SOL     OW33124   6.522   5.678   0.612
10742SOL    HW133125   6.502   5.771   0.582
10742SOL    HW233126   6.438   5.635   0.646
10743SOL     OW33127   2.497   2.030   5.240
10743SOL    HW133128   2.452   1.983   5.164
10743SOL    HW233129   2.585   1.986   5.259
10744SOL     OW33130   5.799   1.540   0.152
10744SOL    HW133131   5.825   1.470   0.086
10744SOL    HW233132   5.707   1.522   0.186
10745SOL     OW33133   0.377   5.797   6.159
10745SOL    HW133134   0.377   5.897   6.153
10745SOL    HW233135   0.318   5.768   6.234
10746SOL     OW33136   1.948   4.398   6.057
10746SOL    HW133137   1.893   4.454   5.996
10746SOL    HW233138   1.956   4.306   6.020
10747SOL     OW33139   3.350   2.129   4.642
10747SOL    HW133140   3.352   2.227   4.623
10747SOL    HW233141   3.343   2.114   4.741
10748SOL     OW33142   5.471   1.373   2.410
10748SOL    HW133143   5.499   1.352   2.504
10748SOL    HW233144   5.540   1.432   2.368
10749SOL     OW33145   3.072   6.671   0.232
10749SOL    HW133146   3.110   6.713   0.315
10749SOL    HW233147   3.141   6.613   0.189
10750SOL     OW33148   3.989   6.532   5.803
10750SOL    HW133149   4.050   6.569   5.873
10750SOL    HW233150   3.937   6.455   5.840
10751SOL     OW33151   2.397   5.361   3.756
10751SOL    HW133152   2.416   5.384   3.851
10751SOL    HW233153   2.483   5.343   3.708
10752SOL     OW33154   5.097   4.975   4.144
10752SOL    HW133155   5.182   4.952   4.096
10752SOL    HW233156   5.080   4.906   4.215
10753SOL     OW33157   6.278   4.204   4.597
10753SOL    HW133158   6.263   4.224   4.693
10753SOL    HW233159   6.208   4.142   4.563
10754SOL     OW33160   1.359   0.079   2.529
10754SOL    HW133161   1.399   0.139   2.599
10754SOL    HW233162   1.380   0.116   2.438
10755SOL     OW33163   6.189   5.667   1.350
10755SOL    HW133164   6.228   5.576   1.366
10755SOL    HW233165   6.168   5.711   1.438
10756SOL     OW33166   0.520   0.205   4.930
10756SOL    HW133167   0.506   0.261   5.011
10756SOL    HW233168   0.512   0.109   4.954
10757SOL     OW33169   3.041   3.017   1.216
10757SOL    HW133170   3.012   2.956   1.289
10757SOL    HW233171   3.087   2.963   1.144
10758SOL     OW33172   0.228   5.010   4.128
10758SOL    HW133173   0.139   5.038   4.092
10758SOL    HW233174   0.217   4.930   4.187
10759SOL     OW33175   6.689   1.170   6.869
10759SOL    HW133176   6.770   1.191   6.923
10759SOL    HW233177   6.707   1.190   6.772
10760SOL     OW33178   5.912   1.625   4.692
10760SOL    HW133179   5.875   1.716   4.673
10760SOL    HW233180   6.012   1.629   4.691
10761SOL     OW33181   2.708   4.961   5.630
10761SOL    HW133182   2.617   4.919   5.619
10761SOL    HW233183   2.743   4.939   5.721
10762SOL     OW33184   3.183   1.876   5.858
10762SOL    HW133185   3.168   1.785   5.896
10762SOL    HW233186   3.173   1.873   5.759
10763SOL     OW33187   4.788   6.304   4.068
10763SOL    HW133188   4.689   6.300   4.071
10763SOL    HW233189   4.816   6.376   4.004
10764SOL     OW33190   4.388   6.831   4.746
10764SOL    HW133191   4.456   6.795   4.810
10764SOL    HW233192   4.352   6.755   4.692
10765SOL     OW33193   6.822   3.555   6.936
10765SOL    HW133194   6.866   3.604   7.012
10765SOL    HW233195   6.746   3.610   6.901
10766SOL     OW33196   3.339   3.257   1.653
10766SOL    HW133197   3.372   3.272   1.560
10766SOL    HW233198   3.404   3.200   1.702
10767SOL     OW33199   4.374   1.833   2.456
10767SOL    HW133200   4.353   1.757   2.394
10767SOL    HW233201   4.412   1.909   2.403
10768SOL     OW33202   6.029   4.562   6.277
10768SOL    HW133203   6.080   4.605   6.203
10768SOL    HW233204   5.934   4.548   6.248
10769SOL     OW33205   2.013   3.670   5.379
10769SOL    HW133206   2.098   3.684   5.328
10769SOL    HW233207   1.938   3.715   5.330
10770SOL     OW33208   4.515   5.996   3.868
10770SOL    HW133209   4.451   6.049   3.813
10770SOL    HW233210   4.466   5.954   3.945
10771SOL     OW33211   2.240   1.607   4.275
10771SOL    HW133212   2.255   1.586   4.371
10771SOL    HW233213   2.328   1.606   4.226
10772SOL     OW33214   5.369   5.616   3.649
10772SOL    HW133215   5.288   5.567   3.681
10772SOL    HW233216   5.343   5.706   3.615
10773SOL     OW33217   5.855   4.715   2.957
10773SOL    HW133218   5.896   4.639   3.006
10773SOL    HW233219   5.876   4.801   3.003
10774SOL     OW33220   0.273   6.669   3.199
10774SOL    HW133221   0.269   6.752   3.254
10774SOL    HW233222   0.190   6.615   3.216
10775SOL     OW33223   0.144   3.289   1.101
10775SOL    HW133224   0.223   3.255   1.051
10775SOL    HW233225   0.171   3.313   1.194
10776SOL     OW33226   1.190   0.748   5.666
10776SOL    HW133227   1.210   0.803   5.586
10776SOL    HW233228   1.245   0.664   5.664
10777SOL     OW33229   2.496   5.662   1.312
10777SOL    HW133230   2.511   5.729   1.385
10777SOL    HW233231   2.521   5.571   1.344
10778SOL     OW33232   5.914   5.563   2.216
10778SOL    HW133233   5.853   5.555   2.137
10778SOL    HW233234   5.882   5.639   2.274
10779SOL     OW33235   4.812   3.057   3.461
10779SOL    HW133236   4.856   3.134   3.414
10779SOL    HW233237   4.785   2.989   3.393
10780SOL     OW33238   6.885   0.401   2.169
10780SOL    HW133239   6.937   0.441   2.092
10780SOL    HW233240   6.789   0.393   2.143
10781SOL     OW33241   3.297   0.184   4.254
10781SOL    HW133242   3.263   0.277   4.239
10781SOL    HW233243   3.227   0.129   4.297
10782SOL     OW33244   6.171   5.078   3.551
10782SOL    HW133245   6.143   5.136   3.628
10782SOL    HW233246   6.230   5.004   3.585
10783SOL     OW33247   6.859   2.438   3.151
10783SOL    HW133248   6.787   2.482   3.099
10783SOL    HW233249   6.851   2.338   3.143
10784SOL     OW33250   2.587   1.961   4.701
10784SOL    HW133251   2.628   2.052   4.704
10784SOL    HW233252   2.543   1.942   4.789
10785SOL     OW33253   1.152   3.279   6.168
10785SOL    HW133254   1.250   3.299   6.173
10785SOL    HW233255   1.105   3.322   6.244
10786SOL     OW33256   6.710   3.831   4.177
10786SOL    HW133257   6.778   3.883   4.229
10786SOL    HW233258   6.746   3.741   4.155
10787SOL     OW33259   2.325   2.364   6.606
10787SOL    HW133260   2.384   2.390   6.529
10787SOL    HW233261   2.233   2.344   6.572
10788SOL     OW33262   6.003   3.384   6.219
10788SOL    HW133263   5.954   3.396   6.133
10788SOL    HW233264   5.989   3.291   6.252
10789SOL     OW33265   5.218   1.365   0.299
10789SOL    HW133266   5.216   1.436   0.369
10789SOL    HW233267   5.229   1.275   0.342
10790SOL     OW33268   5.724   6.137   2.965
10790SOL    HW133269   5.805   6.171   2.918
10790SOL    HW233270   5.665   6.089   2.900
10791SOL     OW33271   1.134   6.558   2.682
10791SOL    HW133272   1.143   6.553   2.583
10791SOL    HW233273   1.057   6.502   2.712
10792SOL     OW33274   3.736   4.587   6.260
10792SOL    HW133275   3.756   4.642   6.342
10792SOL    HW233276   3.821   4.557   6.218
10793SOL     OW33277   6.107   3.770   4.152
10793SOL    HW133278   6.097   3.846   4.087
10793SOL    HW233279   6.020   3.723   4.162
10794SOL     OW33280   3.296   3.824   4.250
10794SOL    HW133281   3.304   3.907   4.305
10794SOL    HW233282   3.288   3.848   4.153
10795SOL     OW33283   0.171   5.196   2.815
10795SOL    HW133284   0.074   5.216   2.802
10795SOL    HW233285   0.214   5.183   2.727
10796SOL     OW33286   1.153   6.249   5.518
10796SOL    HW133287   1.146   6.329   5.458
10796SOL    HW233288   1.092   6.177   5.486
10797SOL     OW33289   3.809   2.934   0.060
10797SOL    HW133290   3.776   3.005   0.122
10797SOL    HW233291   3.850   2.976   7.007
10798SOL     OW33292   5.875   1.499   1.112
10798SOL    HW133293   5.962   1.492   1.160
10798SOL    HW233294   5.801   1.476   1.175
10799SOL     OW33295   4.866   1.861   0.958
10799SOL    HW133296   4.922   1.905   0.888
10799SOL    HW233297   4.851   1.765   0.934
10800SOL     OW33298   6.670   6.869   1.228
10800SOL    HW133299   6.574   6.846   1.242
10800SOL    HW233300   6.705   6.917   1.309
10801SOL     OW33301   2.137   0.534   1.174
10801SOL    HW133302   2.219   0.480   1.191
10801SOL    HW233303   2.081   0.489   1.104
10802SOL     OW33304   5.692   1.543   3.745
10802SOL    HW133305   5.675   1.631   3.699
10802SOL    HW233306   5.783   1.544   3.786
10803SOL     OW33307   2.356   5.071   5.945
10803SOL    HW133308   2.284   5.040   5.882
10803SOL    HW233309   2.435   5.010   5.938
10804SOL     OW33310   0.020   3.719   4.269
10804SOL    HW133311   0.117   3.696   4.262
10804SOL    HW233312   7.000   3.685   4.189
10805SOL     OW33313   6.609   0.257   6.414
10805SOL    HW133314   6.706   0.278   6.403
10805SOL    HW233315   6.598   0.175   6.471
10806SOL     OW33316   1.629   5.826   0.187
10806SOL    HW133317   1.590   5.864   0.103
10806SOL    HW233318   1.572   5.850   0.265
10807SOL     OW33319   3.700   5.626   4.320
10807SOL    HW133320   3.775   5.560   4.315
10807SOL    HW233321   3.733   5.712   4.360
10808SOL     OW33322   1.220   3.041   6.330
10808SOL    HW133323   1.158   3.105   6.286
10808SOL    HW233324   1.313   3.079   6.332
10809SOL     OW33325   1.458   0.108   4.360
10809SOL    HW133326   1.374   0.156   4.331
10809SOL    HW233327   1.464   0.107   4.459
10810SOL     OW33328   6.210   0.894   4.550
10810SOL    HW133329   6.280   0.891   4.621
10810SOL    HW233330   6.132   0.837   4.578
10811SOL     OW33331   5.665   5.670   5.039
10811SOL    HW133332   5.579   5.622   5.023
10811SOL    HW233333   5.704   5.699   4.952
10812SOL     OW33334   0.620   2.794   0.857
10812SOL    HW133335   0.600   2.725   0.927
10812SOL    HW233336   0.627   2.749   0.768
10813SOL     OW33337   1.256   3.760   6.738
10813SOL    HW133338   1.159   3.785   6.740
10813SOL    HW233339   1.266   3.665   6.767
10814SOL     OW33340   3.016   1.846   1.366
10814SOL    HW133341   3.017   1.753   1.329
10814SOL    HW233342   3.090   1.857   1.433
10815SOL     OW33343   5.032   1.129   4.766
10815SOL    HW133344   5.096   1.177   4.706
10815SOL    HW233345   4.947   1.181   4.772
10816SOL     OW33346   3.416   3.200   4.821
10816SOL    HW133347   3.420   3.110   4.777
10816SOL    HW233348   3.410   3.188   4.920
10817SOL     OW33349   1.324   5.745   4.533
10817SOL    HW133350   1.251   5.693   4.488
10817SOL    HW233351   1.300   5.842   4.532
10818SOL     OW33352   4.116   4.054   0.165
10818SOL    HW133353   4.069   3.969   0.146
10818SOL    HW233354   4.049   4.126   0.183
10819SOL     OW33355   6.028   6.111   5.588
10819SOL    HW133356   6.116   6.136   5.548
10819SOL    HW233357   6.030   6.015   5.616
10820SOL     OW33358   2.378   4.576   6.325
10820SOL    HW133359   2.469   4.537   6.322
10820SOL    HW233360   2.321   4.535   6.253
10821SOL     OW33361   4.424   5.548   3.915
10821SOL    HW133362   4.364   5.471   3.935
10821SOL    HW233363   4.368   5.627   3.888
10822SOL     OW33364   5.679   0.898   2.228
10822SOL    HW133365   5.644   0.990   2.213
10822SOL    HW233366   5.602   0.834   2.237
10823SOL     OW33367   5.545   6.557   2.302
10823SOL    HW133368   5.555   6.495   2.224
10823SOL    HW233369   5.449   6.566   2.326
10824SOL     OW33370   1.014   3.309   2.902
10824SOL    HW133371   1.046   3.217   2.878
10824SOL    HW233372   0.931   3.302   2.957
10825SOL     OW33373   6.996   2.203   0.780
10825SOL    HW133374   0.030   2.281   0.785
10825SOL    HW233375   0.017   2.119   0.806
10826SOL     OW33376   6.292   3.356   2.616
10826SOL    HW133377   6.375   3.363   2.561
10826SOL    HW233378   6.293   3.271   2.668
10827SOL     OW33379   0.149   3.406   4.365
10827SOL    HW133380   0.089   3.328   4.384
10827SOL    HW233381   0.095   3.482   4.329
10828SOL     OW33382   0.068   4.310   5.236
10828SOL    HW133383   7.028   4.238   5.226
10828SOL    HW233384   0.141   4.295   5.169
10829SOL     OW33385   3.831   3.116   5.611
10829SOL    HW133386   3.878   3.028   5.603
10829SOL    HW233387   3.735   3.104   5.587
10830SOL     OW33388   5.475   2.195   3.133
10830SOL    HW133389   5.530   2.254   3.074
10830SOL    HW233390   5.513   2.196   3.226
10831SOL     OW33391   3.913   6.934   3.587
10831SOL    HW133392   3.891   6.869   3.660
10831SOL    HW233393   3.834   6.993   3.571
10832SOL     OW33394   6.612   2.500   6.804
10832SOL    HW133395   6.662   2.414   6.815
10832SOL    HW233396   6.597   2.518   6.707
10833SOL     OW33397   0.420   1.205   6.781
10833SOL    HW133398   0.498   1.174   6.727
10833SOL    HW233399   0.439   1.296   6.817
10834SOL     OW33400   6.224   6.088   1.557
10834SOL    HW133401   6.241   6.089   1.458
10834SOL    HW233402   6.137   6.134   1.575
10835SOL     OW33403   6.786   2.514   5.545
10835SOL    HW133404   6.752   2.444   5.483
10835SOL    HW233405   6.784   2.479   5.639
10836SOL     OW33406   0.362   1.758   3.557
10836SOL    HW133407   0.359   1.822   3.634
10836SOL    HW233408   0.457   1.747   3.527
10837SOL     OW33409   0.077   3.429   3.998
10837SOL    HW133410   0.044   3.340   4.028
10837SOL    HW233411   0.091   3.427   3.899
10838SOL     OW33412   0.831   6.128   2.484
10838SOL    HW133413   0.750   6.174   2.447
10838SOL    HW233414   0.813   6.100   2.578
10839SOL     OW33415   4.713   2.759   0.263
10839SOL    HW133416   4.742   2.798   0.350
10839SOL    HW233417   4.671   2.830   0.207
10840SOL     OW33418   2.451   0.366   2.269
10840SOL    HW133419   2.505   0.436   2.316
10840SOL    HW233420   2.414   0.301   2.337
10841SOL     OW33421   2.373   5.001   5.118
10841SOL    HW133422   2.439   4.982   5.046
10841SOL    HW233423   2.414   4.981   5.207
10842SOL     OW33424   6.521   4.558   1.409
10842SOL    HW133425   6.541   4.598   1.498
10842SOL    HW233426   6.530   4.458   1.413
10843SOL     OW33427   2.571   1.347   1.420
10843SOL    HW133428   2.500   1.410   1.388
10843SOL    HW233429   2.649   1.350   1.357
10844SOL     OW33430   2.160   6.008   4.843
10844SOL    HW133431   2.245   5.990   4.793
10844SOL    HW233432   2.081   5.988   4.785
10845SOL     OW33433   4.665   0.534   4.640
10845SOL    HW133434   4.585   0.482   4.671
10845SOL    HW233435   4.748   0.483   4.662
10846SOL     OW33436   5.783   0.048   5.941
10846SOL    HW133437   5.811   0.098   6.023
10846SOL    HW233438   5.821   0.094   5.860
10847SOL     OW33439   2.915   0.041   0.172
10847SOL    HW133440   2.898   0.118   0.111
10847SOL    HW233441   2.828   7.027   0.198
10848SOL     OW33442   1.870   3.452   1.865
10848SOL    HW133443   1.821   3.478   1.948
10848SOL    HW233444   1.804   3.424   1.795
10849SOL     OW33445   2.010   6.661   3.710
10849SOL    HW133446   2.040   6.594   3.641
10849SOL    HW233447   1.915   6.641   3.736
10850SOL     OW33448   4.612   4.588   0.828
10850SOL    HW133449   4.547   4.566   0.900
10850SOL    HW233450   4.573   4.660   0.770
10851SOL     OW33451   1.475   4.778   0.908
10851SOL    HW133452   1.476   4.688   0.951
10851SOL    HW233453   1.544   4.836   0.952
10852SOL     OW33454   2.651   1.499   2.248
10852SOL    HW133455   2.588   1.447   2.305
10852SOL    HW233456   2.608   1.520   2.160
10853SOL     OW33457   3.559   0.850   6.367
10853SOL    HW133458   3.530   0.946   6.368
10853SOL    HW233459   3.659   0.845   6.374
10854SOL     OW33460   2.982   6.115   5.689
10854SOL    HW133461   2.966   6.090   5.784
10854SOL    HW233462   3.040   6.196   5.684
10855SOL     OW33463   4.010   0.981   0.101
10855SOL    HW133464   3.914   1.004   0.118
10855SOL    HW233465   4.066   1.063   0.115
10856SOL     OW33466   0.610   1.248   0.582
10856SOL    HW133467   0.543   1.315   0.550
10856SOL    HW233468   0.701   1.290   0.585
10857SOL     OW33469   6.684   2.634   1.401
10857SOL    HW133470   6.628   2.683   1.335
10857SOL    HW233471   6.752   2.696   1.440
10858SOL     OW33472   2.390   6.329   2.228
10858SOL    HW133473   2.366   6.341   2.324
10858SOL    HW233474   2.430   6.238   2.215
10859SOL     OW33475   1.447   4.858   3.709
10859SOL    HW133476   1.387   4.784   3.680
10859SOL    HW233477   1.480   4.840   3.802
10860SOL     OW33478   0.309   3.645   3.370
10860SOL    HW133479   0.358   3.602   3.446
10860SOL    HW233480   0.254   3.721   3.405
10861SOL     OW33481   4.251   2.887   5.535
10861SOL    HW133482   4.270   2.985   5.542
10861SOL    HW233483   4.181   2.872   5.465
10862SOL     OW33484   0.996   0.912   5.054
10862SOL    HW133485   1.091   0.890   5.076
10862SOL    HW233486   0.965   0.986   5.114
10863SOL     OW33487   2.184   6.371   3.991
10863SOL    HW133488   2.159   6.351   4.086
10863SOL    HW233489   2.102   6.374   3.934
10864SOL     OW33490   3.513   6.984   3.194
10864SOL    HW133491   3.597   6.991   3.249
10864SOL    HW233492   3.452   6.917   3.236
10865SOL     OW33493   6.540   0.997   6.213
10865SOL    HW133494   6.555   0.904   6.247
10865SOL    HW233495   6.442   1.015   6.210
10866SOL     OW33496   5.705   5.050   6.782
10866SOL    HW133497   5.668   5.138   6.810
10866SOL    HW233498   5.659   5.019   6.699
10867SOL     OW33499   2.819   1.527   6.823
10867SOL    HW133500   2.732   1.489   6.853
10867SOL    HW233501   2.806   1.622   6.794
10868SOL     OW33502   1.642   2.273   3.185
10868SOL    HW133503   1.569   2.342   3.183
10868SOL    HW233504   1.643   2.230   3.275
10869NA      NA33505   6.460   2.226   5.536
10870NA      NA33506   4.191   4.682   5.187
10871NA      NA33507   2.106   3.445   1.799
10872NA      NA33508   4.866   3.667   5.254
10873NA      NA33509   4.219   2.417   5.337
10874NA      NA33510   3.750   4.809   1.770
10875NA      NA33511   6.861   6.033   4.797
10876NA      NA33512   3.654   3.583   5.131
10877NA      NA33513   4.863   6.455   6.272
10878NA      NA33514   2.630   0.498   5.124
10879NA      NA33515   0.632   5.260   2.548
10880NA      NA33516   2.091   0.599   2.445
10881NA      NA33517   3.538   4.364   1.301
10882NA      NA33518   3.929   3.402   2.960
   7.02863   7.02863   7.02863
