Generated by trjconv : CNT in water t= 571.00000
33518
    1C        C    1   2.843   2.767   4.744
    1C        C    2   2.895   2.719   4.866
    1C        C    3   2.842   2.774   4.983
    1C        C    4   2.849   2.774   4.259
    1C        C    5   2.900   2.726   4.382
    1C        C    6   2.843   2.771   4.503
    1C        C    7   3.012   2.637   4.625
    1C        C    8   2.896   2.718   4.623
    1C        C    9   3.079   2.606   4.745
    1C        C   10   3.011   2.638   4.864
    1C        C   11   3.178   2.494   4.975
    1C        C   12   3.057   2.564   4.974
    1C        C   13   2.854   2.776   3.770
    1C        C   14   2.901   2.723   3.892
    1C        C   15   2.846   2.771   4.014
    1C        C   16   3.018   2.648   4.136
    1C        C   17   2.901   2.727   4.136
    1C        C   18   3.077   2.611   4.259
    1C        C   19   3.015   2.644   4.381
    1C        C   20   3.207   2.554   4.502
    1C        C   21   3.077   2.609   4.503
    1C        C   22   3.278   2.535   4.623
    1C        C   23   3.210   2.552   4.746
    1C        C   24   3.413   2.487   4.865
    1C        C   25   3.271   2.509   4.867
    1C        C   26   3.486   2.479   4.984
    1C        C   27   2.850   2.767   3.279
    1C        C   28   2.905   2.727   3.402
    1C        C   29   2.856   2.776   3.526
    1C        C   30   3.020   2.642   3.649
    1C        C   31   2.908   2.729   3.648
    1C        C   32   3.078   2.603   3.772
    1C        C   33   3.014   2.639   3.893
    1C        C   34   3.206   2.549   4.014
    1C        C   35   3.075   2.602   4.015
    1C        C   36   3.276   2.533   4.136
    1C        C   37   3.208   2.557   4.257
    1C        C   38   3.415   2.515   4.382
    1C        C   39   3.275   2.537   4.379
    1C        C   40   3.488   2.509   4.502
    1C        C   41   3.416   2.505   4.624
    1C        C   42   3.630   2.481   4.744
    1C        C   43   3.488   2.485   4.744
    1C        C   44   3.704   2.487   4.864
    1C        C   45   3.625   2.480   4.980
    1C        C   46   2.841   2.753   2.791
    1C        C   47   2.894   2.706   2.913
    1C        C   48   2.844   2.760   3.034
    1C        C   49   3.017   2.637   3.160
    1C        C   50   2.901   2.717   3.157
    1C        C   51   3.080   2.608   3.283
    1C        C   52   3.020   2.645   3.406
    1C        C   53   3.207   2.541   3.526
    1C        C   54   3.080   2.602   3.527
    1C        C   55   3.274   2.521   3.648
    1C        C   56   3.206   2.544   3.770
    1C        C   57   3.413   2.499   3.893
    1C        C   58   3.274   2.525   3.892
    1C        C   59   3.484   2.497   4.015
    1C        C   60   3.414   2.504   4.138
    1C        C   61   3.626   2.498   4.256
    1C        C   62   3.485   2.499   4.260
    1C        C   63   3.697   2.508   4.378
    1C        C   64   3.629   2.507   4.502
    1C        C   65   3.836   2.542   4.621
    1C        C   66   3.700   2.504   4.624
    1C        C   67   3.903   2.564   4.743
    1C        C   68   3.839   2.528   4.863
    1C        C   69   4.054   2.580   4.976
    1C        C   70   3.921   2.535   4.976
    1C        C   71   2.822   2.735   2.307
    1C        C   72   2.885   2.696   2.428
    1C        C   73   2.830   2.745   2.548
    1C        C   74   3.009   2.627   2.671
    1C        C   75   2.891   2.704   2.669
    1C        C   76   3.072   2.591   2.792
    1C        C   77   3.010   2.626   2.915
    1C        C   78   3.206   2.548   3.036
    1C        C   79   3.075   2.600   3.037
    1C        C   80   3.274   2.528   3.159
    1C        C   81   3.208   2.549   3.282
    1C        C   82   3.413   2.491   3.403
    1C        C   83   3.274   2.521   3.403
    1C        C   84   3.484   2.490   3.525
    1C        C   85   3.413   2.498   3.647
    1C        C   86   3.623   2.496   3.767
    1C        C   87   3.482   2.493   3.770
    1C        C   88   3.693   2.509   3.889
    1C        C   89   3.625   2.501   4.013
    1C        C   90   3.833   2.544   4.135
    1C        C   91   3.696   2.509   4.134
    1C        C   92   3.901   2.571   4.256
    1C        C   93   3.833   2.546   4.377
    1C        C   94   4.026   2.635   4.498
    1C        C   95   3.903   2.567   4.498
    1C        C   96   4.088   2.673   4.619
    1C        C   97   4.028   2.633   4.740
    1C        C   98   4.191   2.764   4.861
    1C        C   99   4.097   2.656   4.863
    1C        C  100   4.217   2.841   4.975
    1C        C  101   2.819   2.726   2.067
    1C        C  102   2.985   2.592   2.190
    1C        C  103   2.869   2.675   2.188
    1C        C  104   3.060   2.572   2.309
    1C        C  105   3.000   2.614   2.430
    1C        C  106   3.201   2.534   2.550
    1C        C  107   3.070   2.587   2.550
    1C        C  108   3.271   2.517   2.671
    1C        C  109   3.203   2.539   2.793
    1C        C  110   3.412   2.495   2.913
    1C        C  111   3.274   2.523   2.914
    1C        C  112   3.482   2.485   3.035
    1C        C  113   3.412   2.497   3.157
    1C        C  114   3.622   2.497   3.277
    1C        C  115   3.481   2.486   3.279
    1C        C  116   3.691   2.513   3.400
    1C        C  117   3.625   2.501   3.524
    1C        C  118   3.831   2.546   3.647
    1C        C  119   3.695   2.510   3.646
    1C        C  120   3.894   2.574   3.771
    1C        C  121   3.827   2.553   3.893
    1C        C  122   4.025   2.637   4.011
    1C        C  123   3.900   2.571   4.013
    1C        C  124   4.083   2.678   4.133
    1C        C  125   4.024   2.639   4.256
    1C        C  126   4.196   2.767   4.376
    1C        C  127   4.084   2.680   4.377
    1C        C  128   4.245   2.818   4.497
    1C        C  129   4.195   2.765   4.618
    1C        C  130   4.328   2.932   4.739
    1C        C  131   4.246   2.815   4.740
    1C        C  132   4.363   2.998   4.859
    1C        C  133   4.293   2.958   4.973
    1C        C  134   3.173   2.466   2.080
    1C        C  135   3.041   2.514   2.083
    1C        C  136   3.260   2.485   2.188
    1C        C  137   3.194   2.524   2.307
    1C        C  138   3.403   2.479   2.425
    1C        C  139   3.264   2.504   2.427
    1C        C  140   3.480   2.480   2.544
    1C        C  141   3.410   2.493   2.666
    1C        C  142   3.622   2.489   2.791
    1C        C  143   3.480   2.489   2.789
    1C        C  144   3.693   2.497   2.912
    1C        C  145   3.623   2.486   3.034
    1C        C  146   3.832   2.531   3.155
    1C        C  147   3.694   2.501   3.156
    1C        C  148   3.895   2.564   3.277
    1C        C  149   3.827   2.549   3.400
    1C        C  150   4.018   2.637   3.522
    1C        C  151   3.894   2.571   3.523
    1C        C  152   4.077   2.677   3.644
    1C        C  153   4.019   2.641   3.768
    1C        C  154   4.191   2.767   3.888
    1C        C  155   4.082   2.678   3.889
    1C        C  156   4.246   2.814   4.009
    1C        C  157   4.192   2.767   4.131
    1C        C  158   4.339   2.920   4.251
    1C        C  159   4.249   2.812   4.253
    1C        C  160   4.375   2.983   4.373
    1C        C  161   4.332   2.930   4.496
    1C        C  162   4.434   3.117   4.615
    1C        C  163   4.368   2.992   4.618
    1C        C  164   4.472   3.180   4.735
    1C        C  165   4.443   3.114   4.856
    1C        C  166   4.513   3.319   4.972
    1C        C  167   4.478   3.185   4.972
    1C        C  168   3.477   2.438   2.074
    1C        C  169   3.400   2.465   2.188
    1C        C  170   3.619   2.471   2.304
    1C        C  171   3.477   2.465   2.306
    1C        C  172   3.692   2.489   2.424
    1C        C  173   3.621   2.486   2.546
    1C        C  174   3.826   2.538   2.668
    1C        C  175   3.690   2.500   2.668
    1C        C  176   3.894   2.565   2.789
    1C        C  177   3.830   2.535   2.911
    1C        C  178   4.023   2.623   3.034
    1C        C  179   3.899   2.556   3.033
    1C        C  180   4.083   2.663   3.155
    1C        C  181   4.020   2.630   3.277
    1C        C  182   4.190   2.757   3.397
    1C        C  183   4.081   2.667   3.399
    1C        C  184   4.242   2.805   3.519
    1C        C  185   4.192   2.760   3.643
    1C        C  186   4.338   2.916   3.764
    1C        C  187   4.242   2.812   3.764
    1C        C  188   4.381   2.975   3.885
    1C        C  189   4.340   2.920   4.009
    1C        C  190   4.446   3.105   4.127
    1C        C  191   4.381   2.979   4.130
    1C        C  192   4.468   3.173   4.249
    1C        C  193   4.442   3.108   4.371
    1C        C  194   4.504   3.314   4.492
    1C        C  195   4.461   3.180   4.491
    1C        C  196   4.523   3.386   4.612
    1C        C  197   4.512   3.316   4.734
    1C        C  198   4.544   3.534   4.853
    1C        C  199   4.533   3.391   4.853
    1C        C  200   4.579   3.622   4.960
    1C        C  201   3.616   2.416   2.071
    1C        C  202   3.828   2.508   2.185
    1C        C  203   3.694   2.457   2.184
    1C        C  204   3.900   2.537   2.304
    1C        C  205   3.829   2.519   2.425
    1C        C  206   4.020   2.619   2.543
    1C        C  207   3.894   2.554   2.545
    1C        C  208   4.081   2.660   2.664
    1C        C  209   4.021   2.627   2.787
    1C        C  210   4.191   2.750   2.909
    1C        C  211   4.080   2.663   2.911
    1C        C  212   4.248   2.797   3.029
    1C        C  213   4.195   2.749   3.151
    1C        C  214   4.334   2.909   3.272
    1C        C  215   4.243   2.801   3.274
    1C        C  216   4.371   2.970   3.394
    1C        C  217   4.331   2.915   3.518
    1C        C  218   4.440   3.097   3.638
    1C        C  219   4.375   2.972   3.640
    1C        C  220   4.467   3.164   3.759
    1C        C  221   4.447   3.100   3.883
    1C        C  222   4.515   3.303   4.002
    1C        C  223   4.478   3.166   4.004
    1C        C  224   4.519   3.377   4.122
    1C        C  225   4.506   3.309   4.246
    1C        C  226   4.518   3.522   4.365
    1C        C  227   4.515   3.380   4.368
    1C        C  228   4.517   3.595   4.486
    1C        C  229   4.532   3.527   4.609
    1C        C  230   4.503   3.742   4.726
    1C        C  231   4.527   3.602   4.729
    1C        C  232   4.495   3.820   4.843
    1C        C  233   4.542   3.757   4.959
    1C        C  234   4.021   2.612   2.066
    1C        C  235   3.899   2.544   2.069
    1C        C  236   4.089   2.646   2.183
    1C        C  237   4.026   2.605   2.302
    1C        C  238   4.200   2.733   2.421
    1C        C  239   4.088   2.645   2.422
    1C        C  240   4.250   2.786   2.542
    1C        C  241   4.196   2.743   2.665
    1C        C  242   4.338   2.901   2.786
    1C        C  243   4.244   2.795   2.786
    1C        C  244   4.384   2.960   2.907
    1C        C  245   4.339   2.904   3.029
    1C        C  246   4.444   3.090   3.148
    1C        C  247   4.375   2.967   3.150
    1C        C  248   4.459   3.158   3.271
    1C        C  249   4.431   3.098   3.396
    1C        C  250   4.498   3.302   3.513
    1C        C  251   4.465   3.164   3.516
    1C        C  252   4.507   3.371   3.636
    1C        C  253   4.504   3.301   3.759
    1C        C  254   4.523   3.513   3.876
    1C        C  255   4.522   3.372   3.879
    1C        C  256   4.519   3.585   3.998
    1C        C  257   4.518   3.518   4.122
    1C        C  258   4.490   3.731   4.241
    1C        C  259   4.514   3.591   4.242
    1C        C  260   4.470   3.803   4.361
    1C        C  261   4.489   3.734   4.483
    1C        C  262   4.417   3.935   4.603
    1C        C  263   4.471   3.804   4.604
    1C        C  264   4.396   4.005   4.723
    1C        C  265   4.433   3.947   4.846
    1C        C  266   4.320   4.131   4.958
    1C        C  267   4.400   4.017   4.962
    1C        C  268   4.266   2.768   2.060
    1C        C  269   4.201   2.732   2.179
    1C        C  270   4.349   2.887   2.298
    1C        C  271   4.253   2.782   2.300
    1C        C  272   4.384   2.951   2.419
    1C        C  273   4.343   2.893   2.541
    1C        C  274   4.445   3.080   2.659
    1C        C  275   4.378   2.956   2.662
    1C        C  276   4.474   3.149   2.779
    1C        C  277   4.451   3.084   2.902
    1C        C  278   4.512   3.287   3.023
    1C        C  279   4.477   3.150   3.024
    1C        C  280   4.512   3.361   3.144
    1C        C  281   4.494   3.295   3.268
    1C        C  282   4.511   3.508   3.388
    1C        C  283   4.508   3.367   3.388
    1C        C  284   4.519   3.581   3.509
    1C        C  285   4.522   3.512   3.632
    1C        C  286   4.491   3.722   3.751
    1C        C  287   4.519   3.583   3.753
    1C        C  288   4.473   3.790   3.873
    1C        C  289   4.494   3.724   3.997
    1C        C  290   4.422   3.927   4.115
    1C        C  291   4.476   3.796   4.117
    1C        C  292   4.391   3.995   4.235
    1C        C  293   4.425   3.937   4.359
    1C        C  294   4.319   4.122   4.477
    1C        C  295   4.391   4.001   4.481
    1C        C  296   4.281   4.184   4.599
    1C        C  297   4.326   4.129   4.721
    1C        C  298   4.195   4.308   4.839
    1C        C  299   4.285   4.197   4.839
    1C        C  300   4.170   4.401   4.945
    1C        C  301   4.357   2.873   2.064
    1C        C  302   4.474   3.064   2.173
    1C        C  303   4.407   2.938   2.178
    1C        C  304   4.487   3.137   2.295
    1C        C  305   4.446   3.077   2.416
    1C        C  306   4.508   3.282   2.533
    1C        C  307   4.475   3.145   2.537
    1C        C  308   4.513   3.354   2.655
    1C        C  309   4.502   3.288   2.779
    1C        C  310   4.522   3.498   2.896
    1C        C  311   4.521   3.357   2.901
    1C        C  312   4.514   3.570   3.017
    1C        C  313   4.516   3.502   3.141
    1C        C  314   4.485   3.713   3.262
    1C        C  315   4.508   3.573   3.263
    1C        C  316   4.475   3.786   3.382
    1C        C  317   4.496   3.721   3.506
    1C        C  318   4.423   3.921   3.627
    1C        C  319   4.476   3.790   3.628
    1C        C  320   4.390   3.984   3.748
    1C        C  321   4.420   3.921   3.871
    1C        C  322   4.316   4.108   3.988
    1C        C  323   4.388   3.987   3.992
    1C        C  324   4.274   4.166   4.110
    1C        C  325   4.315   4.114   4.235
    1C        C  326   4.183   4.283   4.354
    1C        C  327   4.278   4.179   4.355
    1C        C  328   4.132   4.337   4.474
    1C        C  329   4.191   4.293   4.594
    1C        C  330   4.027   4.434   4.711
    1C        C  331   4.141   4.348   4.714
    1C        C  332   3.970   4.490   4.827
    1C        C  333   4.051   4.476   4.941
    1C        C  334   4.554   3.266   2.058
    1C        C  335   4.532   3.128   2.059
    1C        C  336   4.535   3.345   2.172
    1C        C  337   4.518   3.276   2.294
    1C        C  338   4.524   3.494   2.411
    1C        C  339   4.527   3.352   2.412
    1C        C  340   4.521   3.564   2.533
    1C        C  341   4.523   3.495   2.656
    1C        C  342   4.489   3.709   2.773
    1C        C  343   4.516   3.570   2.775
    1C        C  344   4.474   3.780   2.894
    1C        C  345   4.489   3.709   3.015
    1C        C  346   4.415   3.908   3.136
    1C        C  347   4.466   3.777   3.137
    1C        C  348   4.384   3.976   3.257
    1C        C  349   4.419   3.916   3.379
    1C        C  350   4.310   4.096   3.499
    1C        C  351   4.388   3.978   3.502
    1C        C  352   4.268   4.157   3.620
    1C        C  353   4.313   4.102   3.743
    1C        C  354   4.181   4.268   3.867
    1C        C  355   4.272   4.161   3.865
    1C        C  356   4.126   4.318   3.987
    1C        C  357   4.177   4.269   4.110
    1C        C  358   4.012   4.405   4.229
    1C        C  359   4.125   4.321   4.230
    1C        C  360   3.953   4.453   4.348
    1C        C  361   4.015   4.416   4.469
    1C        C  362   3.828   4.513   4.590
    1C        C  363   3.959   4.461   4.591
    1C        C  364   3.761   4.546   4.710
    1C        C  365   3.838   4.539   4.828
    1C        C  366   3.629   4.586   4.948
    1C        C  367   3.766   4.565   4.945
    1C        C  368   4.509   3.561   2.054
    1C        C  369   4.530   3.486   2.170
    1C        C  370   4.503   3.704   2.288
    1C        C  371   4.523   3.564   2.288
    1C        C  372   4.481   3.776   2.408
    1C        C  373   4.497   3.704   2.528
    1C        C  374   4.419   3.905   2.651
    1C        C  375   4.471   3.773   2.648
    1C        C  376   4.384   3.971   2.771
    1C        C  377   4.418   3.910   2.894
    1C        C  378   4.317   4.098   3.010
    1C        C  379   4.386   3.975   3.015
    1C        C  380   4.270   4.153   3.132
    1C        C  381   4.306   4.093   3.255
    1C        C  382   4.169   4.254   3.377
    1C        C  383   4.266   4.151   3.377
    1C        C  384   4.119   4.302   3.500
    1C        C  385   4.171   4.259   3.624
    1C        C  386   4.004   4.389   3.743
    1C        C  387   4.123   4.312   3.746
    1C        C  388   3.946   4.431   3.865
    1C        C  389   4.009   4.397   3.987
    1C        C  390   3.815   4.488   4.109
    1C        C  391   3.945   4.433   4.107
    1C        C  392   3.749   4.518   4.230
    1C        C  393   3.822   4.507   4.351
    1C        C  394   3.613   4.550   4.473
    1C        C  395   3.753   4.531   4.471
    1C        C  396   3.544   4.566   4.596
    1C        C  397   3.621   4.566   4.714
    1C        C  398   3.409   4.547   4.838
    1C        C  399   3.548   4.571   4.835
    1C        C  400   3.344   4.509   4.957
    1C        C  401   4.493   3.699   2.055
    1C        C  402   4.447   3.914   2.165
    1C        C  403   4.491   3.779   2.169
    1C        C  404   4.404   3.974   2.285
    1C        C  405   4.431   3.908   2.407
    1C        C  406   4.326   4.094   2.524
    1C        C  407   4.395   3.971   2.528
    1C        C  408   4.281   4.153   2.644
    1C        C  409   4.311   4.092   2.768
    1C        C  410   4.170   4.253   2.887
    1C        C  411   4.268   4.151   2.889
    1C        C  412   4.121   4.297   3.011
    1C        C  413   4.172   4.255   3.136
    1C        C  414   3.999   4.382   3.253
    1C        C  415   4.117   4.305   3.256
    1C        C  416   3.940   4.419   3.376
    1C        C  417   4.002   4.382   3.497
    1C        C  418   3.814   4.478   3.617
    1C        C  419   3.941   4.416   3.620
    1C        C  420   3.749   4.507   3.739
    1C        C  421   3.814   4.482   3.862
    1C        C  422   3.611   4.539   3.986
    1C        C  423   3.749   4.507   3.985
    1C        C  424   3.542   4.550   4.108
    1C        C  425   3.612   4.550   4.231
    1C        C  426   3.399   4.556   4.356
    1C        C  427   3.540   4.555   4.353
    1C        C  428   3.329   4.550   4.478
    1C        C  429   3.403   4.562   4.598
    1C        C  430   3.193   4.521   4.724
    1C        C  431   3.332   4.550   4.720
    1C        C  432   3.121   4.496   4.844
    1C        C  433   3.206   4.491   4.956
    1C        C  434   4.387   4.126   2.052
    1C        C  435   4.441   3.997   2.052
    1C        C  436   4.303   4.164   2.162
    1C        C  437   4.332   4.096   2.284
    1C        C  438   4.185   4.255   2.403
    1C        C  439   4.284   4.154   2.403
    1C        C  440   4.125   4.299   2.523
    1C        C  441   4.182   4.254   2.644
    1C        C  442   4.005   4.379   2.763
    1C        C  443   4.123   4.302   2.763
    1C        C  444   3.941   4.409   2.885
    1C        C  445   4.004   4.377   3.007
    1C        C  446   3.811   4.470   3.128
    1C        C  447   3.940   4.414   3.128
    1C        C  448   3.745   4.498   3.250
    1C        C  449   3.811   4.476   3.373
    1C        C  450   3.606   4.528   3.498
    1C        C  451   3.744   4.499   3.496
    1C        C  452   3.538   4.544   3.621
    1C        C  453   3.611   4.535   3.742
    1C        C  454   3.400   4.546   3.866
    1C        C  455   3.541   4.549   3.864
    1C        C  456   3.330   4.533   3.989
    1C        C  457   3.401   4.543   4.111
    1C        C  458   3.193   4.504   4.236
    1C        C  459   3.331   4.537   4.233
    1C        C  460   3.127   4.480   4.359
    1C        C  461   3.195   4.505   4.480
    1C        C  462   3.000   4.427   4.604
    1C        C  463   3.128   4.487   4.603
    1C        C  464   2.934   4.393   4.724
    1C        C  465   2.991   4.437   4.846
    1C        C  466   2.798   4.338   4.960
    1C        C  467   2.905   4.428   4.961
    1C        C  468   4.121   4.280   2.040
    1C        C  469   4.188   4.249   2.160
    1C        C  470   4.008   4.372   2.276
    1C        C  471   4.128   4.295   2.280
    1C        C  472   3.947   4.410   2.397
    1C        C  473   4.008   4.378   2.521
    1C        C  474   3.814   4.472   2.641
    1C        C  475   3.942   4.414   2.641
    1C        C  476   3.747   4.495   2.763
    1C        C  477   3.812   4.468   2.885
    1C        C  478   3.604   4.520   3.007
    1C        C  479   3.743   4.491   3.006
    1C        C  480   3.535   4.530   3.129
    1C        C  481   3.607   4.526   3.251
    1C        C  482   3.397   4.533   3.378
    1C        C  483   3.538   4.533   3.374
    1C        C  484   3.327   4.532   3.501
    1C        C  485   3.397   4.549   3.622
    1C        C  486   3.192   4.502   3.743
    1C        C  487   3.328   4.540   3.745
    1C        C  488   3.130   4.473   3.867
    1C        C  489   3.193   4.499   3.991
    1C        C  490   3.004   4.408   4.115
    1C        C  491   3.128   4.477   4.114
    1C        C  492   2.944   4.377   4.238
    1C        C  493   3.002   4.416   4.362
    1C        C  494   2.828   4.297   4.483
    1C        C  495   2.939   4.384   4.484
    1C        C  496   2.770   4.255   4.605
    1C        C  497   2.820   4.307   4.726
    1C        C  498   2.665   4.161   4.844
    1C        C  499   2.754   4.270   4.845
    1C        C  500   2.589   4.122   4.956
    1C        C  501   4.002   4.352   2.040
    1C        C  502   3.816   4.469   2.159
    1C        C  503   3.942   4.404   2.155
    1C        C  504   3.744   4.486   2.279
    1C        C  505   3.815   4.458   2.398
    1C        C  506   3.606   4.511   2.519
    1C        C  507   3.746   4.488   2.518
    1C        C  508   3.536   4.520   2.641
    1C        C  509   3.607   4.518   2.763
    1C        C  510   3.394   4.528   2.885
    1C        C  511   3.535   4.530   2.884
    1C        C  512   3.324   4.520   3.007
    1C        C  513   3.393   4.528   3.130
    1C        C  514   3.192   4.484   3.254
    1C        C  515   3.328   4.521   3.255
    1C        C  516   3.127   4.461   3.378
    1C        C  517   3.192   4.491   3.500
    1C        C  518   2.999   4.406   3.626
    1C        C  519   3.124   4.472   3.623
    1C        C  520   2.943   4.366   3.749
    1C        C  521   3.009   4.399   3.869
    1C        C  522   2.840   4.275   3.994
    1C        C  523   2.949   4.365   3.992
    1C        C  524   2.790   4.231   4.119
    1C        C  525   2.837   4.285   4.241
    1C        C  526   2.698   4.126   4.361
    1C        C  527   2.781   4.240   4.362
    1C        C  528   2.655   4.071   4.484
    1C        C  529   2.687   4.140   4.603
    1C        C  530   2.581   3.959   4.732
    1C        C  531   2.641   4.088   4.726
    1C        C  532   2.538   3.903   4.855
    1C        C  533   2.527   3.997   4.963
    1C        C  534   3.619   4.557   2.040
    1C        C  535   3.752   4.512   2.042
    1C        C  536   3.536   4.534   2.154
    1C        C  537   3.603   4.503   2.275
    1C        C  538   3.393   4.516   2.398
    1C        C  539   3.534   4.518   2.398
    1C        C  540   3.322   4.512   2.520
    1C        C  541   3.395   4.518   2.640
    1C        C  542   3.188   4.476   2.765
    1C        C  543   3.324   4.513   2.763
    1C        C  544   3.122   4.459   2.888
    1C        C  545   3.188   4.482   3.011
    1C        C  546   2.996   4.394   3.132
    1C        C  547   3.123   4.456   3.134
    1C        C  548   2.940   4.361   3.257
    1C        C  549   3.001   4.396   3.380
    1C        C  550   2.837   4.268   3.503
    1C        C  551   2.942   4.363   3.504
    1C        C  552   2.787   4.223   3.627
    1C        C  553   2.836   4.274   3.749
    1C        C  554   2.697   4.117   3.875
    1C        C  555   2.786   4.227   3.873
    1C        C  556   2.655   4.061   3.998
    1C        C  557   2.698   4.124   4.117
    1C        C  558   2.590   3.942   4.244
    1C        C  559   2.660   4.065   4.239
    1C        C  560   2.566   3.878   4.367
    1C        C  561   2.592   3.944   4.489
    1C        C  562   2.531   3.748   4.616
    1C        C  563   2.558   3.886   4.613
    1C        C  564   2.519   3.680   4.739
    1C        C  565   2.520   3.761   4.856
    1C        C  566   2.525   3.545   4.977
    1C        C  567   2.527   3.684   4.973
    1C        C  568   3.328   4.475   2.039
    1C        C  569   3.395   4.513   2.155
    1C        C  570   3.184   4.469   2.278
    1C        C  571   3.321   4.507   2.277
    1C        C  572   3.118   4.448   2.401
    1C        C  573   3.185   4.477   2.522
    1C        C  574   2.990   4.394   2.646
    1C        C  575   3.117   4.454   2.644
    1C        C  576   2.933   4.354   2.770
    1C        C  577   2.996   4.394   2.890
    1C        C  578   2.828   4.263   3.013
    1C        C  579   2.938   4.351   3.011
    1C        C  580   2.783   4.211   3.137
    1C        C  581   2.837   4.264   3.257
    1C        C  582   2.697   4.108   3.385
    1C        C  583   2.792   4.213   3.381
    1C        C  584   2.660   4.052   3.509
    1C        C  585   2.701   4.111   3.631
    1C        C  586   2.593   3.930   3.754
    1C        C  587   2.658   4.056   3.753
    1C        C  588   2.563   3.870   3.878
    1C        C  589   2.592   3.935   4.001
    1C        C  590   2.524   3.736   4.128
    1C        C  591   2.561   3.873   4.124
    1C        C  592   2.510   3.670   4.252
    1C        C  593   2.522   3.743   4.372
    1C        C  594   2.505   3.534   4.496
    1C        C  595   2.514   3.675   4.496
    1C        C  596   2.513   3.466   4.619
    1C        C  597   2.511   3.538   4.741
    1C        C  598   2.534   3.325   4.859
    1C        C  599   2.522   3.466   4.861
    1C        C  600   2.538   3.249   4.977
    1C        C  601   3.196   4.433   2.042
    1C        C  602   2.981   4.395   2.156
    1C        C  603   3.116   4.444   2.156
    1C        C  604   2.928   4.356   2.282
    1C        C  605   2.989   4.391   2.404
    1C        C  606   2.818   4.266   2.528
    1C        C  607   2.927   4.355   2.526
    1C        C  608   2.771   4.212   2.650
    1C        C  609   2.827   4.261   2.771
    1C        C  610   2.682   4.106   2.894
    1C        C  611   2.775   4.212   2.892
    1C        C  612   2.646   4.050   3.018
    1C        C  613   2.690   4.106   3.140
    1C        C  614   2.588   3.924   3.265
    1C        C  615   2.651   4.051   3.264
    1C        C  616   2.558   3.864   3.389
    1C        C  617   2.588   3.931   3.511
    1C        C  618   2.521   3.730   3.636
    1C        C  619   2.561   3.865   3.633
    1C        C  620   2.511   3.661   3.760
    1C        C  621   2.525   3.734   3.880
    1C        C  622   2.505   3.527   4.009
    1C        C  623   2.514   3.668   4.004
    1C        C  624   2.511   3.457   4.131
    1C        C  625   2.512   3.529   4.252
    1C        C  626   2.540   3.322   4.378
    1C        C  627   2.512   3.460   4.376
    1C        C  628   2.558   3.254   4.501
    1C        C  629   2.539   3.327   4.620
    1C        C  630   2.593   3.116   4.740
    1C        C  631   2.554   3.253   4.740
    1C        C  632   2.614   3.049   4.863
    1C        C  633   2.561   3.111   4.980
    1C        C  634   2.782   4.302   2.049
    1C        C  635   2.890   4.392   2.046
    1C        C  636   2.752   4.230   2.166
    1C        C  637   2.815   4.270   2.286
    1C        C  638   2.678   4.106   2.406
    1C        C  639   2.770   4.213   2.407
    1C        C  640   2.639   4.045   2.528
    1C        C  641   2.681   4.103   2.649
    1C        C  642   2.579   3.919   2.775
    1C        C  643   2.645   4.044   2.772
    1C        C  644   2.560   3.854   2.899
    1C        C  645   2.584   3.922   3.021
    1C        C  646   2.522   3.721   3.147
    1C        C  647   2.558   3.858   3.144
    1C        C  648   2.505   3.656   3.271
    1C        C  649   2.517   3.729   3.391
    1C        C  650   2.500   3.519   3.518
    1C        C  651   2.508   3.660   3.514
    1C        C  652   2.508   3.450   3.641
    1C        C  653   2.509   3.520   3.764
    1C        C  654   2.532   3.315   3.885
    1C        C  655   2.506   3.453   3.889
    1C        C  656   2.548   3.249   4.009
    1C        C  657   2.534   3.317   4.132
    1C        C  658   2.607   3.121   4.256
    1C        C  659   2.556   3.253   4.256
    1C        C  660   2.632   3.056   4.379
    1C        C  661   2.600   3.119   4.501
    1C        C  662   2.706   2.932   4.622
    1C        C  663   2.627   3.049   4.620
    1C        C  664   2.753   2.877   4.744
    1C        C  665   2.694   2.930   4.862
    1C        C  666   2.744   2.872   4.980
    1C        C  667   2.683   4.022   2.057
    1C        C  668   2.685   4.106   2.169
    1C        C  669   2.583   3.912   2.292
    1C        C  670   2.640   4.042   2.286
    1C        C  671   2.554   3.844   2.413
    1C        C  672   2.577   3.918   2.531
    1C        C  673   2.511   3.719   2.658
    1C        C  674   2.544   3.857   2.653
    1C        C  675   2.500   3.649   2.780
    1C        C  676   2.519   3.719   2.901
    1C        C  677   2.501   3.510   3.028
    1C        C  678   2.512   3.651   3.025
    1C        C  679   2.501   3.443   3.153
    1C        C  680   2.495   3.515   3.274
    1C        C  681   2.531   3.308   3.397
    1C        C  682   2.502   3.447   3.397
    1C        C  683   2.556   3.243   3.520
    1C        C  684   2.536   3.312   3.642
    1C        C  685   2.605   3.112   3.768
    1C        C  686   2.556   3.244   3.764
    1C        C  687   2.633   3.050   3.892
    1C        C  688   2.601   3.118   4.012
    1C        C  689   2.712   2.938   4.137
    1C        C  690   2.635   3.056   4.134
    1C        C  691   2.756   2.880   4.258
    1C        C  692   2.709   2.937   4.378
    1C        C  693   2.749   2.877   4.499
    1C        C  694   2.625   3.894   2.056
    1C        C  695   2.518   3.707   2.174
    1C        C  696   2.575   3.836   2.173
    1C        C  697   2.504   3.636   2.295
    1C        C  698   2.516   3.708   2.416
    1C        C  699   2.482   3.502   2.540
    1C        C  700   2.494   3.643   2.540
    1C        C  701   2.493   3.435   2.664
    1C        C  702   2.492   3.508   2.785
    1C        C  703   2.526   3.299   2.909
    1C        C  704   2.499   3.438   2.907
    1C        C  705   2.546   3.232   3.032
    1C        C  706   2.531   3.304   3.152
    1C        C  707   2.598   3.106   3.275
    1C        C  708   2.550   3.239   3.276
    1C        C  709   2.636   3.047   3.397
    1C        C  710   2.611   3.113   3.519
    1C        C  711   2.713   2.932   3.647
    1C        C  712   2.637   3.051   3.644
    1C        C  713   2.755   2.877   3.770
    1C        C  714   2.714   2.935   3.892
    1C        C  715   2.758   2.882   4.015
    1C        C  716   2.451   3.499   2.060
    1C        C  717   2.483   3.635   2.059
    1C        C  718   2.466   3.420   2.179
    1C        C  719   2.482   3.496   2.298
    1C        C  720   2.510   3.288   2.422
    1C        C  721   2.484   3.427   2.421
    1C        C  722   2.540   3.224   2.544
    1C        C  723   2.524   3.297   2.664
    1C        C  724   2.600   3.100   2.788
    1C        C  725   2.547   3.231   2.787
    1C        C  726   2.630   3.035   2.910
    1C        C  727   2.593   3.099   3.031
    1C        C  728   2.706   2.922   3.156
    1C        C  729   2.628   3.039   3.154
    1C        C  730   2.755   2.872   3.279
    1C        C  731   2.712   2.928   3.402
    1C        C  732   2.755   2.874   3.525
    1C        C  733   2.487   3.193   2.067
    1C        C  734   2.486   3.278   2.179
    1C        C  735   2.584   3.087   2.301
    1C        C  736   2.522   3.215   2.301
    1C        C  737   2.613   3.023   2.424
    1C        C  738   2.589   3.092   2.545
    1C        C  739   2.696   2.910   2.667
    1C        C  740   2.623   3.031   2.668
    1C        C  741   2.742   2.854   2.789
    1C        C  742   2.704   2.915   2.910
    1C        C  743   2.748   2.864   3.034
    1C        C  744   2.539   3.064   2.073
    1C        C  745   2.689   2.899   2.180
    1C        C  746   2.612   3.017   2.182
    1C        C  747   2.729   2.843   2.303
    1C        C  748   2.687   2.903   2.424
    1C        C  749   2.735   2.850   2.546
    1C        C  750   2.731   2.834   2.063
    1C        C  751   3.644   2.295   1.990
    1C        O  752   3.665   2.181   2.040
    1C        O  753   3.649   2.309   1.851
    1C        C  754   4.621   3.056   1.965
    1C        O  755   4.590   3.035   1.845
    1C        O  756   4.743   3.001   2.007
    1C        C  757   4.457   4.231   1.975
    1C        O  758   4.573   4.273   2.000
    1C        O  759   4.435   4.233   1.836
    1C        C  760   3.591   4.631   1.915
    1C        O  761   3.609   4.754   1.894
    1C        O  762   3.569   4.568   1.792
    1C        C  763   2.869   4.510   1.959
    1C        O  764   2.899   4.510   1.837
    1C        O  765   2.832   4.637   2.003
    1C        C  766   2.345   3.470   1.961
    1C        O  767   2.374   3.438   1.842
    1C        O  768   2.226   3.543   1.970
    1C        C  769   4.709   3.614   5.031
    1C        O  770   4.718   3.648   5.152
    1C        O  771   4.834   3.618   4.969
    1C        C  772   4.280   4.447   5.033
    1C        O  773   4.261   4.416   5.154
    1C        O  774   4.347   4.569   5.016
    1C        C  775   4.157   2.496   5.041
    1C        O  776   4.135   2.373   5.058
    1C        O  777   4.214   2.548   5.158
    1C        C  778   2.868   4.554   5.029
    1C        O  779   2.841   4.663   4.972
    1C        O  780   2.910   4.570   5.162
    1C        C  781   2.457   3.040   5.058
    1C        O  782   2.340   3.028   5.012
    1C        O  783   2.477   2.958   5.169
    1C        C  784   2.414   3.992   5.059
    1C        O  785   2.296   4.006   5.016
    1C        O  786   2.442   4.028   5.191
    1C        C  787   2.942   2.434   2.008
    1C        O  788   2.905   2.460   1.891
    1C        O  789   2.890   2.309   2.041
    1C        C  790   3.166   2.361   5.038
    1C        O  791   3.142   2.262   4.965
    1C        O  792   3.152   2.355   5.177
    1C        H  793   4.256   3.036   5.038
    1C        H  794   4.163   2.821   5.065
    1C        H  795   4.497   3.135   5.065
    1C        H  796   4.559   3.357   5.061
    1C        H  797   4.579   3.822   5.035
    1C        H  798   4.388   3.961   5.053
    1C        H  799   4.268   4.156   5.048
    1C        H  800   4.039   4.544   5.022
    1C        H  801   3.822   4.626   5.013
    1C        H  802   3.598   4.648   5.030
    1C        H  803   3.400   4.469   5.038
    1C        H  804   3.158   4.532   5.044
    1C        H  805   3.893   2.467   5.053
    1C        H  806   3.667   2.433   5.067
    1C        H  807   2.981   2.537   5.045
    1C        H  808   3.441   2.452   5.077
    1C        H  809   2.867   2.723   5.074
    1C        H  810   2.717   2.918   5.073
    1C        H  811   2.542   3.300   5.071
    1C        H  812   2.503   3.503   5.072
    1C        H  813   2.535   3.733   5.068
    1C        H  814   2.574   4.188   5.039
    1C        H  815   2.731   4.338   5.044
    1C        H  816   2.659   2.827   1.984
    1C        H  817   2.856   2.692   1.973
    1C        H  818   3.213   2.435   1.986
    1C        H  819   3.425   2.428   1.981
    1C        H  820   3.863   2.508   1.975
    1C        H  821   4.039   2.672   1.979
    1C        H  822   4.271   2.700   1.978
    1C        H  823   4.382   2.919   1.971
    1C        H  824   4.584   3.315   1.967
    1C        H  825   4.487   3.508   1.963
    1C        H  826   4.534   3.744   1.966
    1C        H  827   3.816   4.540   1.961
    1C        H  828   3.947   4.357   1.948
    1C        H  829   4.179   4.289   1.950
    1C        H  830   4.492   3.971   1.962
    1C        H  831   2.563   3.884   1.970
    1C        H  832   2.743   4.049   1.972
    1C        H  833   2.725   4.288   1.960
    1C        H  834   3.358   4.512   1.943
    1C        H  835   3.157   4.407   1.945
    1C        H  836   2.506   2.994   1.999
    1C        H  837   2.474   3.234   1.969
    1C        H  838   2.498   3.680   1.963
    2V3OU   H29  839   2.801   3.556   6.164
    2V3OU   C27  840   2.784   3.501   6.261
    2V3OU   H27  841   2.725   3.563   6.332
    2V3OU   H28  842   2.729   3.408   6.234
    2V3OU   O11  843   2.908   3.468   6.326
    2V3OU   C15  844   2.917   3.397   6.443
    2V3OU   C13  845   3.048   3.377   6.492
    2V3OU   C14  846   3.075   3.269   6.577
    2V3OU   C16  847   2.966   3.195   6.622
    2V3OU    H6  848   2.981   3.109   6.689
    2V3OU   C12  849   3.211   3.236   6.625
    2V3OU    O2  850   3.238   3.123   6.671
    2V3OU   C10  851   3.323   3.311   6.566
    2V3OU    C8  852   3.456   3.272   6.573
    2V3OU   O10  853   3.488   3.152   6.629
    2V3OU   H26  854   3.402   3.113   6.653
    2V3OU    C6  855   3.565   3.348   6.520
    2V3OU    C5  856   3.535   3.463   6.448
    2V3OU    C4  857   3.703   3.293   6.512
    2V3OU    H4  858   3.723   3.226   6.601
    2V3OU    H5  859   3.712   3.225   6.422
    2V3OU    C2  860   3.815   3.397   6.507
    2V3OU    O6  861   3.804   3.478   6.624
    2V3OU   H21  862   3.760   3.559   6.594
    2V3OU    C3  863   3.784   3.497   6.394
    2V3OU    H2  864   3.865   3.573   6.385
    2V3OU    H3  865   3.780   3.435   6.301
    2V3OU   C25  866   3.949   3.328   6.483
    2V3OU    O7  867   4.003   3.292   6.378
    2V3OU   C26  868   4.027   3.289   6.608
    2V3OU   H22  869   4.064   3.385   6.653
    2V3OU   H23  870   4.120   3.235   6.578
    2V3OU    O8  871   3.959   3.207   6.700
    2V3OU   H24  872   3.934   3.268   6.771
    2V3OU    C1  873   3.645   3.557   6.411
    2V3OU    H1  874   3.624   3.613   6.315
    2V3OU    O3  875   3.653   3.652   6.518
    2V3OU   C19  876   3.620   3.790   6.500
    2V3OU    H9  877   3.528   3.801   6.434
    2V3OU    O4  878   3.710   3.851   6.410
    2V3OU   C20  879   3.841   3.875   6.461
    2V3OU   H10  880   3.888   3.772   6.470
    2V3OU   C24  881   3.610   3.854   6.638
    2V3OU   H16  882   3.546   3.793   6.707
    2V3OU   H17  883   3.571   3.958   6.631
    2V3OU   C23  884   3.751   3.873   6.694
    2V3OU   H15  885   3.793   3.768   6.706
    2V3OU    N1  886   3.736   3.951   6.815
    2V3OU   H19  887   3.808   3.929   6.881
    2V3OU   H20  888   3.651   3.931   6.865
    2V3OU   C21  889   3.849   3.946   6.597
    2V3OU   H11  890   3.959   3.931   6.621
    2V3OU    O5  891   3.825   4.085   6.593
    2V3OU   H18  892   3.783   4.103   6.679
    2V3OU   C22  893   3.910   3.952   6.351
    2V3OU   H12  894   3.859   4.051   6.337
    2V3OU   H13  895   3.905   3.892   6.256
    2V3OU   H14  896   4.021   3.953   6.365
    2V3OU   C11  897   3.157   3.469   6.456
    2V3OU    O1  898   3.137   3.584   6.411
    2V3OU    C9  899   3.295   3.422   6.481
    2V3OU    C7  900   3.398   3.499   6.429
    2V3OU    O9  901   3.379   3.619   6.363
    2V3OU   H25  902   3.284   3.641   6.367
    2V3OU   C17  903   2.814   3.311   6.485
    2V3OU    H7  904   2.717   3.338   6.443
    2V3OU   C18  905   2.836   3.206   6.573
    2V3OU    H8  906   2.748   3.151   6.609
    3SOL     OW  907   2.967   3.921   4.972
    3SOL    HW1  908   3.063   3.946   4.958
    3SOL    HW2  909   2.912   3.951   4.894
    4SOL     OW  910   1.422   0.362   0.681
    4SOL    HW1  911   1.384   0.453   0.696
    4SOL    HW2  912   1.414   0.308   0.765
    5SOL     OW  913   4.206   2.042   0.869
    5SOL    HW1  914   4.194   1.947   0.897
    5SOL    HW2  915   4.123   2.094   0.888
    6SOL     OW  916   3.544   1.823   2.308
    6SOL    HW1  917   3.501   1.801   2.220
    6SOL    HW2  918   3.556   1.922   2.314
    7SOL     OW  919   2.194   2.897   4.807
    7SOL    HW1  920   2.143   2.840   4.872
    7SOL    HW2  921   2.250   2.962   4.858
    8SOL     OW  922   1.248   1.786   6.304
    8SOL    HW1  923   1.338   1.764   6.340
    8SOL    HW2  924   1.210   1.706   6.257
    9SOL     OW  925   2.157   2.275   5.668
    9SOL    HW1  926   2.101   2.217   5.728
    9SOL    HW2  927   2.125   2.370   5.675
   10SOL     OW  928   5.624   5.182   1.013
   10SOL    HW1  929   5.618   5.095   0.965
   10SOL    HW2  930   5.560   5.183   1.090
   11SOL     OW  931   3.622   1.565   0.366
   11SOL    HW1  932   3.538   1.586   0.417
   11SOL    HW2  933   3.623   1.468   0.343
   12SOL     OW  934   5.656   4.895   1.242
   12SOL    HW1  935   5.714   4.974   1.263
   12SOL    HW2  936   5.572   4.926   1.197
   13SOL     OW  937   4.557   5.374   1.767
   13SOL    HW1  938   4.532   5.468   1.745
   13SOL    HW2  939   4.495   5.338   1.837
   14SOL     OW  940   4.378   5.690   0.958
   14SOL    HW1  941   4.288   5.679   0.917
   14SOL    HW2  942   4.426   5.766   0.913
   15SOL     OW  943   0.697   0.050   6.636
   15SOL    HW1  944   0.795   0.063   6.653
   15SOL    HW2  945   0.682   0.024   6.541
   16SOL     OW  946   2.285   5.258   5.496
   16SOL    HW1  947   2.209   5.204   5.532
   16SOL    HW2  948   2.255   5.307   5.414
   17SOL     OW  949   0.105   2.031   3.897
   17SOL    HW1  950   0.025   1.971   3.892
   17SOL    HW2  951   0.075   2.124   3.917
   18SOL     OW  952   2.770   0.313   5.684
   18SOL    HW1  953   2.822   0.238   5.725
   18SOL    HW2  954   2.722   0.280   5.602
   19SOL     OW  955   3.961   5.912   3.319
   19SOL    HW1  956   3.923   5.838   3.263
   19SOL    HW2  957   4.059   5.920   3.301
   20SOL     OW  958   0.318   1.780   4.790
   20SOL    HW1  959   0.246   1.793   4.722
   20SOL    HW2  960   0.297   1.832   4.872
   21SOL     OW  961   1.653   3.212   1.660
   21SOL    HW1  962   1.690   3.200   1.568
   21SOL    HW2  963   1.694   3.145   1.721
   22SOL     OW  964   0.861   1.045   0.503
   22SOL    HW1  965   0.816   0.957   0.487
   22SOL    HW2  966   0.792   1.115   0.519
   23SOL     OW  967   0.866   5.275   0.300
   23SOL    HW1  968   0.835   5.181   0.287
   23SOL    HW2  969   0.822   5.314   0.381
   24SOL     OW  970   4.730   0.787   0.386
   24SOL    HW1  971   4.734   0.803   0.287
   24SOL    HW2  972   4.634   0.788   0.415
   25SOL     OW  973   0.931   0.996   5.000
   25SOL    HW1  974   0.970   1.055   4.929
   25SOL    HW2  975   0.924   1.047   5.086
   26SOL     OW  976   2.283   6.760   5.665
   26SOL    HW1  977   2.233   6.719   5.741
   26SOL    HW2  978   2.298   6.690   5.594
   27SOL     OW  979   6.933   6.761   2.271
   27SOL    HW1  980   7.009   6.747   2.334
   27SOL    HW2  981   6.962   6.737   2.178
   28SOL     OW  982   1.973   0.740   5.073
   28SOL    HW1  983   1.980   0.808   5.146
   28SOL    HW2  984   2.051   0.678   5.078
   29SOL     OW  985   5.489   0.547   1.112
   29SOL    HW1  986   5.478   0.458   1.069
   29SOL    HW2  987   5.502   0.535   1.210
   30SOL     OW  988   4.662   6.783   4.789
   30SOL    HW1  989   4.697   6.697   4.753
   30SOL    HW2  990   4.579   6.766   4.842
   31SOL     OW  991   6.384   4.421   4.196
   31SOL    HW1  992   6.436   4.506   4.184
   31SOL    HW2  993   6.324   4.430   4.275
   32SOL     OW  994   3.359   1.046   1.122
   32SOL    HW1  995   3.361   0.948   1.102
   32SOL    HW2  996   3.343   1.059   1.220
   33SOL     OW  997   1.998   4.366   5.656
   33SOL    HW1  998   2.060   4.313   5.599
   33SOL    HW2  999   2.013   4.344   5.753
   34SOL     OW 1000   2.493   6.624   5.031
   34SOL    HW1 1001   2.533   6.674   5.107
   34SOL    HW2 1002   2.564   6.569   4.986
   35SOL     OW 1003   1.810   2.924   4.603
   35SOL    HW1 1004   1.844   3.003   4.654
   35SOL    HW2 1005   1.881   2.891   4.541
   36SOL     OW 1006   5.345   1.163   4.007
   36SOL    HW1 1007   5.409   1.212   4.065
   36SOL    HW2 1008   5.251   1.179   4.040
   37SOL     OW 1009   1.433   6.493   4.288
   37SOL    HW1 1010   1.421   6.522   4.383
   37SOL    HW2 1011   1.346   6.456   4.254
   38SOL     OW 1012   1.083   3.567   1.672
   38SOL    HW1 1013   1.059   3.659   1.705
   38SOL    HW2 1014   1.044   3.499   1.734
   39SOL     OW 1015   6.450   5.422   1.502
   39SOL    HW1 1016   6.403   5.364   1.568
   39SOL    HW2 1017   6.534   5.457   1.543
   40SOL     OW 1018   3.775   0.540   6.580
   40SOL    HW1 1019   3.708   0.584   6.520
   40SOL    HW2 1020   3.848   0.500   6.524
   41SOL     OW 1021   6.876   3.252   1.377
   41SOL    HW1 1022   6.905   3.185   1.446
   41SOL    HW2 1023   6.956   3.299   1.340
   42SOL     OW 1024   2.674   3.685   0.732
   42SOL    HW1 1025   2.728   3.604   0.711
   42SOL    HW2 1026   2.583   3.658   0.764
   43SOL     OW 1027   4.769   0.828   3.730
   43SOL    HW1 1028   4.850   0.771   3.746
   43SOL    HW2 1029   4.719   0.839   3.816
   44SOL     OW 1030   0.068   0.595   0.011
   44SOL    HW1 1031   7.002   0.568   6.991
   44SOL    HW2 1032   0.127   0.515   0.021
   45SOL     OW 1033   1.895   3.628   5.858
   45SOL    HW1 1034   1.929   3.569   5.931
   45SOL    HW2 1035   1.833   3.575   5.799
   46SOL     OW 1036   1.060   4.321   4.187
   46SOL    HW1 1037   1.030   4.270   4.268
   46SOL    HW2 1038   1.156   4.300   4.168
   47SOL     OW 1039   0.152   4.553   6.501
   47SOL    HW1 1040   0.175   4.509   6.588
   47SOL    HW2 1041   0.221   4.529   6.433
   48SOL     OW 1042   0.974   3.955   0.208
   48SOL    HW1 1043   0.920   4.018   0.264
   48SOL    HW2 1044   1.071   3.974   0.221
   49SOL     OW 1045   3.168   1.189   0.322
   49SOL    HW1 1046   3.223   1.117   0.280
   49SOL    HW2 1047   3.099   1.220   0.257
   50SOL     OW 1048   4.967   1.742   5.637
   50SOL    HW1 1049   4.890   1.715   5.696
   50SOL    HW2 1050   4.999   1.663   5.587
   51SOL     OW 1051   1.660   6.346   2.408
   51SOL    HW1 1052   1.641   6.250   2.427
   51SOL    HW2 1053   1.598   6.404   2.462
   52SOL     OW 1054   5.428   3.159   2.863
   52SOL    HW1 1055   5.406   3.256   2.865
   52SOL    HW2 1056   5.524   3.146   2.889
   53SOL     OW 1057   3.986   0.111   0.839
   53SOL    HW1 1058   3.955   0.117   0.934
   53SOL    HW2 1059   4.086   0.113   0.837
   54SOL     OW 1060   0.836   1.433   5.895
   54SOL    HW1 1061   0.804   1.438   5.990
   54SOL    HW2 1062   0.854   1.338   5.871
   55SOL     OW 1063   1.893   3.151   6.565
   55SOL    HW1 1064   1.844   3.114   6.643
   55SOL    HW2 1065   1.972   3.203   6.598
   56SOL     OW 1066   1.035   2.059   6.565
   56SOL    HW1 1067   1.045   2.060   6.665
   56SOL    HW2 1068   0.979   2.138   6.537
   57SOL     OW 1069   4.103   5.423   1.504
   57SOL    HW1 1070   4.014   5.449   1.466
   57SOL    HW2 1071   4.168   5.497   1.488
   58SOL     OW 1072   0.547   0.792   0.025
   58SOL    HW1 1073   0.534   0.801   0.124
   58SOL    HW2 1074   0.462   0.763   7.003
   59SOL     OW 1075   4.022   2.948   6.913
   59SOL    HW1 1076   4.045   2.966   6.817
   59SOL    HW2 1077   4.100   2.974   6.971
   60SOL     OW 1078   6.313   2.251   2.727
   60SOL    HW1 1079   6.341   2.232   2.633
   60SOL    HW2 1080   6.217   2.280   2.728
   61SOL     OW 1081   1.909   5.380   2.575
   61SOL    HW1 1082   1.874   5.369   2.668
   61SOL    HW2 1083   1.834   5.370   2.510
   62SOL     OW 1084   4.910   3.314   3.314
   62SOL    HW1 1085   4.884   3.218   3.322
   62SOL    HW2 1086   4.899   3.343   3.219
   63SOL     OW 1087   3.887   6.871   6.061
   63SOL    HW1 1088   3.805   6.819   6.086
   63SOL    HW2 1089   3.868   6.926   5.980
   64SOL     OW 1090   2.044   2.087   6.752
   64SOL    HW1 1091   2.003   2.104   6.842
   64SOL    HW2 1092   2.054   1.988   6.738
   65SOL     OW 1093   0.776   5.344   5.102
   65SOL    HW1 1094   0.855   5.373   5.155
   65SOL    HW2 1095   0.744   5.420   5.045
   66SOL     OW 1096   4.261   1.049   1.415
   66SOL    HW1 1097   4.167   1.068   1.444
   66SOL    HW2 1098   4.271   1.073   1.319
   67SOL     OW 1099   0.099   3.257   2.324
   67SOL    HW1 1100   0.017   3.232   2.375
   67SOL    HW2 1101   0.075   3.318   2.248
   68SOL     OW 1102   0.732   1.065   6.163
   68SOL    HW1 1103   0.714   0.967   6.157
   68SOL    HW2 1104   0.773   1.096   6.077
   69SOL     OW 1105   1.401   0.298   6.257
   69SOL    HW1 1106   1.444   0.383   6.228
   69SOL    HW2 1107   1.463   0.221   6.240
   70SOL     OW 1108   4.807   4.910   3.374
   70SOL    HW1 1109   4.741   4.925   3.300
   70SOL    HW2 1110   4.829   4.998   3.417
   71SOL     OW 1111   5.205   0.725   5.415
   71SOL    HW1 1112   5.198   0.662   5.337
   71SOL    HW2 1113   5.300   0.755   5.425
   72SOL     OW 1114   6.474   1.646   2.571
   72SOL    HW1 1115   6.565   1.621   2.537
   72SOL    HW2 1116   6.483   1.697   2.657
   73SOL     OW 1117   2.725   0.785   1.040
   73SOL    HW1 1118   2.696   0.880   1.028
   73SOL    HW2 1119   2.693   0.751   1.128
   74SOL     OW 1120   2.379   0.682   0.552
   74SOL    HW1 1121   2.444   0.714   0.483
   74SOL    HW2 1122   2.373   0.582   0.547
   75SOL     OW 1123   2.364   2.504   1.452
   75SOL    HW1 1124   2.384   2.497   1.354
   75SOL    HW2 1125   2.443   2.470   1.504
   76SOL     OW 1126   3.189   4.959   6.497
   76SOL    HW1 1127   3.252   5.037   6.504
   76SOL    HW2 1128   3.200   4.901   6.578
   77SOL     OW 1129   0.094   4.866   4.804
   77SOL    HW1 1130   0.183   4.873   4.850
   77SOL    HW2 1131   0.036   4.942   4.833
   78SOL     OW 1132   5.261   1.582   1.408
   78SOL    HW1 1133   5.284   1.499   1.357
   78SOL    HW2 1134   5.342   1.615   1.456
   79SOL     OW 1135   1.666   3.827   4.026
   79SOL    HW1 1136   1.652   3.830   4.125
   79SOL    HW2 1137   1.704   3.738   4.000
   80SOL     OW 1138   3.959   2.216   5.160
   80SOL    HW1 1139   4.009   2.286   5.108
   80SOL    HW2 1140   4.023   2.158   5.209
   81SOL     OW 1141   2.682   4.640   3.306
   81SOL    HW1 1142   2.622   4.563   3.288
   81SOL    HW2 1143   2.741   4.655   3.226
   82SOL     OW 1144   2.710   0.691   1.326
   82SOL    HW1 1145   2.659   0.621   1.275
   82SOL    HW2 1146   2.648   0.764   1.354
   83SOL     OW 1147   5.827   2.594   3.859
   83SOL    HW1 1148   5.878   2.560   3.780
   83SOL    HW2 1149   5.888   2.597   3.939
   84SOL     OW 1150   5.190   2.588   2.676
   84SOL    HW1 1151   5.233   2.505   2.639
   84SOL    HW2 1152   5.179   2.578   2.774
   85SOL     OW 1153   2.508   5.522   3.177
   85SOL    HW1 1154   2.546   5.539   3.268
   85SOL    HW2 1155   2.555   5.580   3.110
   86SOL     OW 1156   4.695   0.883   6.750
   86SOL    HW1 1157   4.769   0.824   6.718
   86SOL    HW2 1158   4.730   0.945   6.820
   87SOL     OW 1159   3.150   2.635   6.518
   87SOL    HW1 1160   3.117   2.713   6.571
   87SOL    HW2 1161   3.211   2.668   6.446
   88SOL     OW 1162   1.574   2.217   1.129
   88SOL    HW1 1163   1.540   2.274   1.203
   88SOL    HW2 1164   1.667   2.185   1.150
   89SOL     OW 1165   4.227   3.577   5.163
   89SOL    HW1 1166   4.318   3.577   5.204
   89SOL    HW2 1167   4.181   3.490   5.184
   90SOL     OW 1168   6.639   4.070   1.724
   90SOL    HW1 1169   6.696   4.105   1.650
   90SOL    HW2 1170   6.565   4.135   1.742
   91SOL     OW 1171   5.120   5.205   0.242
   91SOL    HW1 1172   5.220   5.202   0.230
   91SOL    HW2 1173   5.095   5.289   0.290
   92SOL     OW 1174   6.205   6.356   6.907
   92SOL    HW1 1175   6.211   6.447   6.949
   92SOL    HW2 1176   6.190   6.366   6.809
   93SOL     OW 1177   2.851   3.521   1.954
   93SOL    HW1 1178   2.857   3.502   2.052
   93SOL    HW2 1179   2.763   3.488   1.920
   94SOL     OW 1180   3.369   1.052   4.478
   94SOL    HW1 1181   3.328   0.984   4.417
   94SOL    HW2 1182   3.375   1.140   4.431
   95SOL     OW 1183   1.064   6.123   4.706
   95SOL    HW1 1184   1.124   6.172   4.769
   95SOL    HW2 1185   1.111   6.041   4.672
   96SOL     OW 1186   0.046   6.156   0.145
   96SOL    HW1 1187   0.040   6.172   0.244
   96SOL    HW2 1188   7.020   6.072   0.122
   97SOL     OW 1189   3.721   5.158   4.301
   97SOL    HW1 1190   3.807   5.107   4.307
   97SOL    HW2 1191   3.654   5.117   4.363
   98SOL     OW 1192   6.865   2.473   4.705
   98SOL    HW1 1193   6.773   2.510   4.693
   98SOL    HW2 1194   6.914   2.528   4.773
   99SOL     OW 1195   4.599   4.370   4.684
   99SOL    HW1 1196   4.532   4.422   4.736
   99SOL    HW2 1197   4.598   4.401   4.589
  100SOL     OW 1198   1.906   1.955   4.942
  100SOL    HW1 1199   1.817   1.957   4.986
  100SOL    HW2 1200   1.978   1.958   5.012
  101SOL     OW 1201   5.148   2.845   2.312
  101SOL    HW1 1202   5.144   2.935   2.269
  101SOL    HW2 1203   5.089   2.782   2.262
  102SOL     OW 1204   4.577   6.071   0.765
  102SOL    HW1 1205   4.562   6.066   0.864
  102SOL    HW2 1206   4.560   6.165   0.734
  103SOL     OW 1207   1.830   2.137   1.165
  103SOL    HW1 1208   1.868   2.062   1.219
  103SOL    HW2 1209   1.828   2.111   1.069
  104SOL     OW 1210   0.608   3.880   1.447
  104SOL    HW1 1211   0.661   3.821   1.386
  104SOL    HW2 1212   0.545   3.936   1.393
  105SOL     OW 1213   0.094   2.106   4.691
  105SOL    HW1 1214   0.115   2.013   4.660
  105SOL    HW2 1215   0.047   2.102   4.779
  106SOL     OW 1216   4.671   3.638   1.603
  106SOL    HW1 1217   4.714   3.549   1.590
  106SOL    HW2 1218   4.737   3.710   1.583
  107SOL     OW 1219   4.400   0.481   2.597
  107SOL    HW1 1220   4.477   0.543   2.587
  107SOL    HW2 1221   4.433   0.390   2.624
  108SOL     OW 1222   3.559   1.412   4.967
  108SOL    HW1 1223   3.597   1.364   5.045
  108SOL    HW2 1224   3.489   1.477   4.998
  109SOL     OW 1225   2.462   1.631   4.841
  109SOL    HW1 1226   2.500   1.559   4.782
  109SOL    HW2 1227   2.490   1.720   4.806
  110SOL     OW 1228   4.283   4.613   5.506
  110SOL    HW1 1229   4.235   4.593   5.591
  110SOL    HW2 1230   4.378   4.638   5.525
  111SOL     OW 1231   6.628   3.366   1.030
  111SOL    HW1 1232   6.717   3.320   1.030
  111SOL    HW2 1233   6.641   3.463   1.007
  112SOL     OW 1234   3.712   6.593   4.602
  112SOL    HW1 1235   3.725   6.685   4.563
  112SOL    HW2 1236   3.724   6.525   4.530
  113SOL     OW 1237   1.691   5.139   2.552
  113SOL    HW1 1238   1.769   5.146   2.614
  113SOL    HW2 1239   1.716   5.083   2.473
  114SOL     OW 1240   6.924   2.307   1.655
  114SOL    HW1 1241   6.947   2.245   1.730
  114SOL    HW2 1242   6.836   2.350   1.673
  115SOL     OW 1243   4.305   1.211   3.065
  115SOL    HW1 1244   4.249   1.285   3.028
  115SOL    HW2 1245   4.253   1.159   3.132
  116SOL     OW 1246   5.986   5.995   6.812
  116SOL    HW1 1247   5.952   6.039   6.729
  116SOL    HW2 1248   5.935   5.911   6.829
  117SOL     OW 1249   2.446   1.313   0.499
  117SOL    HW1 1250   2.456   1.214   0.503
  117SOL    HW2 1251   2.350   1.338   0.514
  118SOL     OW 1252   1.226   2.508   1.755
  118SOL    HW1 1253   1.200   2.447   1.831
  118SOL    HW2 1254   1.296   2.464   1.700
  119SOL     OW 1255   5.551   5.301   4.896
  119SOL    HW1 1256   5.527   5.319   4.801
  119SOL    HW2 1257   5.547   5.386   4.948
  120SOL     OW 1258   4.469   1.725   4.346
  120SOL    HW1 1259   4.514   1.638   4.327
  120SOL    HW2 1260   4.442   1.728   4.443
  121SOL     OW 1261   0.376   5.169   6.010
  121SOL    HW1 1262   0.444   5.097   6.025
  121SOL    HW2 1263   0.350   5.209   6.098
  122SOL     OW 1264   0.536   4.704   5.962
  122SOL    HW1 1265   0.508   4.694   5.867
  122SOL    HW2 1266   0.589   4.623   5.990
  123SOL     OW 1267   0.972   2.435   0.881
  123SOL    HW1 1268   1.005   2.412   0.972
  123SOL    HW2 1269   0.872   2.437   0.881
  124SOL     OW 1270   1.942   3.625   6.961
  124SOL    HW1 1271   1.986   3.701   6.912
  124SOL    HW2 1272   1.885   3.573   6.898
  125SOL     OW 1273   4.152   2.692   0.371
  125SOL    HW1 1274   4.093   2.768   0.397
  125SOL    HW2 1275   4.131   2.612   0.427
  126SOL     OW 1276   3.591   3.211   5.084
  126SOL    HW1 1277   3.600   3.185   5.180
  126SOL    HW2 1278   3.507   3.171   5.046
  127SOL     OW 1279   0.264   4.782   6.071
  127SOL    HW1 1280   0.220   4.715   6.010
  127SOL    HW2 1281   0.352   4.810   6.032
  128SOL     OW 1282   5.128   4.090   5.689
  128SOL    HW1 1283   5.159   4.167   5.633
  128SOL    HW2 1284   5.137   4.114   5.786
  129SOL     OW 1285   1.302   5.499   2.156
  129SOL    HW1 1286   1.286   5.460   2.246
  129SOL    HW2 1287   1.400   5.509   2.140
  130SOL     OW 1288   6.478   3.474   4.987
  130SOL    HW1 1289   6.576   3.487   5.000
  130SOL    HW2 1290   6.462   3.426   4.901
  131SOL     OW 1291   0.503   3.551   2.675
  131SOL    HW1 1292   0.513   3.476   2.609
  131SOL    HW2 1293   0.488   3.514   2.766
  132SOL     OW 1294   4.030   3.181   2.024
  132SOL    HW1 1295   4.085   3.264   2.029
  132SOL    HW2 1296   3.934   3.205   2.010
  133SOL     OW 1297   4.062   4.222   5.539
  133SOL    HW1 1298   4.030   4.308   5.581
  133SOL    HW2 1299   4.068   4.234   5.440
  134SOL     OW 1300   6.939   1.603   6.622
  134SOL    HW1 1301   6.931   1.697   6.590
  134SOL    HW2 1302   6.998   1.600   6.703
  135SOL     OW 1303   4.637   5.740   3.988
  135SOL    HW1 1304   4.722   5.725   4.039
  135SOL    HW2 1305   4.559   5.709   4.043
  136SOL     OW 1306   4.013   6.067   6.177
  136SOL    HW1 1307   3.915   6.061   6.200
  136SOL    HW2 1308   4.067   6.069   6.261
  137SOL     OW 1309   2.061   4.433   0.318
  137SOL    HW1 1310   2.133   4.474   0.262
  137SOL    HW2 1311   2.095   4.346   0.356
  138SOL     OW 1312   0.685   5.194   1.058
  138SOL    HW1 1313   0.690   5.133   1.138
  138SOL    HW2 1314   0.601   5.247   1.061
  139SOL     OW 1315   0.663   0.740   1.229
  139SOL    HW1 1316   0.643   0.729   1.327
  139SOL    HW2 1317   0.743   0.686   1.205
  140SOL     OW 1318   2.351   6.842   2.269
  140SOL    HW1 1319   2.300   6.926   2.253
  140SOL    HW2 1320   2.372   6.834   2.366
  141SOL     OW 1321   2.185   1.727   0.082
  141SOL    HW1 1322   2.205   1.818   0.120
  141SOL    HW2 1323   2.231   1.718   7.015
  142SOL     OW 1324   2.160   4.299   6.294
  142SOL    HW1 1325   2.143   4.348   6.379
  142SOL    HW2 1326   2.142   4.360   6.216
  143SOL     OW 1327   5.472   6.268   1.916
  143SOL    HW1 1328   5.553   6.323   1.896
  143SOL    HW2 1329   5.465   6.254   2.014
  144SOL     OW 1330   2.156   5.060   3.209
  144SOL    HW1 1331   2.242   5.071   3.257
  144SOL    HW2 1332   2.101   4.989   3.253
  145SOL     OW 1333   6.461   6.295   3.187
  145SOL    HW1 1334   6.554   6.331   3.194
  145SOL    HW2 1335   6.451   6.245   3.101
  146SOL     OW 1336   6.721   0.908   4.549
  146SOL    HW1 1337   6.754   0.828   4.601
  146SOL    HW2 1338   6.684   0.976   4.612
  147SOL     OW 1339   6.307   0.156   4.535
  147SOL    HW1 1340   6.218   0.201   4.537
  147SOL    HW2 1341   6.350   0.170   4.446
  148SOL     OW 1342   1.415   6.588   3.004
  148SOL    HW1 1343   1.445   6.655   3.072
  148SOL    HW2 1344   1.397   6.634   2.917
  149SOL     OW 1345   1.835   2.208   4.804
  149SOL    HW1 1346   1.742   2.191   4.770
  149SOL    HW2 1347   1.875   2.121   4.835
  150SOL     OW 1348   5.237   2.879   4.638
  150SOL    HW1 1349   5.232   2.952   4.569
  150SOL    HW2 1350   5.248   2.791   4.592
  151SOL     OW 1351   5.800   2.801   1.571
  151SOL    HW1 1352   5.705   2.833   1.572
  151SOL    HW2 1353   5.849   2.841   1.648
  152SOL     OW 1354   6.208   2.301   0.581
  152SOL    HW1 1355   6.222   2.257   0.669
  152SOL    HW2 1356   6.235   2.239   0.507
  153SOL     OW 1357   2.318   1.847   3.829
  153SOL    HW1 1358   2.407   1.809   3.804
  153SOL    HW2 1359   2.250   1.822   3.761
  154SOL     OW 1360   0.097   1.228   3.870
  154SOL    HW1 1361   0.093   1.190   3.963
  154SOL    HW2 1362   0.006   1.226   3.829
  155SOL     OW 1363   5.799   5.143   3.274
  155SOL    HW1 1364   5.809   5.054   3.230
  155SOL    HW2 1365   5.722   5.140   3.338
  156SOL     OW 1366   4.115   0.168   1.136
  156SOL    HW1 1367   4.169   0.106   1.193
  156SOL    HW2 1368   4.170   0.199   1.059
  157SOL     OW 1369   5.034   0.604   0.923
  157SOL    HW1 1370   4.982   0.549   0.858
  157SOL    HW2 1371   5.007   0.700   0.916
  158SOL     OW 1372   1.136   2.553   5.680
  158SOL    HW1 1373   1.127   2.498   5.763
  158SOL    HW2 1374   1.051   2.547   5.627
  159SOL     OW 1375   0.224   4.916   6.794
  159SOL    HW1 1376   0.320   4.896   6.776
  159SOL    HW2 1377   0.193   4.990   6.735
  160SOL     OW 1378   3.967   0.330   1.829
  160SOL    HW1 1379   3.883   0.373   1.796
  160SOL    HW2 1380   3.964   0.232   1.811
  161SOL     OW 1381   5.969   6.853   0.734
  161SOL    HW1 1382   5.968   6.895   0.825
  161SOL    HW2 1383   6.062   6.857   0.696
  162SOL     OW 1384   4.477   6.996   5.104
  162SOL    HW1 1385   4.396   6.963   5.055
  162SOL    HW2 1386   4.522   0.047   5.050
  163SOL     OW 1387   1.191   3.777   2.947
  163SOL    HW1 1388   1.156   3.854   2.894
  163SOL    HW2 1389   1.162   3.786   3.042
  164SOL     OW 1390   2.086   2.166   2.707
  164SOL    HW1 1391   2.064   2.073   2.680
  164SOL    HW2 1392   2.033   2.190   2.789
  165SOL     OW 1393   0.424   5.965   5.185
  165SOL    HW1 1394   0.351   5.974   5.118
  165SOL    HW2 1395   0.396   6.007   5.271
  166SOL     OW 1396   0.882   4.799   4.204
  166SOL    HW1 1397   0.969   4.847   4.219
  166SOL    HW2 1398   0.851   4.758   4.289
  167SOL     OW 1399   6.978   1.246   3.164
  167SOL    HW1 1400   0.023   1.320   3.174
  167SOL    HW2 1401   6.898   1.279   3.113
  168SOL     OW 1402   3.447   4.080   4.445
  168SOL    HW1 1403   3.347   4.081   4.445
  168SOL    HW2 1404   3.481   4.124   4.528
  169SOL     OW 1405   5.048   2.638   5.952
  169SOL    HW1 1406   5.056   2.544   5.918
  169SOL    HW2 1407   5.042   2.700   5.874
  170SOL     OW 1408   0.151   5.456   2.803
  170SOL    HW1 1409   0.205   5.451   2.887
  170SOL    HW2 1410   0.210   5.482   2.727
  171SOL     OW 1411   3.620   2.817   1.075
  171SOL    HW1 1412   3.641   2.854   1.165
  171SOL    HW2 1413   3.705   2.806   1.023
  172SOL     OW 1414   1.381   0.693   0.208
  172SOL    HW1 1415   1.462   0.654   0.250
  172SOL    HW2 1416   1.322   0.619   0.175
  173SOL     OW 1417   5.778   0.741   5.131
  173SOL    HW1 1418   5.717   0.713   5.057
  173SOL    HW2 1419   5.765   0.680   5.209
  174SOL     OW 1420   6.806   4.068   5.034
  174SOL    HW1 1421   6.853   4.147   5.075
  174SOL    HW2 1422   6.707   4.081   5.041
  175SOL     OW 1423   0.860   5.228   2.583
  175SOL    HW1 1424   0.947   5.188   2.555
  175SOL    HW2 1425   0.805   5.249   2.502
  176SOL     OW 1426   6.116   4.209   0.863
  176SOL    HW1 1427   6.207   4.173   0.843
  176SOL    HW2 1428   6.047   4.143   0.833
  177SOL     OW 1429   5.754   2.741   3.246
  177SOL    HW1 1430   5.761   2.841   3.237
  177SOL    HW2 1431   5.703   2.705   3.168
  178SOL     OW 1432   1.760   5.312   4.970
  178SOL    HW1 1433   1.802   5.276   5.053
  178SOL    HW2 1434   1.794   5.405   4.952
  179SOL     OW 1435   3.100   4.075   2.123
  179SOL    HW1 1436   3.108   4.162   2.172
  179SOL    HW2 1437   3.140   4.083   2.032
  180SOL     OW 1438   4.301   0.637   6.259
  180SOL    HW1 1439   4.400   0.625   6.263
  180SOL    HW2 1440   4.256   0.556   6.297
  181SOL     OW 1441   3.484   0.219   5.627
  181SOL    HW1 1442   3.397   0.189   5.666
  181SOL    HW2 1443   3.509   0.307   5.668
  182SOL     OW 1444   3.018   2.829   5.688
  182SOL    HW1 1445   2.973   2.909   5.649
  182SOL    HW2 1446   2.962   2.748   5.670
  183SOL     OW 1447   2.299   1.251   3.084
  183SOL    HW1 1448   2.368   1.257   3.011
  183SOL    HW2 1449   2.303   1.160   3.125
  184SOL     OW 1450   5.554   6.566   3.726
  184SOL    HW1 1451   5.623   6.529   3.787
  184SOL    HW2 1452   5.584   6.555   3.631
  185SOL     OW 1453   0.268   5.902   5.778
  185SOL    HW1 1454   0.197   5.833   5.780
  185SOL    HW2 1455   0.244   5.973   5.711
  186SOL     OW 1456   3.288   5.497   6.934
  186SOL    HW1 1457   3.201   5.451   6.915
  186SOL    HW2 1458   3.311   5.558   6.858
  187SOL     OW 1459   3.151   5.047   0.403
  187SOL    HW1 1460   3.065   4.997   0.402
  187SOL    HW2 1461   3.173   5.077   0.310
  188SOL     OW 1462   1.655   3.911   4.283
  188SOL    HW1 1463   1.731   3.963   4.323
  188SOL    HW2 1464   1.569   3.943   4.322
  189SOL     OW 1465   6.080   4.226   6.018
  189SOL    HW1 1466   6.099   4.194   6.111
  189SOL    HW2 1467   6.130   4.170   5.952
  190SOL     OW 1468   5.826   6.642   6.767
  190SOL    HW1 1469   5.870   6.583   6.699
  190SOL    HW2 1470   5.895   6.692   6.818
  191SOL     OW 1471   2.211   3.607   6.187
  191SOL    HW1 1472   2.274   3.679   6.158
  191SOL    HW2 1473   2.119   3.628   6.153
  192SOL     OW 1474   1.074   0.063   1.079
  192SOL    HW1 1475   1.057   0.036   0.985
  192SOL    HW2 1476   1.079   0.163   1.085
  193SOL     OW 1477   3.013   6.412   1.718
  193SOL    HW1 1478   3.021   6.398   1.817
  193SOL    HW2 1479   3.091   6.369   1.672
  194SOL     OW 1480   4.153   6.426   3.310
  194SOL    HW1 1481   4.118   6.333   3.320
  194SOL    HW2 1482   4.159   6.470   3.400
  195SOL     OW 1483   3.055   1.047   1.325
  195SOL    HW1 1484   3.155   1.056   1.330
  195SOL    HW2 1485   3.024   0.987   1.399
  196SOL     OW 1486   4.150   3.117   1.172
  196SOL    HW1 1487   4.066   3.145   1.220
  196SOL    HW2 1488   4.185   3.033   1.213
  197SOL     OW 1489   0.717   6.084   1.390
  197SOL    HW1 1490   0.680   5.995   1.362
  197SOL    HW2 1491   0.672   6.156   1.338
  198SOL     OW 1492   6.077   0.215   5.814
  198SOL    HW1 1493   6.078   0.310   5.845
  198SOL    HW2 1494   6.170   0.178   5.817
  199SOL     OW 1495   1.735   1.095   3.187
  199SOL    HW1 1496   1.676   1.032   3.237
  199SOL    HW2 1497   1.759   1.056   3.099
  200SOL     OW 1498   1.471   3.815   3.301
  200SOL    HW1 1499   1.556   3.836   3.350
  200SOL    HW2 1500   1.436   3.727   3.331
  201SOL     OW 1501   4.903   0.929   6.970
  201SOL    HW1 1502   5.000   0.943   6.992
  201SOL    HW2 1503   4.862   1.016   6.943
  202SOL     OW 1504   4.408   0.736   2.905
  202SOL    HW1 1505   4.382   0.786   2.988
  202SOL    HW2 1506   4.392   0.638   2.919
  203SOL     OW 1507   5.919   3.010   0.448
  203SOL    HW1 1508   5.839   2.954   0.469
  203SOL    HW2 1509   5.926   3.084   0.516
  204SOL     OW 1510   2.468   5.947   0.791
  204SOL    HW1 1511   2.466   5.895   0.877
  204SOL    HW2 1512   2.421   6.034   0.804
  205SOL     OW 1513   5.270   0.334   1.190
  205SOL    HW1 1514   5.192   0.394   1.177
  205SOL    HW2 1515   5.305   0.303   1.102
  206SOL     OW 1516   0.150   6.045   1.468
  206SOL    HW1 1517   0.212   6.037   1.545
  206SOL    HW2 1518   0.057   6.063   1.501
  207SOL     OW 1519   6.551   2.509   5.876
  207SOL    HW1 1520   6.561   2.412   5.857
  207SOL    HW2 1521   6.510   2.521   5.967
  208SOL     OW 1522   4.445   3.615   0.723
  208SOL    HW1 1523   4.349   3.600   0.700
  208SOL    HW2 1524   4.476   3.542   0.784
  209SOL     OW 1525   6.459   0.087   4.326
  209SOL    HW1 1526   6.442   0.055   4.233
  209SOL    HW2 1527   6.519   0.021   4.373
  210SOL     OW 1528   4.736   1.721   0.145
  210SOL    HW1 1529   4.809   1.790   0.144
  210SOL    HW2 1530   4.683   1.730   0.229
  211SOL     OW 1531   0.052   4.072   2.561
  211SOL    HW1 1532   0.076   4.164   2.593
  211SOL    HW2 1533   0.050   4.070   2.461
  212SOL     OW 1534   1.549   5.377   5.130
  212SOL    HW1 1535   1.472   5.328   5.170
  212SOL    HW2 1536   1.586   5.325   5.053
  213SOL     OW 1537   4.700   2.683   1.242
  213SOL    HW1 1538   4.639   2.684   1.164
  213SOL    HW2 1539   4.719   2.588   1.269
  214SOL     OW 1540   0.030   6.030   4.086
  214SOL    HW1 1541   7.016   5.937   4.078
  214SOL    HW2 1542   0.106   6.032   4.151
  215SOL     OW 1543   4.034   3.700   3.765
  215SOL    HW1 1544   3.938   3.692   3.735
  215SOL    HW2 1545   4.094   3.669   3.691
  216SOL     OW 1546   3.542   6.942   5.471
  216SOL    HW1 1547   3.452   6.972   5.502
  216SOL    HW2 1548   3.605   7.020   5.469
  217SOL     OW 1549   6.601   2.208   5.338
  217SOL    HW1 1550   6.663   2.283   5.315
  217SOL    HW2 1551   6.508   2.232   5.311
  218SOL     OW 1552   2.846   4.403   6.026
  218SOL    HW1 1553   2.901   4.483   6.002
  218SOL    HW2 1554   2.768   4.396   5.964
  219SOL     OW 1555   3.373   5.912   6.587
  219SOL    HW1 1556   3.449   5.940   6.646
  219SOL    HW2 1557   3.408   5.853   6.513
  220SOL     OW 1558   1.501   4.876   0.389
  220SOL    HW1 1559   1.426   4.831   0.340
  220SOL    HW2 1560   1.526   4.961   0.342
  221SOL     OW 1561   6.573   3.796   4.976
  221SOL    HW1 1562   6.666   3.777   5.009
  221SOL    HW2 1563   6.539   3.717   4.926
  222SOL     OW 1564   1.764   6.943   3.856
  222SOL    HW1 1565   1.720   6.985   3.935
  222SOL    HW2 1566   1.851   6.902   3.884
  223SOL     OW 1567   5.290   5.373   2.708
  223SOL    HW1 1568   5.302   5.350   2.804
  223SOL    HW2 1569   5.193   5.381   2.686
  224SOL     OW 1570   5.212   4.114   2.943
  224SOL    HW1 1571   5.280   4.175   2.901
  224SOL    HW2 1572   5.163   4.064   2.871
  225SOL     OW 1573   4.595   5.879   2.200
  225SOL    HW1 1574   4.504   5.921   2.198
  225SOL    HW2 1575   4.604   5.817   2.122
  226SOL     OW 1576   1.634   5.721   2.363
  226SOL    HW1 1577   1.682   5.734   2.276
  226SOL    HW2 1578   1.696   5.679   2.429
  227SOL     OW 1579   1.041   4.074   3.596
  227SOL    HW1 1580   1.084   4.141   3.658
  227SOL    HW2 1581   1.111   4.038   3.534
  228SOL     OW 1582   4.117   6.142   3.400
  228SOL    HW1 1583   4.144   6.149   3.496
  228SOL    HW2 1584   4.059   6.061   3.388
  229SOL     OW 1585   5.786   6.044   2.631
  229SOL    HW1 1586   5.790   6.006   2.723
  229SOL    HW2 1587   5.709   6.107   2.623
  230SOL     OW 1588   1.439   4.810   5.778
  230SOL    HW1 1589   1.467   4.735   5.839
  230SOL    HW2 1590   1.447   4.780   5.683
  231SOL     OW 1591   0.597   1.681   6.195
  231SOL    HW1 1592   0.504   1.647   6.184
  231SOL    HW2 1593   0.613   1.755   6.130
  232SOL     OW 1594   1.637   3.427   6.160
  232SOL    HW1 1595   1.605   3.437   6.066
  232SOL    HW2 1596   1.694   3.506   6.184
  233SOL     OW 1597   3.715   0.098   0.042
  233SOL    HW1 1598   3.717   0.013   0.093
  233SOL    HW2 1599   3.807   0.120   0.009
  234SOL     OW 1600   1.713   5.009   6.868
  234SOL    HW1 1601   1.672   5.040   6.954
  234SOL    HW2 1602   1.801   5.053   6.855
  235SOL     OW 1603   3.784   3.194   6.188
  235SOL    HW1 1604   3.811   3.098   6.186
  235SOL    HW2 1605   3.861   3.250   6.219
  236SOL     OW 1606   7.018   0.790   6.259
  236SOL    HW1 1607   6.983   0.704   6.298
  236SOL    HW2 1608   7.005   0.789   6.160
  237SOL     OW 1609   6.105   6.925   2.126
  237SOL    HW1 1610   6.083   6.970   2.213
  237SOL    HW2 1611   6.204   6.930   2.110
  238SOL     OW 1612   0.994   2.180   3.309
  238SOL    HW1 1613   1.087   2.206   3.333
  238SOL    HW2 1614   0.989   2.158   3.211
  239SOL     OW 1615   6.452   4.877   0.331
  239SOL    HW1 1616   6.354   4.860   0.330
  239SOL    HW2 1617   6.470   4.974   0.318
  240SOL     OW 1618   0.359   2.443   4.146
  240SOL    HW1 1619   0.335   2.433   4.050
  240SOL    HW2 1620   0.311   2.522   4.184
  241SOL     OW 1621   6.511   2.376   4.924
  241SOL    HW1 1622   6.446   2.403   4.994
  241SOL    HW2 1623   6.552   2.458   4.883
  242SOL     OW 1624   2.761   2.369   3.433
  242SOL    HW1 1625   2.848   2.336   3.396
  242SOL    HW2 1626   2.708   2.291   3.466
  243SOL     OW 1627   4.693   1.458   6.790
  243SOL    HW1 1628   4.770   1.489   6.734
  243SOL    HW2 1629   4.611   1.449   6.732
  244SOL     OW 1630   0.930   1.080   5.917
  244SOL    HW1 1631   0.989   1.013   5.961
  244SOL    HW2 1632   0.892   1.040   5.833
  245SOL     OW 1633   5.333   1.862   4.182
  245SOL    HW1 1634   5.309   1.921   4.259
  245SOL    HW2 1635   5.251   1.835   4.133
  246SOL     OW 1636   5.800   3.758   4.406
  246SOL    HW1 1637   5.729   3.795   4.466
  246SOL    HW2 1638   5.842   3.832   4.354
  247SOL     OW 1639   2.246   0.664   3.025
  247SOL    HW1 1640   2.191   0.744   3.047
  247SOL    HW2 1641   2.243   0.648   2.927
  248SOL     OW 1642   0.200   2.806   3.130
  248SOL    HW1 1643   0.206   2.847   3.039
  248SOL    HW2 1644   0.113   2.757   3.139
  249SOL     OW 1645   2.195   6.053   4.968
  249SOL    HW1 1646   2.260   6.061   4.892
  249SOL    HW2 1647   2.230   5.987   5.035
  250SOL     OW 1648   5.397   2.426   6.733
  250SOL    HW1 1649   5.309   2.473   6.746
  250SOL    HW2 1650   5.384   2.327   6.746
  251SOL     OW 1651   2.146   0.270   1.387
  251SOL    HW1 1652   2.169   0.193   1.446
  251SOL    HW2 1653   2.159   0.356   1.438
  252SOL     OW 1654   6.830   2.464   0.013
  252SOL    HW1 1655   6.839   2.491   0.109
  252SOL    HW2 1656   6.764   2.524   6.989
  253SOL     OW 1657   2.201   4.953   5.793
  253SOL    HW1 1658   2.268   5.024   5.816
  253SOL    HW2 1659   2.183   4.955   5.695
  254SOL     OW 1660   4.445   3.227   6.180
  254SOL    HW1 1661   4.365   3.287   6.188
  254SOL    HW2 1662   4.439   3.154   6.248
  255SOL     OW 1663   4.282   2.348   2.325
  255SOL    HW1 1664   4.189   2.319   2.304
  255SOL    HW2 1665   4.299   2.339   2.423
  256SOL     OW 1666   0.281   6.495   1.239
  256SOL    HW1 1667   0.257   6.403   1.270
  256SOL    HW2 1668   0.356   6.489   1.173
  257SOL     OW 1669   3.150   5.771   6.454
  257SOL    HW1 1670   3.198   5.852   6.420
  257SOL    HW2 1671   3.075   5.748   6.392
  258SOL     OW 1672   4.862   5.185   4.808
  258SOL    HW1 1673   4.774   5.233   4.800
  258SOL    HW2 1674   4.871   5.119   4.734
  259SOL     OW 1675   0.366   1.667   2.448
  259SOL    HW1 1676   0.288   1.729   2.441
  259SOL    HW2 1677   0.359   1.597   2.377
  260SOL     OW 1678   6.712   6.600   5.732
  260SOL    HW1 1679   6.670   6.619   5.820
  260SOL    HW2 1680   6.806   6.633   5.731
  261SOL     OW 1681   0.882   1.040   4.182
  261SOL    HW1 1682   0.925   1.049   4.092
  261SOL    HW2 1683   0.928   1.102   4.247
  262SOL     OW 1684   1.926   5.252   1.111
  262SOL    HW1 1685   1.975   5.338   1.095
  262SOL    HW2 1686   1.988   5.184   1.149
  263SOL     OW 1687   0.815   4.845   4.974
  263SOL    HW1 1688   0.771   4.894   5.049
  263SOL    HW2 1689   0.884   4.783   5.011
  264SOL     OW 1690   3.628   3.774   1.239
  264SOL    HW1 1691   3.652   3.859   1.286
  264SOL    HW2 1692   3.712   3.731   1.205
  265SOL     OW 1693   4.433   5.645   4.154
  265SOL    HW1 1694   4.397   5.593   4.076
  265SOL    HW2 1695   4.407   5.600   4.239
  266SOL     OW 1696   4.444   3.445   0.115
  266SOL    HW1 1697   4.413   3.381   0.043
  266SOL    HW2 1698   4.387   3.527   0.113
  267SOL     OW 1699   2.462   2.206   6.191
  267SOL    HW1 1700   2.555   2.207   6.155
  267SOL    HW2 1701   2.422   2.297   6.183
  268SOL     OW 1702   1.538   3.821   3.052
  268SOL    HW1 1703   1.556   3.911   3.011
  268SOL    HW2 1704   1.493   3.833   3.140
  269SOL     OW 1705   2.861   1.353   6.088
  269SOL    HW1 1706   2.863   1.335   5.990
  269SOL    HW2 1707   2.814   1.440   6.105
  270SOL     OW 1708   5.839   5.172   4.959
  270SOL    HW1 1709   5.747   5.193   4.925
  270SOL    HW2 1710   5.887   5.115   4.892
  271SOL     OW 1711   2.482   1.457   6.770
  271SOL    HW1 1712   2.568   1.419   6.803
  271SOL    HW2 1713   2.465   1.425   6.676
  272SOL     OW 1714   5.637   4.686   6.657
  272SOL    HW1 1715   5.681   4.772   6.681
  272SOL    HW2 1716   5.707   4.616   6.642
  273SOL     OW 1717   0.662   6.241   3.962
  273SOL    HW1 1718   0.650   6.248   4.061
  273SOL    HW2 1719   0.600   6.172   3.926
  274SOL     OW 1720   5.525   2.733   2.465
  274SOL    HW1 1721   5.530   2.832   2.451
  274SOL    HW2 1722   5.445   2.696   2.417
  275SOL     OW 1723   5.787   5.271   5.459
  275SOL    HW1 1724   5.712   5.240   5.400
  275SOL    HW2 1725   5.857   5.200   5.464
  276SOL     OW 1726   1.330   0.128   4.419
  276SOL    HW1 1727   1.311   0.201   4.354
  276SOL    HW2 1728   1.428   0.130   4.443
  277SOL     OW 1729   4.179   3.452   5.639
  277SOL    HW1 1730   4.247   3.464   5.567
  277SOL    HW2 1731   4.184   3.529   5.703
  278SOL     OW 1732   5.823   4.727   2.077
  278SOL    HW1 1733   5.919   4.736   2.050
  278SOL    HW2 1734   5.816   4.661   2.153
  279SOL     OW 1735   0.443   3.494   4.531
  279SOL    HW1 1736   0.480   3.524   4.443
  279SOL    HW2 1737   0.498   3.417   4.565
  280SOL     OW 1738   4.691   1.780   2.911
  280SOL    HW1 1739   4.791   1.774   2.909
  280SOL    HW2 1740   4.652   1.691   2.889
  281SOL     OW 1741   5.060   5.297   5.527
  281SOL    HW1 1742   5.026   5.257   5.443
  281SOL    HW2 1743   5.142   5.350   5.508
  282SOL     OW 1744   0.370   2.336   0.155
  282SOL    HW1 1745   0.301   2.394   0.111
  282SOL    HW2 1746   0.359   2.242   0.124
  283SOL     OW 1747   5.986   3.907   2.438
  283SOL    HW1 1748   6.022   3.822   2.401
  283SOL    HW2 1749   6.062   3.963   2.473
  284SOL     OW 1750   5.561   6.831   3.212
  284SOL    HW1 1751   5.636   6.773   3.180
  284SOL    HW2 1752   5.536   6.896   3.140
  285SOL     OW 1753   4.413   6.141   6.468
  285SOL    HW1 1754   4.395   6.159   6.565
  285SOL    HW2 1755   4.450   6.223   6.425
  286SOL     OW 1756   3.366   5.407   5.310
  286SOL    HW1 1757   3.287   5.403   5.250
  286SOL    HW2 1758   3.430   5.475   5.275
  287SOL     OW 1759   3.947   6.287   0.897
  287SOL    HW1 1760   3.874   6.233   0.855
  287SOL    HW2 1761   4.027   6.228   0.912
  288SOL     OW 1762   4.013   0.943   0.343
  288SOL    HW1 1763   4.074   0.864   0.345
  288SOL    HW2 1764   3.919   0.913   0.353
  289SOL     OW 1765   5.262   4.888   5.063
  289SOL    HW1 1766   5.253   4.884   5.163
  289SOL    HW2 1767   5.338   4.950   5.040
  290SOL     OW 1768   3.018   0.698   5.172
  290SOL    HW1 1769   3.082   0.663   5.104
  290SOL    HW2 1770   2.936   0.732   5.126
  291SOL     OW 1771   5.765   1.402   4.930
  291SOL    HW1 1772   5.748   1.388   5.027
  291SOL    HW2 1773   5.825   1.328   4.896
  292SOL     OW 1774   2.103   0.822   3.687
  292SOL    HW1 1775   2.173   0.752   3.704
  292SOL    HW2 1776   2.013   0.779   3.679
  293SOL     OW 1777   5.498   1.205   3.206
  293SOL    HW1 1778   5.450   1.227   3.291
  293SOL    HW2 1779   5.440   1.149   3.148
  294SOL     OW 1780   6.664   1.314   6.952
  294SOL    HW1 1781   6.692   1.344   6.861
  294SOL    HW2 1782   6.602   1.382   6.992
  295SOL     OW 1783   6.796   0.447   4.752
  295SOL    HW1 1784   6.750   0.364   4.722
  295SOL    HW2 1785   6.799   0.450   4.852
  296SOL     OW 1786   6.814   1.828   0.092
  296SOL    HW1 1787   6.895   1.875   0.057
  296SOL    HW2 1788   6.827   1.806   0.189
  297SOL     OW 1789   4.917   3.515   3.520
  297SOL    HW1 1790   4.916   3.433   3.463
  297SOL    HW2 1791   4.915   3.488   3.616
  298SOL     OW 1792   4.088   6.940   5.192
  298SOL    HW1 1793   4.014   6.887   5.234
  298SOL    HW2 1794   4.073   0.016   5.211
  299SOL     OW 1795   0.408   1.096   6.018
  299SOL    HW1 1796   0.436   1.022   5.956
  299SOL    HW2 1797   0.342   1.155   5.972
  300SOL     OW 1798   4.383   6.382   4.712
  300SOL    HW1 1799   4.314   6.432   4.660
  300SOL    HW2 1800   4.346   6.295   4.742
  301SOL     OW 1801   6.857   6.503   5.345
  301SOL    HW1 1802   6.785   6.558   5.388
  301SOL    HW2 1803   6.935   6.561   5.324
  302SOL     OW 1804   0.113   0.148   1.536
  302SOL    HW1 1805   0.068   0.231   1.505
  302SOL    HW2 1806   0.117   0.147   1.636
  303SOL     OW 1807   4.832   5.467   2.853
  303SOL    HW1 1808   4.825   5.567   2.849
  303SOL    HW2 1809   4.875   5.434   2.769
  304SOL     OW 1810   1.033   1.172   3.943
  304SOL    HW1 1811   0.957   1.223   3.983
  304SOL    HW2 1812   1.114   1.181   4.001
  305SOL     OW 1813   2.633   1.787   1.231
  305SOL    HW1 1814   2.566   1.719   1.204
  305SOL    HW2 1815   2.712   1.781   1.170
  306SOL     OW 1816   0.273   6.779   2.726
  306SOL    HW1 1817   0.356   6.734   2.758
  306SOL    HW2 1818   0.265   6.766   2.627
  307SOL     OW 1819   4.080   3.797   4.713
  307SOL    HW1 1820   4.120   3.726   4.770
  307SOL    HW2 1821   4.117   3.790   4.620
  308SOL     OW 1822   6.114   2.555   1.323
  308SOL    HW1 1823   6.208   2.551   1.291
  308SOL    HW2 1824   6.088   2.465   1.360
  309SOL     OW 1825   1.972   4.757   0.115
  309SOL    HW1 1826   2.013   4.715   0.196
  309SOL    HW2 1827   1.883   4.715   0.098
  310SOL     OW 1828   4.912   6.335   4.975
  310SOL    HW1 1829   5.012   6.335   4.971
  310SOL    HW2 1830   4.878   6.426   4.950
  311SOL     OW 1831   1.867   6.060   2.185
  311SOL    HW1 1832   1.897   6.110   2.266
  311SOL    HW2 1833   1.939   6.059   2.117
  312SOL     OW 1834   3.320   0.834   4.306
  312SOL    HW1 1835   3.336   0.837   4.207
  312SOL    HW2 1836   3.405   0.812   4.353
  313SOL     OW 1837   3.279   3.535   3.396
  313SOL    HW1 1838   3.231   3.574   3.318
  313SOL    HW2 1839   3.363   3.587   3.413
  314SOL     OW 1840   2.436   4.469   6.077
  314SOL    HW1 1841   2.337   4.464   6.062
  314SOL    HW2 1842   2.456   4.450   6.173
  315SOL     OW 1843   6.229   6.815   4.827
  315SOL    HW1 1844   6.230   6.723   4.787
  315SOL    HW2 1845   6.299   6.821   4.898
  316SOL     OW 1846   3.990   1.321   5.145
  316SOL    HW1 1847   3.957   1.328   5.051
  316SOL    HW2 1848   4.090   1.326   5.146
  317SOL     OW 1849   0.824   1.857   1.618
  317SOL    HW1 1850   0.818   1.938   1.561
  317SOL    HW2 1851   0.811   1.882   1.714
  318SOL     OW 1852   1.045   1.166   3.661
  318SOL    HW1 1853   1.049   1.158   3.761
  318SOL    HW2 1854   0.960   1.210   3.634
  319SOL     OW 1855   0.560   2.008   2.301
  319SOL    HW1 1856   0.603   2.095   2.326
  319SOL    HW2 1857   0.619   1.932   2.329
  320SOL     OW 1858   5.142   0.953   0.080
  320SOL    HW1 1859   5.116   0.974   0.174
  320SOL    HW2 1860   5.175   0.859   0.075
  321SOL     OW 1861   3.978   3.384   1.191
  321SOL    HW1 1862   3.896   3.401   1.247
  321SOL    HW2 1863   4.058   3.420   1.239
  322SOL     OW 1864   2.856   1.912   6.738
  322SOL    HW1 1865   2.776   1.873   6.691
  322SOL    HW2 1866   2.918   1.838   6.764
  323SOL     OW 1867   0.908   4.269   2.459
  323SOL    HW1 1868   0.964   4.186   2.457
  323SOL    HW2 1869   0.966   4.350   2.451
  324SOL     OW 1870   5.878   0.121   3.683
  324SOL    HW1 1871   5.926   0.200   3.723
  324SOL    HW2 1872   5.785   0.147   3.659
  325SOL     OW 1873   6.337   3.172   0.772
  325SOL    HW1 1874   6.400   3.233   0.723
  325SOL    HW2 1875   6.271   3.134   0.707
  326SOL     OW 1876   6.066   5.942   6.213
  326SOL    HW1 1877   6.042   5.861   6.267
  326SOL    HW2 1878   6.161   5.936   6.184
  327SOL     OW 1879   4.505   6.351   6.273
  327SOL    HW1 1880   4.467   6.283   6.209
  327SOL    HW2 1881   4.512   6.439   6.228
  328SOL     OW 1882   2.108   4.490   3.902
  328SOL    HW1 1883   2.112   4.577   3.951
  328SOL    HW2 1884   2.183   4.431   3.933
  329SOL     OW 1885   3.054   3.531   2.754
  329SOL    HW1 1886   3.017   3.566   2.668
  329SOL    HW2 1887   3.136   3.582   2.779
  330SOL     OW 1888   2.481   4.074   6.568
  330SOL    HW1 1889   2.445   4.045   6.657
  330SOL    HW2 1890   2.463   4.002   6.500
  331SOL     OW 1891   4.890   5.563   3.883
  331SOL    HW1 1892   4.806   5.586   3.833
  331SOL    HW2 1893   4.874   5.570   3.981
  332SOL     OW 1894   6.140   1.991   3.084
  332SOL    HW1 1895   6.221   1.945   3.046
  332SOL    HW2 1896   6.146   2.089   3.065
  333SOL     OW 1897   3.302   6.739   3.527
  333SOL    HW1 1898   3.394   6.764   3.495
  333SOL    HW2 1899   3.308   6.658   3.585
  334SOL     OW 1900   4.134   3.440   4.089
  334SOL    HW1 1901   4.096   3.360   4.042
  334SOL    HW2 1902   4.234   3.430   4.096
  335SOL     OW 1903   4.793   1.704   0.769
  335SOL    HW1 1904   4.733   1.738   0.697
  335SOL    HW2 1905   4.887   1.704   0.736
  336SOL     OW 1906   4.128   2.102   4.328
  336SOL    HW1 1907   4.098   2.009   4.349
  336SOL    HW2 1908   4.177   2.140   4.406
  337SOL     OW 1909   0.497   1.842   5.302
  337SOL    HW1 1910   0.402   1.822   5.275
  337SOL    HW2 1911   0.498   1.922   5.361
  338SOL     OW 1912   5.266   1.317   1.820
  338SOL    HW1 1913   5.365   1.310   1.810
  338SOL    HW2 1914   5.225   1.344   1.732
  339SOL     OW 1915   3.316   5.021   5.837
  339SOL    HW1 1916   3.316   5.010   5.738
  339SOL    HW2 1917   3.224   5.007   5.873
  340SOL     OW 1918   5.226   3.686   4.709
  340SOL    HW1 1919   5.253   3.712   4.616
  340SOL    HW2 1920   5.304   3.642   4.754
  341SOL     OW 1921   6.279   0.736   1.695
  341SOL    HW1 1922   6.266   0.732   1.596
  341SOL    HW2 1923   6.349   0.805   1.717
  342SOL     OW 1924   4.771   1.048   2.212
  342SOL    HW1 1925   4.784   1.104   2.130
  342SOL    HW2 1926   4.673   1.042   2.233
  343SOL     OW 1927   5.927   0.543   1.618
  343SOL    HW1 1928   5.928   0.597   1.702
  343SOL    HW2 1929   5.984   0.462   1.630
  344SOL     OW 1930   6.820   2.778   1.600
  344SOL    HW1 1931   6.806   2.707   1.531
  344SOL    HW2 1932   6.732   2.797   1.645
  345SOL     OW 1933   0.057   3.076   4.018
  345SOL    HW1 1934   0.113   3.050   3.940
  345SOL    HW2 1935   0.033   3.173   4.012
  346SOL     OW 1936   1.027   6.443   2.577
  346SOL    HW1 1937   1.004   6.536   2.549
  346SOL    HW2 1938   1.115   6.417   2.539
  347SOL     OW 1939   1.766   4.464   1.472
  347SOL    HW1 1940   1.862   4.437   1.464
  347SOL    HW2 1941   1.737   4.458   1.567
  348SOL     OW 1942   5.588   4.527   1.151
  348SOL    HW1 1943   5.603   4.568   1.241
  348SOL    HW2 1944   5.591   4.427   1.159
  349SOL     OW 1945   6.310   5.293   0.240
  349SOL    HW1 1946   6.314   5.220   0.172
  349SOL    HW2 1947   6.218   5.334   0.239
  350SOL     OW 1948   2.358   0.788   1.081
  350SOL    HW1 1949   2.378   0.777   0.983
  350SOL    HW2 1950   2.313   0.705   1.115
  351SOL     OW 1951   3.315   4.192   1.134
  351SOL    HW1 1952   3.236   4.144   1.097
  351SOL    HW2 1953   3.398   4.155   1.094
  352SOL     OW 1954   3.964   0.598   2.148
  352SOL    HW1 1955   3.903   0.521   2.131
  352SOL    HW2 1956   3.959   0.624   2.245
  353SOL     OW 1957   2.540   6.176   0.453
  353SOL    HW1 1958   2.592   6.220   0.525
  353SOL    HW2 1959   2.595   6.173   0.369
  354SOL     OW 1960   2.297   1.916   0.424
  354SOL    HW1 1961   2.369   1.965   0.473
  354SOL    HW2 1962   2.313   1.922   0.325
  355SOL     OW 1963   0.238   2.863   2.878
  355SOL    HW1 1964   0.331   2.892   2.901
  355SOL    HW2 1965   0.214   2.898   2.787
  356SOL     OW 1966   2.681   0.010   5.993
  356SOL    HW1 1967   2.725   0.051   5.913
  356SOL    HW2 1968   2.743   6.964   6.034
  357SOL     OW 1969   5.999   5.697   4.315
  357SOL    HW1 1970   5.996   5.632   4.391
  357SOL    HW2 1971   5.933   5.670   4.245
  358SOL     OW 1972   3.280   6.214   0.144
  358SOL    HW1 1973   3.199   6.160   0.121
  358SOL    HW2 1974   3.251   6.303   0.178
  359SOL     OW 1975   1.706   2.676   1.221
  359SOL    HW1 1976   1.787   2.701   1.168
  359SOL    HW2 1977   1.648   2.756   1.234
  360SOL     OW 1978   2.166   4.152   3.255
  360SOL    HW1 1979   2.213   4.119   3.336
  360SOL    HW2 1980   2.092   4.213   3.282
  361SOL     OW 1981   6.913   3.167   2.453
  361SOL    HW1 1982   6.875   3.076   2.436
  361SOL    HW2 1983   6.846   3.222   2.503
  362SOL     OW 1984   4.053   3.236   2.958
  362SOL    HW1 1985   4.057   3.168   2.885
  362SOL    HW2 1986   4.088   3.324   2.925
  363SOL     OW 1987   4.901   4.700   0.646
  363SOL    HW1 1988   4.953   4.784   0.661
  363SOL    HW2 1989   4.865   4.699   0.553
  364SOL     OW 1990   0.894   0.462   0.144
  364SOL    HW1 1991   0.804   0.451   0.103
  364SOL    HW2 1992   0.964   0.427   0.082
  365SOL     OW 1993   5.155   0.142   4.067
  365SOL    HW1 1994   5.115   0.104   4.152
  365SOL    HW2 1995   5.112   0.230   4.047
  366SOL     OW 1996   5.318   2.052   0.493
  366SOL    HW1 1997   5.397   2.105   0.459
  366SOL    HW2 1998   5.345   2.003   0.576
  367SOL     OW 1999   5.678   0.743   7.013
  367SOL    HW1 2000   5.670   0.692   0.078
  367SOL    HW2 2001   5.634   0.832   0.002
  368SOL     OW 2002   3.129   1.384   5.622
  368SOL    HW1 2003   3.172   1.463   5.666
  368SOL    HW2 2004   3.107   1.407   5.527
  369SOL     OW 2005   4.961   4.091   0.183
  369SOL    HW1 2006   4.952   4.019   0.114
  369SOL    HW2 2007   5.048   4.139   0.171
  370SOL     OW 2008   2.151   2.559   3.798
  370SOL    HW1 2009   2.170   2.474   3.846
  370SOL    HW2 2010   2.169   2.637   3.858
  371SOL     OW 2011   2.466   5.020   0.427
  371SOL    HW1 2012   2.436   5.091   0.490
  371SOL    HW2 2013   2.450   4.930   0.467
  372SOL     OW 2014   2.789   6.121   5.948
  372SOL    HW1 2015   2.729   6.166   5.881
  372SOL    HW2 2016   2.883   6.150   5.933
  373SOL     OW 2017   5.161   4.880   2.721
  373SOL    HW1 2018   5.194   4.808   2.660
  373SOL    HW2 2019   5.061   4.872   2.731
  374SOL     OW 2020   2.571   2.477   2.008
  374SOL    HW1 2021   2.562   2.510   1.913
  374SOL    HW2 2022   2.664   2.493   2.040
  375SOL     OW 2023   6.665   5.894   3.919
  375SOL    HW1 2024   6.651   5.859   3.826
  375SOL    HW2 2025   6.659   5.994   3.918
  376SOL     OW 2026   4.282   0.539   3.684
  376SOL    HW1 2027   4.261   0.554   3.587
  376SOL    HW2 2028   4.361   0.593   3.710
  377SOL     OW 2029   2.980   3.037   6.344
  377SOL    HW1 2030   2.998   3.111   6.408
  377SOL    HW2 2031   3.063   2.984   6.329
  378SOL     OW 2032   4.086   0.834   1.709
  378SOL    HW1 2033   4.149   0.757   1.702
  378SOL    HW2 2034   4.128   0.906   1.764
  379SOL     OW 2035   3.510   2.982   7.009
  379SOL    HW1 2036   3.498   2.883   7.014
  379SOL    HW2 2037   3.422   3.025   6.987
  380SOL     OW 2038   5.069   2.147   0.412
  380SOL    HW1 2039   5.152   2.119   0.461
  380SOL    HW2 2040   4.992   2.090   0.441
  381SOL     OW 2041   1.150   3.618   2.308
  381SOL    HW1 2042   1.108   3.527   2.317
  381SOL    HW2 2043   1.123   3.658   2.220
  382SOL     OW 2044   6.727   0.153   0.265
  382SOL    HW1 2045   6.694   0.192   0.351
  382SOL    HW2 2046   6.692   0.207   0.188
  383SOL     OW 2047   5.123   3.226   0.391
  383SOL    HW1 2048   5.107   3.167   0.312
  383SOL    HW2 2049   5.073   3.312   0.381
  384SOL     OW 2050   0.937   2.554   5.114
  384SOL    HW1 2051   0.959   2.651   5.125
  384SOL    HW2 2052   0.860   2.543   5.051
  385SOL     OW 2053   4.837   2.682   6.350
  385SOL    HW1 2054   4.806   2.729   6.433
  385SOL    HW2 2055   4.787   2.717   6.271
  386SOL     OW 2056   3.317   6.355   5.375
  386SOL    HW1 2057   3.317   6.452   5.400
  386SOL    HW2 2058   3.330   6.346   5.277
  387SOL     OW 2059   2.345   6.332   3.850
  387SOL    HW1 2060   2.253   6.302   3.824
  387SOL    HW2 2061   2.405   6.329   3.770
  388SOL     OW 2062   1.738   5.653   5.867
  388SOL    HW1 2063   1.649   5.624   5.833
  388SOL    HW2 2064   1.808   5.587   5.839
  389SOL     OW 2065   2.589   2.284   0.224
  389SOL    HW1 2066   2.525   2.324   0.290
  389SOL    HW2 2067   2.571   2.186   0.215
  390SOL     OW 2068   3.045   1.822   3.876
  390SOL    HW1 2069   3.095   1.852   3.958
  390SOL    HW2 2070   2.946   1.829   3.894
  391SOL     OW 2071   0.424   2.021   0.343
  391SOL    HW1 2072   0.345   2.066   0.302
  391SOL    HW2 2073   0.508   2.064   0.310
  392SOL     OW 2074   3.895   5.213   4.671
  392SOL    HW1 2075   3.931   5.249   4.585
  392SOL    HW2 2076   3.876   5.115   4.661
  393SOL     OW 2077   5.889   3.349   5.379
  393SOL    HW1 2078   5.795   3.316   5.371
  393SOL    HW2 2079   5.889   3.448   5.388
  394SOL     OW 2080   1.881   1.151   6.390
  394SOL    HW1 2081   1.868   1.145   6.489
  394SOL    HW2 2082   1.975   1.177   6.371
  395SOL     OW 2083   6.915   3.026   1.526
  395SOL    HW1 2084   6.905   3.093   1.600
  395SOL    HW2 2085   6.865   2.943   1.551
  396SOL     OW 2086   3.566   2.554   5.472
  396SOL    HW1 2087   3.567   2.454   5.469
  396SOL    HW2 2088   3.638   2.590   5.413
  397SOL     OW 2089   4.451   0.228   6.147
  397SOL    HW1 2090   4.363   0.186   6.171
  397SOL    HW2 2091   4.478   0.293   6.218
  398SOL     OW 2092   6.609   4.605   2.336
  398SOL    HW1 2093   6.694   4.553   2.349
  398SOL    HW2 2094   6.550   4.593   2.416
  399SOL     OW 2095   4.098   5.135   1.877
  399SOL    HW1 2096   4.100   5.059   1.813
  399SOL    HW2 2097   4.033   5.114   1.951
  400SOL     OW 2098   2.481   5.092   5.435
  400SOL    HW1 2099   2.403   5.154   5.439
  400SOL    HW2 2100   2.532   5.098   5.521
  401SOL     OW 2101   6.361   1.562   1.553
  401SOL    HW1 2102   6.409   1.643   1.586
  401SOL    HW2 2103   6.343   1.500   1.630
  402SOL     OW 2104   0.573   5.549   0.897
  402SOL    HW1 2105   0.473   5.554   0.897
  402SOL    HW2 2106   0.611   5.640   0.912
  403SOL     OW 2107   4.859   4.220   0.793
  403SOL    HW1 2108   4.826   4.315   0.793
  403SOL    HW2 2109   4.930   4.209   0.863
  404SOL     OW 2110   0.238   6.004   4.965
  404SOL    HW1 2111   0.233   5.947   4.882
  404SOL    HW2 2112   0.183   5.962   5.037
  405SOL     OW 2113   1.498   1.792   1.380
  405SOL    HW1 2114   1.481   1.706   1.332
  405SOL    HW2 2115   1.417   1.818   1.432
  406SOL     OW 2116   0.799   3.022   3.739
  406SOL    HW1 2117   0.826   3.064   3.652
  406SOL    HW2 2118   0.880   2.988   3.786
  407SOL     OW 2119   3.594   2.043   3.670
  407SOL    HW1 2120   3.497   2.017   3.664
  407SOL    HW2 2121   3.618   2.099   3.591
  408SOL     OW 2122   2.762   0.478   4.065
  408SOL    HW1 2123   2.720   0.546   4.125
  408SOL    HW2 2124   2.766   0.513   3.972
  409SOL     OW 2125   0.042   4.261   4.249
  409SOL    HW1 2126   0.076   4.333   4.309
  409SOL    HW2 2127   6.963   4.260   4.251
  410SOL     OW 2128   2.736   6.754   6.173
  410SOL    HW1 2129   2.723   6.676   6.234
  410SOL    HW2 2130   2.659   6.817   6.183
  411SOL     OW 2131   0.246   4.250   5.631
  411SOL    HW1 2132   0.312   4.253   5.705
  411SOL    HW2 2133   0.292   4.270   5.544
  412SOL     OW 2134   3.413   6.215   2.285
  412SOL    HW1 2135   3.384   6.284   2.351
  412SOL    HW2 2136   3.458   6.140   2.333
  413SOL     OW 2137   2.087   0.678   2.183
  413SOL    HW1 2138   1.995   0.696   2.219
  413SOL    HW2 2139   2.082   0.604   2.115
  414SOL     OW 2140   5.293   4.653   1.015
  414SOL    HW1 2141   5.332   4.568   1.050
  414SOL    HW2 2142   5.357   4.728   1.030
  415SOL     OW 2143   3.930   0.466   2.674
  415SOL    HW1 2144   3.968   0.401   2.740
  415SOL    HW2 2145   3.843   0.432   2.640
  416SOL     OW 2146   3.806   5.859   6.986
  416SOL    HW1 2147   3.803   5.833   0.061
  416SOL    HW2 2148   3.715   5.888   6.956
  417SOL     OW 2149   5.414   5.280   1.295
  417SOL    HW1 2150   5.377   5.353   1.352
  417SOL    HW2 2151   5.357   5.269   1.214
  418SOL     OW 2152   6.816   4.980   6.915
  418SOL    HW1 2153   6.849   4.898   6.870
  418SOL    HW2 2154   6.891   5.046   6.923
  419SOL     OW 2155   5.191   5.497   6.949
  419SOL    HW1 2156   5.266   5.462   7.006
  419SOL    HW2 2157   5.151   5.577   6.992
  420SOL     OW 2158   5.089   3.507   6.483
  420SOL    HW1 2159   5.138   3.556   6.555
  420SOL    HW2 2160   5.013   3.564   6.450
  421SOL     OW 2161   1.912   6.357   6.725
  421SOL    HW1 2162   1.873   6.272   6.760
  421SOL    HW2 2163   1.904   6.358   6.625
  422SOL     OW 2164   6.352   3.649   6.422
  422SOL    HW1 2165   6.259   3.613   6.415
  422SOL    HW2 2166   6.417   3.578   6.394
  423SOL     OW 2167   1.023   3.555   6.457
  423SOL    HW1 2168   1.030   3.460   6.428
  423SOL    HW2 2169   0.938   3.569   6.508
  424SOL     OW 2170   1.845   4.452   6.268
  424SOL    HW1 2171   1.941   4.438   6.291
  424SOL    HW2 2172   1.809   4.530   6.318
  425SOL     OW 2173   3.433   0.356   0.549
  425SOL    HW1 2174   3.346   0.351   0.598
  425SOL    HW2 2175   3.499   0.294   0.592
  426SOL     OW 2176   0.352   3.746   0.026
  426SOL    HW1 2177   0.331   3.838   7.016
  426SOL    HW2 2178   0.406   3.750   0.110
  427SOL     OW 2179   3.654   3.418   6.839
  427SOL    HW1 2180   3.595   3.342   6.812
  427SOL    HW2 2181   3.718   3.439   6.765
  428SOL     OW 2182   4.216   1.613   4.841
  428SOL    HW1 2183   4.237   1.673   4.918
  428SOL    HW2 2184   4.277   1.633   4.765
  429SOL     OW 2185   3.277   6.656   0.470
  429SOL    HW1 2186   3.301   6.737   0.416
  429SOL    HW2 2187   3.240   6.685   0.558
  430SOL     OW 2188   2.720   0.797   4.689
  430SOL    HW1 2189   2.816   0.792   4.715
  430SOL    HW2 2190   2.704   0.878   4.633
  431SOL     OW 2191   3.902   1.179   0.190
  431SOL    HW1 2192   3.935   1.100   0.242
  431SOL    HW2 2193   3.802   1.179   0.189
  432SOL     OW 2194   6.531   1.757   0.801
  432SOL    HW1 2195   6.562   1.725   0.891
  432SOL    HW2 2196   6.433   1.777   0.806
  433SOL     OW 2197   3.284   6.368   5.114
  433SOL    HW1 2198   3.308   6.463   5.092
  433SOL    HW2 2199   3.187   6.363   5.137
  434SOL     OW 2200   6.062   3.572   0.809
  434SOL    HW1 2201   6.114   3.496   0.847
  434SOL    HW2 2202   6.030   3.631   0.883
  435SOL     OW 2203   3.799   3.508   0.926
  435SOL    HW1 2204   3.858   3.553   0.859
  435SOL    HW2 2205   3.723   3.464   0.879
  436SOL     OW 2206   3.115   1.044   0.575
  436SOL    HW1 2207   3.138   1.039   0.672
  436SOL    HW2 2208   3.179   1.105   0.528
  437SOL     OW 2209   6.864   6.645   6.282
  437SOL    HW1 2210   6.767   6.637   6.301
  437SOL    HW2 2211   6.907   6.554   6.288
  438SOL     OW 2212   1.235   3.154   1.056
  438SOL    HW1 2213   1.167   3.081   1.059
  438SOL    HW2 2214   1.196   3.235   1.012
  439SOL     OW 2215   6.395   5.201   1.682
  439SOL    HW1 2216   6.446   5.139   1.623
  439SOL    HW2 2217   6.337   5.149   1.745
  440SOL     OW 2218   1.626   2.917   2.797
  440SOL    HW1 2219   1.608   3.000   2.744
  440SOL    HW2 2220   1.712   2.876   2.765
  441SOL     OW 2221   0.125   1.490   3.205
  441SOL    HW1 2222   0.053   1.558   3.220
  441SOL    HW2 2223   0.192   1.526   3.140
  442SOL     OW 2224   0.982   5.213   6.257
  442SOL    HW1 2225   1.012   5.283   6.192
  442SOL    HW2 2226   0.959   5.257   6.344
  443SOL     OW 2227   0.686   4.939   5.697
  443SOL    HW1 2228   0.658   4.867   5.761
  443SOL    HW2 2229   0.769   4.983   5.731
  444SOL     OW 2230   5.347   2.860   6.731
  444SOL    HW1 2231   5.250   2.882   6.724
  444SOL    HW2 2232   5.399   2.945   6.746
  445SOL     OW 2233   1.115   3.743   3.488
  445SOL    HW1 2234   1.123   3.802   3.568
  445SOL    HW2 2235   1.089   3.651   3.516
  446SOL     OW 2236   2.158   5.019   3.897
  446SOL    HW1 2237   2.088   5.036   3.967
  446SOL    HW2 2238   2.229   5.089   3.904
  447SOL     OW 2239   0.191   5.832   0.737
  447SOL    HW1 2240   0.258   5.782   0.682
  447SOL    HW2 2241   0.170   5.780   0.820
  448SOL     OW 2242   4.222   0.260   5.762
  448SOL    HW1 2243   4.219   0.316   5.845
  448SOL    HW2 2244   4.196   0.315   5.683
  449SOL     OW 2245   5.298   0.514   4.772
  449SOL    HW1 2246   5.380   0.527   4.827
  449SOL    HW2 2247   5.229   0.466   4.826
  450SOL     OW 2248   6.848   6.197   2.207
  450SOL    HW1 2249   6.756   6.236   2.205
  450SOL    HW2 2250   6.850   6.113   2.152
  451SOL     OW 2251   6.171   3.316   3.816
  451SOL    HW1 2252   6.182   3.224   3.853
  451SOL    HW2 2253   6.259   3.362   3.815
  452SOL     OW 2254   6.639   5.398   5.952
  452SOL    HW1 2255   6.696   5.478   5.974
  452SOL    HW2 2256   6.582   5.375   6.030
  453SOL     OW 2257   3.429   1.630   6.219
  453SOL    HW1 2258   3.517   1.637   6.267
  453SOL    HW2 2259   3.358   1.673   6.274
  454SOL     OW 2260   0.676   5.956   0.788
  454SOL    HW1 2261   0.756   5.898   0.770
  454SOL    HW2 2262   0.694   6.048   0.754
  455SOL     OW 2263   5.508   0.929   5.199
  455SOL    HW1 2264   5.575   0.980   5.145
  455SOL    HW2 2265   5.449   0.993   5.248
  456SOL     OW 2266   3.975   5.172   7.016
  456SOL    HW1 2267   3.987   5.213   6.926
  456SOL    HW2 2268   3.908   5.098   7.010
  457SOL     OW 2269   0.603   4.637   1.720
  457SOL    HW1 2270   0.700   4.661   1.722
  457SOL    HW2 2271   0.593   4.539   1.703
  458SOL     OW 2272   0.732   5.790   5.370
  458SOL    HW1 2273   0.664   5.757   5.304
  458SOL    HW2 2274   0.710   5.884   5.396
  459SOL     OW 2275   1.404   0.551   3.521
  459SOL    HW1 2276   1.327   0.551   3.584
  459SOL    HW2 2277   1.373   0.522   3.430
  460SOL     OW 2278   6.444   2.116   3.690
  460SOL    HW1 2279   6.539   2.146   3.678
  460SOL    HW2 2280   6.399   2.111   3.601
  461SOL     OW 2281   5.647   4.909   5.723
  461SOL    HW1 2282   5.598   4.996   5.728
  461SOL    HW2 2283   5.721   4.916   5.656
  462SOL     OW 2284   2.908   2.115   0.086
  462SOL    HW1 2285   2.883   2.150   7.017
  462SOL    HW2 2286   3.006   2.094   0.087
  463SOL     OW 2287   6.104   6.176   2.313
  463SOL    HW1 2288   6.107   6.210   2.219
  463SOL    HW2 2289   6.195   6.186   2.355
  464SOL     OW 2290   2.049   1.100   5.671
  464SOL    HW1 2291   2.107   1.143   5.602
  464SOL    HW2 2292   2.094   1.104   5.760
  465SOL     OW 2293   0.224   3.232   6.261
  465SOL    HW1 2294   0.294   3.161   6.262
  465SOL    HW2 2295   0.221   3.273   6.170
  466SOL     OW 2296   2.107   0.487   3.177
  466SOL    HW1 2297   2.182   0.533   3.128
  466SOL    HW2 2298   2.029   0.550   3.185
  467SOL     OW 2299   1.457   1.909   5.355
  467SOL    HW1 2300   1.542   1.861   5.375
  467SOL    HW2 2301   1.409   1.862   5.281
  468SOL     OW 2302   2.958   3.792   2.885
  468SOL    HW1 2303   2.928   3.697   2.874
  468SOL    HW2 2304   2.981   3.829   2.795
  469SOL     OW 2305   3.634   6.512   6.972
  469SOL    HW1 2306   3.596   6.564   6.895
  469SOL    HW2 2307   3.734   6.506   6.962
  470SOL     OW 2308   4.450   0.012   3.470
  470SOL    HW1 2309   4.433   0.075   3.394
  470SOL    HW2 2310   4.380   0.025   3.540
  471SOL     OW 2311   2.820   2.222   3.991
  471SOL    HW1 2312   2.778   2.245   4.078
  471SOL    HW2 2313   2.809   2.298   3.927
  472SOL     OW 2314   3.827   4.397   5.320
  472SOL    HW1 2315   3.924   4.375   5.316
  472SOL    HW2 2316   3.774   4.312   5.324
  473SOL     OW 2317   0.609   4.460   3.602
  473SOL    HW1 2318   0.553   4.377   3.605
  473SOL    HW2 2319   0.699   4.440   3.642
  474SOL     OW 2320   5.021   4.440   5.235
  474SOL    HW1 2321   5.109   4.468   5.196
  474SOL    HW2 2322   5.037   4.384   5.317
  475SOL     OW 2323   2.524   6.356   6.828
  475SOL    HW1 2324   2.502   6.438   6.881
  475SOL    HW2 2325   2.503   6.275   6.882
  476SOL     OW 2326   6.632   6.053   2.814
  476SOL    HW1 2327   6.670   6.145   2.824
  476SOL    HW2 2328   6.657   5.997   2.894
  477SOL     OW 2329   2.072   4.733   4.020
  477SOL    HW1 2330   2.054   4.751   3.923
  477SOL    HW2 2331   2.026   4.802   4.076
  478SOL     OW 2332   1.145   5.250   3.328
  478SOL    HW1 2333   1.068   5.298   3.371
  478SOL    HW2 2334   1.230   5.283   3.366
  479SOL     OW 2335   4.282   1.826   1.460
  479SOL    HW1 2336   4.214   1.899   1.466
  479SOL    HW2 2337   4.258   1.765   1.384
  480SOL     OW 2338   1.559   6.514   3.436
  480SOL    HW1 2339   1.518   6.429   3.469
  480SOL    HW2 2340   1.509   6.592   3.474
  481SOL     OW 2341   2.176   0.106   0.770
  481SOL    HW1 2342   2.127   0.133   0.686
  481SOL    HW2 2343   2.216   0.015   0.757
  482SOL     OW 2344   5.676   5.286   0.775
  482SOL    HW1 2345   5.672   5.277   0.874
  482SOL    HW2 2346   5.651   5.380   0.749
  483SOL     OW 2347   5.861   2.082   2.996
  483SOL    HW1 2348   5.921   2.034   3.060
  483SOL    HW2 2349   5.811   2.014   2.942
  484SOL     OW 2350   6.352   1.995   4.263
  484SOL    HW1 2351   6.274   1.933   4.250
  484SOL    HW2 2352   6.405   1.999   4.178
  485SOL     OW 2353   3.563   6.130   1.333
  485SOL    HW1 2354   3.634   6.071   1.370
  485SOL    HW2 2355   3.580   6.145   1.235
  486SOL     OW 2356   0.365   0.880   5.761
  486SOL    HW1 2357   0.404   0.807   5.705
  486SOL    HW2 2358   0.271   0.858   5.785
  487SOL     OW 2359   6.556   2.858   6.605
  487SOL    HW1 2360   6.533   2.947   6.566
  487SOL    HW2 2361   6.535   2.857   6.703
  488SOL     OW 2362   0.991   4.733   2.292
  488SOL    HW1 2363   0.901   4.713   2.253
  488SOL    HW2 2364   1.062   4.693   2.234
  489SOL     OW 2365   3.307   5.446   6.042
  489SOL    HW1 2366   3.315   5.544   6.059
  489SOL    HW2 2367   3.256   5.430   5.957
  490SOL     OW 2368   5.047   0.285   4.587
  490SOL    HW1 2369   5.001   0.348   4.649
  490SOL    HW2 2370   5.113   0.335   4.531
  491SOL     OW 2371   0.706   2.515   3.422
  491SOL    HW1 2372   0.718   2.423   3.386
  491SOL    HW2 2373   0.632   2.561   3.373
  492SOL     OW 2374   1.469   1.288   4.737
  492SOL    HW1 2375   1.485   1.189   4.730
  492SOL    HW2 2376   1.495   1.332   4.651
  493SOL     OW 2377   6.947   4.143   4.552
  493SOL    HW1 2378   6.953   4.075   4.479
  493SOL    HW2 2379   6.946   4.097   4.641
  494SOL     OW 2380   6.357   1.258   6.753
  494SOL    HW1 2381   6.407   1.217   6.676
  494SOL    HW2 2382   6.399   1.229   6.839
  495SOL     OW 2383   4.839   4.403   0.294
  495SOL    HW1 2384   4.892   4.404   0.378
  495SOL    HW2 2385   4.900   4.408   0.215
  496SOL     OW 2386   5.515   3.666   3.000
  496SOL    HW1 2387   5.439   3.602   3.013
  496SOL    HW2 2388   5.588   3.646   3.065
  497SOL     OW 2389   3.934   6.753   3.786
  497SOL    HW1 2390   3.839   6.742   3.755
  497SOL    HW2 2391   3.942   6.720   3.880
  498SOL     OW 2392   0.993   2.777   1.487
  498SOL    HW1 2393   0.909   2.793   1.437
  498SOL    HW2 2394   1.065   2.838   1.453
  499SOL     OW 2395   3.678   1.204   5.098
  499SOL    HW1 2396   3.650   1.122   5.048
  499SOL    HW2 2397   3.677   1.185   5.196
  500SOL     OW 2398   1.558   4.391   2.712
  500SOL    HW1 2399   1.647   4.424   2.743
  500SOL    HW2 2400   1.486   4.452   2.747
  501SOL     OW 2401   0.644   5.443   6.751
  501SOL    HW1 2402   0.660   5.375   6.823
  501SOL    HW2 2403   0.626   5.532   6.793
  502SOL     OW 2404   2.621   5.031   6.457
  502SOL    HW1 2405   2.641   5.118   6.502
  502SOL    HW2 2406   2.645   4.955   6.518
  503SOL     OW 2407   6.339   5.218   4.649
  503SOL    HW1 2408   6.335   5.123   4.680
  503SOL    HW2 2409   6.264   5.269   4.691
  504SOL     OW 2410   1.750   5.366   4.713
  504SOL    HW1 2411   1.655   5.375   4.685
  504SOL    HW2 2412   1.755   5.316   4.800
  505SOL     OW 2413   3.295   6.829   4.893
  505SOL    HW1 2414   3.367   6.776   4.939
  505SOL    HW2 2415   3.336   6.904   4.843
  506SOL     OW 2416   1.881   3.081   0.599
  506SOL    HW1 2417   1.891   3.023   0.680
  506SOL    HW2 2418   1.818   3.037   0.534
  507SOL     OW 2419   4.131   2.239   4.077
  507SOL    HW1 2420   4.114   2.197   4.165
  507SOL    HW2 2421   4.108   2.337   4.082
  508SOL     OW 2422   6.441   4.906   4.436
  508SOL    HW1 2423   6.458   4.939   4.344
  508SOL    HW2 2424   6.517   4.848   4.466
  509SOL     OW 2425   4.363   3.281   1.350
  509SOL    HW1 2426   4.376   3.191   1.307
  509SOL    HW2 2427   4.378   3.273   1.448
  510SOL     OW 2428   0.936   4.205   4.395
  510SOL    HW1 2429   0.859   4.149   4.366
  510SOL    HW2 2430   0.996   4.151   4.454
  511SOL     OW 2431   0.197   6.744   1.237
  511SOL    HW1 2432   0.223   6.652   1.266
  511SOL    HW2 2433   0.098   6.753   1.241
  512SOL     OW 2434   1.419   3.741   6.108
  512SOL    HW1 2435   1.337   3.703   6.151
  512SOL    HW2 2436   1.402   3.753   6.010
  513SOL     OW 2437   1.073   5.028   4.223
  513SOL    HW1 2438   1.058   5.023   4.124
  513SOL    HW2 2439   1.019   5.102   4.262
  514SOL     OW 2440   5.383   1.480   3.330
  514SOL    HW1 2441   5.310   1.464   3.396
  514SOL    HW2 2442   5.471   1.484   3.377
  515SOL     OW 2443   2.807   5.698   0.038
  515SOL    HW1 2444   2.780   5.794   0.041
  515SOL    HW2 2445   2.779   5.658   6.972
  516SOL     OW 2446   1.102   4.761   3.852
  516SOL    HW1 2447   1.081   4.782   3.756
  516SOL    HW2 2448   1.021   4.723   3.896
  517SOL     OW 2449   4.480   0.397   6.372
  517SOL    HW1 2450   4.527   0.484   6.388
  517SOL    HW2 2451   4.475   0.346   6.457
  518SOL     OW 2452   2.217   1.477   0.197
  518SOL    HW1 2453   2.209   1.572   0.169
  518SOL    HW2 2454   2.186   1.417   0.124
  519SOL     OW 2455   0.644   6.530   0.603
  519SOL    HW1 2456   0.686   6.566   0.520
  519SOL    HW2 2457   0.636   6.602   0.671
  520SOL     OW 2458   5.985   4.602   4.313
  520SOL    HW1 2459   5.982   4.541   4.234
  520SOL    HW2 2460   6.031   4.687   4.288
  521SOL     OW 2461   6.682   0.295   0.513
  521SOL    HW1 2462   6.716   0.272   0.604
  521SOL    HW2 2463   6.747   0.357   0.468
  522SOL     OW 2464   3.470   3.788   5.605
  522SOL    HW1 2465   3.427   3.837   5.680
  522SOL    HW2 2466   3.409   3.715   5.574
  523SOL     OW 2467   6.240   6.672   3.698
  523SOL    HW1 2468   6.289   6.590   3.727
  523SOL    HW2 2469   6.306   6.742   3.669
  524SOL     OW 2470   3.959   0.696   5.434
  524SOL    HW1 2471   3.899   0.653   5.501
  524SOL    HW2 2472   3.904   0.748   5.368
  525SOL     OW 2473   2.488   2.609   6.995
  525SOL    HW1 2474   2.541   2.524   6.992
  525SOL    HW2 2475   2.472   2.635   0.070
  526SOL     OW 2476   4.624   5.751   4.553
  526SOL    HW1 2477   4.672   5.761   4.467
  526SOL    HW2 2478   4.628   5.836   4.605
  527SOL     OW 2479   0.009   2.003   6.988
  527SOL    HW1 2480   0.020   1.946   6.906
  527SOL    HW2 2481   7.014   2.098   6.961
  528SOL     OW 2482   1.940   1.463   6.024
  528SOL    HW1 2483   1.872   1.391   6.038
  528SOL    HW2 2484   1.904   1.550   6.056
  529SOL     OW 2485   6.726   5.088   4.285
  529SOL    HW1 2486   6.802   5.140   4.324
  529SOL    HW2 2487   6.753   4.992   4.273
  530SOL     OW 2488   6.853   2.855   5.247
  530SOL    HW1 2489   6.761   2.846   5.285
  530SOL    HW2 2490   6.847   2.865   5.148
  531SOL     OW 2491   6.804   0.747   0.169
  531SOL    HW1 2492   6.857   0.774   0.249
  531SOL    HW2 2493   6.812   0.818   0.099
  532SOL     OW 2494   2.153   0.767   5.596
  532SOL    HW1 2495   2.169   0.689   5.657
  532SOL    HW2 2496   2.240   0.809   5.571
  533SOL     OW 2497   4.587   0.406   5.135
  533SOL    HW1 2498   4.566   0.371   5.227
  533SOL    HW2 2499   4.600   0.329   5.073
  534SOL     OW 2500   3.231   5.566   3.189
  534SOL    HW1 2501   3.292   5.585   3.266
  534SOL    HW2 2502   3.145   5.527   3.223
  535SOL     OW 2503   5.785   3.750   1.672
  535SOL    HW1 2504   5.799   3.826   1.609
  535SOL    HW2 2505   5.860   3.748   1.739
  536SOL     OW 2506   1.597   6.194   1.387
  536SOL    HW1 2507   1.507   6.177   1.347
  536SOL    HW2 2508   1.647   6.259   1.329
  537SOL     OW 2509   2.189   6.847   3.440
  537SOL    HW1 2510   2.197   6.777   3.511
  537SOL    HW2 2511   2.226   6.933   3.473
  538SOL     OW 2512   1.717   5.059   4.281
  538SOL    HW1 2513   1.687   4.995   4.352
  538SOL    HW2 2514   1.639   5.081   4.222
  539SOL     OW 2515   1.197   5.575   1.481
  539SOL    HW1 2516   1.115   5.604   1.432
  539SOL    HW2 2517   1.171   5.505   1.549
  540SOL     OW 2518   1.720   3.165   0.970
  540SOL    HW1 2519   1.810   3.209   0.974
  540SOL    HW2 2520   1.649   3.235   0.966
  541SOL     OW 2521   4.317   5.656   4.941
  541SOL    HW1 2522   4.242   5.606   4.984
  541SOL    HW2 2523   4.315   5.752   4.969
  542SOL     OW 2524   5.635   0.078   5.900
  542SOL    HW1 2525   5.557   0.138   5.922
  542SOL    HW2 2526   5.618   7.008   5.937
  543SOL     OW 2527   5.892   6.966   1.226
  543SOL    HW1 2528   5.878   6.943   1.322
  543SOL    HW2 2529   5.861   0.038   1.209
  544SOL     OW 2530   1.038   5.598   0.388
  544SOL    HW1 2531   1.059   5.604   0.485
  544SOL    HW2 2532   0.954   5.648   0.369
  545SOL     OW 2533   3.039   1.525   3.679
  545SOL    HW1 2534   2.953   1.529   3.628
  545SOL    HW2 2535   3.088   1.611   3.668
  546SOL     OW 2536   2.013   1.994   0.216
  546SOL    HW1 2537   1.989   2.083   0.255
  546SOL    HW2 2538   2.101   2.002   0.168
  547SOL     OW 2539   2.812   1.660   0.182
  547SOL    HW1 2540   2.809   1.753   0.217
  547SOL    HW2 2541   2.762   1.655   0.095
  548SOL     OW 2542   3.386   3.594   5.290
  548SOL    HW1 2543   3.471   3.548   5.315
  548SOL    HW2 2544   3.328   3.605   5.371
  549SOL     OW 2545   0.402   4.332   0.971
  549SOL    HW1 2546   0.381   4.304   0.878
  549SOL    HW2 2547   0.486   4.387   0.971
  550SOL     OW 2548   6.573   3.550   0.394
  550SOL    HW1 2549   6.554   3.616   0.467
  550SOL    HW2 2550   6.667   3.516   0.404
  551SOL     OW 2551   0.109   0.810   0.244
  551SOL    HW1 2552   0.161   0.732   0.278
  551SOL    HW2 2553   0.099   0.802   0.145
  552SOL     OW 2554   4.822   4.498   0.822
  552SOL    HW1 2555   4.855   4.583   0.781
  552SOL    HW2 2556   4.734   4.515   0.867
  553SOL     OW 2557   1.185   2.235   1.586
  553SOL    HW1 2558   1.182   2.136   1.603
  553SOL    HW2 2559   1.114   2.258   1.519
  554SOL     OW 2560   4.198   5.066   4.436
  554SOL    HW1 2561   4.121   5.008   4.463
  554SOL    HW2 2562   4.185   5.097   4.342
  555SOL     OW 2563   1.613   4.611   5.156
  555SOL    HW1 2564   1.700   4.616   5.206
  555SOL    HW2 2565   1.540   4.585   5.219
  556SOL     OW 2566   6.309   4.256   2.985
  556SOL    HW1 2567   6.281   4.219   3.074
  556SOL    HW2 2568   6.241   4.322   2.953
  557SOL     OW 2569   6.477   6.002   5.506
  557SOL    HW1 2570   6.457   6.025   5.601
  557SOL    HW2 2571   6.574   6.017   5.487
  558SOL     OW 2572   4.145   3.701   5.774
  558SOL    HW1 2573   4.177   3.744   5.859
  558SOL    HW2 2574   4.065   3.750   5.740
  559SOL     OW 2575   5.847   4.867   6.374
  559SOL    HW1 2576   5.847   4.906   6.282
  559SOL    HW2 2577   5.772   4.907   6.427
  560SOL     OW 2578   3.978   6.739   0.379
  560SOL    HW1 2579   4.035   6.815   0.408
  560SOL    HW2 2580   3.893   6.739   0.431
  561SOL     OW 2581   5.622   0.122   1.904
  561SOL    HW1 2582   5.564   0.101   1.983
  561SOL    HW2 2583   5.715   0.090   1.921
  562SOL     OW 2584   6.708   0.567   0.716
  562SOL    HW1 2585   6.781   0.573   0.785
  562SOL    HW2 2586   6.651   0.487   0.735
  563SOL     OW 2587   2.737   0.701   5.302
  563SOL    HW1 2588   2.785   0.748   5.376
  563SOL    HW2 2589   2.685   0.767   5.249
  564SOL     OW 2590   0.973   1.346   5.648
  564SOL    HW1 2591   0.982   1.403   5.729
  564SOL    HW2 2592   0.877   1.339   5.621
  565SOL     OW 2593   4.632   3.799   5.825
  565SOL    HW1 2594   4.708   3.755   5.777
  565SOL    HW2 2595   4.661   3.887   5.861
  566SOL     OW 2596   6.418   4.601   2.116
  566SOL    HW1 2597   6.377   4.546   2.044
  566SOL    HW2 2598   6.504   4.560   2.145
  567SOL     OW 2599   4.004   3.526   5.424
  567SOL    HW1 2600   4.018   3.483   5.513
  567SOL    HW2 2601   4.093   3.545   5.382
  568SOL     OW 2602   2.196   0.959   6.397
  568SOL    HW1 2603   2.204   1.059   6.401
  568SOL    HW2 2604   2.149   0.927   6.479
  569SOL     OW 2605   2.015   4.089   6.608
  569SOL    HW1 2606   2.024   4.015   6.542
  569SOL    HW2 2607   1.924   4.131   6.600
  570SOL     OW 2608   6.988   5.888   0.090
  570SOL    HW1 2609   7.012   5.858   0.182
  570SOL    HW2 2610   6.893   5.864   0.071
  571SOL     OW 2611   4.011   6.472   2.303
  571SOL    HW1 2612   3.946   6.539   2.268
  571SOL    HW2 2613   3.991   6.452   2.399
  572SOL     OW 2614   1.331   4.218   4.186
  572SOL    HW1 2615   1.426   4.191   4.173
  572SOL    HW2 2616   1.314   4.235   4.283
  573SOL     OW 2617   3.655   2.218   6.484
  573SOL    HW1 2618   3.565   2.180   6.505
  573SOL    HW2 2619   3.662   2.310   6.523
  574SOL     OW 2620   2.674   2.156   3.620
  574SOL    HW1 2621   2.613   2.077   3.613
  574SOL    HW2 2622   2.766   2.125   3.644
  575SOL     OW 2623   4.522   2.556   6.207
  575SOL    HW1 2624   4.509   2.465   6.169
  575SOL    HW2 2625   4.605   2.557   6.263
  576SOL     OW 2626   1.041   3.553   2.809
  576SOL    HW1 2627   1.116   3.602   2.855
  576SOL    HW2 2628   1.069   3.459   2.791
  577SOL     OW 2629   4.207   1.874   3.863
  577SOL    HW1 2630   4.127   1.822   3.893
  577SOL    HW2 2631   4.290   1.820   3.880
  578SOL     OW 2632   0.190   4.052   4.128
  578SOL    HW1 2633   0.274   4.015   4.168
  578SOL    HW2 2634   0.144   4.110   4.196
  579SOL     OW 2635   3.752   3.465   0.547
  579SOL    HW1 2636   3.722   3.560   0.541
  579SOL    HW2 2637   3.702   3.419   0.620
  580SOL     OW 2638   0.495   6.724   0.382
  580SOL    HW1 2639   0.566   6.769   0.435
  580SOL    HW2 2640   0.479   6.775   0.297
  581SOL     OW 2641   4.112   3.205   3.263
  581SOL    HW1 2642   4.116   3.133   3.194
  581SOL    HW2 2643   4.191   3.266   3.252
  582SOL     OW 2644   6.746   4.299   0.403
  582SOL    HW1 2645   6.697   4.387   0.403
  582SOL    HW2 2646   6.830   4.308   0.457
  583SOL     OW 2647   2.571   6.586   6.463
  583SOL    HW1 2648   2.627   6.639   6.526
  583SOL    HW2 2649   2.610   6.495   6.451
  584SOL     OW 2650   1.152   4.824   4.403
  584SOL    HW1 2651   1.177   4.858   4.494
  584SOL    HW2 2652   1.136   4.901   4.342
  585SOL     OW 2653   5.473   0.774   5.460
  585SOL    HW1 2654   5.501   0.856   5.411
  585SOL    HW2 2655   5.552   0.732   5.505
  586SOL     OW 2656   2.935   5.661   0.945
  586SOL    HW1 2657   2.952   5.573   0.901
  586SOL    HW2 2658   3.021   5.712   0.951
  587SOL     OW 2659   2.305   2.789   6.224
  587SOL    HW1 2660   2.340   2.796   6.130
  587SOL    HW2 2661   2.381   2.801   6.288
  588SOL     OW 2662   2.236   0.111   1.580
  588SOL    HW1 2663   2.222   0.131   1.677
  588SOL    HW2 2664   2.253   0.013   1.567
  589SOL     OW 2665   4.536   4.686   1.161
  589SOL    HW1 2666   4.468   4.758   1.175
  589SOL    HW2 2667   4.528   4.618   1.234
  590SOL     OW 2668   7.012   3.661   1.665
  590SOL    HW1 2669   0.024   3.625   1.752
  590SOL    HW2 2670   6.938   3.727   1.682
  591SOL     OW 2671   2.614   0.052   3.109
  591SOL    HW1 2672   2.517   0.069   3.093
  591SOL    HW2 2673   2.664   0.138   3.102
  592SOL     OW 2674   5.390   0.234   5.889
  592SOL    HW1 2675   5.444   0.309   5.849
  592SOL    HW2 2676   5.332   0.271   5.962
  593SOL     OW 2677   0.009   0.899   4.855
  593SOL    HW1 2678   0.075   0.957   4.903
  593SOL    HW2 2679   0.055   0.852   4.780
  594SOL     OW 2680   5.790   2.134   1.442
  594SOL    HW1 2681   5.731   2.068   1.488
  594SOL    HW2 2682   5.734   2.195   1.386
  595SOL     OW 2683   3.282   0.220   3.734
  595SOL    HW1 2684   3.252   0.125   3.731
  595SOL    HW2 2685   3.207   0.278   3.767
  596SOL     OW 2686   0.924   4.363   1.899
  596SOL    HW1 2687   0.872   4.356   1.984
  596SOL    HW2 2688   1.021   4.346   1.919
  597SOL     OW 2689   4.766   2.012   5.882
  597SOL    HW1 2690   4.810   2.043   5.798
  597SOL    HW2 2691   4.767   2.087   5.949
  598SOL     OW 2692   3.162   3.490   1.437
  598SOL    HW1 2693   3.192   3.485   1.341
  598SOL    HW2 2694   3.151   3.397   1.473
  599SOL     OW 2695   5.820   6.121   3.646
  599SOL    HW1 2696   5.865   6.109   3.735
  599SOL    HW2 2697   5.888   6.146   3.577
  600SOL     OW 2698   2.834   1.790   1.029
  600SOL    HW1 2699   2.747   1.790   0.979
  600SOL    HW2 2700   2.896   1.723   0.988
  601SOL     OW 2701   2.187   4.998   2.911
  601SOL    HW1 2702   2.180   5.001   3.011
  601SOL    HW2 2703   2.230   4.913   2.882
  602SOL     OW 2704   7.018   0.271   2.334
  602SOL    HW1 2705   6.958   0.202   2.373
  602SOL    HW2 2706   6.966   0.330   2.272
  603SOL     OW 2707   4.374   1.888   2.970
  603SOL    HW1 2708   4.292   1.910   2.919
  603SOL    HW2 2709   4.426   1.817   2.922
  604SOL     OW 2710   1.359   3.266   5.602
  604SOL    HW1 2711   1.406   3.337   5.549
  604SOL    HW2 2712   1.326   3.195   5.540
  605SOL     OW 2713   5.338   0.380   4.532
  605SOL    HW1 2714   5.375   0.290   4.556
  605SOL    HW2 2715   5.317   0.431   4.615
  606SOL     OW 2716   2.696   6.569   1.893
  606SOL    HW1 2717   2.768   6.628   1.931
  606SOL    HW2 2718   2.715   6.550   1.797
  607SOL     OW 2719   3.571   0.752   4.388
  607SOL    HW1 2720   3.556   0.664   4.433
  607SOL    HW2 2721   3.605   0.736   4.295
  608SOL     OW 2722   5.714   2.944   0.914
  608SOL    HW1 2723   5.776   2.869   0.936
  608SOL    HW2 2724   5.653   2.916   0.840
  609SOL     OW 2725   3.691   3.850   4.971
  609SOL    HW1 2726   3.761   3.918   4.950
  609SOL    HW2 2727   3.648   3.872   5.059
  610SOL     OW 2728   6.267   1.891   4.677
  610SOL    HW1 2729   6.327   1.972   4.683
  610SOL    HW2 2730   6.258   1.850   4.768
  611SOL     OW 2731   6.130   6.908   0.350
  611SOL    HW1 2732   6.218   6.891   0.396
  611SOL    HW2 2733   6.144   6.974   0.276
  612SOL     OW 2734   1.659   4.434   6.718
  612SOL    HW1 2735   1.709   4.516   6.745
  612SOL    HW2 2736   1.584   4.417   6.783
  613SOL     OW 2737   3.781   1.466   6.672
  613SOL    HW1 2738   3.773   1.397   6.599
  613SOL    HW2 2739   3.866   1.518   6.658
  614SOL     OW 2740   5.126   3.032   0.817
  614SOL    HW1 2741   5.225   3.030   0.807
  614SOL    HW2 2742   5.100   2.981   0.899
  615SOL     OW 2743   6.255   6.098   0.146
  615SOL    HW1 2744   6.267   6.033   0.070
  615SOL    HW2 2745   6.175   6.155   0.129
  616SOL     OW 2746   4.623   1.840   4.817
  616SOL    HW1 2747   4.702   1.780   4.801
  616SOL    HW2 2748   4.644   1.932   4.783
  617SOL     OW 2749   6.512   6.574   5.071
  617SOL    HW1 2750   6.481   6.479   5.059
  617SOL    HW2 2751   6.432   6.635   5.072
  618SOL     OW 2752   5.667   4.959   0.857
  618SOL    HW1 2753   5.641   4.863   0.852
  618SOL    HW2 2754   5.719   4.984   0.775
  619SOL     OW 2755   1.894   0.269   6.664
  619SOL    HW1 2756   1.878   0.277   6.763
  619SOL    HW2 2757   1.878   0.174   6.636
  620SOL     OW 2758   4.583   1.769   1.852
  620SOL    HW1 2759   4.620   1.860   1.871
  620SOL    HW2 2760   4.653   1.700   1.870
  621SOL     OW 2761   2.223   0.339   6.234
  621SOL    HW1 2762   2.288   0.316   6.306
  621SOL    HW2 2763   2.131   0.346   6.273
  622SOL     OW 2764   0.275   3.643   5.850
  622SOL    HW1 2765   0.178   3.649   5.828
  622SOL    HW2 2766   0.329   3.683   5.776
  623SOL     OW 2767   6.575   1.694   2.845
  623SOL    HW1 2768   6.629   1.624   2.892
  623SOL    HW2 2769   6.618   1.783   2.856
  624SOL     OW 2770   6.808   0.513   6.448
  624SOL    HW1 2771   6.854   0.558   6.524
  624SOL    HW2 2772   6.712   0.540   6.446
  625SOL     OW 2773   3.333   1.087   1.405
  625SOL    HW1 2774   3.378   1.007   1.444
  625SOL    HW2 2775   3.290   1.140   1.478
  626SOL     OW 2776   0.331   5.824   3.756
  626SOL    HW1 2777   0.429   5.818   3.733
  626SOL    HW2 2778   0.306   5.748   3.814
  627SOL     OW 2779   6.440   5.204   6.596
  627SOL    HW1 2780   6.413   5.212   6.692
  627SOL    HW2 2781   6.497   5.122   6.585
  628SOL     OW 2782   3.718   4.405   6.571
  628SOL    HW1 2783   3.731   4.504   6.566
  628SOL    HW2 2784   3.764   4.370   6.652
  629SOL     OW 2785   1.954   0.047   0.115
  629SOL    HW1 2786   1.875   7.007   0.111
  629SOL    HW2 2787   1.928   0.134   0.156
  630SOL     OW 2788   5.880   2.400   0.730
  630SOL    HW1 2789   5.971   2.440   0.717
  630SOL    HW2 2790   5.860   2.395   0.828
  631SOL     OW 2791   1.837   3.472   2.509
  631SOL    HW1 2792   1.874   3.480   2.601
  631SOL    HW2 2793   1.774   3.547   2.490
  632SOL     OW 2794   3.424   4.588   1.364
  632SOL    HW1 2795   3.421   4.672   1.309
  632SOL    HW2 2796   3.363   4.597   1.442
  633SOL     OW 2797   0.709   6.026   6.947
  633SOL    HW1 2798   0.703   5.965   0.005
  633SOL    HW2 2799   0.631   6.010   6.886
  634SOL     OW 2800   3.037   3.343   5.346
  634SOL    HW1 2801   2.978   3.282   5.399
  634SOL    HW2 2802   3.015   3.438   5.368
  635SOL     OW 2803   6.433   0.008   6.343
  635SOL    HW1 2804   6.353   6.994   6.393
  635SOL    HW2 2805   6.428   0.108   6.338
  636SOL     OW 2806   1.971   1.636   4.406
  636SOL    HW1 2807   1.888   1.659   4.455
  636SOL    HW2 2808   2.030   1.717   4.401
  637SOL     OW 2809   0.000   1.717   2.125
  637SOL    HW1 2810   6.987   1.706   2.032
  637SOL    HW2 2811   0.099   1.701   2.126
  638SOL     OW 2812   6.830   3.374   5.302
  638SOL    HW1 2813   6.913   3.397   5.252
  638SOL    HW2 2814   6.762   3.446   5.288
  639SOL     OW 2815   5.652   3.169   1.603
  639SOL    HW1 2816   5.622   3.169   1.698
  639SOL    HW2 2817   5.728   3.232   1.591
  640SOL     OW 2818   6.043   3.235   2.844
  640SOL    HW1 2819   6.082   3.181   2.918
  640SOL    HW2 2820   6.041   3.332   2.870
  641SOL     OW 2821   2.422   5.576   4.434
  641SOL    HW1 2822   2.439   5.673   4.452
  641SOL    HW2 2823   2.344   5.567   4.372
  642SOL     OW 2824   0.760   4.976   4.513
  642SOL    HW1 2825   0.767   4.917   4.594
  642SOL    HW2 2826   0.850   5.015   4.492
  643SOL     OW 2827   4.406   4.917   0.615
  643SOL    HW1 2828   4.403   4.916   0.715
  643SOL    HW2 2829   4.493   4.954   0.584
  644SOL     OW 2830   6.235   0.562   4.408
  644SOL    HW1 2831   6.241   0.474   4.361
  644SOL    HW2 2832   6.299   0.563   4.484
  645SOL     OW 2833   4.156   6.492   1.863
  645SOL    HW1 2834   4.132   6.509   1.958
  645SOL    HW2 2835   4.078   6.451   1.816
  646SOL     OW 2836   3.682   2.022   4.927
  646SOL    HW1 2837   3.675   2.065   5.017
  646SOL    HW2 2838   3.692   1.923   4.939
  647SOL     OW 2839   2.664   2.372   6.993
  647SOL    HW1 2840   2.652   2.340   0.066
  647SOL    HW2 2841   2.714   2.304   6.940
  648SOL     OW 2842   5.568   1.698   4.121
  648SOL    HW1 2843   5.579   1.793   4.148
  648SOL    HW2 2844   5.475   1.668   4.141
  649SOL     OW 2845   3.560   5.713   0.129
  649SOL    HW1 2846   3.605   5.720   0.218
  649SOL    HW2 2847   3.576   5.622   0.090
  650SOL     OW 2848   2.423   3.423   1.538
  650SOL    HW1 2849   2.486   3.464   1.603
  650SOL    HW2 2850   2.390   3.335   1.573
  651SOL     OW 2851   0.074   1.541   2.830
  651SOL    HW1 2852   0.003   1.600   2.869
  651SOL    HW2 2853   0.058   1.531   2.732
  652SOL     OW 2854   4.110   6.413   0.416
  652SOL    HW1 2855   4.130   6.352   0.339
  652SOL    HW2 2856   4.062   6.494   0.382
  653SOL     OW 2857   1.394   7.021   2.861
  653SOL    HW1 2858   1.465   6.967   2.908
  653SOL    HW2 2859   1.426   0.023   2.769
  654SOL     OW 2860   1.308   0.224   5.850
  654SOL    HW1 2861   1.287   0.208   5.754
  654SOL    HW2 2862   1.407   0.216   5.865
  655SOL     OW 2863   1.700   4.256   1.247
  655SOL    HW1 2864   1.769   4.325   1.271
  655SOL    HW2 2865   1.746   4.172   1.218
  656SOL     OW 2866   2.446   0.394   6.989
  656SOL    HW1 2867   2.520   0.445   0.012
  656SOL    HW2 2868   2.429   0.431   6.898
  657SOL     OW 2869   3.748   3.363   4.191
  657SOL    HW1 2870   3.651   3.359   4.213
  657SOL    HW2 2871   3.786   3.270   4.188
  658SOL     OW 2872   2.074   0.675   4.589
  658SOL    HW1 2873   1.984   0.710   4.615
  658SOL    HW2 2874   2.113   0.622   4.664
  659SOL     OW 2875   2.095   5.786   6.948
  659SOL    HW1 2876   2.070   5.697   6.986
  659SOL    HW2 2877   2.049   5.799   6.860
  660SOL     OW 2878   5.535   4.434   2.538
  660SOL    HW1 2879   5.571   4.510   2.484
  660SOL    HW2 2880   5.472   4.380   2.482
  661SOL     OW 2881   4.553   5.850   4.279
  661SOL    HW1 2882   4.491   5.917   4.321
  661SOL    HW2 2883   4.500   5.783   4.227
  662SOL     OW 2884   6.094   3.697   6.625
  662SOL    HW1 2885   6.161   3.737   6.687
  662SOL    HW2 2886   6.012   3.754   6.622
  663SOL     OW 2887   1.537   4.301   5.863
  663SOL    HW1 2888   1.495   4.336   5.780
  663SOL    HW2 2889   1.518   4.362   5.939
  664SOL     OW 2890   1.503   0.241   5.459
  664SOL    HW1 2891   1.475   0.183   5.382
  664SOL    HW2 2892   1.525   0.333   5.426
  665SOL     OW 2893   2.513   4.459   3.212
  665SOL    HW1 2894   2.521   4.507   3.125
  665SOL    HW2 2895   2.456   4.377   3.201
  666SOL     OW 2896   3.249   0.519   0.094
  666SOL    HW1 2897   3.303   0.532   0.177
  666SOL    HW2 2898   3.154   0.499   0.118
  667SOL     OW 2899   1.428   2.978   2.371
  667SOL    HW1 2900   1.462   2.922   2.296
  667SOL    HW2 2901   1.396   3.066   2.336
  668SOL     OW 2902   5.503   6.855   0.111
  668SOL    HW1 2903   5.600   6.829   0.110
  668SOL    HW2 2904   5.494   6.953   0.093
  669SOL     OW 2905   6.684   5.611   2.741
  669SOL    HW1 2906   6.669   5.706   2.715
  669SOL    HW2 2907   6.606   5.555   2.711
  670SOL     OW 2908   3.989   3.936   3.078
  670SOL    HW1 2909   4.065   3.988   3.041
  670SOL    HW2 2910   3.903   3.978   3.049
  671SOL     OW 2911   1.787   0.116   6.348
  671SOL    HW1 2912   1.803   0.214   6.362
  671SOL    HW2 2913   1.730   0.081   6.423
  672SOL     OW 2914   1.488   2.659   3.137
  672SOL    HW1 2915   1.559   2.729   3.131
  672SOL    HW2 2916   1.424   2.683   3.209
  673SOL     OW 2917   5.135   0.512   6.900
  673SOL    HW1 2918   5.124   0.501   6.801
  673SOL    HW2 2919   5.045   0.502   6.944
  674SOL     OW 2920   6.895   2.402   4.359
  674SOL    HW1 2921   6.801   2.399   4.396
  674SOL    HW2 2922   6.960   2.390   4.434
  675SOL     OW 2923   5.308   6.417   3.699
  675SOL    HW1 2924   5.296   6.513   3.675
  675SOL    HW2 2925   5.380   6.409   3.768
  676SOL     OW 2926   3.063   4.840   4.476
  676SOL    HW1 2927   3.131   4.842   4.549
  676SOL    HW2 2928   2.979   4.798   4.510
  677SOL     OW 2929   4.666   6.384   1.045
  677SOL    HW1 2930   4.729   6.455   1.077
  677SOL    HW2 2931   4.590   6.426   0.996
  678SOL     OW 2932   2.544   1.043   6.303
  678SOL    HW1 2933   2.601   0.961   6.301
  678SOL    HW2 2934   2.559   1.093   6.388
  679SOL     OW 2935   6.538   0.030   2.601
  679SOL    HW1 2936   6.486   7.005   2.672
  679SOL    HW2 2937   6.574   6.983   2.536
  680SOL     OW 2938   6.332   3.963   4.108
  680SOL    HW1 2939   6.428   3.944   4.086
  680SOL    HW2 2940   6.311   3.928   4.199
  681SOL     OW 2941   1.166   5.367   2.438
  681SOL    HW1 2942   1.126   5.459   2.441
  681SOL    HW2 2943   1.203   5.344   2.528
  682SOL     OW 2944   0.590   0.176   6.164
  682SOL    HW1 2945   0.548   0.085   6.161
  682SOL    HW2 2946   0.520   0.246   6.149
  683SOL     OW 2947   5.440   1.656   1.603
  683SOL    HW1 2948   5.411   1.572   1.647
  683SOL    HW2 2949   5.457   1.726   1.672
  684SOL     OW 2950   0.170   5.840   6.654
  684SOL    HW1 2951   0.082   5.873   6.689
  684SOL    HW2 2952   0.217   5.789   6.726
  685SOL     OW 2953   6.098   0.505   5.483
  685SOL    HW1 2954   6.057   0.479   5.570
  685SOL    HW2 2955   6.103   0.425   5.423
  686SOL     OW 2956   5.587   4.493   1.629
  686SOL    HW1 2957   5.649   4.474   1.705
  686SOL    HW2 2958   5.633   4.551   1.562
  687SOL     OW 2959   5.416   1.862   6.520
  687SOL    HW1 2960   5.511   1.844   6.494
  687SOL    HW2 2961   5.412   1.945   6.576
  688SOL     OW 2962   6.119   3.333   5.226
  688SOL    HW1 2963   6.202   3.384   5.248
  688SOL    HW2 2964   6.055   3.340   5.302
  689SOL     OW 2965   5.513   4.255   4.566
  689SOL    HW1 2966   5.431   4.212   4.604
  689SOL    HW2 2967   5.560   4.190   4.507
  690SOL     OW 2968   0.064   2.576   4.830
  690SOL    HW1 2969   0.077   2.488   4.875
  690SOL    HW2 2970   0.088   2.650   4.893
  691SOL     OW 2971   0.411   3.208   6.866
  691SOL    HW1 2972   0.373   3.154   6.942
  691SOL    HW2 2973   0.502   3.174   6.843
  692SOL     OW 2974   2.661   0.379   3.703
  692SOL    HW1 2975   2.685   0.282   3.703
  692SOL    HW2 2976   2.562   0.389   3.699
  693SOL     OW 2977   6.010   1.613   3.467
  693SOL    HW1 2978   6.012   1.659   3.378
  693SOL    HW2 2979   6.102   1.611   3.506
  694SOL     OW 2980   1.364   0.577   2.976
  694SOL    HW1 2981   1.408   0.521   2.906
  694SOL    HW2 2982   1.331   0.662   2.934
  695SOL     OW 2983   4.857   5.438   6.571
  695SOL    HW1 2984   4.820   5.437   6.478
  695SOL    HW2 2985   4.930   5.506   6.578
  696SOL     OW 2986   4.956   5.362   2.621
  696SOL    HW1 2987   4.936   5.425   2.546
  696SOL    HW2 2988   5.022   5.293   2.590
  697SOL     OW 2989   1.334   3.993   3.478
  697SOL    HW1 2990   1.375   3.935   3.407
  697SOL    HW2 2991   1.321   3.938   3.561
  698SOL     OW 2992   4.874   6.388   3.999
  698SOL    HW1 2993   4.862   6.320   3.927
  698SOL    HW2 2994   4.785   6.429   4.021
  699SOL     OW 2995   1.784   5.113   5.966
  699SOL    HW1 2996   1.858   5.046   5.976
  699SOL    HW2 2997   1.720   5.082   5.896
  700SOL     OW 2998   1.655   1.959   5.092
  700SOL    HW1 2999   1.569   1.996   5.056
  700SOL    HW2 3000   1.642   1.864   5.121
  701SOL     OW 3001   1.003   4.648   5.110
  701SOL    HW1 3002   1.079   4.641   5.174
  701SOL    HW2 3003   0.920   4.610   5.152
  702SOL     OW 3004   6.081   6.291   5.267
  702SOL    HW1 3005   6.077   6.201   5.310
  702SOL    HW2 3006   6.068   6.281   5.168
  703SOL     OW 3007   5.551   3.911   6.152
  703SOL    HW1 3008   5.549   3.811   6.162
  703SOL    HW2 3009   5.599   3.951   6.230
  704SOL     OW 3010   2.334   6.748   1.796
  704SOL    HW1 3011   2.339   6.664   1.851
  704SOL    HW2 3012   2.399   6.814   1.831
  705SOL     OW 3013   0.996   1.600   3.577
  705SOL    HW1 3014   1.036   1.678   3.625
  705SOL    HW2 3015   0.903   1.585   3.610
  706SOL     OW 3016   5.521   3.803   4.056
  706SOL    HW1 3017   5.473   3.778   3.972
  706SOL    HW2 3018   5.500   3.897   4.080
  707SOL     OW 3019   4.883   2.829   2.816
  707SOL    HW1 3020   4.964   2.888   2.812
  707SOL    HW2 3021   4.846   2.817   2.724
  708SOL     OW 3022   4.779   1.570   1.639
  708SOL    HW1 3023   4.683   1.585   1.615
  708SOL    HW2 3024   4.838   1.617   1.573
  709SOL     OW 3025   1.345   4.946   6.906
  709SOL    HW1 3026   1.381   4.884   6.837
  709SOL    HW2 3027   1.422   4.989   6.954
  710SOL     OW 3028   3.096   3.944   3.094
  710SOL    HW1 3029   3.039   3.883   3.038
  710SOL    HW2 3030   3.089   3.917   3.190
  711SOL     OW 3031   0.297   0.991   4.547
  711SOL    HW1 3032   0.343   0.904   4.537
  711SOL    HW2 3033   0.363   1.066   4.542
  712SOL     OW 3034   6.987   4.114   3.431
  712SOL    HW1 3035   6.961   4.210   3.442
  712SOL    HW2 3036   7.000   4.093   3.334
  713SOL     OW 3037   2.633   4.145   5.330
  713SOL    HW1 3038   2.562   4.096   5.280
  713SOL    HW2 3039   2.649   4.101   5.418
  714SOL     OW 3040   4.560   4.970   4.926
  714SOL    HW1 3041   4.505   4.890   4.949
  714SOL    HW2 3042   4.509   5.030   4.865
  715SOL     OW 3043   6.854   0.172   6.204
  715SOL    HW1 3044   6.825   0.110   6.277
  715SOL    HW2 3045   6.931   0.228   6.235
  716SOL     OW 3046   5.876   5.506   0.134
  716SOL    HW1 3047   5.953   5.452   0.100
  716SOL    HW2 3048   5.809   5.445   0.176
  717SOL     OW 3049   5.804   3.137   5.991
  717SOL    HW1 3050   5.881   3.090   6.036
  717SOL    HW2 3051   5.735   3.160   6.060
  718SOL     OW 3052   2.987   2.584   6.805
  718SOL    HW1 3053   2.966   2.647   6.880
  718SOL    HW2 3054   3.082   2.553   6.813
  719SOL     OW 3055   5.965   4.626   6.764
  719SOL    HW1 3056   6.042   4.562   6.758
  719SOL    HW2 3057   5.997   4.718   6.739
  720SOL     OW 3058   3.953   1.342   5.874
  720SOL    HW1 3059   4.051   1.323   5.866
  720SOL    HW2 3060   3.914   1.287   5.948
  721SOL     OW 3061   1.209   6.940   5.151
  721SOL    HW1 3062   1.192   6.870   5.220
  721SOL    HW2 3063   1.196   6.901   5.060
  722SOL     OW 3064   4.563   0.715   5.207
  722SOL    HW1 3065   4.643   0.718   5.266
  722SOL    HW2 3066   4.529   0.621   5.202
  723SOL     OW 3067   0.559   3.351   2.001
  723SOL    HW1 3068   0.498   3.285   2.046
  723SOL    HW2 3069   0.648   3.349   2.046
  724SOL     OW 3070   0.357   2.364   4.414
  724SOL    HW1 3071   0.270   2.330   4.448
  724SOL    HW2 3072   0.350   2.384   4.317
  725SOL     OW 3073   2.552   4.973   2.827
  725SOL    HW1 3074   2.632   4.985   2.768
  725SOL    HW2 3075   2.579   4.988   2.923
  726SOL     OW 3076   5.400   5.909   5.922
  726SOL    HW1 3077   5.394   5.910   6.022
  726SOL    HW2 3078   5.485   5.951   5.892
  727SOL     OW 3079   1.746   4.653   4.403
  727SOL    HW1 3080   1.794   4.566   4.399
  727SOL    HW2 3081   1.649   4.639   4.383
  728SOL     OW 3082   6.197   2.664   6.043
  728SOL    HW1 3083   6.187   2.711   6.131
  728SOL    HW2 3084   6.292   2.634   6.033
  729SOL     OW 3085   4.143   1.668   0.601
  729SOL    HW1 3086   4.210   1.627   0.539
  729SOL    HW2 3087   4.119   1.759   0.568
  730SOL     OW 3088   6.235   1.305   4.285
  730SOL    HW1 3089   6.139   1.317   4.307
  730SOL    HW2 3090   6.247   1.217   4.238
  731SOL     OW 3091   6.760   2.256   3.626
  731SOL    HW1 3092   6.821   2.333   3.608
  731SOL    HW2 3093   6.811   2.170   3.618
  732SOL     OW 3094   0.926   3.390   3.094
  732SOL    HW1 3095   0.864   3.467   3.083
  732SOL    HW2 3096   1.015   3.411   3.052
  733SOL     OW 3097   4.428   4.566   4.059
  733SOL    HW1 3098   4.345   4.599   4.015
  733SOL    HW2 3099   4.445   4.618   4.143
  734SOL     OW 3100   1.089   6.268   6.978
  734SOL    HW1 3101   0.992   6.281   6.996
  734SOL    HW2 3102   1.122   6.343   6.921
  735SOL     OW 3103   3.502   4.482   6.410
  735SOL    HW1 3104   3.580   4.457   6.467
  735SOL    HW2 3105   3.490   4.581   6.411
  736SOL     OW 3106   5.931   1.008   2.323
  736SOL    HW1 3107   5.861   0.938   2.306
  736SOL    HW2 3108   5.947   1.059   2.238
  737SOL     OW 3109   5.497   3.823   0.272
  737SOL    HW1 3110   5.413   3.770   0.258
  737SOL    HW2 3111   5.535   3.848   0.183
  738SOL     OW 3112   0.439   4.213   3.587
  738SOL    HW1 3113   0.417   4.121   3.555
  738SOL    HW2 3114   0.421   4.279   3.514
  739SOL     OW 3115   4.861   6.417   6.064
  739SOL    HW1 3116   4.918   6.358   6.120
  739SOL    HW2 3117   4.814   6.362   5.994
  740SOL     OW 3118   5.937   6.720   0.305
  740SOL    HW1 3119   5.970   6.626   0.308
  740SOL    HW2 3120   6.008   6.781   0.340
  741SOL     OW 3121   2.445   0.626   4.029
  741SOL    HW1 3122   2.417   0.540   3.985
  741SOL    HW2 3123   2.364   0.673   4.064
  742SOL     OW 3124   1.600   6.549   2.772
  742SOL    HW1 3125   1.671   6.619   2.761
  742SOL    HW2 3126   1.555   6.561   2.860
  743SOL     OW 3127   1.894   3.827   3.079
  743SOL    HW1 3128   1.991   3.818   3.105
  743SOL    HW2 3129   1.853   3.737   3.072
  744SOL     OW 3130   6.543   4.972   1.007
  744SOL    HW1 3131   6.608   4.905   0.971
  744SOL    HW2 3132   6.481   5.000   0.934
  745SOL     OW 3133   1.789   5.798   2.175
  745SOL    HW1 3134   1.782   5.892   2.208
  745SOL    HW2 3135   1.866   5.753   2.220
  746SOL     OW 3136   3.108   6.851   3.380
  746SOL    HW1 3137   3.168   6.798   3.441
  746SOL    HW2 3138   3.014   6.846   3.412
  747SOL     OW 3139   6.714   3.533   0.661
  747SOL    HW1 3140   6.746   3.626   0.642
  747SOL    HW2 3141   6.751   3.470   0.592
  748SOL     OW 3142   3.149   3.300   3.274
  748SOL    HW1 3143   3.203   3.377   3.242
  748SOL    HW2 3144   3.115   3.248   3.196
  749SOL     OW 3145   5.666   2.281   5.186
  749SOL    HW1 3146   5.701   2.375   5.186
  749SOL    HW2 3147   5.569   2.281   5.208
  750SOL     OW 3148   3.288   3.723   2.077
  750SOL    HW1 3149   3.254   3.630   2.088
  750SOL    HW2 3150   3.247   3.764   1.995
  751SOL     OW 3151   5.610   1.626   6.878
  751SOL    HW1 3152   5.517   1.591   6.879
  751SOL    HW2 3153   5.670   1.564   6.928
  752SOL     OW 3154   4.651   0.628   2.555
  752SOL    HW1 3155   4.648   0.666   2.647
  752SOL    HW2 3156   4.677   0.700   2.490
  753SOL     OW 3157   3.665   1.716   1.993
  753SOL    HW1 3158   3.609   1.797   2.012
  753SOL    HW2 3159   3.678   1.706   1.895
  754SOL     OW 3160   5.364   5.544   6.748
  754SOL    HW1 3161   5.352   5.643   6.740
  754SOL    HW2 3162   5.301   5.508   6.816
  755SOL     OW 3163   6.093   5.358   1.951
  755SOL    HW1 3164   6.139   5.439   1.915
  755SOL    HW2 3165   6.060   5.377   2.044
  756SOL     OW 3166   2.500   6.607   3.770
  756SOL    HW1 3167   2.587   6.614   3.818
  756SOL    HW2 3168   2.494   6.518   3.724
  757SOL     OW 3169   6.823   0.607   4.130
  757SOL    HW1 3170   6.739   0.572   4.173
  757SOL    HW2 3171   6.813   0.607   4.031
  758SOL     OW 3172   4.143   1.746   0.865
  758SOL    HW1 3173   4.213   1.690   0.909
  758SOL    HW2 3174   4.112   1.702   0.781
  759SOL     OW 3175   2.229   0.551   1.871
  759SOL    HW1 3176   2.183   0.620   1.815
  759SOL    HW2 3177   2.319   0.585   1.899
  760SOL     OW 3178   4.419   1.608   6.096
  760SOL    HW1 3179   4.493   1.660   6.138
  760SOL    HW2 3180   4.445   1.511   6.091
  761SOL     OW 3181   5.577   0.496   6.916
  761SOL    HW1 3182   5.587   0.477   6.819
  761SOL    HW2 3183   5.621   0.584   6.937
  762SOL     OW 3184   2.174   4.730   4.904
  762SOL    HW1 3185   2.080   4.733   4.939
  762SOL    HW2 3186   2.186   4.801   4.835
  763SOL     OW 3187   0.030   5.251   0.207
  763SOL    HW1 3188   0.069   5.165   0.240
  763SOL    HW2 3189   0.002   5.241   0.111
  764SOL     OW 3190   5.839   1.351   2.484
  764SOL    HW1 3191   5.773   1.278   2.467
  764SOL    HW2 3192   5.802   1.416   2.550
  765SOL     OW 3193   0.850   6.934   3.133
  765SOL    HW1 3194   0.887   7.019   3.169
  765SOL    HW2 3195   0.899   6.909   3.049
  766SOL     OW 3196   0.267   6.455   0.634
  766SOL    HW1 3197   0.366   6.450   0.647
  766SOL    HW2 3198   0.242   6.405   0.550
  767SOL     OW 3199   5.677   6.120   0.989
  767SOL    HW1 3200   5.604   6.121   1.057
  767SOL    HW2 3201   5.638   6.132   0.898
  768SOL     OW 3202   2.810   0.027   4.141
  768SOL    HW1 3203   2.800   6.987   4.220
  768SOL    HW2 3204   2.734   0.012   4.077
  769SOL     OW 3205   4.142   0.738   0.090
  769SOL    HW1 3206   4.138   0.728   0.189
  769SOL    HW2 3207   4.136   0.648   0.047
  770SOL     OW 3208   3.198   4.899   4.696
  770SOL    HW1 3209   3.233   4.978   4.746
  770SOL    HW2 3210   3.166   4.830   4.761
  771SOL     OW 3211   0.526   6.511   4.638
  771SOL    HW1 3212   0.471   6.484   4.559
  771SOL    HW2 3213   0.522   6.439   4.707
  772SOL     OW 3214   0.573   3.245   6.477
  772SOL    HW1 3215   0.622   3.301   6.545
  772SOL    HW2 3216   0.476   3.242   6.500
  773SOL     OW 3217   6.693   3.310   2.487
  773SOL    HW1 3218   6.738   3.365   2.557
  773SOL    HW2 3219   6.604   3.280   2.521
  774SOL     OW 3220   1.314   1.173   2.055
  774SOL    HW1 3221   1.284   1.190   1.961
  774SOL    HW2 3222   1.383   1.241   2.080
  775SOL     OW 3223   1.805   2.857   3.964
  775SOL    HW1 3224   1.882   2.816   4.013
  775SOL    HW2 3225   1.726   2.862   4.025
  776SOL     OW 3226   1.776   0.292   4.950
  776SOL    HW1 3227   1.763   0.378   4.999
  776SOL    HW2 3228   1.872   0.264   4.956
  777SOL     OW 3229   4.195   6.943   6.568
  777SOL    HW1 3230   4.226   6.854   6.601
  777SOL    HW2 3231   4.116   6.973   6.622
  778SOL     OW 3232   4.871   5.569   4.859
  778SOL    HW1 3233   4.771   5.557   4.856
  778SOL    HW2 3234   4.893   5.642   4.923
  779SOL     OW 3235   0.624   0.344   1.964
  779SOL    HW1 3236   0.718   0.376   1.947
  779SOL    HW2 3237   0.579   0.408   2.027
  780SOL     OW 3238   5.771   2.493   4.941
  780SOL    HW1 3239   5.746   2.398   4.922
  780SOL    HW2 3240   5.733   2.520   5.029
  781SOL     OW 3241   1.327   3.455   6.721
  781SOL    HW1 3242   1.387   3.487   6.648
  781SOL    HW2 3243   1.331   3.519   6.798
  782SOL     OW 3244   7.003   5.017   1.043
  782SOL    HW1 3245   6.994   5.051   0.949
  782SOL    HW2 3246   0.001   4.919   1.041
  783SOL     OW 3247   1.610   5.884   0.307
  783SOL    HW1 3248   1.592   5.919   0.216
  783SOL    HW2 3249   1.557   5.936   0.375
  784SOL     OW 3250   5.569   5.517   3.600
  784SOL    HW1 3251   5.492   5.559   3.647
  784SOL    HW2 3252   5.601   5.438   3.653
  785SOL     OW 3253   6.630   2.721   3.423
  785SOL    HW1 3254   6.564   2.764   3.484
  785SOL    HW2 3255   6.599   2.732   3.328
  786SOL     OW 3256   6.105   6.349   0.891
  786SOL    HW1 3257   6.164   6.296   0.952
  786SOL    HW2 3258   6.011   6.346   0.925
  787SOL     OW 3259   4.397   1.112   0.374
  787SOL    HW1 3260   4.486   1.144   0.341
  787SOL    HW2 3261   4.332   1.113   0.298
  788SOL     OW 3262   6.977   4.388   3.486
  788SOL    HW1 3263   6.958   4.407   3.390
  788SOL    HW2 3264   0.025   4.452   3.519
  789SOL     OW 3265   5.679   3.125   1.173
  789SOL    HW1 3266   5.721   3.092   1.088
  789SOL    HW2 3267   5.584   3.096   1.176
  790SOL     OW 3268   3.183   0.562   4.110
  790SOL    HW1 3269   3.125   0.640   4.091
  790SOL    HW2 3270   3.131   0.493   4.160
  791SOL     OW 3271   3.878   1.281   4.623
  791SOL    HW1 3272   3.818   1.213   4.583
  791SOL    HW2 3273   3.852   1.372   4.591
  792SOL     OW 3274   5.310   0.901   3.662
  792SOL    HW1 3275   5.359   0.824   3.701
  792SOL    HW2 3276   5.356   0.986   3.688
  793SOL     OW 3277   0.158   6.921   6.884
  793SOL    HW1 3278   0.216   6.919   6.803
  793SOL    HW2 3279   0.180   6.843   6.943
  794SOL     OW 3280   3.462   4.873   5.208
  794SOL    HW1 3281   3.547   4.887   5.258
  794SOL    HW2 3282   3.399   4.948   5.228
  795SOL     OW 3283   5.382   5.121   0.173
  795SOL    HW1 3284   5.415   5.138   0.080
  795SOL    HW2 3285   5.359   5.024   0.183
  796SOL     OW 3286   0.725   1.628   5.702
  796SOL    HW1 3287   0.667   1.677   5.767
  796SOL    HW2 3288   0.774   1.555   5.750
  797SOL     OW 3289   5.714   2.989   5.564
  797SOL    HW1 3290   5.799   3.041   5.571
  797SOL    HW2 3291   5.712   2.940   5.477
  798SOL     OW 3292   6.796   1.049   4.333
  798SOL    HW1 3293   6.803   0.980   4.405
  798SOL    HW2 3294   6.700   1.077   4.323
  799SOL     OW 3295   6.742   4.005   3.526
  799SOL    HW1 3296   6.778   3.920   3.565
  799SOL    HW2 3297   6.816   4.052   3.477
  800SOL     OW 3298   0.016   2.321   2.544
  800SOL    HW1 3299   0.052   2.274   2.463
  800SOL    HW2 3300   6.980   2.257   2.596
  801SOL     OW 3301   0.573   2.727   3.706
  801SOL    HW1 3302   0.532   2.759   3.621
  801SOL    HW2 3303   0.613   2.636   3.692
  802SOL     OW 3304   6.742   1.430   0.701
  802SOL    HW1 3305   6.740   1.413   0.800
  802SOL    HW2 3306   6.655   1.401   0.661
  803SOL     OW 3307   2.007   0.232   4.339
  803SOL    HW1 3308   2.073   0.266   4.272
  803SOL    HW2 3309   2.027   0.136   4.360
  804SOL     OW 3310   6.247   6.554   0.787
  804SOL    HW1 3311   6.342   6.525   0.797
  804SOL    HW2 3312   6.187   6.483   0.825
  805SOL     OW 3313   2.113   2.987   6.174
  805SOL    HW1 3314   2.175   2.915   6.206
  805SOL    HW2 3315   2.020   2.966   6.203
  806SOL     OW 3316   4.265   6.540   0.050
  806SOL    HW1 3317   4.186   6.555   0.109
  806SOL    HW2 3318   4.272   6.615   7.005
  807SOL     OW 3319   0.751   6.775   3.366
  807SOL    HW1 3320   0.695   6.836   3.422
  807SOL    HW2 3321   0.789   6.826   3.289
  808SOL     OW 3322   5.607   3.891   4.608
  808SOL    HW1 3323   5.515   3.897   4.646
  808SOL    HW2 3324   5.619   3.961   4.537
  809SOL     OW 3325   0.314   6.227   6.108
  809SOL    HW1 3326   0.246   6.297   6.087
  809SOL    HW2 3327   0.357   6.248   6.196
  810SOL     OW 3328   5.849   5.644   6.319
  810SOL    HW1 3329   5.927   5.610   6.267
  810SOL    HW2 3330   5.768   5.647   6.260
  811SOL     OW 3331   3.403   4.868   3.038
  811SOL    HW1 3332   3.418   4.857   2.940
  811SOL    HW2 3333   3.305   4.879   3.056
  812SOL     OW 3334   6.858   0.545   2.585
  812SOL    HW1 3335   6.791   0.574   2.517
  812SOL    HW2 3336   6.837   0.586   2.674
  813SOL     OW 3337   5.065   5.160   1.906
  813SOL    HW1 3338   5.070   5.258   1.887
  813SOL    HW2 3339   4.977   5.138   1.947
  814SOL     OW 3340   4.901   5.411   1.509
  814SOL    HW1 3341   4.853   5.442   1.426
  814SOL    HW2 3342   4.893   5.311   1.515
  815SOL     OW 3343   1.360   1.060   0.738
  815SOL    HW1 3344   1.380   1.074   0.835
  815SOL    HW2 3345   1.261   1.057   0.725
  816SOL     OW 3346   6.180   0.674   1.954
  816SOL    HW1 3347   6.226   0.655   1.868
  816SOL    HW2 3348   6.167   0.773   1.964
  817SOL     OW 3349   0.781   2.326   2.117
  817SOL    HW1 3350   0.879   2.309   2.130
  817SOL    HW2 3351   0.730   2.288   2.195
  818SOL     OW 3352   5.677   1.460   2.682
  818SOL    HW1 3353   5.638   1.401   2.753
  818SOL    HW2 3354   5.699   1.549   2.721
  819SOL     OW 3355   0.560   5.339   2.115
  819SOL    HW1 3356   0.538   5.427   2.157
  819SOL    HW2 3357   0.489   5.272   2.137
  820SOL     OW 3358   2.379   3.024   5.799
  820SOL    HW1 3359   2.404   3.089   5.727
  820SOL    HW2 3360   2.316   3.069   5.863
  821SOL     OW 3361   1.070   4.449   0.707
  821SOL    HW1 3362   1.103   4.365   0.663
  821SOL    HW2 3363   1.102   4.528   0.655
  822SOL     OW 3364   0.634   2.898   5.162
  822SOL    HW1 3365   0.727   2.935   5.161
  822SOL    HW2 3366   0.630   2.819   5.222
  823SOL     OW 3367   3.766   3.841   1.858
  823SOL    HW1 3368   3.811   3.782   1.924
  823SOL    HW2 3369   3.753   3.932   1.898
  824SOL     OW 3370   6.349   2.783   6.369
  824SOL    HW1 3371   6.421   2.806   6.303
  824SOL    HW2 3372   6.386   2.788   6.462
  825SOL     OW 3373   1.745   3.006   1.421
  825SOL    HW1 3374   1.731   2.915   1.461
  825SOL    HW2 3375   1.701   3.010   1.331
  826SOL     OW 3376   1.254   2.243   6.591
  826SOL    HW1 3377   1.227   2.148   6.577
  826SOL    HW2 3378   1.281   2.256   6.687
  827SOL     OW 3379   3.358   4.576   1.074
  827SOL    HW1 3380   3.443   4.576   1.022
  827SOL    HW2 3381   3.352   4.659   1.128
  828SOL     OW 3382   6.074   0.695   5.292
  828SOL    HW1 3383   5.984   0.706   5.252
  828SOL    HW2 3384   6.078   0.610   5.343
  829SOL     OW 3385   3.697   3.900   5.482
  829SOL    HW1 3386   3.627   3.856   5.538
  829SOL    HW2 3387   3.743   3.831   5.426
  830SOL     OW 3388   4.608   3.420   6.060
  830SOL    HW1 3389   4.565   3.343   6.107
  830SOL    HW2 3390   4.698   3.392   6.025
  831SOL     OW 3391   5.442   0.500   5.342
  831SOL    HW1 3392   5.478   0.574   5.398
  831SOL    HW2 3393   5.432   0.418   5.399
  832SOL     OW 3394   2.557   1.500   5.983
  832SOL    HW1 3395   2.558   1.400   5.981
  832SOL    HW2 3396   2.640   1.536   5.942
  833SOL     OW 3397   1.320   0.619   4.999
  833SOL    HW1 3398   1.328   0.715   5.026
  833SOL    HW2 3399   1.379   0.563   5.057
  834SOL     OW 3400   3.172   4.645   5.823
  834SOL    HW1 3401   3.263   4.682   5.839
  834SOL    HW2 3402   3.161   4.625   5.725
  835SOL     OW 3403   3.908   1.635   2.114
  835SOL    HW1 3404   3.866   1.601   2.198
  835SOL    HW2 3405   3.836   1.659   2.048
  836SOL     OW 3406   2.331   0.830   6.188
  836SOL    HW1 3407   2.316   0.905   6.253
  836SOL    HW2 3408   2.316   0.743   6.235
  837SOL     OW 3409   4.063   1.829   4.455
  837SOL    HW1 3410   4.067   1.788   4.364
  837SOL    HW2 3411   4.062   1.758   4.525
  838SOL     OW 3412   1.026   6.234   2.067
  838SOL    HW1 3413   1.065   6.147   2.040
  838SOL    HW2 3414   1.099   6.301   2.080
  839SOL     OW 3415   2.246   1.586   1.851
  839SOL    HW1 3416   2.334   1.610   1.809
  839SOL    HW2 3417   2.175   1.648   1.816
  840SOL     OW 3418   1.174   0.914   5.696
  840SOL    HW1 3419   1.197   1.010   5.687
  840SOL    HW2 3420   1.246   0.858   5.655
  841SOL     OW 3421   0.108   3.468   0.959
  841SOL    HW1 3422   0.158   3.425   1.033
  841SOL    HW2 3423   0.172   3.505   0.891
  842SOL     OW 3424   4.104   4.769   4.116
  842SOL    HW1 3425   4.145   4.739   4.030
  842SOL    HW2 3426   4.011   4.734   4.123
  843SOL     OW 3427   0.182   3.410   1.524
  843SOL    HW1 3428   0.198   3.406   1.622
  843SOL    HW2 3429   0.252   3.467   1.481
  844SOL     OW 3430   6.117   4.678   6.197
  844SOL    HW1 3431   6.127   4.601   6.260
  844SOL    HW2 3432   6.103   4.644   6.104
  845SOL     OW 3433   2.147   4.949   5.523
  845SOL    HW1 3434   2.052   4.977   5.528
  845SOL    HW2 3435   2.187   4.980   5.437
  846SOL     OW 3436   4.080   2.180   0.200
  846SOL    HW1 3437   4.075   2.227   0.288
  846SOL    HW2 3438   4.045   2.240   0.129
  847SOL     OW 3439   5.078   4.422   1.960
  847SOL    HW1 3440   5.103   4.433   1.864
  847SOL    HW2 3441   5.148   4.369   2.007
  848SOL     OW 3442   5.799   0.075   5.675
  848SOL    HW1 3443   5.745   0.147   5.631
  848SOL    HW2 3444   5.749   0.037   5.752
  849SOL     OW 3445   0.452   6.013   4.150
  849SOL    HW1 3446   0.465   6.038   4.054
  849SOL    HW2 3447   0.536   6.030   4.200
  850SOL     OW 3448   3.026   0.845   3.312
  850SOL    HW1 3449   2.950   0.788   3.280
  850SOL    HW2 3450   3.111   0.792   3.310
  851SOL     OW 3451   6.949   1.153   5.872
  851SOL    HW1 3452   6.920   1.140   5.967
  851SOL    HW2 3453   7.008   1.077   5.845
  852SOL     OW 3454   2.973   5.226   5.150
  852SOL    HW1 3455   2.922   5.297   5.102
  852SOL    HW2 3456   2.912   5.148   5.168
  853SOL     OW 3457   0.751   4.478   0.696
  853SOL    HW1 3458   0.734   4.406   0.628
  853SOL    HW2 3459   0.848   4.501   0.695
  854SOL     OW 3460   6.031   4.946   1.283
  854SOL    HW1 3461   5.975   5.028   1.271
  854SOL    HW2 3462   6.126   4.973   1.297
  855SOL     OW 3463   4.954   0.220   0.661
  855SOL    HW1 3464   5.037   0.247   0.612
  855SOL    HW2 3465   4.928   0.294   0.723
  856SOL     OW 3466   1.631   0.290   4.611
  856SOL    HW1 3467   1.619   0.193   4.592
  856SOL    HW2 3468   1.596   0.310   4.703
  857SOL     OW 3469   5.576   4.170   1.539
  857SOL    HW1 3470   5.636   4.245   1.512
  857SOL    HW2 3471   5.492   4.174   1.485
  858SOL     OW 3472   3.461   3.920   2.496
  858SOL    HW1 3473   3.373   3.924   2.449
  858SOL    HW2 3474   3.469   3.998   2.558
  859SOL     OW 3475   0.374   4.650   0.474
  859SOL    HW1 3476   0.338   4.678   0.563
  859SOL    HW2 3477   0.474   4.646   0.478
  860SOL     OW 3478   1.566   4.064   6.420
  860SOL    HW1 3479   1.599   4.122   6.345
  860SOL    HW2 3480   1.565   3.969   6.390
  861SOL     OW 3481   4.201   4.461   6.452
  861SOL    HW1 3482   4.273   4.393   6.435
  861SOL    HW2 3483   4.181   4.465   6.550
  862SOL     OW 3484   4.754   4.230   3.577
  862SOL    HW1 3485   4.782   4.186   3.662
  862SOL    HW2 3486   4.704   4.314   3.598
  863SOL     OW 3487   6.129   2.664   1.694
  863SOL    HW1 3488   6.031   2.650   1.680
  863SOL    HW2 3489   6.161   2.739   1.636
  864SOL     OW 3490   0.195   5.681   2.374
  864SOL    HW1 3491   0.102   5.644   2.372
  864SOL    HW2 3492   0.191   5.781   2.375
  865SOL     OW 3493   1.813   0.997   3.784
  865SOL    HW1 3494   1.750   0.958   3.717
  865SOL    HW2 3495   1.875   1.061   3.739
  866SOL     OW 3496   4.408   0.858   1.558
  866SOL    HW1 3497   4.340   0.910   1.506
  866SOL    HW2 3498   4.369   0.769   1.583
  867SOL     OW 3499   2.690   1.874   5.961
  867SOL    HW1 3500   2.774   1.925   5.975
  867SOL    HW2 3501   2.640   1.911   5.883
  868SOL     OW 3502   5.386   1.962   3.724
  868SOL    HW1 3503   5.406   2.026   3.798
  868SOL    HW2 3504   5.320   1.894   3.755
  869SOL     OW 3505   6.686   3.828   0.787
  869SOL    HW1 3506   6.639   3.892   0.848
  869SOL    HW2 3507   6.716   3.748   0.840
  870SOL     OW 3508   6.242   1.535   0.266
  870SOL    HW1 3509   6.202   1.558   0.355
  870SOL    HW2 3510   6.308   1.461   0.278
  871SOL     OW 3511   0.019   4.590   0.756
  871SOL    HW1 3512   6.996   4.504   0.729
  871SOL    HW2 3513   0.091   4.571   0.823
  872SOL     OW 3514   7.004   2.027   1.850
  872SOL    HW1 3515   0.031   2.079   1.920
  872SOL    HW2 3516   6.905   2.035   1.865
  873SOL     OW 3517   3.748   6.837   4.473
  873SOL    HW1 3518   3.706   6.907   4.414
  873SOL    HW2 3519   3.773   6.879   4.560
  874SOL     OW 3520   1.180   4.104   6.449
  874SOL    HW1 3521   1.100   4.164   6.445
  874SOL    HW2 3522   1.219   4.095   6.358
  875SOL     OW 3523   6.243   5.951   6.597
  875SOL    HW1 3524   6.169   6.017   6.609
  875SOL    HW2 3525   6.272   5.950   6.501
  876SOL     OW 3526   3.057   1.730   1.405
  876SOL    HW1 3527   3.083   1.680   1.322
  876SOL    HW2 3528   3.001   1.809   1.380
  877SOL     OW 3529   5.743   5.910   6.170
  877SOL    HW1 3530   5.826   5.892   6.116
  877SOL    HW2 3531   5.689   5.827   6.177
  878SOL     OW 3532   4.101   3.281   0.973
  878SOL    HW1 3533   4.029   3.335   1.016
  878SOL    HW2 3534   4.140   3.218   1.041
  879SOL     OW 3535   5.233   3.317   3.763
  879SOL    HW1 3536   5.176   3.280   3.691
  879SOL    HW2 3537   5.247   3.247   3.834
  880SOL     OW 3538   4.055   6.207   1.766
  880SOL    HW1 3539   4.075   6.178   1.860
  880SOL    HW2 3540   4.141   6.224   1.718
  881SOL     OW 3541   5.282   5.343   3.225
  881SOL    HW1 3542   5.302   5.287   3.306
  881SOL    HW2 3543   5.312   5.295   3.143
  882SOL     OW 3544   0.910   2.134   5.148
  882SOL    HW1 3545   0.819   2.171   5.165
  882SOL    HW2 3546   0.979   2.193   5.189
  883SOL     OW 3547   2.977   4.918   0.112
  883SOL    HW1 3548   2.930   4.872   0.037
  883SOL    HW2 3549   2.928   4.901   0.198
  884SOL     OW 3550   3.775   4.307   1.664
  884SOL    HW1 3551   3.688   4.304   1.714
  884SOL    HW2 3552   3.765   4.257   1.578
  885SOL     OW 3553   4.533   6.096   6.109
  885SOL    HW1 3554   4.464   6.042   6.061
  885SOL    HW2 3555   4.610   6.113   6.047
  886SOL     OW 3556   4.199   2.324   6.237
  886SOL    HW1 3557   4.126   2.266   6.274
  886SOL    HW2 3558   4.159   2.397   6.182
  887SOL     OW 3559   6.337   6.308   4.800
  887SOL    HW1 3560   6.393   6.321   4.718
  887SOL    HW2 3561   6.396   6.291   4.879
  888SOL     OW 3562   6.336   0.928   3.104
  888SOL    HW1 3563   6.407   0.997   3.120
  888SOL    HW2 3564   6.255   0.973   3.067
  889SOL     OW 3565   0.527   0.473   4.847
  889SOL    HW1 3566   0.612   0.493   4.798
  889SOL    HW2 3567   0.450   0.475   4.782
  890SOL     OW 3568   1.987   3.274   0.983
  890SOL    HW1 3569   1.969   3.237   1.074
  890SOL    HW2 3570   2.074   3.239   0.949
  891SOL     OW 3571   5.969   3.508   5.793
  891SOL    HW1 3572   6.020   3.522   5.709
  891SOL    HW2 3573   5.922   3.420   5.789
  892SOL     OW 3574   2.155   4.498   1.648
  892SOL    HW1 3575   2.210   4.473   1.727
  892SOL    HW2 3576   2.064   4.528   1.679
  893SOL     OW 3577   1.902   6.992   2.303
  893SOL    HW1 3578   1.961   6.915   2.280
  893SOL    HW2 3579   1.850   7.019   2.222
  894SOL     OW 3580   1.574   5.457   4.500
  894SOL    HW1 3581   1.647   5.407   4.453
  894SOL    HW2 3582   1.493   5.458   4.442
  895SOL     OW 3583   2.443   0.974   4.450
  895SOL    HW1 3584   2.400   1.024   4.375
  895SOL    HW2 3585   2.542   0.990   4.449
  896SOL     OW 3586   4.419   0.275   3.328
  896SOL    HW1 3587   4.391   0.244   3.237
  896SOL    HW2 3588   4.506   0.323   3.321
  897SOL     OW 3589   6.049   0.990   6.280
  897SOL    HW1 3590   6.060   0.892   6.292
  897SOL    HW2 3591   6.000   1.028   6.358
  898SOL     OW 3592   5.023   6.413   3.708
  898SOL    HW1 3593   5.117   6.379   3.714
  898SOL    HW2 3594   4.968   6.350   3.653
  899SOL     OW 3595   1.397   5.112   0.242
  899SOL    HW1 3596   1.441   5.199   0.265
  899SOL    HW2 3597   1.322   5.095   0.305
  900SOL     OW 3598   0.585   5.455   3.335
  900SOL    HW1 3599   0.613   5.422   3.245
  900SOL    HW2 3600   0.507   5.400   3.367
  901SOL     OW 3601   6.363   1.889   3.279
  901SOL    HW1 3602   6.375   1.802   3.327
  901SOL    HW2 3603   6.279   1.934   3.311
  902SOL     OW 3604   1.444   6.039   0.110
  902SOL    HW1 3605   1.385   6.111   0.076
  902SOL    HW2 3606   1.430   5.956   0.056
  903SOL     OW 3607   1.126   5.009   6.373
  903SOL    HW1 3608   1.098   5.012   6.468
  903SOL    HW2 3609   1.074   5.077   6.320
  904SOL     OW 3610   1.898   1.955   3.865
  904SOL    HW1 3611   1.937   1.886   3.927
  904SOL    HW2 3612   1.971   2.014   3.832
  905SOL     OW 3613   5.832   3.330   3.455
  905SOL    HW1 3614   5.897   3.283   3.515
  905SOL    HW2 3615   5.749   3.275   3.446
  906SOL     OW 3616   6.618   3.361   5.618
  906SOL    HW1 3617   6.527   3.328   5.641
  906SOL    HW2 3618   6.610   3.444   5.562
  907SOL     OW 3619   6.833   3.652   2.409
  907SOL    HW1 3620   6.748   3.676   2.456
  907SOL    HW2 3621   6.875   3.735   2.371
  908SOL     OW 3622   2.796   1.086   3.812
  908SOL    HW1 3623   2.861   1.161   3.815
  908SOL    HW2 3624   2.842   1.003   3.780
  909SOL     OW 3625   3.806   6.868   2.024
  909SOL    HW1 3626   3.828   6.790   2.082
  909SOL    HW2 3627   3.707   6.873   2.011
  910SOL     OW 3628   1.351   0.747   1.807
  910SOL    HW1 3629   1.322   0.796   1.889
  910SOL    HW2 3630   1.436   0.698   1.826
  911SOL     OW 3631   0.930   2.891   0.790
  911SOL    HW1 3632   0.942   2.961   0.719
  911SOL    HW2 3633   0.957   2.929   0.878
  912SOL     OW 3634   1.982   1.025   0.181
  912SOL    HW1 3635   2.013   0.932   0.163
  912SOL    HW2 3636   1.893   1.022   0.226
  913SOL     OW 3637   2.092   1.450   2.213
  913SOL    HW1 3638   2.179   1.442   2.262
  913SOL    HW2 3639   2.022   1.481   2.277
  914SOL     OW 3640   2.763   4.766   2.460
  914SOL    HW1 3641   2.669   4.748   2.429
  914SOL    HW2 3642   2.826   4.753   2.383
  915SOL     OW 3643   2.665   2.192   0.695
  915SOL    HW1 3644   2.658   2.290   0.677
  915SOL    HW2 3645   2.758   2.171   0.724
  916SOL     OW 3646   0.791   3.579   2.180
  916SOL    HW1 3647   0.813   3.505   2.116
  916SOL    HW2 3648   0.788   3.542   2.273
  917SOL     OW 3649   3.441   0.681   6.116
  917SOL    HW1 3650   3.468   0.716   6.026
  917SOL    HW2 3651   3.445   0.755   6.183
  918SOL     OW 3652   0.066   2.320   4.954
  918SOL    HW1 3653   0.142   2.255   4.950
  918SOL    HW2 3654   7.004   2.276   4.919
  919SOL     OW 3655   0.922   1.189   1.103
  919SOL    HW1 3656   0.959   1.100   1.076
  919SOL    HW2 3657   0.933   1.254   1.028
  920SOL     OW 3658   1.292   2.065   2.181
  920SOL    HW1 3659   1.282   1.967   2.162
  920SOL    HW2 3660   1.325   2.112   2.098
  921SOL     OW 3661   4.187   4.502   0.705
  921SOL    HW1 3662   4.123   4.540   0.639
  921SOL    HW2 3663   4.279   4.500   0.665
  922SOL     OW 3664   2.376   5.839   6.938
  922SOL    HW1 3665   2.389   5.795   6.850
  922SOL    HW2 3666   2.282   5.823   6.970
  923SOL     OW 3667   4.059   1.221   6.981
  923SOL    HW1 3668   4.097   1.130   6.962
  923SOL    HW2 3669   3.985   1.213   0.026
  924SOL     OW 3670   5.689   4.834   1.845
  924SOL    HW1 3671   5.682   4.776   1.926
  924SOL    HW2 3672   5.609   4.893   1.838
  925SOL     OW 3673   5.845   2.620   1.820
  925SOL    HW1 3674   5.853   2.540   1.879
  925SOL    HW2 3675   5.806   2.592   1.732
  926SOL     OW 3676   4.153   5.620   1.828
  926SOL    HW1 3677   4.099   5.537   1.815
  926SOL    HW2 3678   4.153   5.645   1.925
  927SOL     OW 3679   4.874   5.345   5.128
  927SOL    HW1 3680   4.896   5.304   5.039
  927SOL    HW2 3681   4.903   5.283   5.201
  928SOL     OW 3682   0.065   1.699   1.581
  928SOL    HW1 3683   0.090   1.638   1.656
  928SOL    HW2 3684   0.025   1.646   1.506
  929SOL     OW 3685   0.188   2.664   2.066
  929SOL    HW1 3686   0.255   2.695   2.134
  929SOL    HW2 3687   0.097   2.664   2.107
  930SOL     OW 3688   6.121   5.079   2.204
  930SOL    HW1 3689   6.089   5.013   2.136
  930SOL    HW2 3690   6.212   5.111   2.180
  931SOL     OW 3691   0.764   2.869   1.780
  931SOL    HW1 3692   0.667   2.892   1.782
  931SOL    HW2 3693   0.776   2.772   1.801
  932SOL     OW 3694   4.480   6.027   1.302
  932SOL    HW1 3695   4.531   5.962   1.358
  932SOL    HW2 3696   4.533   6.111   1.291
  933SOL     OW 3697   0.867   6.480   3.569
  933SOL    HW1 3698   0.949   6.498   3.514
  933SOL    HW2 3699   0.787   6.476   3.510
  934SOL     OW 3700   3.814   1.776   5.222
  934SOL    HW1 3701   3.776   1.684   5.233
  934SOL    HW2 3702   3.774   1.818   5.140
  935SOL     OW 3703   1.247   3.642   4.524
  935SOL    HW1 3704   1.230   3.704   4.447
  935SOL    HW2 3705   1.159   3.613   4.562
  936SOL     OW 3706   0.798   1.408   1.736
  936SOL    HW1 3707   0.884   1.433   1.779
  936SOL    HW2 3708   0.727   1.475   1.761
  937SOL     OW 3709   4.846   2.082   3.206
  937SOL    HW1 3710   4.884   2.159   3.154
  937SOL    HW2 3711   4.911   2.054   3.277
  938SOL     OW 3712   0.693   0.797   6.150
  938SOL    HW1 3713   0.695   0.720   6.214
  938SOL    HW2 3714   0.735   0.768   6.063
  939SOL     OW 3715   6.394   0.989   4.649
  939SOL    HW1 3716   6.459   1.063   4.668
  939SOL    HW2 3717   6.422   0.907   4.699
  940SOL     OW 3718   6.025   6.959   3.317
  940SOL    HW1 3719   5.931   6.989   3.332
  940SOL    HW2 3720   6.042   6.875   3.369
  941SOL     OW 3721   5.675   2.901   5.325
  941SOL    HW1 3722   5.591   2.853   5.303
  941SOL    HW2 3723   5.751   2.836   5.330
  942SOL     OW 3724   4.284   6.616   5.497
  942SOL    HW1 3725   4.255   6.538   5.442
  942SOL    HW2 3726   4.336   6.680   5.440
  943SOL     OW 3727   4.961   2.282   0.212
  943SOL    HW1 3728   4.993   2.219   0.283
  943SOL    HW2 3729   4.862   2.276   0.204
  944SOL     OW 3730   4.950   4.801   4.313
  944SOL    HW1 3731   4.996   4.721   4.273
  944SOL    HW2 3732   4.856   4.776   4.336
  945SOL     OW 3733   5.533   2.690   6.624
  945SOL    HW1 3734   5.473   2.755   6.671
  945SOL    HW2 3735   5.484   2.604   6.607
  946SOL     OW 3736   6.236   3.379   6.204
  946SOL    HW1 3737   6.317   3.338   6.247
  946SOL    HW2 3738   6.190   3.437   6.271
  947SOL     OW 3739   0.978   2.372   6.174
  947SOL    HW1 3740   1.028   2.349   6.257
  947SOL    HW2 3741   0.914   2.298   6.152
  948SOL     OW 3742   3.686   2.108   0.332
  948SOL    HW1 3743   3.630   2.028   0.355
  948SOL    HW2 3744   3.742   2.087   0.252
  949SOL     OW 3745   5.189   5.763   6.113
  949SOL    HW1 3746   5.219   5.667   6.110
  949SOL    HW2 3747   5.270   5.822   6.121
  950SOL     OW 3748   3.364   5.258   0.769
  950SOL    HW1 3749   3.455   5.217   0.772
  950SOL    HW2 3750   3.351   5.303   0.680
  951SOL     OW 3751   1.183   2.711   3.799
  951SOL    HW1 3752   1.233   2.785   3.843
  951SOL    HW2 3753   1.155   2.644   3.869
  952SOL     OW 3754   4.822   0.930   1.301
  952SOL    HW1 3755   4.860   1.011   1.346
  952SOL    HW2 3756   4.887   0.854   1.309
  953SOL     OW 3757   3.742   6.667   5.762
  953SOL    HW1 3758   3.796   6.583   5.759
  953SOL    HW2 3759   3.802   6.745   5.743
  954SOL     OW 3760   6.203   6.608   1.147
  954SOL    HW1 3761   6.106   6.585   1.146
  954SOL    HW2 3762   6.257   6.526   1.164
  955SOL     OW 3763   1.230   6.044   3.503
  955SOL    HW1 3764   1.219   6.121   3.440
  955SOL    HW2 3765   1.191   6.069   3.592
  956SOL     OW 3766   1.802   2.876   0.767
  956SOL    HW1 3767   1.846   2.787   0.784
  956SOL    HW2 3768   1.723   2.885   0.828
  957SOL     OW 3769   2.054   6.140   4.366
  957SOL    HW1 3770   2.037   6.232   4.399
  957SOL    HW2 3771   1.967   6.095   4.346
  958SOL     OW 3772   4.315   2.713   6.787
  958SOL    HW1 3773   4.370   2.734   6.867
  958SOL    HW2 3774   4.356   2.636   6.738
  959SOL     OW 3775   1.590   3.942   0.980
  959SOL    HW1 3776   1.667   3.952   1.043
  959SOL    HW2 3777   1.577   4.027   0.929
  960SOL     OW 3778   1.793   3.786   6.108
  960SOL    HW1 3779   1.714   3.841   6.080
  960SOL    HW2 3780   1.826   3.734   6.029
  961SOL     OW 3781   3.301   6.359   6.467
  961SOL    HW1 3782   3.349   6.352   6.379
  961SOL    HW2 3783   3.339   6.293   6.531
  962SOL     OW 3784   0.921   0.158   3.271
  962SOL    HW1 3785   0.900   0.248   3.234
  962SOL    HW2 3786   1.020   0.144   3.271
  963SOL     OW 3787   5.681   0.252   2.514
  963SOL    HW1 3788   5.779   0.254   2.528
  963SOL    HW2 3789   5.640   0.336   2.550
  964SOL     OW 3790   5.751   4.310   1.332
  964SOL    HW1 3791   5.781   4.392   1.283
  964SOL    HW2 3792   5.676   4.267   1.283
  965SOL     OW 3793   2.111   1.564   0.423
  965SOL    HW1 3794   2.159   1.520   0.347
  965SOL    HW2 3795   2.069   1.649   0.392
  966SOL     OW 3796   5.907   2.941   1.787
  966SOL    HW1 3797   5.839   3.012   1.772
  966SOL    HW2 3798   5.941   2.947   1.882
  967SOL     OW 3799   1.239   5.189   3.081
  967SOL    HW1 3800   1.179   5.196   3.160
  967SOL    HW2 3801   1.231   5.273   3.026
  968SOL     OW 3802   0.380   4.307   0.454
  968SOL    HW1 3803   0.402   4.403   0.439
  968SOL    HW2 3804   0.332   4.270   0.375
  969SOL     OW 3805   3.871   6.741   6.555
  969SOL    HW1 3806   3.904   6.801   6.482
  969SOL    HW2 3807   3.860   6.793   6.639
  970SOL     OW 3808   5.115   3.354   6.171
  970SOL    HW1 3809   5.041   3.346   6.104
  970SOL    HW2 3810   5.097   3.432   6.231
  971SOL     OW 3811   0.101   2.608   6.576
  971SOL    HW1 3812   0.094   2.543   6.652
  971SOL    HW2 3813   0.172   2.675   6.597
  972SOL     OW 3814   4.942   6.992   6.439
  972SOL    HW1 3815   5.031   6.951   6.461
  972SOL    HW2 3816   4.883   6.988   6.520
  973SOL     OW 3817   6.532   3.216   5.876
  973SOL    HW1 3818   6.475   3.292   5.904
  973SOL    HW2 3819   6.628   3.238   5.893
  974SOL     OW 3820   2.330   0.353   4.432
  974SOL    HW1 3821   2.334   0.329   4.335
  974SOL    HW2 3822   2.302   0.448   4.443
  975SOL     OW 3823   2.951   0.044   4.825
  975SOL    HW1 3824   3.017   0.045   4.750
  975SOL    HW2 3825   2.858   0.047   4.788
  976SOL     OW 3826   0.260   5.124   3.984
  976SOL    HW1 3827   0.271   5.127   4.084
  976SOL    HW2 3828   0.306   5.203   3.943
  977SOL     OW 3829   1.363   2.133   1.914
  977SOL    HW1 3830   1.451   2.181   1.913
  977SOL    HW2 3831   1.369   2.052   1.855
  978SOL     OW 3832   5.956   2.968   4.123
  978SOL    HW1 3833   5.953   2.931   4.216
  978SOL    HW2 3834   5.893   3.045   4.116
  979SOL     OW 3835   6.221   1.693   2.933
  979SOL    HW1 3836   6.287   1.756   2.974
  979SOL    HW2 3837   6.268   1.610   2.904
  980SOL     OW 3838   6.578   0.181   5.429
  980SOL    HW1 3839   6.632   0.264   5.413
  980SOL    HW2 3840   6.613   0.134   5.510
  981SOL     OW 3841   6.519   3.152   6.992
  981SOL    HW1 3842   6.454   3.214   6.949
  981SOL    HW2 3843   6.498   3.058   6.966
  982SOL     OW 3844   1.602   4.323   0.593
  982SOL    HW1 3845   1.683   4.378   0.613
  982SOL    HW2 3846   1.520   4.373   0.623
  983SOL     OW 3847   5.408   1.174   3.471
  983SOL    HW1 3848   5.316   1.215   3.466
  983SOL    HW2 3849   5.421   1.135   3.562
  984SOL     OW 3850   4.975   2.937   5.106
  984SOL    HW1 3851   5.029   3.016   5.136
  984SOL    HW2 3852   4.959   2.943   5.008
  985SOL     OW 3853   1.923   4.099   0.440
  985SOL    HW1 3854   1.996   4.109   0.372
  985SOL    HW2 3855   1.918   4.004   0.470
  986SOL     OW 3856   5.090   4.084   5.266
  986SOL    HW1 3857   5.170   4.140   5.244
  986SOL    HW2 3858   5.007   4.140   5.259
  987SOL     OW 3859   3.056   0.794   2.731
  987SOL    HW1 3860   3.007   0.869   2.774
  987SOL    HW2 3861   3.051   0.713   2.789
  988SOL     OW 3862   3.707   2.872   1.383
  988SOL    HW1 3863   3.759   2.897   1.302
  988SOL    HW2 3864   3.749   2.792   1.426
  989SOL     OW 3865   0.702   1.563   4.409
  989SOL    HW1 3866   0.769   1.586   4.338
  989SOL    HW2 3867   0.686   1.465   4.410
  990SOL     OW 3868   4.973   6.867   2.159
  990SOL    HW1 3869   5.059   6.906   2.192
  990SOL    HW2 3870   4.993   6.786   2.104
  991SOL     OW 3871   6.085   1.689   5.666
  991SOL    HW1 3872   6.164   1.670   5.607
  991SOL    HW2 3873   6.084   1.626   5.743
  992SOL     OW 3874   0.190   2.714   0.920
  992SOL    HW1 3875   0.112   2.727   0.981
  992SOL    HW2 3876   0.272   2.751   0.962
  993SOL     OW 3877   4.385   0.146   4.525
  993SOL    HW1 3878   4.371   0.145   4.624
  993SOL    HW2 3879   4.297   0.153   4.479
  994SOL     OW 3880   3.060   3.872   3.373
  994SOL    HW1 3881   3.042   3.824   3.459
  994SOL    HW2 3882   3.146   3.922   3.380
  995SOL     OW 3883   0.869   1.631   5.383
  995SOL    HW1 3884   0.881   1.609   5.286
  995SOL    HW2 3885   0.774   1.659   5.400
  996SOL     OW 3886   1.096   3.330   6.820
  996SOL    HW1 3887   1.159   3.390   6.770
  996SOL    HW2 3888   1.008   3.327   6.773
  997SOL     OW 3889   6.774   1.488   0.261
  997SOL    HW1 3890   6.864   1.486   0.304
  997SOL    HW2 3891   6.706   1.450   0.325
  998SOL     OW 3892   4.892   0.191   3.175
  998SOL    HW1 3893   4.824   0.213   3.104
  998SOL    HW2 3894   4.918   0.274   3.223
  999SOL     OW 3895   6.678   5.459   0.442
  999SOL    HW1 3896   6.771   5.472   0.407
  999SOL    HW2 3897   6.676   5.381   0.503
 1000SOL     OW 3898   4.210   2.060   4.919
 1000SOL    HW1 3899   4.168   2.137   4.871
 1000SOL    HW2 3900   4.186   2.063   5.016
 1001SOL     OW 3901   4.777   1.024   4.988
 1001SOL    HW1 3902   4.813   1.066   4.905
 1001SOL    HW2 3903   4.677   1.021   4.983
 1002SOL     OW 3904   0.586   1.134   0.276
 1002SOL    HW1 3905   0.576   1.034   0.273
 1002SOL    HW2 3906   0.609   1.163   0.369
 1003SOL     OW 3907   4.118   5.106   2.843
 1003SOL    HW1 3908   4.099   5.142   2.752
 1003SOL    HW2 3909   4.039   5.122   2.902
 1004SOL     OW 3910   5.876   5.855   0.206
 1004SOL    HW1 3911   5.785   5.817   0.186
 1004SOL    HW2 3912   5.928   5.790   0.260
 1005SOL     OW 3913   5.829   6.464   3.271
 1005SOL    HW1 3914   5.924   6.444   3.247
 1005SOL    HW2 3915   5.797   6.543   3.219
 1006SOL     OW 3916   1.881   5.342   0.287
 1006SOL    HW1 3917   1.801   5.324   0.231
 1006SOL    HW2 3918   1.857   5.405   0.360
 1007SOL     OW 3919   6.002   1.633   2.768
 1007SOL    HW1 3920   6.086   1.648   2.820
 1007SOL    HW2 3921   6.022   1.636   2.671
 1008SOL     OW 3922   3.192   1.883   5.067
 1008SOL    HW1 3923   3.227   1.943   4.995
 1008SOL    HW2 3924   3.202   1.928   5.156
 1009SOL     OW 3925   3.285   6.280   5.826
 1009SOL    HW1 3926   3.339   6.351   5.871
 1009SOL    HW2 3927   3.336   6.244   5.748
 1010SOL     OW 3928   5.270   6.793   5.430
 1010SOL    HW1 3929   5.308   6.704   5.456
 1010SOL    HW2 3930   5.261   6.798   5.331
 1011SOL     OW 3931   2.816   5.344   4.467
 1011SOL    HW1 3932   2.768   5.410   4.409
 1011SOL    HW2 3933   2.781   5.252   4.450
 1012SOL     OW 3934   3.606   6.486   1.555
 1012SOL    HW1 3935   3.685   6.428   1.533
 1012SOL    HW2 3936   3.621   6.529   1.644
 1013SOL     OW 3937   0.532   0.358   0.168
 1013SOL    HW1 3938   0.543   0.333   0.264
 1013SOL    HW2 3939   0.520   0.275   0.113
 1014SOL     OW 3940   5.960   0.016   5.971
 1014SOL    HW1 3941   5.981   0.077   5.895
 1014SOL    HW2 3942   5.961   0.067   6.057
 1015SOL     OW 3943   2.714   0.629   5.018
 1015SOL    HW1 3944   2.788   0.589   4.964
 1015SOL    HW2 3945   2.651   0.677   4.958
 1016SOL     OW 3946   4.429   3.007   1.340
 1016SOL    HW1 3947   4.432   3.035   1.436
 1016SOL    HW2 3948   4.410   2.909   1.334
 1017SOL     OW 3949   4.482   6.886   6.110
 1017SOL    HW1 3950   4.512   6.889   6.205
 1017SOL    HW2 3951   4.394   6.932   6.101
 1018SOL     OW 3952   1.449   1.908   1.736
 1018SOL    HW1 3953   1.449   1.811   1.710
 1018SOL    HW2 3954   1.406   1.962   1.663
 1019SOL     OW 3955   5.572   1.018   0.742
 1019SOL    HW1 3956   5.621   1.033   0.827
 1019SOL    HW2 3957   5.637   1.013   0.666
 1020SOL     OW 3958   3.566   2.117   1.699
 1020SOL    HW1 3959   3.590   2.193   1.759
 1020SOL    HW2 3960   3.513   2.150   1.621
 1021SOL     OW 3961   6.897   1.861   1.062
 1021SOL    HW1 3962   6.871   1.888   0.969
 1021SOL    HW2 3963   6.965   1.926   1.097
 1022SOL     OW 3964   3.533   3.138   0.272
 1022SOL    HW1 3965   3.565   3.101   0.184
 1022SOL    HW2 3966   3.587   3.098   0.346
 1023SOL     OW 3967   6.493   0.763   4.359
 1023SOL    HW1 3968   6.394   0.771   4.372
 1023SOL    HW2 3969   6.539   0.830   4.417
 1024SOL     OW 3970   6.417   2.450   3.515
 1024SOL    HW1 3971   6.401   2.352   3.504
 1024SOL    HW2 3972   6.375   2.499   3.439
 1025SOL     OW 3973   2.588   4.221   1.575
 1025SOL    HW1 3974   2.517   4.255   1.635
 1025SOL    HW2 3975   2.575   4.257   1.482
 1026SOL     OW 3976   0.699   2.468   6.337
 1026SOL    HW1 3977   0.786   2.440   6.378
 1026SOL    HW2 3978   0.658   2.390   6.289
 1027SOL     OW 3979   2.076   4.977   0.867
 1027SOL    HW1 3980   2.155   4.938   0.915
 1027SOL    HW2 3981   2.000   4.989   0.931
 1028SOL     OW 3982   0.665   5.278   6.965
 1028SOL    HW1 3983   0.617   5.289   0.031
 1028SOL    HW2 3984   0.641   5.191   6.923
 1029SOL     OW 3985   3.715   0.643   4.687
 1029SOL    HW1 3986   3.630   0.599   4.659
 1029SOL    HW2 3987   3.696   0.715   4.753
 1030SOL     OW 3988   4.442   5.123   4.730
 1030SOL    HW1 3989   4.368   5.145   4.793
 1030SOL    HW2 3990   4.514   5.193   4.738
 1031SOL     OW 3991   2.587   6.099   1.147
 1031SOL    HW1 3992   2.555   6.005   1.138
 1031SOL    HW2 3993   2.553   6.154   1.071
 1032SOL     OW 3994   1.003   1.775   5.615
 1032SOL    HW1 3995   1.074   1.822   5.563
 1032SOL    HW2 3996   0.933   1.742   5.553
 1033SOL     OW 3997   3.209   0.003   1.709
 1033SOL    HW1 3998   3.277   6.950   1.710
 1033SOL    HW2 3999   3.211   0.050   1.621
 1034SOL     OW 4000   0.059   5.925   2.361
 1034SOL    HW1 4001   0.029   5.944   2.455
 1034SOL    HW2 4002   0.022   5.995   2.300
 1035SOL     OW 4003   3.399   2.087   3.060
 1035SOL    HW1 4004   3.322   2.124   3.007
 1035SOL    HW2 4005   3.468   2.052   2.997
 1036SOL     OW 4006   4.780   6.968   6.675
 1036SOL    HW1 4007   4.699   6.946   6.730
 1036SOL    HW2 4008   4.862   6.963   6.733
 1037SOL     OW 4009   4.069   1.015   6.027
 1037SOL    HW1 4010   4.130   0.936   6.020
 1037SOL    HW2 4011   4.123   1.097   6.051
 1038SOL     OW 4012   2.713   1.854   5.106
 1038SOL    HW1 4013   2.732   1.852   5.008
 1038SOL    HW2 4014   2.782   1.800   5.155
 1039SOL     OW 4015   5.263   1.766   2.679
 1039SOL    HW1 4016   5.201   1.712   2.623
 1039SOL    HW2 4017   5.347   1.784   2.628
 1040SOL     OW 4018   5.885   4.270   4.376
 1040SOL    HW1 4019   5.848   4.357   4.343
 1040SOL    HW2 4020   5.937   4.285   4.460
 1041SOL     OW 4021   1.715   6.819   4.459
 1041SOL    HW1 4022   1.693   6.809   4.361
 1041SOL    HW2 4023   1.812   6.802   4.473
 1042SOL     OW 4024   4.546   4.248   0.642
 1042SOL    HW1 4025   4.530   4.197   0.558
 1042SOL    HW2 4026   4.493   4.207   0.717
 1043SOL     OW 4027   3.921   0.193   6.486
 1043SOL    HW1 4028   3.959   0.131   6.554
 1043SOL    HW2 4029   3.828   0.218   6.512
 1044SOL     OW 4030   3.728   4.039   3.401
 1044SOL    HW1 4031   3.706   4.076   3.491
 1044SOL    HW2 4032   3.819   3.999   3.403
 1045SOL     OW 4033   2.624   0.957   2.634
 1045SOL    HW1 4034   2.597   0.934   2.727
 1045SOL    HW2 4035   2.708   1.010   2.636
 1046SOL     OW 4036   2.801   0.786   1.987
 1046SOL    HW1 4037   2.826   0.781   2.084
 1046SOL    HW2 4038   2.800   0.694   1.949
 1047SOL     OW 4039   6.843   6.538   1.905
 1047SOL    HW1 4040   6.842   6.438   1.896
 1047SOL    HW2 4041   6.916   6.565   1.967
 1048SOL     OW 4042   6.176   4.016   4.982
 1048SOL    HW1 4043   6.237   3.998   5.059
 1048SOL    HW2 4044   6.082   4.027   5.016
 1049SOL     OW 4045   0.774   3.642   5.612
 1049SOL    HW1 4046   0.850   3.694   5.652
 1049SOL    HW2 4047   0.702   3.630   5.680
 1050SOL     OW 4048   2.750   0.413   1.203
 1050SOL    HW1 4049   2.773   0.322   1.237
 1050SOL    HW2 4050   2.833   0.470   1.204
 1051SOL     OW 4051   4.624   4.607   1.567
 1051SOL    HW1 4052   4.649   4.546   1.641
 1051SOL    HW2 4053   4.600   4.554   1.486
 1052SOL     OW 4054   3.023   0.306   3.766
 1052SOL    HW1 4055   3.033   0.406   3.767
 1052SOL    HW2 4056   2.957   0.279   3.836
 1053SOL     OW 4057   3.830   5.160   3.735
 1053SOL    HW1 4058   3.766   5.117   3.799
 1053SOL    HW2 4059   3.783   5.233   3.686
 1054SOL     OW 4060   4.043   6.076   4.990
 1054SOL    HW1 4061   4.022   6.120   5.077
 1054SOL    HW2 4062   3.993   5.990   4.984
 1055SOL     OW 4063   4.252   4.764   4.328
 1055SOL    HW1 4064   4.302   4.848   4.309
 1055SOL    HW2 4065   4.183   4.749   4.257
 1056SOL     OW 4066   2.739   5.862   0.407
 1056SOL    HW1 4067   2.647   5.900   0.408
 1056SOL    HW2 4068   2.745   5.787   0.472
 1057SOL     OW 4069   3.509   3.990   1.475
 1057SOL    HW1 4070   3.427   3.944   1.441
 1057SOL    HW2 4071   3.549   3.936   1.550
 1058SOL     OW 4072   2.841   6.838   1.864
 1058SOL    HW1 4073   2.912   6.771   1.887
 1058SOL    HW2 4074   2.884   6.922   1.831
 1059SOL     OW 4075   4.474   0.198   0.700
 1059SOL    HW1 4076   4.503   0.106   0.727
 1059SOL    HW2 4077   4.480   0.208   0.601
 1060SOL     OW 4078   3.590   1.592   4.028
 1060SOL    HW1 4079   3.563   1.513   3.972
 1060SOL    HW2 4080   3.508   1.639   4.060
 1061SOL     OW 4081   2.455   5.806   1.020
 1061SOL    HW1 4082   2.380   5.741   1.020
 1061SOL    HW2 4083   2.543   5.757   1.022
 1062SOL     OW 4084   5.029   4.275   4.645
 1062SOL    HW1 4085   4.962   4.209   4.611
 1062SOL    HW2 4086   5.007   4.298   4.740
 1063SOL     OW 4087   3.769   2.169   5.806
 1063SOL    HW1 4088   3.704   2.221   5.862
 1063SOL    HW2 4089   3.723   2.138   5.723
 1064SOL     OW 4090   0.476   3.776   3.102
 1064SOL    HW1 4091   0.539   3.849   3.130
 1064SOL    HW2 4092   0.443   3.795   3.009
 1065SOL     OW 4093   4.246   5.144   6.855
 1065SOL    HW1 4094   4.162   5.090   6.861
 1065SOL    HW2 4095   4.291   5.144   6.945
 1066SOL     OW 4096   4.860   0.354   3.713
 1066SOL    HW1 4097   4.784   0.420   3.707
 1066SOL    HW2 4098   4.823   0.262   3.723
 1067SOL     OW 4099   3.363   4.016   0.218
 1067SOL    HW1 4100   3.305   4.086   0.259
 1067SOL    HW2 4101   3.358   3.932   0.272
 1068SOL     OW 4102   1.040   5.493   1.731
 1068SOL    HW1 4103   1.085   5.501   1.820
 1068SOL    HW2 4104   0.994   5.579   1.709
 1069SOL     OW 4105   3.579   3.339   3.062
 1069SOL    HW1 4106   3.559   3.433   3.090
 1069SOL    HW2 4107   3.511   3.308   2.996
 1070SOL     OW 4108   1.625   6.253   0.669
 1070SOL    HW1 4109   1.689   6.215   0.603
 1070SOL    HW2 4110   1.673   6.278   0.753
 1071SOL     OW 4111   5.112   6.057   3.719
 1071SOL    HW1 4112   5.091   6.097   3.630
 1071SOL    HW2 4113   5.172   6.118   3.770
 1072SOL     OW 4114   4.134   5.823   3.600
 1072SOL    HW1 4115   4.163   5.909   3.642
 1072SOL    HW2 4116   4.138   5.832   3.500
 1073SOL     OW 4117   2.982   5.482   3.336
 1073SOL    HW1 4118   2.888   5.458   3.361
 1073SOL    HW2 4119   3.043   5.407   3.362
 1074SOL     OW 4120   1.970   4.699   3.471
 1074SOL    HW1 4121   1.891   4.651   3.509
 1074SOL    HW2 4122   1.938   4.770   3.408
 1075SOL     OW 4123   0.876   4.222   2.745
 1075SOL    HW1 4124   0.906   4.317   2.751
 1075SOL    HW2 4125   0.851   4.200   2.651
 1076SOL     OW 4126   5.952   3.397   3.234
 1076SOL    HW1 4127   5.891   3.378   3.311
 1076SOL    HW2 4128   6.030   3.450   3.265
 1077SOL     OW 4129   4.385   0.423   1.942
 1077SOL    HW1 4130   4.408   0.520   1.952
 1077SOL    HW2 4131   4.290   0.413   1.915
 1078SOL     OW 4132   6.695   2.698   2.279
 1078SOL    HW1 4133   6.726   2.606   2.253
 1078SOL    HW2 4134   6.597   2.706   2.261
 1079SOL     OW 4135   1.727   4.538   3.190
 1079SOL    HW1 4136   1.723   4.627   3.146
 1079SOL    HW2 4137   1.634   4.502   3.200
 1080SOL     OW 4138   2.053   5.407   3.876
 1080SOL    HW1 4139   2.019   5.472   3.809
 1080SOL    HW2 4140   2.021   5.315   3.851
 1081SOL     OW 4141   1.619   0.235   0.006
 1081SOL    HW1 4142   1.538   0.218   0.062
 1081SOL    HW2 4143   1.609   0.323   6.981
 1082SOL     OW 4144   2.094   0.074   1.036
 1082SOL    HW1 4145   2.102   0.093   0.938
 1082SOL    HW2 4146   2.182   0.041   1.071
 1083SOL     OW 4147   3.593   2.793   1.905
 1083SOL    HW1 4148   3.655   2.795   1.826
 1083SOL    HW2 4149   3.610   2.871   1.964
 1084SOL     OW 4150   6.155   3.870   1.572
 1084SOL    HW1 4151   6.075   3.817   1.545
 1084SOL    HW2 4152   6.126   3.957   1.611
 1085SOL     OW 4153   1.513   5.601   4.114
 1085SOL    HW1 4154   1.418   5.572   4.102
 1085SOL    HW2 4155   1.516   5.674   4.183
 1086SOL     OW 4156   3.080   5.727   2.853
 1086SOL    HW1 4157   3.163   5.683   2.817
 1086SOL    HW2 4158   3.010   5.658   2.870
 1087SOL     OW 4159   4.109   3.077   5.342
 1087SOL    HW1 4160   4.093   2.983   5.312
 1087SOL    HW2 4161   4.189   3.079   5.402
 1088SOL     OW 4162   0.049   4.367   2.673
 1088SOL    HW1 4163   0.095   4.404   2.593
 1088SOL    HW2 4164   0.104   4.386   2.755
 1089SOL     OW 4165   6.699   6.974   3.083
 1089SOL    HW1 4166   6.698   6.942   3.178
 1089SOL    HW2 4167   6.753   6.912   3.027
 1090SOL     OW 4168   2.620   2.145   6.420
 1090SOL    HW1 4169   2.664   2.061   6.388
 1090SOL    HW2 4170   2.564   2.184   6.347
 1091SOL     OW 4171   1.519   2.098   6.133
 1091SOL    HW1 4172   1.501   2.081   6.036
 1091SOL    HW2 4173   1.446   2.058   6.188
 1092SOL     OW 4174   3.208   4.797   1.664
 1092SOL    HW1 4175   3.147   4.796   1.743
 1092SOL    HW2 4176   3.273   4.872   1.673
 1093SOL     OW 4177   0.550   2.548   1.372
 1093SOL    HW1 4178   0.492   2.555   1.453
 1093SOL    HW2 4179   0.492   2.547   1.290
 1094SOL     OW 4180   1.196   6.019   2.680
 1094SOL    HW1 4181   1.140   5.975   2.609
 1094SOL    HW2 4182   1.144   6.093   2.722
 1095SOL     OW 4183   1.175   3.197   5.983
 1095SOL    HW1 4184   1.195   3.231   6.075
 1095SOL    HW2 4185   1.260   3.187   5.932
 1096SOL     OW 4186   3.624   3.019   2.714
 1096SOL    HW1 4187   3.592   3.114   2.725
 1096SOL    HW2 4188   3.581   2.962   2.784
 1097SOL     OW 4189   2.968   5.135   5.734
 1097SOL    HW1 4190   2.906   5.214   5.744
 1097SOL    HW2 4191   2.928   5.056   5.781
 1098SOL     OW 4192   2.953   0.691   2.496
 1098SOL    HW1 4193   2.993   0.710   2.586
 1098SOL    HW2 4194   3.020   0.642   2.439
 1099SOL     OW 4195   3.016   0.485   2.100
 1099SOL    HW1 4196   3.084   0.555   2.123
 1099SOL    HW2 4197   3.058   0.415   2.043
 1100SOL     OW 4198   6.666   0.879   0.367
 1100SOL    HW1 4199   6.757   0.885   0.407
 1100SOL    HW2 4200   6.668   0.818   0.288
 1101SOL     OW 4201   5.811   3.568   1.019
 1101SOL    HW1 4202   5.875   3.613   1.081
 1101SOL    HW2 4203   5.718   3.579   1.053
 1102SOL     OW 4204   0.043   3.821   4.011
 1102SOL    HW1 4205   0.100   3.886   4.062
 1102SOL    HW2 4206   0.082   3.730   4.019
 1103SOL     OW 4207   0.525   2.668   0.131
 1103SOL    HW1 4208   0.592   2.645   0.060
 1103SOL    HW2 4209   0.528   2.766   0.148
 1104SOL     OW 4210   2.503   5.640   5.579
 1104SOL    HW1 4211   2.480   5.724   5.628
 1104SOL    HW2 4212   2.568   5.661   5.506
 1105SOL     OW 4213   4.031   5.790   0.535
 1105SOL    HW1 4214   4.123   5.811   0.503
 1105SOL    HW2 4215   3.989   5.873   0.572
 1106SOL     OW 4216   0.626   1.514   6.824
 1106SOL    HW1 4217   0.676   1.522   6.911
 1106SOL    HW2 4218   0.571   1.431   6.825
 1107SOL     OW 4219   6.531   0.015   1.424
 1107SOL    HW1 4220   6.494   0.106   1.441
 1107SOL    HW2 4221   6.457   6.975   1.395
 1108SOL     OW 4222   1.452   1.274   0.555
 1108SOL    HW1 4223   1.445   1.177   0.576
 1108SOL    HW2 4224   1.431   1.328   0.637
 1109SOL     OW 4225   4.195   1.213   3.698
 1109SOL    HW1 4226   4.096   1.218   3.693
 1109SOL    HW2 4227   4.225   1.120   3.673
 1110SOL     OW 4228   3.868   3.344   3.255
 1110SOL    HW1 4229   3.812   3.386   3.326
 1110SOL    HW2 4230   3.942   3.292   3.297
 1111SOL     OW 4231   4.077   6.595   6.733
 1111SOL    HW1 4232   4.158   6.649   6.711
 1111SOL    HW2 4233   3.998   6.630   6.681
 1112SOL     OW 4234   1.113   1.571   2.806
 1112SOL    HW1 4235   1.144   1.655   2.850
 1112SOL    HW2 4236   1.020   1.550   2.837
 1113SOL     OW 4237   6.591   3.638   1.621
 1113SOL    HW1 4238   6.552   3.555   1.582
 1113SOL    HW2 4239   6.518   3.704   1.640
 1114SOL     OW 4240   5.931   1.059   5.746
 1114SOL    HW1 4241   5.989   1.056   5.827
 1114SOL    HW2 4242   5.896   0.967   5.727
 1115SOL     OW 4243   2.161   5.074   0.336
 1115SOL    HW1 4244   2.243   5.106   0.383
 1115SOL    HW2 4245   2.111   5.152   0.297
 1116SOL     OW 4246   3.694   6.051   6.581
 1116SOL    HW1 4247   3.718   6.038   6.484
 1116SOL    HW2 4248   3.687   5.962   6.625
 1117SOL     OW 4249   2.680   2.798   0.799
 1117SOL    HW1 4250   2.753   2.866   0.810
 1117SOL    HW2 4251   2.609   2.835   0.739
 1118SOL     OW 4252   1.517   2.811   1.502
 1118SOL    HW1 4253   1.475   2.832   1.590
 1118SOL    HW2 4254   1.612   2.784   1.515
 1119SOL     OW 4255   2.952   3.811   3.857
 1119SOL    HW1 4256   2.991   3.821   3.948
 1119SOL    HW2 4257   2.904   3.723   3.851
 1120SOL     OW 4258   3.534   1.157   3.611
 1120SOL    HW1 4259   3.550   1.192   3.518
 1120SOL    HW2 4260   3.441   1.121   3.618
 1121SOL     OW 4261   4.836   3.975   3.117
 1121SOL    HW1 4262   4.784   4.048   3.161
 1121SOL    HW2 4263   4.808   3.887   3.155
 1122SOL     OW 4264   4.762   4.871   6.483
 1122SOL    HW1 4265   4.762   4.970   6.500
 1122SOL    HW2 4266   4.813   4.825   6.556
 1123SOL     OW 4267   3.529   0.617   2.004
 1123SOL    HW1 4268   3.617   0.662   1.987
 1123SOL    HW2 4269   3.484   0.660   2.082
 1124SOL     OW 4270   2.142   5.179   3.590
 1124SOL    HW1 4271   2.154   5.080   3.589
 1124SOL    HW2 4272   2.143   5.215   3.497
 1125SOL     OW 4273   3.259   4.185   5.466
 1125SOL    HW1 4274   3.193   4.194   5.391
 1125SOL    HW2 4275   3.220   4.125   5.536
 1126SOL     OW 4276   6.597   0.517   1.928
 1126SOL    HW1 4277   6.537   0.488   2.003
 1126SOL    HW2 4278   6.683   0.551   1.967
 1127SOL     OW 4279   2.068   5.542   6.042
 1127SOL    HW1 4280   1.997   5.471   6.043
 1127SOL    HW2 4281   2.150   5.507   5.997
 1128SOL     OW 4282   2.257   2.485   5.132
 1128SOL    HW1 4283   2.281   2.554   5.063
 1128SOL    HW2 4284   2.223   2.403   5.087
 1129SOL     OW 4285   4.147   5.283   6.352
 1129SOL    HW1 4286   4.143   5.283   6.452
 1129SOL    HW2 4287   4.210   5.355   6.321
 1130SOL     OW 4288   1.266   5.160   5.529
 1130SOL    HW1 4289   1.180   5.154   5.579
 1130SOL    HW2 4290   1.317   5.241   5.558
 1131SOL     OW 4291   0.151   4.804   6.326
 1131SOL    HW1 4292   0.110   4.726   6.373
 1131SOL    HW2 4293   0.173   4.779   6.232
 1132SOL     OW 4294   5.207   6.715   5.157
 1132SOL    HW1 4295   5.114   6.748   5.142
 1132SOL    HW2 4296   5.207   6.615   5.157
 1133SOL     OW 4297   6.589   1.859   6.488
 1133SOL    HW1 4298   6.565   1.932   6.552
 1133SOL    HW2 4299   6.597   1.897   6.395
 1134SOL     OW 4300   0.109   3.097   5.462
 1134SOL    HW1 4301   0.080   3.169   5.524
 1134SOL    HW2 4302   0.195   3.058   5.494
 1135SOL     OW 4303   0.202   1.800   4.361
 1135SOL    HW1 4304   0.296   1.776   4.339
 1135SOL    HW2 4305   0.144   1.719   4.357
 1136SOL     OW 4306   3.697   5.378   3.934
 1136SOL    HW1 4307   3.632   5.440   3.890
 1136SOL    HW2 4308   3.647   5.301   3.975
 1137SOL     OW 4309   0.649   0.526   6.996
 1137SOL    HW1 4310   0.616   0.618   7.016
 1137SOL    HW2 4311   0.604   0.460   0.035
 1138SOL     OW 4312   1.018   3.149   5.715
 1138SOL    HW1 4313   1.098   3.182   5.763
 1138SOL    HW2 4314   1.044   3.114   5.625
 1139SOL     OW 4315   0.608   0.301   2.473
 1139SOL    HW1 4316   0.625   0.257   2.561
 1139SOL    HW2 4317   0.519   0.272   2.438
 1140SOL     OW 4318   4.030   1.924   3.158
 1140SOL    HW1 4319   3.933   1.902   3.170
 1140SOL    HW2 4320   4.053   1.918   3.061
 1141SOL     OW 4321   0.125   6.449   6.114
 1141SOL    HW1 4322   0.201   6.513   6.121
 1141SOL    HW2 4323   0.047   6.493   6.070
 1142SOL     OW 4324   6.426   6.842   5.038
 1142SOL    HW1 4325   6.416   6.937   5.009
 1142SOL    HW2 4326   6.520   6.825   5.066
 1143SOL     OW 4327   5.346   2.888   1.109
 1143SOL    HW1 4328   5.378   2.814   1.167
 1143SOL    HW2 4329   5.246   2.884   1.102
 1144SOL     OW 4330   0.955   6.440   4.844
 1144SOL    HW1 4331   1.013   6.383   4.902
 1144SOL    HW2 4332   0.911   6.383   4.774
 1145SOL     OW 4333   2.192   5.183   4.787
 1145SOL    HW1 4334   2.225   5.100   4.742
 1145SOL    HW2 4335   2.256   5.208   4.860
 1146SOL     OW 4336   5.734   1.909   1.969
 1146SOL    HW1 4337   5.782   1.897   2.056
 1146SOL    HW2 4338   5.800   1.928   1.896
 1147SOL     OW 4339   6.576   3.880   2.208
 1147SOL    HW1 4340   6.647   3.940   2.170
 1147SOL    HW2 4341   6.587   3.874   2.307
 1148SOL     OW 4342   6.348   0.313   6.382
 1148SOL    HW1 4343   6.301   0.400   6.398
 1148SOL    HW2 4344   6.294   0.256   6.320
 1149SOL     OW 4345   4.967   3.401   3.065
 1149SOL    HW1 4346   4.989   3.346   2.985
 1149SOL    HW2 4347   4.986   3.497   3.045
 1150SOL     OW 4348   1.891   6.238   5.270
 1150SOL    HW1 4349   1.824   6.312   5.279
 1150SOL    HW2 4350   1.915   6.226   5.174
 1151SOL     OW 4351   2.387   5.450   0.109
 1151SOL    HW1 4352   2.441   5.521   0.063
 1151SOL    HW2 4353   2.301   5.489   0.142
 1152SOL     OW 4354   6.670   0.731   3.328
 1152SOL    HW1 4355   6.681   0.776   3.239
 1152SOL    HW2 4356   6.615   0.648   3.317
 1153SOL     OW 4357   2.290   4.343   2.439
 1153SOL    HW1 4358   2.275   4.441   2.446
 1153SOL    HW2 4359   2.327   4.309   2.526
 1154SOL     OW 4360   1.826   4.142   2.092
 1154SOL    HW1 4361   1.840   4.223   2.149
 1154SOL    HW2 4362   1.728   4.132   2.073
 1155SOL     OW 4363   4.912   0.690   1.929
 1155SOL    HW1 4364   4.852   0.769   1.939
 1155SOL    HW2 4365   4.894   0.626   2.004
 1156SOL     OW 4366   2.378   0.676   4.584
 1156SOL    HW1 4367   2.425   0.763   4.568
 1156SOL    HW2 4368   2.280   0.693   4.594
 1157SOL     OW 4369   1.413   3.422   3.679
 1157SOL    HW1 4370   1.481   3.351   3.702
 1157SOL    HW2 4371   1.337   3.416   3.743
 1158SOL     OW 4372   4.640   5.189   6.012
 1158SOL    HW1 4373   4.616   5.115   5.950
 1158SOL    HW2 4374   4.650   5.152   6.105
 1159SOL     OW 4375   6.164   4.547   2.717
 1159SOL    HW1 4376   6.187   4.579   2.809
 1159SOL    HW2 4377   6.145   4.626   2.658
 1160SOL     OW 4378   2.914   2.337   1.320
 1160SOL    HW1 4379   2.964   2.265   1.369
 1160SOL    HW2 4380   2.864   2.297   1.243
 1161SOL     OW 4381   3.903   0.905   3.519
 1161SOL    HW1 4382   3.994   0.894   3.558
 1161SOL    HW2 4383   3.911   0.917   3.420
 1162SOL     OW 4384   3.804   5.071   1.867
 1162SOL    HW1 4385   3.796   5.018   1.951
 1162SOL    HW2 4386   3.732   5.141   1.866
 1163SOL     OW 4387   4.966   6.770   2.512
 1163SOL    HW1 4388   4.943   6.865   2.494
 1163SOL    HW2 4389   4.889   6.711   2.487
 1164SOL     OW 4390   6.699   4.249   4.836
 1164SOL    HW1 4391   6.753   4.264   4.920
 1164SOL    HW2 4392   6.740   4.175   4.783
 1165SOL     OW 4393   0.534   4.856   1.891
 1165SOL    HW1 4394   0.551   4.773   1.837
 1165SOL    HW2 4395   0.472   4.835   1.966
 1166SOL     OW 4396   3.503   0.645   6.776
 1166SOL    HW1 4397   3.559   0.578   6.824
 1166SOL    HW2 4398   3.406   0.621   6.785
 1167SOL     OW 4399   4.647   1.710   5.478
 1167SOL    HW1 4400   4.652   1.634   5.543
 1167SOL    HW2 4401   4.740   1.745   5.461
 1168SOL     OW 4402   5.686   0.966   3.594
 1168SOL    HW1 4403   5.621   0.934   3.525
 1168SOL    HW2 4404   5.691   1.066   3.592
 1169SOL     OW 4405   1.729   2.460   1.011
 1169SOL    HW1 4406   1.719   2.559   1.002
 1169SOL    HW2 4407   1.765   2.438   1.102
 1170SOL     OW 4408   2.570   0.940   1.370
 1170SOL    HW1 4409   2.551   0.929   1.467
 1170SOL    HW2 4410   2.552   1.034   1.342
 1171SOL     OW 4411   4.379   0.996   0.869
 1171SOL    HW1 4412   4.377   0.918   0.931
 1171SOL    HW2 4413   4.305   0.986   0.802
 1172SOL     OW 4414   3.354   3.243   5.624
 1172SOL    HW1 4415   3.312   3.312   5.683
 1172SOL    HW2 4416   3.300   3.159   5.625
 1173SOL     OW 4417   5.601   6.398   5.885
 1173SOL    HW1 4418   5.581   6.442   5.972
 1173SOL    HW2 4419   5.555   6.447   5.811
 1174SOL     OW 4420   3.707   5.806   6.697
 1174SOL    HW1 4421   3.769   5.790   6.621
 1174SOL    HW2 4422   3.747   5.769   6.781
 1175SOL     OW 4423   0.120   5.117   4.627
 1175SOL    HW1 4424   0.082   5.109   4.719
 1175SOL    HW2 4425   0.174   5.035   4.606
 1176SOL     OW 4426   6.176   3.421   1.734
 1176SOL    HW1 4427   6.258   3.367   1.754
 1176SOL    HW2 4428   6.182   3.457   1.641
 1177SOL     OW 4429   6.289   3.346   5.945
 1177SOL    HW1 4430   6.267   3.344   6.043
 1177SOL    HW2 4431   6.205   3.344   5.891
 1178SOL     OW 4432   4.212   5.151   2.402
 1178SOL    HW1 4433   4.305   5.167   2.368
 1178SOL    HW2 4434   4.183   5.058   2.378
 1179SOL     OW 4435   1.446   5.199   5.997
 1179SOL    HW1 4436   1.488   5.169   5.911
 1179SOL    HW2 4437   1.410   5.120   6.046
 1180SOL     OW 4438   1.945   0.822   4.089
 1180SOL    HW1 4439   1.846   0.818   4.076
 1180SOL    HW2 4440   1.985   0.884   4.022
 1181SOL     OW 4441   1.512   4.559   2.445
 1181SOL    HW1 4442   1.556   4.475   2.476
 1181SOL    HW2 4443   1.433   4.537   2.387
 1182SOL     OW 4444   0.511   3.532   4.248
 1182SOL    HW1 4445   0.538   3.612   4.195
 1182SOL    HW2 4446   0.581   3.461   4.240
 1183SOL     OW 4447   4.145   5.659   0.786
 1183SOL    HW1 4448   4.131   5.744   0.735
 1183SOL    HW2 4449   4.057   5.629   0.824
 1184SOL     OW 4450   3.664   2.764   6.346
 1184SOL    HW1 4451   3.632   2.670   6.329
 1184SOL    HW2 4452   3.676   2.810   6.258
 1185SOL     OW 4453   3.044   1.325   6.498
 1185SOL    HW1 4454   3.049   1.338   6.399
 1185SOL    HW2 4455   3.126   1.276   6.529
 1186SOL     OW 4456   3.846   6.819   4.961
 1186SOL    HW1 4457   3.866   6.736   5.013
 1186SOL    HW2 4458   3.919   6.835   4.894
 1187SOL     OW 4459   0.707   2.362   4.382
 1187SOL    HW1 4460   0.659   2.291   4.330
 1187SOL    HW2 4461   0.650   2.445   4.385
 1188SOL     OW 4462   1.792   1.036   5.329
 1188SOL    HW1 4463   1.700   1.054   5.364
 1188SOL    HW2 4464   1.823   1.113   5.274
 1189SOL     OW 4465   1.181   1.129   1.424
 1189SOL    HW1 4466   1.274   1.135   1.462
 1189SOL    HW2 4467   1.121   1.191   1.475
 1190SOL     OW 4468   3.557   5.972   2.360
 1190SOL    HW1 4469   3.637   6.020   2.395
 1190SOL    HW2 4470   3.587   5.890   2.311
 1191SOL     OW 4471   2.287   4.195   1.956
 1191SOL    HW1 4472   2.299   4.170   2.052
 1191SOL    HW2 4473   2.189   4.203   1.937
 1192SOL     OW 4474   3.702   5.826   2.925
 1192SOL    HW1 4475   3.611   5.811   2.965
 1192SOL    HW2 4476   3.768   5.765   2.969
 1193SOL     OW 4477   2.964   1.288   3.802
 1193SOL    HW1 4478   2.962   1.345   3.720
 1193SOL    HW2 4479   3.044   1.313   3.858
 1194SOL     OW 4480   6.654   1.953   2.821
 1194SOL    HW1 4481   6.733   1.994   2.866
 1194SOL    HW2 4482   6.677   1.932   2.726
 1195SOL     OW 4483   3.360   0.066   0.259
 1195SOL    HW1 4484   3.276   0.118   0.275
 1195SOL    HW2 4485   3.438   0.116   0.296
 1196SOL     OW 4486   1.979   5.516   3.614
 1196SOL    HW1 4487   2.039   5.463   3.554
 1196SOL    HW2 4488   1.982   5.613   3.588
 1197SOL     OW 4489   3.741   4.976   0.006
 1197SOL    HW1 4490   3.683   5.057   0.015
 1197SOL    HW2 4491   3.754   4.934   0.096
 1198SOL     OW 4492   3.222   0.675   3.266
 1198SOL    HW1 4493   3.236   0.582   3.231
 1198SOL    HW2 4494   3.309   0.724   3.262
 1199SOL     OW 4495   3.841   3.927   3.859
 1199SOL    HW1 4496   3.883   3.862   3.795
 1199SOL    HW2 4497   3.757   3.887   3.896
 1200SOL     OW 4498   4.434   3.636   1.195
 1200SOL    HW1 4499   4.517   3.589   1.224
 1200SOL    HW2 4500   4.455   3.697   1.119
 1201SOL     OW 4501   1.797   2.100   5.304
 1201SOL    HW1 4502   1.769   2.042   5.227
 1201SOL    HW2 4503   1.751   2.069   5.387
 1202SOL     OW 4504   6.229   6.515   4.387
 1202SOL    HW1 4505   6.132   6.515   4.411
 1202SOL    HW2 4506   6.239   6.505   4.288
 1203SOL     OW 4507   6.145   0.200   2.116
 1203SOL    HW1 4508   6.184   0.161   2.033
 1203SOL    HW2 4509   6.216   0.205   2.186
 1204SOL     OW 4510   2.187   6.832   0.244
 1204SOL    HW1 4511   2.227   6.923   0.235
 1204SOL    HW2 4512   2.101   6.839   0.295
 1205SOL     OW 4513   0.829   3.410   5.972
 1205SOL    HW1 4514   0.890   3.404   5.893
 1205SOL    HW2 4515   0.739   3.374   5.947
 1206SOL     OW 4516   6.017   1.255   5.220
 1206SOL    HW1 4517   6.071   1.337   5.239
 1206SOL    HW2 4518   6.026   1.190   5.295
 1207SOL     OW 4519   6.407   6.065   6.365
 1207SOL    HW1 4520   6.461   6.131   6.313
 1207SOL    HW2 4521   6.443   6.058   6.458
 1208SOL     OW 4522   3.685   3.424   2.603
 1208SOL    HW1 4523   3.622   3.499   2.585
 1208SOL    HW2 4524   3.651   3.340   2.561
 1209SOL     OW 4525   6.812   3.785   5.091
 1209SOL    HW1 4526   6.902   3.764   5.129
 1209SOL    HW2 4527   6.810   3.881   5.062
 1210SOL     OW 4528   2.198   0.377   3.410
 1210SOL    HW1 4529   2.111   0.406   3.370
 1210SOL    HW2 4530   2.263   0.355   3.337
 1211SOL     OW 4531   0.067   3.691   3.522
 1211SOL    HW1 4532   0.078   3.597   3.490
 1211SOL    HW2 4533   7.010   3.695   3.585
 1212SOL     OW 4534   0.828   4.399   3.295
 1212SOL    HW1 4535   0.785   4.311   3.274
 1212SOL    HW2 4536   0.920   4.401   3.255
 1213SOL     OW 4537   5.810   3.631   4.854
 1213SOL    HW1 4538   5.839   3.540   4.824
 1213SOL    HW2 4539   5.765   3.622   4.944
 1214SOL     OW 4540   0.821   1.887   1.186
 1214SOL    HW1 4541   0.771   1.974   1.188
 1214SOL    HW2 4542   0.765   1.815   1.227
 1215SOL     OW 4543   0.789   5.638   2.526
 1215SOL    HW1 4544   0.875   5.634   2.476
 1215SOL    HW2 4545   0.808   5.659   2.622
 1216SOL     OW 4546   2.372   6.931   1.378
 1216SOL    HW1 4547   2.407   7.019   1.412
 1216SOL    HW2 4548   2.359   6.937   1.279
 1217SOL     OW 4549   2.020   2.742   3.204
 1217SOL    HW1 4550   1.975   2.668   3.254
 1217SOL    HW2 4551   1.983   2.748   3.112
 1218SOL     OW 4552   0.299   4.117   3.238
 1218SOL    HW1 4553   0.284   4.043   3.303
 1218SOL    HW2 4554   0.326   4.200   3.287
 1219SOL     OW 4555   2.153   6.218   3.129
 1219SOL    HW1 4556   2.229   6.239   3.067
 1219SOL    HW2 4557   2.180   6.239   3.223
 1220SOL     OW 4558   6.322   4.881   2.442
 1220SOL    HW1 4559   6.344   4.856   2.348
 1220SOL    HW2 4560   6.324   4.981   2.451
 1221SOL     OW 4561   4.984   4.796   6.674
 1221SOL    HW1 4562   5.026   4.709   6.651
 1221SOL    HW2 4563   5.020   4.829   6.761
 1222SOL     OW 4564   6.558   4.552   1.612
 1222SOL    HW1 4565   6.464   4.537   1.583
 1222SOL    HW2 4566   6.621   4.515   1.544
 1223SOL     OW 4567   0.491   4.770   4.581
 1223SOL    HW1 4568   0.469   4.673   4.593
 1223SOL    HW2 4569   0.578   4.789   4.626
 1224SOL     OW 4570   4.385   4.063   1.455
 1224SOL    HW1 4571   4.484   4.072   1.462
 1224SOL    HW2 4572   4.342   4.121   1.524
 1225SOL     OW 4573   5.368   1.532   6.862
 1225SOL    HW1 4574   5.340   1.484   6.945
 1225SOL    HW2 4575   5.420   1.469   6.804
 1226SOL     OW 4576   5.900   5.582   0.885
 1226SOL    HW1 4577   5.979   5.600   0.826
 1226SOL    HW2 4578   5.916   5.498   0.936
 1227SOL     OW 4579   5.242   4.309   6.867
 1227SOL    HW1 4580   5.309   4.377   6.839
 1227SOL    HW2 4581   5.225   4.318   6.965
 1228SOL     OW 4582   4.151   3.567   4.885
 1228SOL    HW1 4583   4.209   3.566   4.966
 1228SOL    HW2 4584   4.055   3.561   4.912
 1229SOL     OW 4585   2.187   5.099   2.033
 1229SOL    HW1 4586   2.211   5.167   2.102
 1229SOL    HW2 4587   2.128   5.140   1.964
 1230SOL     OW 4588   5.094   4.531   0.049
 1230SOL    HW1 4589   5.022   4.592   0.081
 1230SOL    HW2 4590   5.111   4.548   6.973
 1231SOL     OW 4591   1.733   0.445   0.764
 1231SOL    HW1 4592   1.689   0.398   0.688
 1231SOL    HW2 4593   1.815   0.493   0.731
 1232SOL     OW 4594   2.262   1.674   5.806
 1232SOL    HW1 4595   2.227   1.581   5.799
 1232SOL    HW2 4596   2.299   1.689   5.898
 1233SOL     OW 4597   0.135   5.355   4.515
 1233SOL    HW1 4598   0.085   5.420   4.572
 1233SOL    HW2 4599   0.133   5.265   4.558
 1234SOL     OW 4600   6.973   4.521   5.388
 1234SOL    HW1 4601   6.977   4.477   5.478
 1234SOL    HW2 4602   0.013   4.472   5.325
 1235SOL     OW 4603   6.241   5.388   1.055
 1235SOL    HW1 4604   6.149   5.363   1.024
 1235SOL    HW2 4605   6.309   5.337   1.001
 1236SOL     OW 4606   0.073   0.847   2.576
 1236SOL    HW1 4607   0.081   0.928   2.518
 1236SOL    HW2 4608   0.121   0.864   2.663
 1237SOL     OW 4609   0.581   0.497   4.266
 1237SOL    HW1 4610   0.522   0.461   4.193
 1237SOL    HW2 4611   0.619   0.420   4.318
 1238SOL     OW 4612   0.496   1.146   4.261
 1238SOL    HW1 4613   0.396   1.150   4.257
 1238SOL    HW2 4614   0.525   1.051   4.275
 1239SOL     OW 4615   5.521   4.803   3.747
 1239SOL    HW1 4616   5.499   4.766   3.837
 1239SOL    HW2 4617   5.458   4.765   3.679
 1240SOL     OW 4618   0.848   4.378   1.484
 1240SOL    HW1 4619   0.798   4.428   1.414
 1240SOL    HW2 4620   0.826   4.415   1.574
 1241SOL     OW 4621   3.373   5.153   6.461
 1241SOL    HW1 4622   3.341   5.215   6.389
 1241SOL    HW2 4623   3.458   5.188   6.500
 1242SOL     OW 4624   2.058   5.508   1.120
 1242SOL    HW1 4625   1.992   5.578   1.147
 1242SOL    HW2 4626   2.137   5.552   1.077
 1243SOL     OW 4627   0.359   3.722   3.634
 1243SOL    HW1 4628   0.284   3.763   3.582
 1243SOL    HW2 4629   0.422   3.677   3.571
 1244SOL     OW 4630   6.797   6.844   4.777
 1244SOL    HW1 4631   6.791   6.916   4.847
 1244SOL    HW2 4632   6.715   6.846   4.720
 1245SOL     OW 4633   4.678   0.604   1.455
 1245SOL    HW1 4634   4.705   0.517   1.496
 1245SOL    HW2 4635   4.659   0.591   1.358
 1246SOL     OW 4636   5.087   2.661   1.863
 1246SOL    HW1 4637   5.083   2.623   1.955
 1246SOL    HW2 4638   5.040   2.749   1.861
 1247SOL     OW 4639   4.906   7.005   2.417
 1247SOL    HW1 4640   4.921   0.083   2.420
 1247SOL    HW2 4641   4.936   6.969   2.329
 1248SOL     OW 4642   0.546   6.996   4.743
 1248SOL    HW1 4643   0.566   6.899   4.733
 1248SOL    HW2 4644   0.511   7.014   4.835
 1249SOL     OW 4645   6.752   6.832   6.572
 1249SOL    HW1 4646   6.844   6.863   6.594
 1249SOL    HW2 4647   6.722   6.766   6.641
 1250SOL     OW 4648   0.582   4.425   5.336
 1250SOL    HW1 4649   0.582   4.325   5.340
 1250SOL    HW2 4650   0.500   4.456   5.287
 1251SOL     OW 4651   2.392   0.742   3.252
 1251SOL    HW1 4652   2.315   0.751   3.316
 1251SOL    HW2 4653   2.359   0.708   3.164
 1252SOL     OW 4654   2.255   5.238   6.462
 1252SOL    HW1 4655   2.287   5.152   6.502
 1252SOL    HW2 4656   2.333   5.298   6.445
 1253SOL     OW 4657   2.812   5.686   0.593
 1253SOL    HW1 4658   2.806   5.771   0.645
 1253SOL    HW2 4659   2.908   5.662   0.580
 1254SOL     OW 4660   6.593   0.808   3.777
 1254SOL    HW1 4661   6.500   0.773   3.767
 1254SOL    HW2 4662   6.598   0.869   3.856
 1255SOL     OW 4663   6.259   2.243   6.039
 1255SOL    HW1 4664   6.265   2.163   6.097
 1255SOL    HW2 4665   6.275   2.326   6.093
 1256SOL     OW 4666   0.043   5.592   6.112
 1256SOL    HW1 4667   0.100   5.673   6.126
 1256SOL    HW2 4668   0.082   5.515   6.164
 1257SOL     OW 4669   0.065   6.491   2.638
 1257SOL    HW1 4670   7.003   6.546   2.646
 1257SOL    HW2 4671   0.129   6.537   2.577
 1258SOL     OW 4672   5.168   5.684   6.473
 1258SOL    HW1 4673   5.089   5.672   6.412
 1258SOL    HW2 4674   5.138   5.726   6.559
 1259SOL     OW 4675   6.055   6.478   4.863
 1259SOL    HW1 4676   6.149   6.477   4.829
 1259SOL    HW2 4677   6.024   6.572   4.873
 1260SOL     OW 4678   3.334   1.144   0.770
 1260SOL    HW1 4679   3.428   1.171   0.793
 1260SOL    HW2 4680   3.321   1.047   0.792
 1261SOL     OW 4681   0.572   4.232   4.953
 1261SOL    HW1 4682   0.522   4.318   4.943
 1261SOL    HW2 4683   0.670   4.250   4.949
 1262SOL     OW 4684   4.239   6.474   1.527
 1262SOL    HW1 4685   4.275   6.439   1.441
 1262SOL    HW2 4686   4.142   6.496   1.516
 1263SOL     OW 4687   0.051   1.651   1.113
 1263SOL    HW1 4688   0.146   1.683   1.113
 1263SOL    HW2 4689   7.010   1.729   1.097
 1264SOL     OW 4690   5.776   3.108   4.998
 1264SOL    HW1 4691   5.816   3.102   4.907
 1264SOL    HW2 4692   5.685   3.067   4.998
 1265SOL     OW 4693   5.664   4.938   4.795
 1265SOL    HW1 4694   5.679   4.841   4.776
 1265SOL    HW2 4695   5.751   4.986   4.789
 1266SOL     OW 4696   2.807   0.573   3.812
 1266SOL    HW1 4697   2.881   0.615   3.760
 1266SOL    HW2 4698   2.764   0.502   3.758
 1267SOL     OW 4699   0.486   4.225   2.330
 1267SOL    HW1 4700   0.438   4.137   2.332
 1267SOL    HW2 4701   0.420   4.299   2.342
 1268SOL     OW 4702   6.108   4.894   0.022
 1268SOL    HW1 4703   6.098   4.929   6.950
 1268SOL    HW2 4704   6.088   4.796   0.024
 1269SOL     OW 4705   0.967   4.309   6.417
 1269SOL    HW1 4706   0.871   4.290   6.396
 1269SOL    HW2 4707   0.976   4.402   6.452
 1270SOL     OW 4708   1.843   2.505   4.405
 1270SOL    HW1 4709   1.871   2.467   4.494
 1270SOL    HW2 4710   1.866   2.439   4.333
 1271SOL     OW 4711   5.690   3.625   3.199
 1271SOL    HW1 4712   5.611   3.597   3.254
 1271SOL    HW2 4713   5.720   3.547   3.143
 1272SOL     OW 4714   6.052   6.772   6.857
 1272SOL    HW1 4715   6.120   6.806   6.792
 1272SOL    HW2 4716   6.097   6.728   6.934
 1273SOL     OW 4717   3.086   6.970   5.032
 1273SOL    HW1 4718   3.035   0.002   4.964
 1273SOL    HW2 4719   3.136   6.896   4.986
 1274SOL     OW 4720   5.493   2.753   1.660
 1274SOL    HW1 4721   5.470   2.820   1.590
 1274SOL    HW2 4722   5.453   2.781   1.747
 1275SOL     OW 4723   3.605   1.225   3.861
 1275SOL    HW1 4724   3.520   1.216   3.913
 1275SOL    HW2 4725   3.587   1.205   3.765
 1276SOL     OW 4726   5.162   6.585   2.690
 1276SOL    HW1 4727   5.149   6.528   2.771
 1276SOL    HW2 4728   5.098   6.661   2.692
 1277SOL     OW 4729   0.586   1.883   4.369
 1277SOL    HW1 4730   0.679   1.901   4.398
 1277SOL    HW2 4731   0.543   1.968   4.339
 1278SOL     OW 4732   3.370   1.878   4.343
 1278SOL    HW1 4733   3.367   1.778   4.353
 1278SOL    HW2 4734   3.317   1.920   4.417
 1279SOL     OW 4735   1.890   5.063   0.313
 1279SOL    HW1 4736   1.898   5.162   0.317
 1279SOL    HW2 4737   1.978   5.021   0.337
 1280SOL     OW 4738   1.206   5.843   3.114
 1280SOL    HW1 4739   1.274   5.847   3.187
 1280SOL    HW2 4740   1.219   5.921   3.053
 1281SOL     OW 4741   0.654   6.548   3.892
 1281SOL    HW1 4742   0.677   6.493   3.972
 1281SOL    HW2 4743   0.623   6.489   3.818
 1282SOL     OW 4744   1.277   6.328   2.477
 1282SOL    HW1 4745   1.299   6.231   2.488
 1282SOL    HW2 4746   1.355   6.383   2.507
 1283SOL     OW 4747   5.462   4.166   5.308
 1283SOL    HW1 4748   5.454   4.122   5.398
 1283SOL    HW2 4749   5.456   4.097   5.237
 1284SOL     OW 4750   2.835   2.029   2.844
 1284SOL    HW1 4751   2.812   2.119   2.881
 1284SOL    HW2 4752   2.903   2.040   2.772
 1285SOL     OW 4753   6.046   2.525   5.816
 1285SOL    HW1 4754   6.104   2.552   5.892
 1285SOL    HW2 4755   5.953   2.509   5.849
 1286SOL     OW 4756   5.492   5.731   0.980
 1286SOL    HW1 4757   5.588   5.748   0.957
 1286SOL    HW2 4758   5.434   5.785   0.918
 1287SOL     OW 4759   5.693   3.529   5.584
 1287SOL    HW1 4760   5.770   3.547   5.644
 1287SOL    HW2 4761   5.608   3.553   5.631
 1288SOL     OW 4762   6.821   3.699   3.618
 1288SOL    HW1 4763   6.773   3.619   3.653
 1288SOL    HW2 4764   6.856   3.753   3.695
 1289SOL     OW 4765   0.330   5.256   2.676
 1289SOL    HW1 4766   0.298   5.331   2.618
 1289SOL    HW2 4767   0.251   5.205   2.709
 1290SOL     OW 4768   6.350   6.976   1.934
 1290SOL    HW1 4769   6.363   6.929   1.847
 1290SOL    HW2 4770   6.416   6.941   2.001
 1291SOL     OW 4771   1.553   6.184   1.672
 1291SOL    HW1 4772   1.605   6.257   1.716
 1291SOL    HW2 4773   1.568   6.187   1.573
 1292SOL     OW 4774   1.573   5.889   0.675
 1292SOL    HW1 4775   1.585   5.902   0.773
 1292SOL    HW2 4776   1.482   5.920   0.648
 1293SOL     OW 4777   6.058   1.794   6.387
 1293SOL    HW1 4778   6.002   1.876   6.385
 1293SOL    HW2 4779   6.019   1.728   6.451
 1294SOL     OW 4780   0.557   1.678   3.582
 1294SOL    HW1 4781   0.517   1.750   3.639
 1294SOL    HW2 4782   0.515   1.590   3.605
 1295SOL     OW 4783   5.028   4.138   1.010
 1295SOL    HW1 4784   4.995   4.120   1.102
 1295SOL    HW2 4785   5.029   4.053   0.957
 1296SOL     OW 4786   3.863   1.616   0.551
 1296SOL    HW1 4787   3.962   1.605   0.549
 1296SOL    HW2 4788   3.839   1.711   0.531
 1297SOL     OW 4789   6.482   1.086   6.248
 1297SOL    HW1 4790   6.546   1.085   6.325
 1297SOL    HW2 4791   6.521   1.034   6.172
 1298SOL     OW 4792   6.270   2.627   3.374
 1298SOL    HW1 4793   6.170   2.617   3.369
 1298SOL    HW2 4794   6.295   2.722   3.352
 1299SOL     OW 4795   1.460   3.207   4.766
 1299SOL    HW1 4796   1.440   3.301   4.738
 1299SOL    HW2 4797   1.558   3.199   4.788
 1300SOL     OW 4798   3.886   2.982   3.297
 1300SOL    HW1 4799   3.818   3.003   3.367
 1300SOL    HW2 4800   3.913   2.886   3.305
 1301SOL     OW 4801   1.483   1.617   1.705
 1301SOL    HW1 4802   1.520   1.603   1.797
 1301SOL    HW2 4803   1.535   1.563   1.640
 1302SOL     OW 4804   2.685   5.979   5.559
 1302SOL    HW1 4805   2.771   6.022   5.586
 1302SOL    HW2 4806   2.608   6.028   5.599
 1303SOL     OW 4807   3.128   6.913   1.162
 1303SOL    HW1 4808   3.048   6.891   1.218
 1303SOL    HW2 4809   3.197   6.841   1.174
 1304SOL     OW 4810   3.171   0.582   6.107
 1304SOL    HW1 4811   3.242   0.648   6.131
 1304SOL    HW2 4812   3.157   0.584   6.008
 1305SOL     OW 4813   6.041   6.920   3.928
 1305SOL    HW1 4814   5.967   6.883   3.872
 1305SOL    HW2 4815   6.058   6.858   4.006
 1306SOL     OW 4816   1.622   5.198   3.964
 1306SOL    HW1 4817   1.684   5.270   3.994
 1306SOL    HW2 4818   1.665   5.144   3.892
 1307SOL     OW 4819   1.044   1.706   4.664
 1307SOL    HW1 4820   0.988   1.642   4.715
 1307SOL    HW2 4821   1.066   1.668   4.574
 1308SOL     OW 4822   4.726   6.105   2.890
 1308SOL    HW1 4823   4.628   6.087   2.885
 1308SOL    HW2 4824   4.765   6.106   2.798
 1309SOL     OW 4825   6.092   2.863   4.405
 1309SOL    HW1 4826   6.045   2.951   4.396
 1309SOL    HW2 4827   6.054   2.812   4.482
 1310SOL     OW 4828   5.163   3.287   5.603
 1310SOL    HW1 4829   5.077   3.237   5.612
 1310SOL    HW2 4830   5.205   3.298   5.692
 1311SOL     OW 4831   4.917   4.752   0.063
 1311SOL    HW1 4832   4.866   4.807   0.129
 1311SOL    HW2 4833   4.976   4.812   0.009
 1312SOL     OW 4834   6.842   0.527   1.710
 1312SOL    HW1 4835   6.857   0.560   1.803
 1312SOL    HW2 4836   6.771   0.583   1.666
 1313SOL     OW 4837   3.540   4.972   4.755
 1313SOL    HW1 4838   3.569   4.974   4.851
 1313SOL    HW2 4839   3.480   4.893   4.741
 1314SOL     OW 4840   0.129   1.261   5.666
 1314SOL    HW1 4841   0.165   1.250   5.573
 1314SOL    HW2 4842   0.031   1.277   5.662
 1315SOL     OW 4843   1.724   6.740   3.648
 1315SOL    HW1 4844   1.665   6.669   3.687
 1315SOL    HW2 4845   1.771   6.788   3.723
 1316SOL     OW 4846   3.392   6.203   3.712
 1316SOL    HW1 4847   3.308   6.180   3.762
 1316SOL    HW2 4848   3.402   6.141   3.634
 1317SOL     OW 4849   0.020   3.190   4.699
 1317SOL    HW1 4850   0.037   3.286   4.722
 1317SOL    HW2 4851   0.104   3.137   4.709
 1318SOL     OW 4852   0.837   6.800   1.840
 1318SOL    HW1 4853   0.834   6.783   1.939
 1318SOL    HW2 4854   0.906   6.742   1.798
 1319SOL     OW 4855   0.150   6.638   0.815
 1319SOL    HW1 4856   0.079   6.599   0.873
 1319SOL    HW2 4857   0.195   6.565   0.763
 1320SOL     OW 4858   5.230   5.469   5.090
 1320SOL    HW1 4859   5.185   5.505   5.171
 1320SOL    HW2 4860   5.170   5.404   5.045
 1321SOL     OW 4861   3.576   1.215   0.798
 1321SOL    HW1 4862   3.610   1.283   0.733
 1321SOL    HW2 4863   3.645   1.199   0.868
 1322SOL     OW 4864   5.233   0.739   6.382
 1322SOL    HW1 4865   5.216   0.824   6.331
 1322SOL    HW2 4866   5.179   0.665   6.342
 1323SOL     OW 4867   6.654   0.880   4.046
 1323SOL    HW1 4868   6.740   0.926   4.023
 1323SOL    HW2 4869   6.672   0.783   4.065
 1324SOL     OW 4870   1.233   2.550   0.427
 1324SOL    HW1 4871   1.293   2.471   0.441
 1324SOL    HW2 4872   1.159   2.547   0.494
 1325SOL     OW 4873   4.416   5.426   4.366
 1325SOL    HW1 4874   4.360   5.369   4.427
 1325SOL    HW2 4875   4.428   5.379   4.279
 1326SOL     OW 4876   5.666   4.075   4.399
 1326SOL    HW1 4877   5.753   4.124   4.408
 1326SOL    HW2 4878   5.673   4.008   4.325
 1327SOL     OW 4879   2.851   6.422   4.000
 1327SOL    HW1 4880   2.893   6.402   4.088
 1327SOL    HW2 4881   2.873   6.349   3.935
 1328SOL     OW 4882   2.703   1.408   1.477
 1328SOL    HW1 4883   2.660   1.497   1.465
 1328SOL    HW2 4884   2.731   1.397   1.573
 1329SOL     OW 4885   1.332   6.128   1.806
 1329SOL    HW1 4886   1.415   6.147   1.754
 1329SOL    HW2 4887   1.347   6.049   1.866
 1330SOL     OW 4888   5.328   6.652   1.225
 1330SOL    HW1 4889   5.345   6.599   1.141
 1330SOL    HW2 4890   5.401   6.719   1.237
 1331SOL     OW 4891   0.580   2.134   1.696
 1331SOL    HW1 4892   0.636   2.130   1.613
 1331SOL    HW2 4893   0.631   2.097   1.773
 1332SOL     OW 4894   4.708   2.140   0.652
 1332SOL    HW1 4895   4.715   2.228   0.605
 1332SOL    HW2 4896   4.793   2.088   0.639
 1333SOL     OW 4897   4.391   3.249   5.339
 1333SOL    HW1 4898   4.469   3.307   5.315
 1333SOL    HW2 4899   4.312   3.276   5.284
 1334SOL     OW 4900   1.502   3.525   4.112
 1334SOL    HW1 4901   1.501   3.570   4.201
 1334SOL    HW2 4902   1.593   3.487   4.095
 1335SOL     OW 4903   2.136   5.318   3.353
 1335SOL    HW1 4904   2.097   5.251   3.289
 1335SOL    HW2 4905   2.152   5.404   3.305
 1336SOL     OW 4906   0.416   6.249   5.356
 1336SOL    HW1 4907   0.510   6.279   5.370
 1336SOL    HW2 4908   0.404   6.158   5.396
 1337SOL     OW 4909   3.742   6.499   6.488
 1337SOL    HW1 4910   3.791   6.581   6.517
 1337SOL    HW2 4911   3.683   6.467   6.562
 1338SOL     OW 4912   3.631   5.179   0.799
 1338SOL    HW1 4913   3.670   5.244   0.734
 1338SOL    HW2 4914   3.693   5.168   0.877
 1339SOL     OW 4915   6.850   3.721   6.885
 1339SOL    HW1 4916   6.790   3.777   6.942
 1339SOL    HW2 4917   6.797   3.681   6.810
 1340SOL     OW 4918   2.814   1.632   5.896
 1340SOL    HW1 4919   2.905   1.620   5.936
 1340SOL    HW2 4920   2.768   1.709   5.939
 1341SOL     OW 4921   6.040   2.005   4.570
 1341SOL    HW1 4922   6.129   1.964   4.590
 1341SOL    HW2 4923   5.967   1.940   4.591
 1342SOL     OW 4924   0.368   6.915   1.146
 1342SOL    HW1 4925   0.325   6.837   1.191
 1342SOL    HW2 4926   0.298   6.979   1.116
 1343SOL     OW 4927   2.776   5.759   3.462
 1343SOL    HW1 4928   2.774   5.667   3.502
 1343SOL    HW2 4929   2.685   5.782   3.426
 1344SOL     OW 4930   5.324   1.993   2.447
 1344SOL    HW1 4931   5.230   1.962   2.461
 1344SOL    HW2 4932   5.364   2.018   2.535
 1345SOL     OW 4933   6.374   6.219   2.448
 1345SOL    HW1 4934   6.367   6.125   2.479
 1345SOL    HW2 4935   6.437   6.225   2.370
 1346SOL     OW 4936   6.959   1.768   2.921
 1346SOL    HW1 4937   7.001   1.857   2.901
 1346SOL    HW2 4938   6.892   1.780   2.995
 1347SOL     OW 4939   4.731   1.145   3.286
 1347SOL    HW1 4940   4.741   1.139   3.385
 1347SOL    HW2 4941   4.644   1.189   3.264
 1348SOL     OW 4942   5.121   5.902   4.935
 1348SOL    HW1 4943   5.081   5.949   4.856
 1348SOL    HW2 4944   5.053   5.892   5.007
 1349SOL     OW 4945   4.895   1.954   0.195
 1349SOL    HW1 4946   4.915   1.897   0.275
 1349SOL    HW2 4947   4.803   1.992   0.204
 1350SOL     OW 4948   3.137   1.265   4.501
 1350SOL    HW1 4949   3.066   1.330   4.529
 1350SOL    HW2 4950   3.215   1.315   4.464
 1351SOL     OW 4951   1.740   1.611   3.550
 1351SOL    HW1 4952   1.700   1.695   3.512
 1351SOL    HW2 4953   1.666   1.550   3.581
 1352SOL     OW 4954   1.365   6.340   4.592
 1352SOL    HW1 4955   1.371   6.241   4.605
 1352SOL    HW2 4956   1.457   6.378   4.578
 1353SOL     OW 4957   2.545   3.195   5.637
 1353SOL    HW1 4958   2.608   3.246   5.696
 1353SOL    HW2 4959   2.592   3.168   5.553
 1354SOL     OW 4960   0.239   6.703   0.016
 1354SOL    HW1 4961   0.163   6.661   0.065
 1354SOL    HW2 4962   0.284   6.635   6.979
 1355SOL     OW 4963   4.239   3.343   6.853
 1355SOL    HW1 4964   4.286   3.269   6.903
 1355SOL    HW2 4965   4.144   3.347   6.883
 1356SOL     OW 4966   3.288   2.858   2.083
 1356SOL    HW1 4967   3.303   2.770   2.129
 1356SOL    HW2 4968   3.290   2.844   1.984
 1357SOL     OW 4969   3.473   2.109   5.448
 1357SOL    HW1 4970   3.484   2.081   5.353
 1357SOL    HW2 4971   3.428   2.197   5.452
 1358SOL     OW 4972   1.695   3.184   5.841
 1358SOL    HW1 4973   1.668   3.277   5.865
 1358SOL    HW2 4974   1.741   3.142   5.919
 1359SOL     OW 4975   0.268   1.616   6.628
 1359SOL    HW1 4976   0.363   1.637   6.653
 1359SOL    HW2 4977   0.259   1.616   6.528
 1360SOL     OW 4978   3.440   3.424   4.265
 1360SOL    HW1 4979   3.463   3.510   4.220
 1360SOL    HW2 4980   3.384   3.368   4.204
 1361SOL     OW 4981   0.898   6.494   1.222
 1361SOL    HW1 4982   0.933   6.458   1.136
 1361SOL    HW2 4983   0.877   6.418   1.284
 1362SOL     OW 4984   3.259   1.424   6.877
 1362SOL    HW1 4985   3.281   1.467   6.965
 1362SOL    HW2 4986   3.334   1.438   6.813
 1363SOL     OW 4987   6.704   6.382   1.081
 1363SOL    HW1 4988   6.772   6.452   1.105
 1363SOL    HW2 4989   6.661   6.348   1.165
 1364SOL     OW 4990   1.117   3.534   1.353
 1364SOL    HW1 4991   1.116   3.555   1.451
 1364SOL    HW2 4992   1.207   3.501   1.327
 1365SOL     OW 4993   1.189   3.627   6.233
 1365SOL    HW1 4994   1.202   3.700   6.300
 1365SOL    HW2 4995   1.130   3.556   6.272
 1366SOL     OW 4996   3.611   0.607   0.869
 1366SOL    HW1 4997   3.601   0.597   0.770
 1366SOL    HW2 4998   3.639   0.519   0.909
 1367SOL     OW 4999   0.819   6.965   4.694
 1367SOL    HW1 5000   0.819   6.902   4.617
 1367SOL    HW2 5001   0.733   7.015   4.695
 1368SOL     OW 5002   1.495   6.256   4.899
 1368SOL    HW1 5003   1.543   6.169   4.888
 1368SOL    HW2 5004   1.544   6.328   4.850
 1369SOL     OW 5005   1.998   6.028   3.414
 1369SOL    HW1 5006   2.059   6.100   3.381
 1369SOL    HW2 5007   1.947   5.989   3.337
 1370SOL     OW 5008   0.187   2.985   2.644
 1370SOL    HW1 5009   0.108   2.925   2.637
 1370SOL    HW2 5010   0.157   3.078   2.667
 1371SOL     OW 5011   5.958   1.740   6.130
 1371SOL    HW1 5012   6.002   1.767   6.215
 1371SOL    HW2 5013   5.874   1.689   6.152
 1372SOL     OW 5014   4.836   2.314   1.598
 1372SOL    HW1 5015   4.871   2.379   1.666
 1372SOL    HW2 5016   4.913   2.278   1.544
 1373SOL     OW 5017   5.316   2.500   1.436
 1373SOL    HW1 5018   5.331   2.401   1.433
 1373SOL    HW2 5019   5.275   2.525   1.524
 1374SOL     OW 5020   4.100   3.489   2.524
 1374SOL    HW1 5021   4.077   3.499   2.621
 1374SOL    HW2 5022   4.122   3.394   2.504
 1375SOL     OW 5023   5.217   4.463   5.032
 1375SOL    HW1 5024   5.123   4.452   5.000
 1375SOL    HW2 5025   5.268   4.520   4.968
 1376SOL     OW 5026   3.032   4.334   5.723
 1376SOL    HW1 5027   3.130   4.352   5.710
 1376SOL    HW2 5028   3.020   4.277   5.804
 1377SOL     OW 5029   1.243   1.902   3.373
 1377SOL    HW1 5030   1.240   1.859   3.464
 1377SOL    HW2 5031   1.207   1.995   3.380
 1378SOL     OW 5032   4.607   2.160   4.400
 1378SOL    HW1 5033   4.661   2.101   4.460
 1378SOL    HW2 5034   4.551   2.103   4.339
 1379SOL     OW 5035   4.843   5.758   6.827
 1379SOL    HW1 5036   4.820   5.814   6.747
 1379SOL    HW2 5037   4.802   5.668   6.818
 1380SOL     OW 5038   6.895   6.014   3.724
 1380SOL    HW1 5039   6.896   6.056   3.815
 1380SOL    HW2 5040   6.916   5.916   3.732
 1381SOL     OW 5041   6.538   2.964   5.994
 1381SOL    HW1 5042   6.616   2.984   6.053
 1381SOL    HW2 5043   6.493   3.049   5.968
 1382SOL     OW 5044   4.410   1.651   5.823
 1382SOL    HW1 5045   4.433   1.748   5.819
 1382SOL    HW2 5046   4.416   1.619   5.918
 1383SOL     OW 5047   6.393   0.562   0.821
 1383SOL    HW1 5048   6.421   0.654   0.794
 1383SOL    HW2 5049   6.296   0.549   0.800
 1384SOL     OW 5050   6.097   2.658   2.013
 1384SOL    HW1 5051   6.119   2.696   1.923
 1384SOL    HW2 5052   6.015   2.602   2.007
 1385SOL     OW 5053   6.609   6.302   1.551
 1385SOL    HW1 5054   6.563   6.391   1.549
 1385SOL    HW2 5055   6.551   6.235   1.596
 1386SOL     OW 5056   2.055   0.154   3.753
 1386SOL    HW1 5057   2.076   0.150   3.656
 1386SOL    HW2 5058   2.050   0.061   3.790
 1387SOL     OW 5059   1.170   5.833   1.835
 1387SOL    HW1 5060   1.253   5.779   1.848
 1387SOL    HW2 5061   1.161   5.899   1.910
 1388SOL     OW 5062   6.526   0.864   1.744
 1388SOL    HW1 5063   6.568   0.953   1.760
 1388SOL    HW2 5064   6.502   0.822   1.832
 1389SOL     OW 5065   6.334   1.362   1.759
 1389SOL    HW1 5066   6.350   1.353   1.858
 1389SOL    HW2 5067   6.363   1.278   1.714
 1390SOL     OW 5068   1.256   1.806   4.198
 1390SOL    HW1 5069   1.339   1.855   4.173
 1390SOL    HW2 5070   1.192   1.869   4.243
 1391SOL     OW 5071   0.845   2.918   3.418
 1391SOL    HW1 5072   0.826   2.874   3.331
 1391SOL    HW2 5073   0.932   2.968   3.412
 1392SOL     OW 5074   5.263   4.778   4.126
 1392SOL    HW1 5075   5.196   4.782   4.200
 1392SOL    HW2 5076   5.348   4.738   4.160
 1393SOL     OW 5077   3.791   4.461   6.865
 1393SOL    HW1 5078   3.712   4.400   6.855
 1393SOL    HW2 5079   3.806   4.482   6.961
 1394SOL     OW 5080   1.465   6.492   6.984
 1394SOL    HW1 5081   1.565   6.486   6.993
 1394SOL    HW2 5082   1.421   6.432   0.030
 1395SOL     OW 5083   3.923   4.732   6.173
 1395SOL    HW1 5084   3.900   4.827   6.155
 1395SOL    HW2 5085   3.998   4.728   6.239
 1396SOL     OW 5086   5.210   5.807   3.855
 1396SOL    HW1 5087   5.155   5.884   3.822
 1396SOL    HW2 5088   5.265   5.837   3.933
 1397SOL     OW 5089   5.382   6.262   5.138
 1397SOL    HW1 5090   5.401   6.185   5.078
 1397SOL    HW2 5091   5.443   6.260   5.217
 1398SOL     OW 5092   1.547   0.153   5.049
 1398SOL    HW1 5093   1.626   0.211   5.030
 1398SOL    HW2 5094   1.579   0.061   5.072
 1399SOL     OW 5095   3.610   5.400   2.434
 1399SOL    HW1 5096   3.664   5.457   2.372
 1399SOL    HW2 5097   3.554   5.336   2.382
 1400SOL     OW 5098   1.300   0.244   2.930
 1400SOL    HW1 5099   1.313   0.148   2.906
 1400SOL    HW2 5100   1.366   0.301   2.881
 1401SOL     OW 5101   6.636   2.041   4.246
 1401SOL    HW1 5102   6.683   1.959   4.279
 1401SOL    HW2 5103   6.590   2.086   4.323
 1402SOL     OW 5104   6.036   2.457   6.980
 1402SOL    HW1 5105   5.957   2.451   0.020
 1402SOL    HW2 5106   6.005   2.452   6.885
 1403SOL     OW 5107   3.509   0.609   1.731
 1403SOL    HW1 5108   3.502   0.603   1.831
 1403SOL    HW2 5109   3.433   0.561   1.689
 1404SOL     OW 5110   5.143   1.525   0.420
 1404SOL    HW1 5111   5.135   1.548   0.322
 1404SOL    HW2 5112   5.200   1.594   0.465
 1405SOL     OW 5113   3.442   2.887   1.351
 1405SOL    HW1 5114   3.542   2.877   1.355
 1405SOL    HW2 5115   3.400   2.797   1.343
 1406SOL     OW 5116   0.847   3.848   2.200
 1406SOL    HW1 5117   0.821   3.873   2.294
 1406SOL    HW2 5118   0.799   3.764   2.174
 1407SOL     OW 5119   6.989   2.565   2.463
 1407SOL    HW1 5120   7.002   2.656   2.503
 1407SOL    HW2 5121   6.981   2.498   2.537
 1408SOL     OW 5122   6.288   5.619   6.444
 1408SOL    HW1 5123   6.248   5.660   6.525
 1408SOL    HW2 5124   6.295   5.520   6.456
 1409SOL     OW 5125   0.137   1.503   3.900
 1409SOL    HW1 5126   0.232   1.533   3.907
 1409SOL    HW2 5127   0.134   1.404   3.889
 1410SOL     OW 5128   6.615   1.811   6.845
 1410SOL    HW1 5129   6.602   1.749   6.767
 1410SOL    HW2 5130   6.706   1.797   6.883
 1411SOL     OW 5131   1.828   0.720   1.835
 1411SOL    HW1 5132   1.771   0.651   1.791
 1411SOL    HW2 5133   1.795   0.738   1.927
 1412SOL     OW 5134   1.348   2.725   0.269
 1412SOL    HW1 5135   1.386   2.660   0.202
 1412SOL    HW2 5136   1.313   2.674   0.348
 1413SOL     OW 5137   2.619   6.701   3.258
 1413SOL    HW1 5138   2.619   6.777   3.324
 1413SOL    HW2 5139   2.654   6.733   3.170
 1414SOL     OW 5140   1.410   0.796   2.473
 1414SOL    HW1 5141   1.474   0.778   2.548
 1414SOL    HW2 5142   1.452   0.861   2.410
 1415SOL     OW 5143   5.515   6.464   4.983
 1415SOL    HW1 5144   5.560   6.535   5.037
 1415SOL    HW2 5145   5.454   6.411   5.042
 1416SOL     OW 5146   4.688   5.367   3.621
 1416SOL    HW1 5147   4.671   5.451   3.674
 1416SOL    HW2 5148   4.694   5.289   3.683
 1417SOL     OW 5149   3.479   2.826   6.064
 1417SOL    HW1 5150   3.405   2.893   6.065
 1417SOL    HW2 5151   3.444   2.738   6.096
 1418SOL     OW 5152   3.476   3.734   3.473
 1418SOL    HW1 5153   3.513   3.786   3.396
 1418SOL    HW2 5154   3.416   3.792   3.528
 1419SOL     OW 5155   3.429   6.440   3.966
 1419SOL    HW1 5156   3.366   6.362   3.971
 1419SOL    HW2 5157   3.521   6.407   3.945
 1420SOL     OW 5158   0.774   5.975   2.575
 1420SOL    HW1 5159   0.826   6.060   2.566
 1420SOL    HW2 5160   0.797   5.931   2.662
 1421SOL     OW 5161   3.905   0.998   2.640
 1421SOL    HW1 5162   3.900   1.098   2.632
 1421SOL    HW2 5163   3.957   0.974   2.722
 1422SOL     OW 5164   2.518   6.504   0.725
 1422SOL    HW1 5165   2.455   6.468   0.657
 1422SOL    HW2 5166   2.578   6.431   0.758
 1423SOL     OW 5167   5.296   1.186   2.221
 1423SOL    HW1 5168   5.285   1.210   2.317
 1423SOL    HW2 5169   5.227   1.234   2.167
 1424SOL     OW 5170   6.725   5.312   2.670
 1424SOL    HW1 5171   6.651   5.303   2.603
 1424SOL    HW2 5172   6.690   5.291   2.761
 1425SOL     OW 5173   1.518   0.750   4.415
 1425SOL    HW1 5174   1.448   0.737   4.485
 1425SOL    HW2 5175   1.602   0.784   4.457
 1426SOL     OW 5176   1.866   1.487   5.292
 1426SOL    HW1 5177   1.779   1.455   5.329
 1426SOL    HW2 5178   1.932   1.497   5.366
 1427SOL     OW 5179   5.385   1.667   5.508
 1427SOL    HW1 5180   5.330   1.598   5.556
 1427SOL    HW2 5181   5.437   1.720   5.575
 1428SOL     OW 5182   5.735   0.975   0.541
 1428SOL    HW1 5183   5.821   0.936   0.508
 1428SOL    HW2 5184   5.684   1.014   0.464
 1429SOL     OW 5185   5.663   6.088   7.002
 1429SOL    HW1 5186   5.735   6.069   0.047
 1429SOL    HW2 5187   5.692   6.055   6.911
 1430SOL     OW 5188   2.737   4.659   2.729
 1430SOL    HW1 5189   2.769   4.680   2.637
 1430SOL    HW2 5190   2.659   4.596   2.724
 1431SOL     OW 5191   1.687   6.904   0.906
 1431SOL    HW1 5192   1.770   6.945   0.869
 1431SOL    HW2 5193   1.711   6.826   0.964
 1432SOL     OW 5194   3.028   0.383   1.333
 1432SOL    HW1 5195   3.008   0.479   1.314
 1432SOL    HW2 5196   3.102   0.352   1.272
 1433SOL     OW 5197   4.625   0.487   3.764
 1433SOL    HW1 5198   4.627   0.428   3.683
 1433SOL    HW2 5199   4.568   0.445   3.834
 1434SOL     OW 5200   0.927   1.199   5.194
 1434SOL    HW1 5201   0.872   1.279   5.214
 1434SOL    HW2 5202   0.953   1.153   5.279
 1435SOL     OW 5203   0.033   2.386   3.326
 1435SOL    HW1 5204   0.054   2.435   3.241
 1435SOL    HW2 5205   6.956   2.369   3.331
 1436SOL     OW 5206   4.841   3.788   0.745
 1436SOL    HW1 5207   4.753   3.786   0.792
 1436SOL    HW2 5208   4.895   3.707   0.772
 1437SOL     OW 5209   4.664   1.233   2.620
 1437SOL    HW1 5210   4.569   1.261   2.632
 1437SOL    HW2 5211   4.675   1.139   2.652
 1438SOL     OW 5212   2.546   0.121   1.854
 1438SOL    HW1 5213   2.592   0.177   1.922
 1438SOL    HW2 5214   2.574   0.026   1.864
 1439SOL     OW 5215   0.438   5.715   1.964
 1439SOL    HW1 5216   0.427   5.813   1.975
 1439SOL    HW2 5217   0.532   5.695   1.936
 1440SOL     OW 5218   2.190   2.833   1.659
 1440SOL    HW1 5219   2.137   2.886   1.593
 1440SOL    HW2 5220   2.288   2.841   1.636
 1441SOL     OW 5221   5.095   5.816   6.723
 1441SOL    HW1 5222   5.032   5.760   6.776
 1441SOL    HW2 5223   5.064   5.912   6.724
 1442SOL     OW 5224   5.297   5.285   1.028
 1442SOL    HW1 5225   5.294   5.370   0.977
 1442SOL    HW2 5226   5.203   5.251   1.042
 1443SOL     OW 5227   6.983   2.666   2.198
 1443SOL    HW1 5228   6.962   2.654   2.295
 1443SOL    HW2 5229   6.996   2.763   2.178
 1444SOL     OW 5230   0.537   5.919   6.023
 1444SOL    HW1 5231   0.573   6.012   6.028
 1444SOL    HW2 5232   0.440   5.919   6.044
 1445SOL     OW 5233   0.666   2.866   1.134
 1445SOL    HW1 5234   0.743   2.913   1.178
 1445SOL    HW2 5235   0.607   2.933   1.089
 1446SOL     OW 5236   6.865   5.473   1.506
 1446SOL    HW1 5237   6.842   5.547   1.444
 1446SOL    HW2 5238   6.839   5.385   1.465
 1447SOL     OW 5239   6.607   6.288   4.058
 1447SOL    HW1 5240   6.564   6.260   3.972
 1447SOL    HW2 5241   6.613   6.388   4.062
 1448SOL     OW 5242   1.180   1.161   5.652
 1448SOL    HW1 5243   1.102   1.223   5.652
 1448SOL    HW2 5244   1.261   1.211   5.684
 1449SOL     OW 5245   2.149   3.216   2.841
 1449SOL    HW1 5246   2.168   3.175   2.930
 1449SOL    HW2 5247   2.205   3.172   2.771
 1450SOL     OW 5248   3.228   1.710   3.156
 1450SOL    HW1 5249   3.259   1.635   3.099
 1450SOL    HW2 5250   3.167   1.770   3.104
 1451SOL     OW 5251   3.475   1.308   2.470
 1451SOL    HW1 5252   3.423   1.339   2.550
 1451SOL    HW2 5253   3.463   1.210   2.458
 1452SOL     OW 5254   4.319   2.665   6.025
 1452SOL    HW1 5255   4.388   2.631   6.090
 1452SOL    HW2 5256   4.349   2.645   5.932
 1453SOL     OW 5257   1.141   3.271   5.084
 1453SOL    HW1 5258   1.101   3.222   5.007
 1453SOL    HW2 5259   1.096   3.359   5.095
 1454SOL     OW 5260   3.125   2.110   2.735
 1454SOL    HW1 5261   3.087   2.160   2.657
 1454SOL    HW2 5262   3.225   2.102   2.725
 1455SOL     OW 5263   0.164   5.327   2.457
 1455SOL    HW1 5264   0.172   5.417   2.414
 1455SOL    HW2 5265   0.087   5.327   2.521
 1456SOL     OW 5266   6.574   5.993   4.402
 1456SOL    HW1 5267   6.494   5.934   4.389
 1456SOL    HW2 5268   6.586   6.010   4.500
 1457SOL     OW 5269   1.141   5.521   5.775
 1457SOL    HW1 5270   1.070   5.587   5.800
 1457SOL    HW2 5271   1.211   5.520   5.846
 1458SOL     OW 5272   6.743   5.002   4.962
 1458SOL    HW1 5273   6.723   4.915   4.917
 1458SOL    HW2 5274   6.755   4.986   5.060
 1459SOL     OW 5275   6.641   5.973   5.094
 1459SOL    HW1 5276   6.599   6.063   5.099
 1459SOL    HW2 5277   6.578   5.904   5.131
 1460SOL     OW 5278   1.898   6.235   4.988
 1460SOL    HW1 5279   1.863   6.239   4.895
 1460SOL    HW2 5280   1.993   6.267   4.990
 1461SOL     OW 5281   5.854   3.504   3.880
 1461SOL    HW1 5282   5.757   3.526   3.865
 1461SOL    HW2 5283   5.883   3.434   3.815
 1462SOL     OW 5284   0.253   1.679   2.055
 1462SOL    HW1 5285   0.347   1.657   2.080
 1462SOL    HW2 5286   0.247   1.777   2.034
 1463SOL     OW 5287   1.348   5.141   6.607
 1463SOL    HW1 5288   1.412   5.188   6.668
 1463SOL    HW2 5289   1.368   5.165   6.512
 1464SOL     OW 5290   1.407   4.640   4.678
 1464SOL    HW1 5291   1.358   4.647   4.765
 1464SOL    HW2 5292   1.398   4.726   4.627
 1465SOL     OW 5293   1.503   2.574   5.902
 1465SOL    HW1 5294   1.521   2.481   5.869
 1465SOL    HW2 5295   1.447   2.622   5.835
 1466SOL     OW 5296   5.589   1.156   2.830
 1466SOL    HW1 5297   5.532   1.201   2.762
 1466SOL    HW2 5298   5.611   1.063   2.799
 1467SOL     OW 5299   0.148   0.168   3.696
 1467SOL    HW1 5300   0.240   0.201   3.672
 1467SOL    HW2 5301   0.139   0.072   3.668
 1468SOL     OW 5302   3.483   6.707   3.160
 1468SOL    HW1 5303   3.429   6.787   3.187
 1468SOL    HW2 5304   3.571   6.737   3.123
 1469SOL     OW 5305   6.169   4.194   3.218
 1469SOL    HW1 5306   6.173   4.225   3.313
 1469SOL    HW2 5307   6.138   4.098   3.215
 1470SOL     OW 5308   6.574   2.372   2.498
 1470SOL    HW1 5309   6.492   2.321   2.470
 1470SOL    HW2 5310   6.626   2.399   2.417
 1471SOL     OW 5311   4.513   6.942   6.884
 1471SOL    HW1 5312   4.546   6.983   6.969
 1471SOL    HW2 5313   4.434   6.993   6.850
 1472SOL     OW 5314   2.353   0.338   6.702
 1472SOL    HW1 5315   2.260   0.358   6.673
 1472SOL    HW2 5316   2.414   0.412   6.673
 1473SOL     OW 5317   1.887   5.980   3.151
 1473SOL    HW1 5318   1.894   6.056   3.087
 1473SOL    HW2 5319   1.921   5.897   3.107
 1474SOL     OW 5320   1.904   3.890   2.163
 1474SOL    HW1 5321   1.999   3.890   2.133
 1474SOL    HW2 5322   1.867   3.983   2.158
 1475SOL     OW 5323   6.094   0.152   6.599
 1475SOL    HW1 5324   6.044   0.091   6.538
 1475SOL    HW2 5325   6.097   0.112   6.691
 1476SOL     OW 5326   5.572   0.523   6.594
 1476SOL    HW1 5327   5.530   0.595   6.539
 1476SOL    HW2 5328   5.553   0.434   6.552
 1477SOL     OW 5329   3.212   4.090   1.846
 1477SOL    HW1 5330   3.213   4.159   1.773
 1477SOL    HW2 5331   3.239   4.002   1.807
 1478SOL     OW 5332   5.133   4.141   5.958
 1478SOL    HW1 5333   5.203   4.113   6.023
 1478SOL    HW2 5334   5.055   4.179   6.007
 1479SOL     OW 5335   4.668   4.318   1.182
 1479SOL    HW1 5336   4.639   4.382   1.110
 1479SOL    HW2 5337   4.658   4.224   1.149
 1480SOL     OW 5338   2.680   1.465   4.408
 1480SOL    HW1 5339   2.630   1.540   4.365
 1480SOL    HW2 5340   2.694   1.391   4.342
 1481SOL     OW 5341   4.138   1.642   5.825
 1481SOL    HW1 5342   4.228   1.601   5.831
 1481SOL    HW2 5343   4.100   1.655   5.916
 1482SOL     OW 5344   6.617   1.299   1.383
 1482SOL    HW1 5345   6.539   1.334   1.330
 1482SOL    HW2 5346   6.659   1.222   1.334
 1483SOL     OW 5347   6.603   0.322   0.057
 1483SOL    HW1 5348   6.571   0.274   6.996
 1483SOL    HW2 5349   6.524   0.352   0.110
 1484SOL     OW 5350   3.050   6.261   4.890
 1484SOL    HW1 5351   3.087   6.231   4.802
 1484SOL    HW2 5352   3.027   6.180   4.945
 1485SOL     OW 5353   5.165   3.637   3.494
 1485SOL    HW1 5354   5.077   3.601   3.525
 1485SOL    HW2 5355   5.229   3.639   3.570
 1486SOL     OW 5356   5.320   6.314   4.274
 1486SOL    HW1 5357   5.299   6.224   4.313
 1486SOL    HW2 5358   5.249   6.340   4.209
 1487SOL     OW 5359   6.388   0.896   0.143
 1487SOL    HW1 5360   6.452   0.969   0.119
 1487SOL    HW2 5361   6.419   0.810   0.100
 1488SOL     OW 5362   6.842   2.753   2.882
 1488SOL    HW1 5363   6.878   2.845   2.871
 1488SOL    HW2 5364   6.886   2.709   2.959
 1489SOL     OW 5365   3.295   5.345   6.664
 1489SOL    HW1 5366   3.231   5.393   6.604
 1489SOL    HW2 5367   3.264   5.252   6.678
 1490SOL     OW 5368   6.434   3.078   2.215
 1490SOL    HW1 5369   6.363   3.086   2.145
 1490SOL    HW2 5370   6.494   3.158   2.211
 1491SOL     OW 5371   5.149   2.799   3.916
 1491SOL    HW1 5372   5.197   2.712   3.917
 1491SOL    HW2 5373   5.188   2.858   3.846
 1492SOL     OW 5374   0.771   2.601   2.215
 1492SOL    HW1 5375   0.704   2.658   2.167
 1492SOL    HW2 5376   0.774   2.511   2.172
 1493SOL     OW 5377   6.062   2.226   6.629
 1493SOL    HW1 5378   5.996   2.151   6.636
 1493SOL    HW2 5379   6.154   2.188   6.620
 1494SOL     OW 5380   0.930   3.805   6.206
 1494SOL    HW1 5381   0.875   3.876   6.249
 1494SOL    HW2 5382   0.973   3.748   6.276
 1495SOL     OW 5383   6.583   4.243   3.757
 1495SOL    HW1 5384   6.677   4.264   3.730
 1495SOL    HW2 5385   6.567   4.273   3.851
 1496SOL     OW 5386   6.622   6.351   5.509
 1496SOL    HW1 5387   6.683   6.395   5.575
 1496SOL    HW2 5388   6.532   6.339   5.549
 1497SOL     OW 5389   4.967   2.662   2.236
 1497SOL    HW1 5390   4.938   2.682   2.142
 1497SOL    HW2 5391   4.948   2.567   2.258
 1498SOL     OW 5392   3.419   4.260   0.551
 1498SOL    HW1 5393   3.475   4.309   0.618
 1498SOL    HW2 5394   3.326   4.295   0.554
 1499SOL     OW 5395   0.742   4.503   4.162
 1499SOL    HW1 5396   0.771   4.531   4.071
 1499SOL    HW2 5397   0.786   4.416   4.186
 1500SOL     OW 5398   2.505   5.155   2.107
 1500SOL    HW1 5399   2.479   5.163   2.011
 1500SOL    HW2 5400   2.424   5.171   2.165
 1501SOL     OW 5401   5.983   1.498   0.778
 1501SOL    HW1 5402   5.884   1.494   0.790
 1501SOL    HW2 5403   6.028   1.465   0.861
 1502SOL     OW 5404   0.562   6.281   6.628
 1502SOL    HW1 5405   0.658   6.300   6.613
 1502SOL    HW2 5406   0.511   6.367   6.630
 1503SOL     OW 5407   7.017   5.191   1.625
 1503SOL    HW1 5408   0.008   5.280   1.670
 1503SOL    HW2 5409   0.069   5.178   1.558
 1504SOL     OW 5410   1.791   0.195   3.365
 1504SOL    HW1 5411   1.859   0.121   3.358
 1504SOL    HW2 5412   1.715   0.164   3.422
 1505SOL     OW 5413   6.857   4.586   4.982
 1505SOL    HW1 5414   6.841   4.641   5.064
 1505SOL    HW2 5415   6.837   4.642   4.901
 1506SOL     OW 5416   1.496   0.853   1.060
 1506SOL    HW1 5417   1.559   0.797   1.007
 1506SOL    HW2 5418   1.532   0.865   1.153
 1507SOL     OW 5419   2.659   2.038   3.155
 1507SOL    HW1 5420   2.590   2.018   3.086
 1507SOL    HW2 5421   2.633   2.120   3.206
 1508SOL     OW 5422   1.496   0.557   2.102
 1508SOL    HW1 5423   1.397   0.544   2.110
 1508SOL    HW2 5424   1.523   0.551   2.006
 1509SOL     OW 5425   4.921   1.626   4.322
 1509SOL    HW1 5426   4.860   1.704   4.332
 1509SOL    HW2 5427   4.875   1.543   4.353
 1510SOL     OW 5428   3.041   0.021   5.298
 1510SOL    HW1 5429   3.082   0.009   5.208
 1510SOL    HW2 5430   3.051   6.958   5.351
 1511SOL     OW 5431   3.668   4.179   5.406
 1511SOL    HW1 5432   3.596   4.227   5.457
 1511SOL    HW2 5433   3.674   4.085   5.438
 1512SOL     OW 5434   5.101   6.109   0.759
 1512SOL    HW1 5435   5.089   6.039   0.689
 1512SOL    HW2 5436   5.015   6.159   0.771
 1513SOL     OW 5437   2.766   0.542   5.799
 1513SOL    HW1 5438   2.749   0.453   5.757
 1513SOL    HW2 5439   2.736   0.540   5.894
 1514SOL     OW 5440   3.322   1.736   6.687
 1514SOL    HW1 5441   3.287   1.723   6.594
 1514SOL    HW2 5442   3.421   1.748   6.684
 1515SOL     OW 5443   3.577   0.883   2.858
 1515SOL    HW1 5444   3.538   0.975   2.861
 1515SOL    HW2 5445   3.510   0.817   2.891
 1516SOL     OW 5446   6.599   6.862   6.096
 1516SOL    HW1 5447   6.570   6.924   6.168
 1516SOL    HW2 5448   6.692   6.885   6.067
 1517SOL     OW 5449   2.376   6.303   2.919
 1517SOL    HW1 5450   2.437   6.314   2.997
 1517SOL    HW2 5451   2.429   6.309   2.834
 1518SOL     OW 5452   1.136   3.047   6.868
 1518SOL    HW1 5453   1.121   3.144   6.849
 1518SOL    HW2 5454   1.210   3.038   6.935
 1519SOL     OW 5455   0.700   4.339   6.795
 1519SOL    HW1 5456   0.790   4.369   6.761
 1519SOL    HW2 5457   0.641   4.317   6.718
 1520SOL     OW 5458   6.889   6.799   3.301
 1520SOL    HW1 5459   6.948   6.806   3.220
 1520SOL    HW2 5460   6.803   6.756   3.275
 1521SOL     OW 5461   1.901   4.789   6.559
 1521SOL    HW1 5462   1.858   4.876   6.534
 1521SOL    HW2 5463   1.860   4.755   6.644
 1522SOL     OW 5464   5.763   6.556   4.266
 1522SOL    HW1 5465   5.689   6.494   4.242
 1522SOL    HW2 5466   5.744   6.647   4.227
 1523SOL     OW 5467   2.343   6.711   0.516
 1523SOL    HW1 5468   2.417   6.774   0.538
 1523SOL    HW2 5469   2.307   6.670   0.600
 1524SOL     OW 5470   1.991   2.804   4.425
 1524SOL    HW1 5471   1.934   2.726   4.398
 1524SOL    HW2 5472   2.035   2.843   4.344
 1525SOL     OW 5473   5.409   4.156   6.689
 1525SOL    HW1 5474   5.353   4.210   6.752
 1525SOL    HW2 5475   5.480   4.215   6.650
 1526SOL     OW 5476   0.876   1.747   0.963
 1526SOL    HW1 5477   0.950   1.792   0.913
 1526SOL    HW2 5478   0.861   1.793   1.050
 1527SOL     OW 5479   5.345   1.446   4.575
 1527SOL    HW1 5480   5.403   1.464   4.654
 1527SOL    HW2 5481   5.259   1.496   4.584
 1528SOL     OW 5482   3.865   2.927   2.566
 1528SOL    HW1 5483   3.872   2.961   2.472
 1528SOL    HW2 5484   3.775   2.949   2.603
 1529SOL     OW 5485   4.279   1.360   5.488
 1529SOL    HW1 5486   4.197   1.401   5.449
 1529SOL    HW2 5487   4.320   1.296   5.422
 1530SOL     OW 5488   2.621   6.767   1.709
 1530SOL    HW1 5489   2.539   6.821   1.690
 1530SOL    HW2 5490   2.651   6.784   1.803
 1531SOL     OW 5491   4.996   6.515   4.518
 1531SOL    HW1 5492   4.972   6.431   4.469
 1531SOL    HW2 5493   5.056   6.571   4.462
 1532SOL     OW 5494   3.051   5.443   1.628
 1532SOL    HW1 5495   2.968   5.407   1.587
 1532SOL    HW2 5496   3.029   5.524   1.683
 1533SOL     OW 5497   5.869   6.311   1.038
 1533SOL    HW1 5498   5.802   6.385   1.037
 1533SOL    HW2 5499   5.822   6.223   1.031
 1534SOL     OW 5500   2.068   4.780   6.850
 1534SOL    HW1 5501   2.129   4.779   6.771
 1534SOL    HW2 5502   2.072   4.870   6.894
 1535SOL     OW 5503   5.134   4.266   3.478
 1535SOL    HW1 5504   5.209   4.235   3.421
 1535SOL    HW2 5505   5.072   4.324   3.425
 1536SOL     OW 5506   4.264   3.929   6.577
 1536SOL    HW1 5507   4.350   3.972   6.606
 1536SOL    HW2 5508   4.196   4.000   6.557
 1537SOL     OW 5509   3.283   5.593   2.705
 1537SOL    HW1 5510   3.272   5.495   2.684
 1537SOL    HW2 5511   3.368   5.626   2.663
 1538SOL     OW 5512   2.456   1.044   0.541
 1538SOL    HW1 5513   2.541   1.061   0.492
 1538SOL    HW2 5514   2.429   0.949   0.530
 1539SOL     OW 5515   6.863   3.201   1.046
 1539SOL    HW1 5516   6.949   3.203   0.996
 1539SOL    HW2 5517   6.878   3.164   1.138
 1540SOL     OW 5518   3.376   6.456   3.568
 1540SOL    HW1 5519   3.455   6.482   3.513
 1540SOL    HW2 5520   3.407   6.415   3.654
 1541SOL     OW 5521   4.361   2.219   5.677
 1541SOL    HW1 5522   4.455   2.241   5.702
 1541SOL    HW2 5523   4.301   2.236   5.756
 1542SOL     OW 5524   6.916   4.949   2.861
 1542SOL    HW1 5525   6.960   4.864   2.832
 1542SOL    HW2 5526   6.836   4.928   2.916
 1543SOL     OW 5527   3.043   5.352   0.903
 1543SOL    HW1 5528   2.969   5.382   0.842
 1543SOL    HW2 5529   3.069   5.259   0.879
 1544SOL     OW 5530   4.084   3.218   3.937
 1544SOL    HW1 5531   4.048   3.157   3.866
 1544SOL    HW2 5532   4.079   3.172   4.026
 1545SOL     OW 5533   6.270   5.090   1.331
 1545SOL    HW1 5534   6.310   5.164   1.277
 1545SOL    HW2 5535   6.250   5.124   1.423
 1546SOL     OW 5536   6.455   6.519   5.337
 1546SOL    HW1 5537   6.494   6.556   5.253
 1546SOL    HW2 5538   6.524   6.463   5.384
 1547SOL     OW 5539   1.397   3.382   6.395
 1547SOL    HW1 5540   1.481   3.415   6.351
 1547SOL    HW2 5541   1.318   3.412   6.340
 1548SOL     OW 5542   6.543   2.171   0.408
 1548SOL    HW1 5543   6.590   2.212   0.330
 1548SOL    HW2 5544   6.445   2.168   0.391
 1549SOL     OW 5545   4.882   1.112   4.667
 1549SOL    HW1 5546   4.897   1.191   4.608
 1549SOL    HW2 5547   4.798   1.065   4.639
 1550SOL     OW 5548   2.946   3.716   4.418
 1550SOL    HW1 5549   2.956   3.757   4.509
 1550SOL    HW2 5550   3.032   3.722   4.368
 1551SOL     OW 5551   6.943   5.363   6.001
 1551SOL    HW1 5552   6.958   5.461   6.015
 1551SOL    HW2 5553   6.854   5.337   6.038
 1552SOL     OW 5554   1.964   4.019   1.514
 1552SOL    HW1 5555   2.062   4.005   1.502
 1552SOL    HW2 5556   1.946   4.115   1.537
 1553SOL     OW 5557   1.679   1.761   5.418
 1553SOL    HW1 5558   1.690   1.760   5.518
 1553SOL    HW2 5559   1.769   1.768   5.375
 1554SOL     OW 5560   4.389   2.037   3.204
 1554SOL    HW1 5561   4.470   1.986   3.174
 1554SOL    HW2 5562   4.310   2.007   3.152
 1555SOL     OW 5563   5.820   5.401   5.702
 1555SOL    HW1 5564   5.793   5.364   5.613
 1555SOL    HW2 5565   5.785   5.341   5.774
 1556SOL     OW 5566   1.755   1.107   5.703
 1556SOL    HW1 5567   1.843   1.126   5.659
 1556SOL    HW2 5568   1.760   1.134   5.799
 1557SOL     OW 5569   0.974   1.904   5.856
 1557SOL    HW1 5570   0.947   1.856   5.939
 1557SOL    HW2 5571   0.972   1.842   5.778
 1558SOL     OW 5572   6.961   6.461   4.595
 1558SOL    HW1 5573   6.994   6.553   4.574
 1558SOL    HW2 5574   6.861   6.460   4.594
 1559SOL     OW 5575   1.727   1.203   5.960
 1559SOL    HW1 5576   1.683   1.200   6.050
 1559SOL    HW2 5577   1.703   1.289   5.915
 1560SOL     OW 5578   0.279   0.602   0.306
 1560SOL    HW1 5579   0.324   0.544   0.375
 1560SOL    HW2 5580   0.311   0.576   0.215
 1561SOL     OW 5581   5.868   5.927   1.531
 1561SOL    HW1 5582   5.889   6.000   1.465
 1561SOL    HW2 5583   5.782   5.883   1.505
 1562SOL     OW 5584   5.274   0.379   4.226
 1562SOL    HW1 5585   5.307   0.354   4.317
 1562SOL    HW2 5586   5.272   0.298   4.168
 1563SOL     OW 5587   2.970   6.833   6.064
 1563SOL    HW1 5588   3.047   6.785   6.106
 1563SOL    HW2 5589   2.884   6.795   6.100
 1564SOL     OW 5590   1.936   2.266   2.924
 1564SOL    HW1 5591   1.864   2.330   2.952
 1564SOL    HW2 5592   1.959   2.207   3.001
 1565SOL     OW 5593   6.251   4.704   0.965
 1565SOL    HW1 5594   6.266   4.782   1.026
 1565SOL    HW2 5595   6.339   4.663   0.941
 1566SOL     OW 5596   6.123   4.868   2.017
 1566SOL    HW1 5597   6.163   4.805   1.950
 1566SOL    HW2 5598   6.081   4.946   1.970
 1567SOL     OW 5599   6.806   5.794   5.212
 1567SOL    HW1 5600   6.767   5.798   5.304
 1567SOL    HW2 5601   6.760   5.861   5.154
 1568SOL     OW 5602   0.372   6.754   0.935
 1568SOL    HW1 5603   0.282   6.710   0.945
 1568SOL    HW2 5604   0.388   6.815   1.012
 1569SOL     OW 5605   3.045   6.227   5.381
 1569SOL    HW1 5606   3.012   6.246   5.473
 1569SOL    HW2 5607   3.140   6.258   5.372
 1570SOL     OW 5608   2.872   2.068   1.930
 1570SOL    HW1 5609   2.883   2.166   1.947
 1570SOL    HW2 5610   2.903   2.016   2.009
 1571SOL     OW 5611   0.026   3.106   0.684
 1571SOL    HW1 5612   0.042   3.127   0.780
 1571SOL    HW2 5613   6.948   3.101   0.667
 1572SOL     OW 5614   0.161   5.621   3.265
 1572SOL    HW1 5615   0.126   5.646   3.355
 1572SOL    HW2 5616   0.259   5.637   3.261
 1573SOL     OW 5617   4.737   6.602   0.375
 1573SOL    HW1 5618   4.655   6.648   0.341
 1573SOL    HW2 5619   4.807   6.671   0.395
 1574SOL     OW 5620   5.436   3.664   1.967
 1574SOL    HW1 5621   5.412   3.577   1.923
 1574SOL    HW2 5622   5.413   3.660   2.064
 1575SOL     OW 5623   3.831   2.189   0.530
 1575SOL    HW1 5624   3.785   2.166   0.444
 1575SOL    HW2 5625   3.898   2.262   0.514
 1576SOL     OW 5626   6.500   5.058   2.849
 1576SOL    HW1 5627   6.432   5.094   2.784
 1576SOL    HW2 5628   6.564   5.131   2.873
 1577SOL     OW 5629   1.927   0.651   0.660
 1577SOL    HW1 5630   1.991   0.685   0.591
 1577SOL    HW2 5631   1.852   0.715   0.669
 1578SOL     OW 5632   5.940   6.114   4.573
 1578SOL    HW1 5633   5.890   6.031   4.549
 1578SOL    HW2 5634   5.969   6.161   4.489
 1579SOL     OW 5635   0.132   0.661   2.938
 1579SOL    HW1 5636   0.208   0.641   2.999
 1579SOL    HW2 5637   0.113   0.580   2.882
 1580SOL     OW 5638   3.052   4.047   5.658
 1580SOL    HW1 5639   2.996   3.968   5.633
 1580SOL    HW2 5640   2.997   4.130   5.653
 1581SOL     OW 5641   6.139   3.196   4.632
 1581SOL    HW1 5642   6.080   3.192   4.551
 1581SOL    HW2 5643   6.171   3.289   4.645
 1582SOL     OW 5644   6.068   6.724   4.135
 1582SOL    HW1 5645   6.011   6.758   4.210
 1582SOL    HW2 5646   6.164   6.747   4.153
 1583SOL     OW 5647   1.979   2.842   1.834
 1583SOL    HW1 5648   2.030   2.830   1.749
 1583SOL    HW2 5649   1.906   2.774   1.839
 1584SOL     OW 5650   2.445   0.037   6.515
 1584SOL    HW1 5651   2.460   7.015   6.604
 1584SOL    HW2 5652   2.368   7.014   6.469
 1585SOL     OW 5653   5.865   0.752   6.093
 1585SOL    HW1 5654   5.891   0.791   6.182
 1585SOL    HW2 5655   5.791   0.686   6.106
 1586SOL     OW 5656   3.757   3.093   3.077
 1586SOL    HW1 5657   3.740   3.019   3.012
 1586SOL    HW2 5658   3.802   3.056   3.158
 1587SOL     OW 5659   1.884   6.934   6.188
 1587SOL    HW1 5660   1.837   6.849   6.211
 1587SOL    HW2 5661   1.836   7.011   6.229
 1588SOL     OW 5662   6.007   3.986   0.503
 1588SOL    HW1 5663   5.927   4.013   0.449
 1588SOL    HW2 5664   6.090   4.008   0.453
 1589SOL     OW 5665   4.957   4.921   3.064
 1589SOL    HW1 5666   5.021   4.879   3.128
 1589SOL    HW2 5667   4.873   4.945   3.112
 1590SOL     OW 5668   2.337   6.210   4.306
 1590SOL    HW1 5669   2.325   6.307   4.284
 1590SOL    HW2 5670   2.253   6.174   4.347
 1591SOL     OW 5671   2.379   3.446   0.086
 1591SOL    HW1 5672   2.425   3.511   0.026
 1591SOL    HW2 5673   2.286   3.430   0.051
 1592SOL     OW 5674   3.808   3.576   4.002
 1592SOL    HW1 5675   3.858   3.638   4.063
 1592SOL    HW2 5676   3.789   3.490   4.049
 1593SOL     OW 5677   1.604   4.200   4.138
 1593SOL    HW1 5678   1.701   4.216   4.154
 1593SOL    HW2 5679   1.589   4.178   4.041
 1594SOL     OW 5680   0.748   5.424   2.767
 1594SOL    HW1 5681   0.795   5.378   2.692
 1594SOL    HW2 5682   0.788   5.515   2.780
 1595SOL     OW 5683   0.023   3.450   4.824
 1595SOL    HW1 5684   0.070   3.501   4.752
 1595SOL    HW2 5685   6.945   3.456   4.809
 1596SOL     OW 5686   2.905   5.154   6.596
 1596SOL    HW1 5687   2.930   5.124   6.504
 1596SOL    HW2 5688   2.986   5.152   6.654
 1597SOL     OW 5689   2.768   0.137   0.532
 1597SOL    HW1 5690   2.689   0.141   0.472
 1597SOL    HW2 5691   2.826   0.059   0.508
 1598SOL     OW 5692   0.159   5.550   1.639
 1598SOL    HW1 5693   0.087   5.506   1.694
 1598SOL    HW2 5694   0.125   5.565   1.546
 1599SOL     OW 5695   2.698   5.331   0.270
 1599SOL    HW1 5696   2.796   5.347   0.264
 1599SOL    HW2 5697   2.652   5.414   0.301
 1600SOL     OW 5698   3.422   1.663   5.040
 1600SOL    HW1 5699   3.323   1.672   5.051
 1600SOL    HW2 5700   3.468   1.737   5.088
 1601SOL     OW 5701   2.030   5.036   5.007
 1601SOL    HW1 5702   1.996   4.942   5.003
 1601SOL    HW2 5703   2.044   5.070   4.914
 1602SOL     OW 5704   0.245   3.438   2.069
 1602SOL    HW1 5705   0.344   3.442   2.082
 1602SOL    HW2 5706   0.203   3.521   2.106
 1603SOL     OW 5707   6.399   6.879   0.457
 1603SOL    HW1 5708   6.458   6.802   0.434
 1603SOL    HW2 5709   6.450   6.946   0.511
 1604SOL     OW 5710   0.803   5.371   4.471
 1604SOL    HW1 5711   0.888   5.349   4.424
 1604SOL    HW2 5712   0.809   5.463   4.510
 1605SOL     OW 5713   4.673   4.980   2.699
 1605SOL    HW1 5714   4.682   5.077   2.719
 1605SOL    HW2 5715   4.748   4.930   2.743
 1606SOL     OW 5716   5.800   5.886   4.524
 1606SOL    HW1 5717   5.828   5.844   4.611
 1606SOL    HW2 5718   5.721   5.836   4.488
 1607SOL     OW 5719   4.809   3.411   1.581
 1607SOL    HW1 5720   4.793   3.355   1.499
 1607SOL    HW2 5721   4.799   3.355   1.663
 1608SOL     OW 5722   2.783   0.108   0.869
 1608SOL    HW1 5723   2.782   0.132   0.772
 1608SOL    HW2 5724   2.689   0.104   0.903
 1609SOL     OW 5725   5.570   1.571   4.884
 1609SOL    HW1 5726   5.656   1.523   4.898
 1609SOL    HW2 5727   5.504   1.541   4.952
 1610SOL     OW 5728   4.640   6.515   2.969
 1610SOL    HW1 5729   4.630   6.615   2.967
 1610SOL    HW2 5730   4.700   6.486   2.895
 1611SOL     OW 5731   4.319   3.770   1.428
 1611SOL    HW1 5732   4.339   3.868   1.420
 1611SOL    HW2 5733   4.347   3.723   1.344
 1612SOL     OW 5734   2.998   0.744   4.661
 1612SOL    HW1 5735   3.038   0.829   4.626
 1612SOL    HW2 5736   3.009   0.672   4.592
 1613SOL     OW 5737   1.851   0.533   1.598
 1613SOL    HW1 5738   1.877   0.475   1.521
 1613SOL    HW2 5739   1.911   0.613   1.602
 1614SOL     OW 5740   6.925   2.342   5.179
 1614SOL    HW1 5741   6.981   2.364   5.099
 1614SOL    HW2 5742   6.968   2.267   5.230
 1615SOL     OW 5743   6.644   5.550   5.704
 1615SOL    HW1 5744   6.672   5.509   5.791
 1615SOL    HW2 5745   6.719   5.541   5.638
 1616SOL     OW 5746   2.335   1.941   6.169
 1616SOL    HW1 5747   2.393   1.879   6.118
 1616SOL    HW2 5748   2.377   2.032   6.171
 1617SOL     OW 5749   3.026   0.938   3.570
 1617SOL    HW1 5750   3.001   0.935   3.473
 1617SOL    HW2 5751   3.121   0.969   3.579
 1618SOL     OW 5752   5.382   2.825   1.909
 1618SOL    HW1 5753   5.389   2.892   1.983
 1618SOL    HW2 5754   5.291   2.830   1.867
 1619SOL     OW 5755   1.429   2.685   4.744
 1619SOL    HW1 5756   1.331   2.701   4.740
 1619SOL    HW2 5757   1.478   2.771   4.725
 1620SOL     OW 5758   3.588   6.008   1.707
 1620SOL    HW1 5759   3.643   6.050   1.779
 1620SOL    HW2 5760   3.647   5.983   1.630
 1621SOL     OW 5761   2.202   2.544   1.708
 1621SOL    HW1 5762   2.256   2.535   1.624
 1621SOL    HW2 5763   2.181   2.640   1.724
 1622SOL     OW 5764   2.291   2.046   5.260
 1622SOL    HW1 5765   2.354   2.007   5.327
 1622SOL    HW2 5766   2.265   2.138   5.289
 1623SOL     OW 5767   2.004   2.040   4.598
 1623SOL    HW1 5768   1.986   1.949   4.637
 1623SOL    HW2 5769   1.917   2.083   4.574
 1624SOL     OW 5770   2.149   0.751   0.441
 1624SOL    HW1 5771   2.231   0.736   0.497
 1624SOL    HW2 5772   2.134   0.849   0.430
 1625SOL     OW 5773   1.075   6.841   1.441
 1625SOL    HW1 5774   1.137   6.766   1.467
 1625SOL    HW2 5775   1.028   6.818   1.356
 1626SOL     OW 5776   2.566   3.188   6.319
 1626SOL    HW1 5777   2.555   3.246   6.238
 1626SOL    HW2 5778   2.632   3.115   6.299
 1627SOL     OW 5779   4.719   4.146   3.296
 1627SOL    HW1 5780   4.638   4.162   3.241
 1627SOL    HW2 5781   4.706   4.183   3.388
 1628SOL     OW 5782   3.256   3.372   0.310
 1628SOL    HW1 5783   3.210   3.318   0.381
 1628SOL    HW2 5784   3.333   3.320   0.273
 1629SOL     OW 5785   2.814   2.288   2.918
 1629SOL    HW1 5786   2.732   2.346   2.925
 1629SOL    HW2 5787   2.875   2.306   2.995
 1630SOL     OW 5788   5.594   4.966   4.199
 1630SOL    HW1 5789   5.687   5.000   4.210
 1630SOL    HW2 5790   5.529   5.042   4.205
 1631SOL     OW 5791   1.085   0.194   5.995
 1631SOL    HW1 5792   1.074   0.259   6.070
 1631SOL    HW2 5793   1.181   0.187   5.970
 1632SOL     OW 5794   4.300   6.712   6.656
 1632SOL    HW1 5795   4.351   6.721   6.741
 1632SOL    HW2 5796   4.364   6.713   6.578
 1633SOL     OW 5797   6.168   4.016   2.972
 1633SOL    HW1 5798   6.236   4.089   2.981
 1633SOL    HW2 5799   6.120   4.003   3.058
 1634SOL     OW 5800   3.641   1.110   1.067
 1634SOL    HW1 5801   3.546   1.080   1.069
 1634SOL    HW2 5802   3.662   1.162   1.150
 1635SOL     OW 5803   1.483   4.451   3.297
 1635SOL    HW1 5804   1.453   4.365   3.337
 1635SOL    HW2 5805   1.426   4.526   3.332
 1636SOL     OW 5806   3.130   6.282   0.554
 1636SOL    HW1 5807   3.163   6.305   0.462
 1636SOL    HW2 5808   3.071   6.201   0.548
 1637SOL     OW 5809   0.933   3.044   2.904
 1637SOL    HW1 5810   1.021   3.053   2.858
 1637SOL    HW2 5811   0.904   2.948   2.903
 1638SOL     OW 5812   1.381   2.645   6.185
 1638SOL    HW1 5813   1.455   2.603   6.238
 1638SOL    HW2 5814   1.398   2.631   6.087
 1639SOL     OW 5815   4.240   4.864   2.731
 1639SOL    HW1 5816   4.219   4.958   2.758
 1639SOL    HW2 5817   4.229   4.804   2.810
 1640SOL     OW 5818   6.050   6.906   1.013
 1640SOL    HW1 5819   5.997   6.927   1.095
 1640SOL    HW2 5820   6.126   6.845   1.037
 1641SOL     OW 5821   6.616   2.595   4.787
 1641SOL    HW1 5822   6.620   2.650   4.870
 1641SOL    HW2 5823   6.561   2.642   4.718
 1642SOL     OW 5824   0.940   2.204   1.759
 1642SOL    HW1 5825   1.008   2.242   1.822
 1642SOL    HW2 5826   0.851   2.201   1.805
 1643SOL     OW 5827   3.776   0.294   5.802
 1643SOL    HW1 5828   3.802   0.383   5.765
 1643SOL    HW2 5829   3.691   0.302   5.853
 1644SOL     OW 5830   4.060   1.202   1.214
 1644SOL    HW1 5831   4.016   1.261   1.146
 1644SOL    HW2 5832   4.000   1.125   1.235
 1645SOL     OW 5833   2.247   5.864   6.300
 1645SOL    HW1 5834   2.233   5.921   6.382
 1645SOL    HW2 5835   2.159   5.840   6.261
 1646SOL     OW 5836   2.396   3.519   0.348
 1646SOL    HW1 5837   2.390   3.489   0.253
 1646SOL    HW2 5838   2.357   3.611   0.357
 1647SOL     OW 5839   5.495   3.421   2.629
 1647SOL    HW1 5840   5.526   3.443   2.721
 1647SOL    HW2 5841   5.432   3.492   2.597
 1648SOL     OW 5842   2.971   0.638   2.945
 1648SOL    HW1 5843   3.017   0.648   3.033
 1648SOL    HW2 5844   2.953   0.541   2.928
 1649SOL     OW 5845   2.545   0.249   4.096
 1649SOL    HW1 5846   2.475   0.298   4.044
 1649SOL    HW2 5847   2.629   0.303   4.097
 1650SOL     OW 5848   3.057   0.105   4.292
 1650SOL    HW1 5849   3.047   0.204   4.298
 1650SOL    HW2 5850   2.990   0.069   4.227
 1651SOL     OW 5851   1.203   6.563   2.326
 1651SOL    HW1 5852   1.224   6.472   2.361
 1651SOL    HW2 5853   1.182   6.624   2.403
 1652SOL     OW 5854   3.407   3.357   1.863
 1652SOL    HW1 5855   3.412   3.404   1.951
 1652SOL    HW2 5856   3.315   3.364   1.826
 1653SOL     OW 5857   0.818   4.609   1.119
 1653SOL    HW1 5858   0.899   4.567   1.078
 1653SOL    HW2 5859   0.843   4.696   1.161
 1654SOL     OW 5860   0.689   2.082   3.744
 1654SOL    HW1 5861   0.670   2.160   3.684
 1654SOL    HW2 5862   0.618   2.012   3.731
 1655SOL     OW 5863   4.350   4.237   5.348
 1655SOL    HW1 5864   4.354   4.138   5.338
 1655SOL    HW2 5865   4.309   4.278   5.266
 1656SOL     OW 5866   0.388   3.787   2.482
 1656SOL    HW1 5867   0.313   3.772   2.546
 1656SOL    HW2 5868   0.463   3.723   2.503
 1657SOL     OW 5869   0.943   0.783   5.288
 1657SOL    HW1 5870   1.003   0.849   5.242
 1657SOL    HW2 5871   0.871   0.754   5.224
 1658SOL     OW 5872   5.873   0.229   2.875
 1658SOL    HW1 5873   5.798   0.288   2.843
 1658SOL    HW2 5874   5.960   0.269   2.847
 1659SOL     OW 5875   5.092   2.046   6.675
 1659SOL    HW1 5876   5.047   2.130   6.644
 1659SOL    HW2 5877   5.039   2.006   6.750
 1660SOL     OW 5878   2.186   6.051   3.670
 1660SOL    HW1 5879   2.156   6.140   3.705
 1660SOL    HW2 5880   2.130   6.025   3.592
 1661SOL     OW 5881   2.624   0.905   3.261
 1661SOL    HW1 5882   2.558   0.853   3.207
 1661SOL    HW2 5883   2.616   0.879   3.357
 1662SOL     OW 5884   6.562   0.472   3.276
 1662SOL    HW1 5885   6.494   0.460   3.203
 1662SOL    HW2 5886   6.653   0.459   3.238
 1663SOL     OW 5887   1.907   0.442   3.406
 1663SOL    HW1 5888   1.888   0.457   3.503
 1663SOL    HW2 5889   1.862   0.357   3.376
 1664SOL     OW 5890   2.090   5.790   4.442
 1664SOL    HW1 5891   2.107   5.722   4.371
 1664SOL    HW2 5892   2.054   5.745   4.524
 1665SOL     OW 5893   6.543   0.902   3.503
 1665SOL    HW1 5894   6.585   0.830   3.448
 1665SOL    HW2 5895   6.568   0.890   3.599
 1666SOL     OW 5896   5.521   2.092   6.190
 1666SOL    HW1 5897   5.562   2.112   6.278
 1666SOL    HW2 5898   5.461   2.167   6.162
 1667SOL     OW 5899   6.885   0.510   1.235
 1667SOL    HW1 5900   6.906   0.427   1.287
 1667SOL    HW2 5901   6.822   0.487   1.160
 1668SOL     OW 5902   1.774   0.559   4.478
 1668SOL    HW1 5903   1.856   0.504   4.493
 1668SOL    HW2 5904   1.783   0.646   4.526
 1669SOL     OW 5905   5.202   6.076   5.907
 1669SOL    HW1 5906   5.179   6.123   5.992
 1669SOL    HW2 5907   5.287   6.024   5.919
 1670SOL     OW 5908   6.758   3.204   6.421
 1670SOL    HW1 5909   6.671   3.160   6.398
 1670SOL    HW2 5910   6.833   3.157   6.374
 1671SOL     OW 5911   5.670   4.892   0.472
 1671SOL    HW1 5912   5.751   4.949   0.487
 1671SOL    HW2 5913   5.588   4.950   0.474
 1672SOL     OW 5914   1.798   4.791   2.787
 1672SOL    HW1 5915   1.717   4.763   2.735
 1672SOL    HW2 5916   1.880   4.759   2.740
 1673SOL     OW 5917   6.473   3.110   3.698
 1673SOL    HW1 5918   6.414   3.077   3.624
 1673SOL    HW2 5919   6.447   3.202   3.723
 1674SOL     OW 5920   2.178   5.754   0.553
 1674SOL    HW1 5921   2.233   5.755   0.637
 1674SOL    HW2 5922   2.206   5.830   0.494
 1675SOL     OW 5923   4.918   1.583   6.649
 1675SOL    HW1 5924   4.990   1.514   6.648
 1675SOL    HW2 5925   4.940   1.656   6.585
 1676SOL     OW 5926   2.930   2.074   3.535
 1676SOL    HW1 5927   2.970   2.107   3.621
 1676SOL    HW2 5928   2.967   2.128   3.459
 1677SOL     OW 5929   5.500   0.515   5.764
 1677SOL    HW1 5930   5.495   0.541   5.861
 1677SOL    HW2 5931   5.412   0.535   5.720
 1678SOL     OW 5932   4.698   6.588   2.020
 1678SOL    HW1 5933   4.774   6.637   1.978
 1678SOL    HW2 5934   4.612   6.616   1.977
 1679SOL     OW 5935   6.097   4.310   0.422
 1679SOL    HW1 5936   6.177   4.345   0.472
 1679SOL    HW2 5937   6.014   4.333   0.472
 1680SOL     OW 5938   0.677   2.261   5.741
 1680SOL    HW1 5939   0.752   2.205   5.775
 1680SOL    HW2 5940   0.700   2.358   5.753
 1681SOL     OW 5941   4.328   5.681   6.977
 1681SOL    HW1 5942   4.235   5.716   6.969
 1681SOL    HW2 5943   4.352   5.673   0.053
 1682SOL     OW 5944   6.997   2.674   5.676
 1682SOL    HW1 5945   6.932   2.675   5.751
 1682SOL    HW2 5946   6.966   2.737   5.604
 1683SOL     OW 5947   5.535   5.444   5.966
 1683SOL    HW1 5948   5.610   5.494   5.923
 1683SOL    HW2 5949   5.554   5.346   5.961
 1684SOL     OW 5950   0.392   6.589   4.377
 1684SOL    HW1 5951   0.460   6.662   4.378
 1684SOL    HW2 5952   0.387   6.549   4.285
 1685SOL     OW 5953   1.091   1.942   0.567
 1685SOL    HW1 5954   1.090   1.962   0.665
 1685SOL    HW2 5955   0.998   1.945   0.531
 1686SOL     OW 5956   1.682   6.709   6.149
 1686SOL    HW1 5957   1.711   6.650   6.224
 1686SOL    HW2 5958   1.584   6.729   6.158
 1687SOL     OW 5959   3.113   6.518   2.395
 1687SOL    HW1 5960   3.037   6.460   2.364
 1687SOL    HW2 5961   3.151   6.568   2.317
 1688SOL     OW 5962   0.524   1.530   3.829
 1688SOL    HW1 5963   0.507   1.432   3.817
 1688SOL    HW2 5964   0.450   1.571   3.883
 1689SOL     OW 5965   3.148   1.404   1.243
 1689SOL    HW1 5966   3.049   1.389   1.247
 1689SOL    HW2 5967   3.181   1.379   1.152
 1690SOL     OW 5968   0.984   2.243   0.253
 1690SOL    HW1 5969   0.966   2.159   0.202
 1690SOL    HW2 5970   0.902   2.267   0.305
 1691SOL     OW 5971   4.517   4.433   3.841
 1691SOL    HW1 5972   4.553   4.351   3.886
 1691SOL    HW2 5973   4.475   4.493   3.908
 1692SOL     OW 5974   1.073   0.033   3.747
 1692SOL    HW1 5975   0.999   0.045   3.681
 1692SOL    HW2 5976   1.060   6.967   3.795
 1693SOL     OW 5977   3.285   2.137   3.878
 1693SOL    HW1 5978   3.288   2.105   3.783
 1693SOL    HW2 5979   3.377   2.135   3.916
 1694SOL     OW 5980   6.332   5.918   4.874
 1694SOL    HW1 5981   6.267   5.966   4.815
 1694SOL    HW2 5982   6.405   5.879   4.818
 1695SOL     OW 5983   4.071   1.448   6.382
 1695SOL    HW1 5984   4.051   1.478   6.475
 1695SOL    HW2 5985   4.128   1.516   6.335
 1696SOL     OW 5986   3.798   5.689   1.454
 1696SOL    HW1 5987   3.841   5.683   1.544
 1696SOL    HW2 5988   3.800   5.599   1.410
 1697SOL     OW 5989   1.231   1.794   2.089
 1697SOL    HW1 5990   1.161   1.785   2.017
 1697SOL    HW2 5991   1.197   1.754   2.174
 1698SOL     OW 5992   4.560   1.768   0.336
 1698SOL    HW1 5993   4.605   1.716   0.409
 1698SOL    HW2 5994   4.462   1.773   0.354
 1699SOL     OW 5995   2.549   4.839   0.859
 1699SOL    HW1 5996   2.582   4.754   0.900
 1699SOL    HW2 5997   2.620   4.877   0.800
 1700SOL     OW 5998   6.032   2.731   4.625
 1700SOL    HW1 5999   6.079   2.797   4.683
 1700SOL    HW2 6000   6.073   2.640   4.636
 1701SOL     OW 6001   6.076   3.146   5.045
 1701SOL    HW1 6002   5.979   3.139   5.021
 1701SOL    HW2 6003   6.088   3.215   5.116
 1702SOL     OW 6004   5.088   2.682   1.457
 1702SOL    HW1 6005   5.011   2.631   1.420
 1702SOL    HW2 6006   5.173   2.636   1.433
 1703SOL     OW 6007   1.881   3.361   0.545
 1703SOL    HW1 6008   1.890   3.266   0.574
 1703SOL    HW2 6009   1.786   3.391   0.558
 1704SOL     OW 6010   0.118   1.920   2.358
 1704SOL    HW1 6011   0.069   1.878   2.282
 1704SOL    HW2 6012   0.090   1.877   2.444
 1705SOL     OW 6013   4.023   3.102   2.727
 1705SOL    HW1 6014   4.068   3.143   2.648
 1705SOL    HW2 6015   3.982   3.014   2.701
 1706SOL     OW 6016   2.102   0.866   6.036
 1706SOL    HW1 6017   2.045   0.786   6.016
 1706SOL    HW2 6018   2.173   0.841   6.103
 1707SOL     OW 6019   5.328   1.701   2.388
 1707SOL    HW1 6020   5.350   1.791   2.427
 1707SOL    HW2 6021   5.323   1.708   2.289
 1708SOL     OW 6022   0.496   4.390   1.434
 1708SOL    HW1 6023   0.408   4.436   1.439
 1708SOL    HW2 6024   0.566   4.456   1.406
 1709SOL     OW 6025   3.400   5.324   3.743
 1709SOL    HW1 6026   3.440   5.415   3.743
 1709SOL    HW2 6027   3.467   5.258   3.708
 1710SOL     OW 6028   6.918   4.688   4.716
 1710SOL    HW1 6029   6.883   4.744   4.641
 1710SOL    HW2 6030   6.995   4.734   4.759
 1711SOL     OW 6031   1.475   4.703   5.519
 1711SOL    HW1 6032   1.563   4.752   5.517
 1711SOL    HW2 6033   1.457   4.663   5.430
 1712SOL     OW 6034   1.795   4.482   2.004
 1712SOL    HW1 6035   1.828   4.526   1.921
 1712SOL    HW2 6036   1.815   4.540   2.083
 1713SOL     OW 6037   2.480   3.028   0.937
 1713SOL    HW1 6038   2.500   3.120   0.904
 1713SOL    HW2 6039   2.548   2.964   0.900
 1714SOL     OW 6040   4.171   1.023   1.864
 1714SOL    HW1 6041   4.224   1.096   1.819
 1714SOL    HW2 6042   4.123   1.060   1.943
 1715SOL     OW 6043   1.124   2.986   3.635
 1715SOL    HW1 6044   1.107   2.974   3.537
 1715SOL    HW2 6045   1.136   3.084   3.655
 1716SOL     OW 6046   0.314   7.002   6.662
 1716SOL    HW1 6047   0.244   0.034   6.613
 1716SOL    HW2 6048   0.347   0.035   6.740
 1717SOL     OW 6049   2.866   0.421   6.505
 1717SOL    HW1 6050   2.966   0.428   6.498
 1717SOL    HW2 6051   2.826   0.427   6.414
 1718SOL     OW 6052   2.092   3.981   5.603
 1718SOL    HW1 6053   2.032   4.017   5.675
 1718SOL    HW2 6054   2.111   3.885   5.620
 1719SOL     OW 6055   1.953   3.492   0.821
 1719SOL    HW1 6056   1.913   3.471   0.731
 1719SOL    HW2 6057   1.980   3.406   0.865
 1720SOL     OW 6058   7.018   2.378   2.257
 1720SOL    HW1 6059   0.011   2.456   2.197
 1720SOL    HW2 6060   0.025   2.401   2.350
 1721SOL     OW 6061   0.842   6.473   4.512
 1721SOL    HW1 6062   0.938   6.464   4.539
 1721SOL    HW2 6063   0.786   6.409   4.564
 1722SOL     OW 6064   5.676   0.266   1.674
 1722SOL    HW1 6065   5.655   0.363   1.673
 1722SOL    HW2 6066   5.659   0.229   1.766
 1723SOL     OW 6067   5.759   1.252   3.051
 1723SOL    HW1 6068   5.761   1.202   2.965
 1723SOL    HW2 6069   5.692   1.211   3.113
 1724SOL     OW 6070   4.998   0.715   0.304
 1724SOL    HW1 6071   5.086   0.734   0.347
 1724SOL    HW2 6072   4.925   0.721   0.372
 1725SOL     OW 6073   3.803   5.509   2.249
 1725SOL    HW1 6074   3.813   5.540   2.155
 1725SOL    HW2 6075   3.879   5.543   2.304
 1726SOL     OW 6076   6.905   3.973   4.780
 1726SOL    HW1 6077   6.872   4.013   4.866
 1726SOL    HW2 6078   6.921   3.875   4.793
 1727SOL     OW 6079   2.718   3.680   5.402
 1727SOL    HW1 6080   2.627   3.693   5.363
 1727SOL    HW2 6081   2.746   3.763   5.450
 1728SOL     OW 6082   4.629   5.609   3.750
 1728SOL    HW1 6083   4.638   5.670   3.828
 1728SOL    HW2 6084   4.550   5.636   3.695
 1729SOL     OW 6085   0.352   3.313   2.480
 1729SOL    HW1 6086   0.301   3.263   2.409
 1729SOL    HW2 6087   0.300   3.313   2.565
 1730SOL     OW 6088   4.996   1.899   4.734
 1730SOL    HW1 6089   5.095   1.901   4.738
 1730SOL    HW2 6090   4.960   1.843   4.809
 1731SOL     OW 6091   0.863   6.792   0.179
 1731SOL    HW1 6092   0.901   6.883   0.165
 1731SOL    HW2 6093   0.817   6.762   0.096
 1732SOL     OW 6094   0.520   3.983   6.907
 1732SOL    HW1 6095   0.549   4.069   6.948
 1732SOL    HW2 6096   0.466   4.001   6.825
 1733SOL     OW 6097   1.418   4.676   6.800
 1733SOL    HW1 6098   1.380   4.650   6.711
 1733SOL    HW2 6099   1.402   4.602   6.866
 1734SOL     OW 6100   5.292   4.247   0.962
 1734SOL    HW1 6101   5.197   4.221   0.975
 1734SOL    HW2 6102   5.327   4.292   1.044
 1735SOL     OW 6103   4.714   5.284   0.013
 1735SOL    HW1 6104   4.615   5.271   0.021
 1735SOL    HW2 6105   4.733   5.356   6.967
 1736SOL     OW 6106   3.557   3.042   0.523
 1736SOL    HW1 6107   3.574   2.944   0.508
 1736SOL    HW2 6108   3.463   3.054   0.556
 1737SOL     OW 6109   1.160   5.574   3.127
 1737SOL    HW1 6110   1.094   5.551   3.198
 1737SOL    HW2 6111   1.175   5.673   3.127
 1738SOL     OW 6112   0.770   1.520   2.173
 1738SOL    HW1 6113   0.788   1.541   2.269
 1738SOL    HW2 6114   0.752   1.422   2.163
 1739SOL     OW 6115   4.169   1.615   6.200
 1739SOL    HW1 6116   4.247   1.628   6.139
 1739SOL    HW2 6117   4.085   1.606   6.145
 1740SOL     OW 6118   0.549   2.239   6.244
 1740SOL    HW1 6119   0.461   2.278   6.217
 1740SOL    HW2 6120   0.534   2.167   6.312
 1741SOL     OW 6121   1.136   1.161   2.255
 1741SOL    HW1 6122   1.112   1.073   2.295
 1741SOL    HW2 6123   1.167   1.148   2.161
 1742SOL     OW 6124   5.985   6.039   3.883
 1742SOL    HW1 6125   5.905   6.084   3.922
 1742SOL    HW2 6126   5.979   5.940   3.897
 1743SOL     OW 6127   4.498   1.224   0.749
 1743SOL    HW1 6128   4.594   1.246   0.769
 1743SOL    HW2 6129   4.475   1.135   0.789
 1744SOL     OW 6130   3.743   5.953   1.466
 1744SOL    HW1 6131   3.835   5.988   1.481
 1744SOL    HW2 6132   3.745   5.853   1.463
 1745SOL     OW 6133   0.001   2.612   5.265
 1745SOL    HW1 6134   6.959   2.540   5.296
 1745SOL    HW2 6135   6.973   2.699   5.258
 1746SOL     OW 6136   2.722   0.916   6.011
 1746SOL    HW1 6137   2.743   0.959   6.099
 1746SOL    HW2 6138   2.745   0.819   6.014
 1747SOL     OW 6139   4.560   6.789   5.372
 1747SOL    HW1 6140   4.595   6.842   5.450
 1747SOL    HW2 6141   4.482   6.837   5.333
 1748SOL     OW 6142   5.521   1.126   1.755
 1748SOL    HW1 6143   5.459   1.047   1.756
 1748SOL    HW2 6144   5.518   1.172   1.844
 1749SOL     OW 6145   4.720   0.125   6.384
 1749SOL    HW1 6146   4.689   0.186   6.457
 1749SOL    HW2 6147   4.787   0.061   6.420
 1750SOL     OW 6148   3.870   0.614   3.558
 1750SOL    HW1 6149   3.846   0.710   3.544
 1750SOL    HW2 6150   3.878   0.596   3.656
 1751SOL     OW 6151   1.911   5.860   4.250
 1751SOL    HW1 6152   1.970   5.855   4.330
 1751SOL    HW2 6153   1.815   5.868   4.279
 1752SOL     OW 6154   0.063   2.037   6.485
 1752SOL    HW1 6155   0.024   2.127   6.462
 1752SOL    HW2 6156   0.161   2.037   6.464
 1753SOL     OW 6157   1.951   6.153   2.450
 1753SOL    HW1 6158   1.899   6.235   2.472
 1753SOL    HW2 6159   1.933   6.082   2.517
 1754SOL     OW 6160   3.071   3.151   3.062
 1754SOL    HW1 6161   3.032   3.214   2.994
 1754SOL    HW2 6162   3.125   3.081   3.016
 1755SOL     OW 6163   6.692   4.273   0.148
 1755SOL    HW1 6164   6.720   4.276   0.244
 1755SOL    HW2 6165   6.687   4.178   0.117
 1756SOL     OW 6166   6.239   4.867   5.278
 1756SOL    HW1 6167   6.171   4.817   5.332
 1756SOL    HW2 6168   6.330   4.850   5.314
 1757SOL     OW 6169   3.911   0.222   5.555
 1757SOL    HW1 6170   3.969   0.296   5.522
 1757SOL    HW2 6171   3.869   0.248   5.642
 1758SOL     OW 6172   2.893   1.651   3.197
 1758SOL    HW1 6173   2.897   1.602   3.110
 1758SOL    HW2 6174   2.985   1.658   3.235
 1759SOL     OW 6175   7.019   6.058   6.198
 1759SOL    HW1 6176   6.964   6.040   6.117
 1759SOL    HW2 6177   0.052   5.977   6.220
 1760SOL     OW 6178   4.523   6.106   2.482
 1760SOL    HW1 6179   4.529   6.206   2.487
 1760SOL    HW2 6180   4.612   6.066   2.500
 1761SOL     OW 6181   5.553   3.356   1.422
 1761SOL    HW1 6182   5.566   3.455   1.425
 1761SOL    HW2 6183   5.529   3.322   1.513
 1762SOL     OW 6184   5.744   3.201   0.145
 1762SOL    HW1 6185   5.669   3.219   0.210
 1762SOL    HW2 6186   5.814   3.272   0.155
 1763SOL     OW 6187   2.326   2.804   4.488
 1763SOL    HW1 6188   2.296   2.848   4.403
 1763SOL    HW2 6189   2.321   2.870   4.563
 1764SOL     OW 6190   6.836   3.741   3.346
 1764SOL    HW1 6191   6.819   3.740   3.444
 1764SOL    HW2 6192   6.814   3.652   3.307
 1765SOL     OW 6193   1.685   3.500   5.679
 1765SOL    HW1 6194   1.748   3.429   5.646
 1765SOL    HW2 6195   1.650   3.552   5.601
 1766SOL     OW 6196   5.941   3.639   5.374
 1766SOL    HW1 6197   5.874   3.696   5.422
 1766SOL    HW2 6198   5.986   3.693   5.303
 1767SOL     OW 6199   6.592   4.719   1.245
 1767SOL    HW1 6200   6.649   4.734   1.164
 1767SOL    HW2 6201   6.554   4.626   1.243
 1768SOL     OW 6202   6.043   6.766   3.087
 1768SOL    HW1 6203   6.067   6.687   3.143
 1768SOL    HW2 6204   6.038   6.848   3.144
 1769SOL     OW 6205   4.736   1.169   3.581
 1769SOL    HW1 6206   4.656   1.183   3.638
 1769SOL    HW2 6207   4.789   1.091   3.616
 1770SOL     OW 6208   3.637   6.028   5.403
 1770SOL    HW1 6209   3.614   6.110   5.455
 1770SOL    HW2 6210   3.665   6.053   5.311
 1771SOL     OW 6211   4.375   6.193   6.729
 1771SOL    HW1 6212   4.325   6.271   6.766
 1771SOL    HW2 6213   4.409   6.136   6.805
 1772SOL     OW 6214   2.644   6.071   2.987
 1772SOL    HW1 6215   2.635   6.160   3.033
 1772SOL    HW2 6216   2.733   6.032   3.008
 1773SOL     OW 6217   1.303   0.184   0.513
 1773SOL    HW1 6218   1.268   0.108   0.568
 1773SOL    HW2 6219   1.361   0.243   0.571
 1774SOL     OW 6220   2.731   5.197   2.424
 1774SOL    HW1 6221   2.777   5.163   2.342
 1774SOL    HW2 6222   2.680   5.281   2.401
 1775SOL     OW 6223   1.005   5.118   0.693
 1775SOL    HW1 6224   1.102   5.127   0.669
 1775SOL    HW2 6225   0.953   5.194   0.654
 1776SOL     OW 6226   2.855   5.817   5.003
 1776SOL    HW1 6227   2.937   5.818   5.059
 1776SOL    HW2 6228   2.788   5.755   5.043
 1777SOL     OW 6229   3.419   6.180   0.385
 1777SOL    HW1 6230   3.352   6.195   0.313
 1777SOL    HW2 6231   3.445   6.268   0.426
 1778SOL     OW 6232   0.148   3.338   5.739
 1778SOL    HW1 6233   0.074   3.310   5.678
 1778SOL    HW2 6234   0.128   3.429   5.776
 1779SOL     OW 6235   3.678   0.155   5.448
 1779SOL    HW1 6236   3.767   0.173   5.490
 1779SOL    HW2 6237   3.606   0.166   5.516
 1780SOL     OW 6238   3.524   2.716   7.009
 1780SOL    HW1 6239   3.623   2.708   7.011
 1780SOL    HW2 6240   3.485   2.682   0.074
 1781SOL     OW 6241   2.333   5.884   3.357
 1781SOL    HW1 6242   2.290   5.813   3.413
 1781SOL    HW2 6243   2.367   5.843   3.272
 1782SOL     OW 6244   2.957   1.781   4.273
 1782SOL    HW1 6245   3.020   1.758   4.347
 1782SOL    HW2 6246   3.006   1.830   4.201
 1783SOL     OW 6247   2.123   6.140   0.367
 1783SOL    HW1 6248   2.051   6.072   0.378
 1783SOL    HW2 6249   2.186   6.136   0.444
 1784SOL     OW 6250   1.825   0.224   6.009
 1784SOL    HW1 6251   1.901   0.160   6.023
 1784SOL    HW2 6252   1.854   0.317   6.031
 1785SOL     OW 6253   6.669   5.535   2.371
 1785SOL    HW1 6254   6.704   5.443   2.387
 1785SOL    HW2 6255   6.570   5.530   2.356
 1786SOL     OW 6256   3.826   2.661   1.530
 1786SOL    HW1 6257   3.796   2.726   1.600
 1786SOL    HW2 6258   3.912   2.618   1.558
 1787SOL     OW 6259   3.381   0.615   5.494
 1787SOL    HW1 6260   3.413   0.681   5.426
 1787SOL    HW2 6261   3.289   0.585   5.472
 1788SOL     OW 6262   1.612   5.059   5.221
 1788SOL    HW1 6263   1.698   5.109   5.218
 1788SOL    HW2 6264   1.607   4.997   5.142
 1789SOL     OW 6265   5.546   6.402   0.082
 1789SOL    HW1 6266   5.543   6.303   0.064
 1789SOL    HW2 6267   5.629   6.440   0.042
 1790SOL     OW 6268   2.318   6.847   2.568
 1790SOL    HW1 6269   2.298   6.883   2.659
 1790SOL    HW2 6270   2.318   6.748   2.571
 1791SOL     OW 6271   0.358   6.689   3.153
 1791SOL    HW1 6272   0.333   6.747   3.230
 1791SOL    HW2 6273   0.436   6.730   3.105
 1792SOL     OW 6274   0.672   3.287   4.457
 1792SOL    HW1 6275   0.662   3.203   4.403
 1792SOL    HW2 6276   0.623   3.277   4.543
 1793SOL     OW 6277   0.170   0.763   3.807
 1793SOL    HW1 6278   0.161   0.796   3.901
 1793SOL    HW2 6279   0.093   0.795   3.753
 1794SOL     OW 6280   4.834   5.912   6.617
 1794SOL    HW1 6281   4.908   5.951   6.561
 1794SOL    HW2 6282   4.761   5.979   6.628
 1795SOL     OW 6283   1.174   3.822   6.778
 1795SOL    HW1 6284   1.249   3.837   6.843
 1795SOL    HW2 6285   1.119   3.905   6.770
 1796SOL     OW 6286   3.941   0.223   6.045
 1796SOL    HW1 6287   3.988   0.139   6.020
 1796SOL    HW2 6288   3.893   0.260   5.966
 1797SOL     OW 6289   0.156   1.562   1.790
 1797SOL    HW1 6290   0.225   1.497   1.758
 1797SOL    HW2 6291   0.191   1.614   1.867
 1798SOL     OW 6292   5.702   1.623   3.033
 1798SOL    HW1 6293   5.776   1.599   3.096
 1798SOL    HW2 6294   5.624   1.563   3.049
 1799SOL     OW 6295   2.551   0.833   0.131
 1799SOL    HW1 6296   2.453   0.852   0.140
 1799SOL    HW2 6297   2.600   0.918   0.111
 1800SOL     OW 6298   3.190   5.084   2.525
 1800SOL    HW1 6299   3.256   5.113   2.457
 1800SOL    HW2 6300   3.183   5.153   2.597
 1801SOL     OW 6301   5.525   6.863   0.523
 1801SOL    HW1 6302   5.593   6.807   0.475
 1801SOL    HW2 6303   5.573   6.926   0.585
 1802SOL     OW 6304   6.106   4.984   4.458
 1802SOL    HW1 6305   6.079   5.067   4.506
 1802SOL    HW2 6306   6.206   4.977   4.454
 1803SOL     OW 6307   6.200   4.957   0.684
 1803SOL    HW1 6308   6.130   4.932   0.751
 1803SOL    HW2 6309   6.230   4.875   0.635
 1804SOL     OW 6310   3.167   3.375   6.051
 1804SOL    HW1 6311   3.100   3.306   6.023
 1804SOL    HW2 6312   3.230   3.335   6.118
 1805SOL     OW 6313   6.030   2.990   0.062
 1805SOL    HW1 6314   5.942   2.985   0.111
 1805SOL    HW2 6315   6.018   2.956   6.990
 1806SOL     OW 6316   6.607   6.523   0.043
 1806SOL    HW1 6317   6.610   6.423   0.048
 1806SOL    HW2 6318   6.700   6.559   0.037
 1807SOL     OW 6319   6.729   2.038   5.666
 1807SOL    HW1 6320   6.824   2.006   5.665
 1807SOL    HW2 6321   6.683   2.009   5.581
 1808SOL     OW 6322   2.273   4.616   4.489
 1808SOL    HW1 6323   2.230   4.705   4.476
 1808SOL    HW2 6324   2.312   4.611   4.581
 1809SOL     OW 6325   3.649   0.252   6.565
 1809SOL    HW1 6326   3.603   0.183   6.510
 1809SOL    HW2 6327   3.585   0.326   6.586
 1810SOL     OW 6328   2.904   6.457   2.654
 1810SOL    HW1 6329   2.874   6.534   2.598
 1810SOL    HW2 6330   2.854   6.375   2.628
 1811SOL     OW 6331   5.707   5.858   3.205
 1811SOL    HW1 6332   5.776   5.785   3.207
 1811SOL    HW2 6333   5.747   5.943   3.239
 1812SOL     OW 6334   4.548   4.788   5.608
 1812SOL    HW1 6335   4.558   4.824   5.515
 1812SOL    HW2 6336   4.612   4.713   5.622
 1813SOL     OW 6337   6.745   5.975   5.448
 1813SOL    HW1 6338   6.800   6.058   5.454
 1813SOL    HW2 6339   6.800   5.896   5.473
 1814SOL     OW 6340   4.950   6.721   2.814
 1814SOL    HW1 6341   4.893   6.799   2.787
 1814SOL    HW2 6342   4.978   6.732   2.909
 1815SOL     OW 6343   0.238   1.357   2.911
 1815SOL    HW1 6344   0.170   1.426   2.887
 1815SOL    HW2 6345   0.197   1.266   2.906
 1816SOL     OW 6346   1.445   5.301   0.690
 1816SOL    HW1 6347   1.487   5.362   0.757
 1816SOL    HW2 6348   1.442   5.347   0.601
 1817SOL     OW 6349   1.671   5.129   1.837
 1817SOL    HW1 6350   1.650   5.080   1.752
 1817SOL    HW2 6351   1.747   5.084   1.884
 1818SOL     OW 6352   1.091   1.502   3.327
 1818SOL    HW1 6353   1.114   1.587   3.279
 1818SOL    HW2 6354   1.062   1.524   3.421
 1819SOL     OW 6355   1.277   4.183   2.788
 1819SOL    HW1 6356   1.198   4.125   2.808
 1819SOL    HW2 6357   1.346   4.130   2.738
 1820SOL     OW 6358   5.769   6.689   3.113
 1820SOL    HW1 6359   5.731   6.630   3.041
 1820SOL    HW2 6360   5.866   6.704   3.095
 1821SOL     OW 6361   1.999   1.852   3.266
 1821SOL    HW1 6362   1.987   1.943   3.225
 1821SOL    HW2 6363   1.970   1.856   3.362
 1822SOL     OW 6364   3.247   3.291   2.557
 1822SOL    HW1 6365   3.245   3.386   2.528
 1822SOL    HW2 6366   3.339   3.268   2.589
 1823SOL     OW 6367   4.422   0.125   2.476
 1823SOL    HW1 6368   4.492   0.129   2.405
 1823SOL    HW2 6369   4.465   0.119   2.566
 1824SOL     OW 6370   5.257   1.871   1.423
 1824SOL    HW1 6371   5.262   1.919   1.336
 1824SOL    HW2 6372   5.229   1.776   1.407
 1825SOL     OW 6373   0.394   0.298   1.818
 1825SOL    HW1 6374   0.461   0.292   1.892
 1825SOL    HW2 6375   0.440   0.321   1.733
 1826SOL     OW 6376   2.575   5.829   5.956
 1826SOL    HW1 6377   2.533   5.845   5.867
 1826SOL    HW2 6378   2.576   5.914   6.009
 1827SOL     OW 6379   5.716   6.984   0.676
 1827SOL    HW1 6380   5.778   6.909   0.698
 1827SOL    HW2 6381   5.711   0.026   0.753
 1828SOL     OW 6382   2.240   3.105   0.350
 1828SOL    HW1 6383   2.182   3.186   0.347
 1828SOL    HW2 6384   2.194   3.032   0.400
 1829SOL     OW 6385   5.521   5.505   2.592
 1829SOL    HW1 6386   5.455   5.448   2.641
 1829SOL    HW2 6387   5.538   5.589   2.644
 1830SOL     OW 6388   5.019   6.825   4.655
 1830SOL    HW1 6389   5.068   6.782   4.579
 1830SOL    HW2 6390   5.010   6.761   4.730
 1831SOL     OW 6391   5.191   0.893   3.171
 1831SOL    HW1 6392   5.160   0.970   3.228
 1831SOL    HW2 6393   5.230   0.929   3.086
 1832SOL     OW 6394   4.968   2.542   6.606
 1832SOL    HW1 6395   5.051   2.493   6.631
 1832SOL    HW2 6396   4.888   2.482   6.617
 1833SOL     OW 6397   5.550   1.802   5.676
 1833SOL    HW1 6398   5.531   1.854   5.759
 1833SOL    HW2 6399   5.643   1.766   5.680
 1834SOL     OW 6400   2.500   4.040   0.138
 1834SOL    HW1 6401   2.403   4.061   0.150
 1834SOL    HW2 6402   2.513   3.990   0.052
 1835SOL     OW 6403   1.847   4.616   6.822
 1835SOL    HW1 6404   1.937   4.653   6.842
 1835SOL    HW2 6405   1.784   4.640   6.896
 1836SOL     OW 6406   0.888   6.724   0.636
 1836SOL    HW1 6407   0.832   6.672   0.700
 1836SOL    HW2 6408   0.915   6.811   0.679
 1837SOL     OW 6409   0.378   2.694   4.820
 1837SOL    HW1 6410   0.302   2.729   4.874
 1837SOL    HW2 6411   0.464   2.712   4.868
 1838SOL     OW 6412   0.606   2.766   4.940
 1838SOL    HW1 6413   0.670   2.690   4.935
 1838SOL    HW2 6414   0.609   2.806   5.031
 1839SOL     OW 6415   1.050   1.620   6.786
 1839SOL    HW1 6416   1.050   1.631   6.687
 1839SOL    HW2 6417   1.051   1.709   6.830
 1840SOL     OW 6418   0.809   5.023   1.596
 1840SOL    HW1 6419   0.851   5.058   1.679
 1840SOL    HW2 6420   0.709   5.024   1.606
 1841SOL     OW 6421   1.314   3.000   3.826
 1841SOL    HW1 6422   1.391   2.941   3.802
 1841SOL    HW2 6423   1.251   3.006   3.750
 1842SOL     OW 6424   0.936   6.152   6.295
 1842SOL    HW1 6425   0.982   6.113   6.374
 1842SOL    HW2 6426   0.996   6.148   6.216
 1843SOL     OW 6427   4.713   2.072   5.113
 1843SOL    HW1 6428   4.718   2.170   5.091
 1843SOL    HW2 6429   4.779   2.022   5.057
 1844SOL     OW 6430   5.840   4.424   3.522
 1844SOL    HW1 6431   5.776   4.410   3.448
 1844SOL    HW2 6432   5.807   4.378   3.604
 1845SOL     OW 6433   4.576   6.349   0.703
 1845SOL    HW1 6434   4.484   6.389   0.709
 1845SOL    HW2 6435   4.644   6.421   0.717
 1846SOL     OW 6436   3.806   1.573   5.771
 1846SOL    HW1 6437   3.843   1.485   5.801
 1846SOL    HW2 6438   3.881   1.631   5.737
 1847SOL     OW 6439   1.530   6.285   6.317
 1847SOL    HW1 6440   1.607   6.250   6.264
 1847SOL    HW2 6441   1.562   6.315   6.407
 1848SOL     OW 6442   2.125   0.960   3.926
 1848SOL    HW1 6443   2.199   1.026   3.913
 1848SOL    HW2 6444   2.103   0.918   3.837
 1849SOL     OW 6445   2.679   0.845   6.607
 1849SOL    HW1 6446   2.598   0.790   6.586
 1849SOL    HW2 6447   2.671   0.880   6.701
 1850SOL     OW 6448   5.883   1.610   2.017
 1850SOL    HW1 6449   5.983   1.613   2.015
 1850SOL    HW2 6450   5.851   1.624   2.111
 1851SOL     OW 6451   6.502   4.218   2.644
 1851SOL    HW1 6452   6.594   4.241   2.674
 1851SOL    HW2 6453   6.446   4.302   2.642
 1852SOL     OW 6454   5.237   1.504   5.700
 1852SOL    HW1 6455   5.243   1.564   5.780
 1852SOL    HW2 6456   5.148   1.515   5.657
 1853SOL     OW 6457   0.896   5.016   0.928
 1853SOL    HW1 6458   0.911   5.050   1.021
 1853SOL    HW2 6459   0.970   5.047   0.869
 1854SOL     OW 6460   2.447   5.021   3.836
 1854SOL    HW1 6461   2.458   5.027   3.935
 1854SOL    HW2 6462   2.406   4.933   3.812
 1855SOL     OW 6463   6.119   4.555   1.804
 1855SOL    HW1 6464   6.078   4.502   1.879
 1855SOL    HW2 6465   6.048   4.608   1.758
 1856SOL     OW 6466   5.330   2.834   7.013
 1856SOL    HW1 6467   5.309   2.746   0.035
 1856SOL    HW2 6468   5.323   2.825   6.914
 1857SOL     OW 6469   5.163   1.307   3.111
 1857SOL    HW1 6470   5.128   1.398   3.086
 1857SOL    HW2 6471   5.260   1.302   3.086
 1858SOL     OW 6472   5.508   4.506   2.972
 1858SOL    HW1 6473   5.559   4.467   3.049
 1858SOL    HW2 6474   5.541   4.599   2.954
 1859SOL     OW 6475   5.932   1.466   3.126
 1859SOL    HW1 6476   5.988   1.404   3.181
 1859SOL    HW2 6477   5.854   1.416   3.089
 1860SOL     OW 6478   4.230   2.199   4.553
 1860SOL    HW1 6479   4.165   2.210   4.629
 1860SOL    HW2 6480   4.318   2.170   4.589
 1861SOL     OW 6481   4.981   5.787   2.553
 1861SOL    HW1 6482   5.047   5.712   2.554
 1861SOL    HW2 6483   4.974   5.826   2.645
 1862SOL     OW 6484   2.730   1.485   0.577
 1862SOL    HW1 6485   2.802   1.453   0.517
 1862SOL    HW2 6486   2.660   1.414   0.586
 1863SOL     OW 6487   1.998   1.911   1.319
 1863SOL    HW1 6488   2.067   1.885   1.386
 1863SOL    HW2 6489   2.032   1.892   1.227
 1864SOL     OW 6490   0.402   6.396   3.101
 1864SOL    HW1 6491   0.376   6.426   3.009
 1864SOL    HW2 6492   0.403   6.475   3.162
 1865SOL     OW 6493   4.761   3.194   6.345
 1865SOL    HW1 6494   4.831   3.163   6.280
 1865SOL    HW2 6495   4.702   3.117   6.369
 1866SOL     OW 6496   5.452   5.798   1.632
 1866SOL    HW1 6497   5.493   5.773   1.720
 1866SOL    HW2 6498   5.522   5.794   1.561
 1867SOL     OW 6499   1.125   4.383   6.162
 1867SOL    HW1 6500   1.059   4.319   6.202
 1867SOL    HW2 6501   1.184   4.419   6.234
 1868SOL     OW 6502   6.818   4.190   5.604
 1868SOL    HW1 6503   6.832   4.091   5.598
 1868SOL    HW2 6504   6.823   4.219   5.700
 1869SOL     OW 6505   6.076   1.475   4.576
 1869SOL    HW1 6506   5.990   1.446   4.534
 1869SOL    HW2 6507   6.118   1.546   4.521
 1870SOL     OW 6508   2.212   3.987   4.758
 1870SOL    HW1 6509   2.221   3.897   4.717
 1870SOL    HW2 6510   2.232   3.982   4.856
 1871SOL     OW 6511   1.596   0.653   0.891
 1871SOL    HW1 6512   1.572   0.709   0.812
 1871SOL    HW2 6513   1.646   0.572   0.862
 1872SOL     OW 6514   1.681   5.313   6.439
 1872SOL    HW1 6515   1.659   5.299   6.536
 1872SOL    HW2 6516   1.597   5.304   6.385
 1873SOL     OW 6517   5.005   6.980   6.853
 1873SOL    HW1 6518   4.993   6.919   6.931
 1873SOL    HW2 6519   5.063   0.036   6.880
 1874SOL     OW 6520   0.643   3.838   2.701
 1874SOL    HW1 6521   0.614   3.922   2.654
 1874SOL    HW2 6522   0.565   3.796   2.746
 1875SOL     OW 6523   0.660   6.919   2.238
 1875SOL    HW1 6524   0.623   6.833   2.203
 1875SOL    HW2 6525   0.681   6.980   2.161
 1876SOL     OW 6526   1.854   6.468   3.838
 1876SOL    HW1 6527   1.764   6.508   3.822
 1876SOL    HW2 6528   1.852   6.371   3.813
 1877SOL     OW 6529   0.451   6.964   4.223
 1877SOL    HW1 6530   0.385   6.890   4.213
 1877SOL    HW2 6531   0.404   0.025   4.256
 1878SOL     OW 6532   6.187   2.990   6.245
 1878SOL    HW1 6533   6.099   2.961   6.208
 1878SOL    HW2 6534   6.233   2.912   6.287
 1879SOL     OW 6535   2.015   5.266   5.985
 1879SOL    HW1 6536   2.074   5.190   6.014
 1879SOL    HW2 6537   1.919   5.237   5.990
 1880SOL     OW 6538   6.636   0.234   4.668
 1880SOL    HW1 6539   6.678   0.174   4.600
 1880SOL    HW2 6540   6.565   0.185   4.717
 1881SOL     OW 6541   6.957   2.261   6.858
 1881SOL    HW1 6542   0.005   2.316   6.812
 1881SOL    HW2 6543   6.904   2.319   6.920
 1882SOL     OW 6544   1.109   6.690   0.478
 1882SOL    HW1 6545   1.096   6.614   0.413
 1882SOL    HW2 6546   1.021   6.711   0.522
 1883SOL     OW 6547   0.207   1.986   3.636
 1883SOL    HW1 6548   0.154   2.047   3.577
 1883SOL    HW2 6549   0.179   1.998   3.731
 1884SOL     OW 6550   6.198   2.203   1.172
 1884SOL    HW1 6551   6.131   2.211   1.246
 1884SOL    HW2 6552   6.187   2.281   1.109
 1885SOL     OW 6553   3.076   1.637   4.477
 1885SOL    HW1 6554   3.137   1.623   4.555
 1885SOL    HW2 6555   2.996   1.577   4.485
 1886SOL     OW 6556   0.436   6.196   3.512
 1886SOL    HW1 6557   0.527   6.205   3.473
 1886SOL    HW2 6558   0.368   6.219   3.443
 1887SOL     OW 6559   2.521   5.725   6.433
 1887SOL    HW1 6560   2.462   5.782   6.376
 1887SOL    HW2 6561   2.613   5.723   6.394
 1888SOL     OW 6562   2.069   0.081   3.018
 1888SOL    HW1 6563   2.043   0.028   3.099
 1888SOL    HW2 6564   2.028   0.172   3.024
 1889SOL     OW 6565   0.071   3.629   2.877
 1889SOL    HW1 6566   0.113   3.711   2.839
 1889SOL    HW2 6567   6.998   3.649   2.907
 1890SOL     OW 6568   1.520   5.798   4.819
 1890SOL    HW1 6569   1.429   5.775   4.783
 1890SOL    HW2 6570   1.590   5.749   4.766
 1891SOL     OW 6571   3.948   3.045   3.774
 1891SOL    HW1 6572   3.955   3.085   3.682
 1891SOL    HW2 6573   3.863   2.994   3.781
 1892SOL     OW 6574   0.366   0.813   2.280
 1892SOL    HW1 6575   0.462   0.791   2.298
 1892SOL    HW2 6576   0.311   0.787   2.360
 1893SOL     OW 6577   3.735   3.074   4.224
 1893SOL    HW1 6578   3.645   3.057   4.185
 1893SOL    HW2 6579   3.755   3.004   4.293
 1894SOL     OW 6580   2.958   3.414   4.290
 1894SOL    HW1 6581   3.002   3.427   4.379
 1894SOL    HW2 6582   2.881   3.477   4.281
 1895SOL     OW 6583   1.002   6.087   1.549
 1895SOL    HW1 6584   0.938   6.010   1.550
 1895SOL    HW2 6585   1.018   6.116   1.644
 1896SOL     OW 6586   5.951   2.764   1.362
 1896SOL    HW1 6587   5.979   2.670   1.343
 1896SOL    HW2 6588   5.881   2.764   1.434
 1897SOL     OW 6589   1.666   4.267   3.614
 1897SOL    HW1 6590   1.703   4.180   3.584
 1897SOL    HW2 6591   1.580   4.286   3.566
 1898SOL     OW 6592   1.430   5.873   2.403
 1898SOL    HW1 6593   1.362   5.834   2.465
 1898SOL    HW2 6594   1.506   5.810   2.393
 1899SOL     OW 6595   0.086   1.212   2.302
 1899SOL    HW1 6596   0.068   1.124   2.258
 1899SOL    HW2 6597   0.140   1.197   2.385
 1900SOL     OW 6598   2.690   6.357   6.435
 1900SOL    HW1 6599   2.653   6.267   6.412
 1900SOL    HW2 6600   2.780   6.346   6.477
 1901SOL     OW 6601   3.175   2.962   2.700
 1901SOL    HW1 6602   3.086   2.992   2.664
 1901SOL    HW2 6603   3.248   2.995   2.639
 1902SOL     OW 6604   1.339   6.522   5.185
 1902SOL    HW1 6605   1.394   6.605   5.194
 1902SOL    HW2 6606   1.390   6.444   5.219
 1903SOL     OW 6607   1.444   1.821   3.818
 1903SOL    HW1 6608   1.479   1.914   3.832
 1903SOL    HW2 6609   1.514   1.764   3.775
 1904SOL     OW 6610   5.843   5.642   1.382
 1904SOL    HW1 6611   5.892   5.688   1.308
 1904SOL    HW2 6612   5.903   5.577   1.427
 1905SOL     OW 6613   0.670   2.557   4.125
 1905SOL    HW1 6614   0.718   2.621   4.064
 1905SOL    HW2 6615   0.615   2.609   4.190
 1906SOL     OW 6616   0.225   6.196   4.009
 1906SOL    HW1 6617   0.222   6.293   4.034
 1906SOL    HW2 6618   0.132   6.158   4.011
 1907SOL     OW 6619   5.969   3.160   0.677
 1907SOL    HW1 6620   6.013   3.094   0.738
 1907SOL    HW2 6621   5.920   3.228   0.732
 1908SOL     OW 6622   3.501   0.901   1.520
 1908SOL    HW1 6623   3.486   0.871   1.614
 1908SOL    HW2 6624   3.594   0.937   1.511
 1909SOL     OW 6625   6.221   5.521   5.301
 1909SOL    HW1 6626   6.296   5.586   5.290
 1909SOL    HW2 6627   6.171   5.513   5.215
 1910SOL     OW 6628   0.562   5.936   5.699
 1910SOL    HW1 6629   0.540   5.844   5.730
 1910SOL    HW2 6630   0.534   6.002   5.769
 1911SOL     OW 6631   5.801   6.216   4.022
 1911SOL    HW1 6632   5.716   6.212   4.075
 1911SOL    HW2 6633   5.875   6.251   4.080
 1912SOL     OW 6634   3.542   4.888   2.276
 1912SOL    HW1 6635   3.590   4.936   2.350
 1912SOL    HW2 6636   3.446   4.873   2.303
 1913SOL     OW 6637   3.273   4.325   6.496
 1913SOL    HW1 6638   3.185   4.363   6.467
 1913SOL    HW2 6639   3.347   4.374   6.451
 1914SOL     OW 6640   3.942   4.358   0.374
 1914SOL    HW1 6641   4.035   4.359   0.411
 1914SOL    HW2 6642   3.947   4.368   0.274
 1915SOL     OW 6643   3.749   2.512   6.975
 1915SOL    HW1 6644   3.821   2.566   6.931
 1915SOL    HW2 6645   3.788   2.457   0.028
 1916SOL     OW 6646   4.069   1.225   2.374
 1916SOL    HW1 6647   3.976   1.237   2.340
 1916SOL    HW2 6648   4.070   1.235   2.473
 1917SOL     OW 6649   2.298   3.667   1.406
 1917SOL    HW1 6650   2.389   3.634   1.430
 1917SOL    HW2 6651   2.231   3.594   1.420
 1918SOL     OW 6652   5.155   2.293   4.050
 1918SOL    HW1 6653   5.226   2.305   3.980
 1918SOL    HW2 6654   5.071   2.338   4.021
 1919SOL     OW 6655   6.240   2.037   6.232
 1919SOL    HW1 6656   6.293   2.030   6.316
 1919SOL    HW2 6657   6.272   1.969   6.166
 1920SOL     OW 6658   4.576   3.743   0.505
 1920SOL    HW1 6659   4.605   3.839   0.502
 1920SOL    HW2 6660   4.519   3.728   0.586
 1921SOL     OW 6661   2.733   2.536   6.665
 1921SOL    HW1 6662   2.638   2.550   6.695
 1921SOL    HW2 6663   2.795   2.552   6.741
 1922SOL     OW 6664   3.106   3.173   4.524
 1922SOL    HW1 6665   3.104   3.265   4.563
 1922SOL    HW2 6666   3.034   3.165   4.455
 1923SOL     OW 6667   3.249   0.807   3.799
 1923SOL    HW1 6668   3.296   0.799   3.711
 1923SOL    HW2 6669   3.258   0.721   3.849
 1924SOL     OW 6670   5.374   0.842   0.673
 1924SOL    HW1 6671   5.289   0.856   0.723
 1924SOL    HW2 6672   5.442   0.909   0.702
 1925SOL     OW 6673   1.111   4.219   1.025
 1925SOL    HW1 6674   1.149   4.188   1.112
 1925SOL    HW2 6675   1.162   4.178   0.949
 1926SOL     OW 6676   3.334   6.763   1.695
 1926SOL    HW1 6677   3.306   6.692   1.631
 1926SOL    HW2 6678   3.434   6.768   1.699
 1927SOL     OW 6679   2.530   5.387   0.810
 1927SOL    HW1 6680   2.437   5.417   0.787
 1927SOL    HW2 6681   2.534   5.287   0.812
 1928SOL     OW 6682   0.091   4.445   2.944
 1928SOL    HW1 6683   0.138   4.439   3.032
 1928SOL    HW2 6684   0.015   4.381   2.942
 1929SOL     OW 6685   3.782   0.375   3.472
 1929SOL    HW1 6686   3.825   0.462   3.499
 1929SOL    HW2 6687   3.844   0.300   3.495
 1930SOL     OW 6688   3.773   3.555   0.042
 1930SOL    HW1 6689   3.745   3.509   0.126
 1930SOL    HW2 6690   3.738   3.504   6.984
 1931SOL     OW 6691   6.698   3.457   3.702
 1931SOL    HW1 6692   6.682   3.406   3.618
 1931SOL    HW2 6693   6.767   3.410   3.757
 1932SOL     OW 6694   5.181   0.619   1.839
 1932SOL    HW1 6695   5.085   0.636   1.864
 1932SOL    HW2 6696   5.225   0.705   1.813
 1933SOL     OW 6697   1.743   1.265   1.128
 1933SOL    HW1 6698   1.682   1.238   1.203
 1933SOL    HW2 6699   1.754   1.365   1.129
 1934SOL     OW 6700   6.617   1.046   6.986
 1934SOL    HW1 6701   6.623   1.146   6.981
 1934SOL    HW2 6702   6.707   1.008   7.007
 1935SOL     OW 6703   5.975   4.874   4.027
 1935SOL    HW1 6704   5.960   4.970   4.051
 1935SOL    HW2 6705   6.018   4.869   3.937
 1936SOL     OW 6706   5.153   3.040   6.541
 1936SOL    HW1 6707   5.126   3.114   6.602
 1936SOL    HW2 6708   5.146   3.071   6.446
 1937SOL     OW 6709   0.565   4.605   6.883
 1937SOL    HW1 6710   0.611   4.653   6.958
 1937SOL    HW2 6711   0.618   4.524   6.858
 1938SOL     OW 6712   6.708   2.243   6.740
 1938SOL    HW1 6713   6.637   2.272   6.805
 1938SOL    HW2 6714   6.797   2.244   6.786
 1939SOL     OW 6715   0.163   0.302   4.321
 1939SOL    HW1 6716   0.078   0.292   4.372
 1939SOL    HW2 6717   0.187   0.399   4.317
 1940SOL     OW 6718   0.998   5.119   1.768
 1940SOL    HW1 6719   1.030   5.183   1.837
 1940SOL    HW2 6720   1.061   5.120   1.690
 1941SOL     OW 6721   6.114   0.717   4.197
 1941SOL    HW1 6722   6.066   0.649   4.140
 1941SOL    HW2 6723   6.133   0.678   4.287
 1942SOL     OW 6724   0.637   5.347   1.845
 1942SOL    HW1 6725   0.621   5.349   1.943
 1942SOL    HW2 6726   0.621   5.254   1.810
 1943SOL     OW 6727   1.064   3.390   4.176
 1943SOL    HW1 6728   0.993   3.349   4.118
 1943SOL    HW2 6729   1.021   3.439   4.252
 1944SOL     OW 6730   0.411   3.212   4.085
 1944SOL    HW1 6731   0.426   3.129   4.139
 1944SOL    HW2 6732   0.375   3.284   4.144
 1945SOL     OW 6733   5.292   1.670   2.091
 1945SOL    HW1 6734   5.227   1.599   2.120
 1945SOL    HW2 6735   5.285   1.683   1.992
 1946SOL     OW 6736   5.710   5.641   6.971
 1946SOL    HW1 6737   5.680   5.557   6.926
 1946SOL    HW2 6738   5.773   5.619   0.024
 1947SOL     OW 6739   6.006   5.665   2.680
 1947SOL    HW1 6740   5.917   5.669   2.725
 1947SOL    HW2 6741   6.074   5.711   2.737
 1948SOL     OW 6742   5.494   3.587   3.437
 1948SOL    HW1 6743   5.440   3.630   3.365
 1948SOL    HW2 6744   5.473   3.489   3.441
 1949SOL     OW 6745   3.423   4.096   6.202
 1949SOL    HW1 6746   3.501   4.091   6.264
 1949SOL    HW2 6747   3.417   4.188   6.164
 1950SOL     OW 6748   4.141   3.573   3.528
 1950SOL    HW1 6749   4.176   3.512   3.599
 1950SOL    HW2 6750   4.151   3.528   3.439
 1951SOL     OW 6751   6.781   5.606   6.101
 1951SOL    HW1 6752   6.873   5.615   6.139
 1951SOL    HW2 6753   6.715   5.650   6.162
 1952SOL     OW 6754   5.913   3.948   6.941
 1952SOL    HW1 6755   5.969   4.030   6.952
 1952SOL    HW2 6756   5.972   3.868   6.936
 1953SOL     OW 6757   0.089   0.865   6.966
 1953SOL    HW1 6758   0.083   0.766   6.973
 1953SOL    HW2 6759   0.142   0.891   6.885
 1954SOL     OW 6760   3.573   6.881   2.444
 1954SOL    HW1 6761   3.581   6.782   2.430
 1954SOL    HW2 6762   3.662   6.919   2.470
 1955SOL     OW 6763   6.396   3.306   4.316
 1955SOL    HW1 6764   6.404   3.209   4.341
 1955SOL    HW2 6765   6.487   3.344   4.302
 1956SOL     OW 6766   4.413   1.327   1.366
 1956SOL    HW1 6767   4.397   1.237   1.325
 1956SOL    HW2 6768   4.326   1.365   1.396
 1957SOL     OW 6769   6.594   3.008   4.831
 1957SOL    HW1 6770   6.518   3.051   4.783
 1957SOL    HW2 6771   6.606   3.052   4.920
 1958SOL     OW 6772   4.810   2.410   6.891
 1958SOL    HW1 6773   4.776   2.501   6.914
 1958SOL    HW2 6774   4.780   2.345   6.960
 1959SOL     OW 6775   1.493   1.548   6.255
 1959SOL    HW1 6776   1.502   1.600   6.171
 1959SOL    HW2 6777   1.562   1.475   6.257
 1960SOL     OW 6778   4.781   4.487   2.397
 1960SOL    HW1 6779   4.712   4.515   2.464
 1960SOL    HW2 6780   4.739   4.476   2.307
 1961SOL     OW 6781   0.307   3.895   4.446
 1961SOL    HW1 6782   0.260   3.975   4.483
 1961SOL    HW2 6783   0.346   3.842   4.521
 1962SOL     OW 6784   0.435   0.048   2.355
 1962SOL    HW1 6785   0.518   0.004   2.319
 1962SOL    HW2 6786   0.365   0.049   2.283
 1963SOL     OW 6787   1.062   1.961   0.138
 1963SOL    HW1 6788   1.116   1.884   0.172
 1963SOL    HW2 6789   1.111   2.005   0.062
 1964SOL     OW 6790   5.523   3.218   0.300
 1964SOL    HW1 6791   5.492   3.166   0.380
 1964SOL    HW2 6792   5.467   3.194   0.221
 1965SOL     OW 6793   5.688   4.690   4.688
 1965SOL    HW1 6794   5.611   4.627   4.677
 1965SOL    HW2 6795   5.749   4.657   4.760
 1966SOL     OW 6796   1.245   5.420   6.443
 1966SOL    HW1 6797   1.288   5.479   6.375
 1966SOL    HW2 6798   1.150   5.403   6.416
 1967SOL     OW 6799   6.678   2.251   4.757
 1967SOL    HW1 6800   6.754   2.311   4.779
 1967SOL    HW2 6801   6.599   2.273   4.814
 1968SOL     OW 6802   2.538   1.234   5.992
 1968SOL    HW1 6803   2.439   1.224   5.996
 1968SOL    HW2 6804   2.579   1.150   5.956
 1969SOL     OW 6805   0.195   6.051   1.746
 1969SOL    HW1 6806   0.189   6.151   1.740
 1969SOL    HW2 6807   0.284   6.025   1.783
 1970SOL     OW 6808   5.403   4.295   2.850
 1970SOL    HW1 6809   5.479   4.231   2.860
 1970SOL    HW2 6810   5.429   4.384   2.887
 1971SOL     OW 6811   1.777   5.298   4.375
 1971SOL    HW1 6812   1.771   5.205   4.341
 1971SOL    HW2 6813   1.854   5.306   4.438
 1972SOL     OW 6814   5.147   1.929   3.111
 1972SOL    HW1 6815   5.076   1.946   3.043
 1972SOL    HW2 6816   5.131   1.988   3.191
 1973SOL     OW 6817   4.166   2.459   0.589
 1973SOL    HW1 6818   4.229   2.389   0.624
 1973SOL    HW2 6819   4.141   2.521   0.664
 1974SOL     OW 6820   2.441   6.509   4.654
 1974SOL    HW1 6821   2.393   6.576   4.710
 1974SOL    HW2 6822   2.384   6.427   4.645
 1975SOL     OW 6823   2.367   2.488   2.198
 1975SOL    HW1 6824   2.340   2.580   2.228
 1975SOL    HW2 6825   2.431   2.496   2.122
 1976SOL     OW 6826   1.606   1.098   5.022
 1976SOL    HW1 6827   1.588   1.032   5.095
 1976SOL    HW2 6828   1.700   1.087   4.990
 1977SOL     OW 6829   0.740   3.767   6.974
 1977SOL    HW1 6830   0.666   3.833   6.975
 1977SOL    HW2 6831   0.793   3.774   0.037
 1978SOL     OW 6832   2.696   0.258   2.432
 1978SOL    HW1 6833   2.760   0.247   2.508
 1978SOL    HW2 6834   2.732   0.326   2.368
 1979SOL     OW 6835   5.404   3.638   6.439
 1979SOL    HW1 6836   5.315   3.648   6.484
 1979SOL    HW2 6837   5.477   3.648   6.507
 1980SOL     OW 6838   4.044   0.523   1.491
 1980SOL    HW1 6839   4.010   0.453   1.428
 1980SOL    HW2 6840   3.979   0.599   1.494
 1981SOL     OW 6841   4.304   2.454   1.773
 1981SOL    HW1 6842   4.266   2.377   1.825
 1981SOL    HW2 6843   4.379   2.421   1.716
 1982SOL     OW 6844   2.098   2.980   6.744
 1982SOL    HW1 6845   2.141   2.908   6.799
 1982SOL    HW2 6846   2.016   2.943   6.700
 1983SOL     OW 6847   0.162   2.229   1.514
 1983SOL    HW1 6848   0.176   2.247   1.417
 1983SOL    HW2 6849   0.108   2.145   1.525
 1984SOL     OW 6850   4.718   3.392   5.508
 1984SOL    HW1 6851   4.665   3.346   5.580
 1984SOL    HW2 6852   4.762   3.473   5.546
 1985SOL     OW 6853   5.644   5.128   4.558
 1985SOL    HW1 6854   5.711   5.060   4.528
 1985SOL    HW2 6855   5.556   5.084   4.574
 1986SOL     OW 6856   3.006   3.289   2.825
 1986SOL    HW1 6857   2.985   3.379   2.788
 1986SOL    HW2 6858   2.982   3.219   2.758
 1987SOL     OW 6859   2.195   1.688   2.116
 1987SOL    HW1 6860   2.167   1.611   2.172
 1987SOL    HW2 6861   2.225   1.655   2.026
 1988SOL     OW 6862   0.950   2.101   3.064
 1988SOL    HW1 6863   0.853   2.116   3.081
 1988SOL    HW2 6864   0.962   2.065   2.971
 1989SOL     OW 6865   3.133   5.478   3.798
 1989SOL    HW1 6866   3.203   5.479   3.727
 1989SOL    HW2 6867   3.171   5.440   3.883
 1990SOL     OW 6868   4.293   6.896   0.676
 1990SOL    HW1 6869   4.327   6.886   0.770
 1990SOL    HW2 6870   4.370   6.900   0.613
 1991SOL     OW 6871   2.988   5.633   1.817
 1991SOL    HW1 6872   3.038   5.610   1.901
 1991SOL    HW2 6873   3.038   5.704   1.767
 1992SOL     OW 6874   1.204   7.000   3.474
 1992SOL    HW1 6875   1.273   0.051   3.471
 1992SOL    HW2 6876   1.155   7.004   3.561
 1993SOL     OW 6877   1.750   1.040   1.992
 1993SOL    HW1 6878   1.778   1.041   1.896
 1993SOL    HW2 6879   1.765   1.131   2.031
 1994SOL     OW 6880   2.699   3.243   1.734
 1994SOL    HW1 6881   2.621   3.192   1.697
 1994SOL    HW2 6882   2.669   3.334   1.761
 1995SOL     OW 6883   6.126   0.997   4.224
 1995SOL    HW1 6884   6.106   0.899   4.225
 1995SOL    HW2 6885   6.042   1.048   4.206
 1996SOL     OW 6886   4.836   6.955   1.327
 1996SOL    HW1 6887   4.803   6.971   1.234
 1996SOL    HW2 6888   4.895   6.874   1.328
 1997SOL     OW 6889   3.313   1.348   2.753
 1997SOL    HW1 6890   3.264   1.265   2.781
 1997SOL    HW2 6891   3.385   1.369   2.820
 1998SOL     OW 6892   2.556   3.258   1.359
 1998SOL    HW1 6893   2.514   3.168   1.367
 1998SOL    HW2 6894   2.503   3.324   1.412
 1999SOL     OW 6895   0.957   6.824   5.829
 1999SOL    HW1 6896   0.961   6.881   5.911
 1999SOL    HW2 6897   0.960   6.727   5.856
 2000SOL     OW 6898   4.401   4.271   6.397
 2000SOL    HW1 6899   4.356   4.224   6.321
 2000SOL    HW2 6900   4.375   4.228   6.483
 2001SOL     OW 6901   1.366   2.477   0.739
 2001SOL    HW1 6902   1.401   2.551   0.682
 2001SOL    HW2 6903   1.291   2.431   0.691
 2002SOL     OW 6904   6.340   5.060   0.080
 2002SOL    HW1 6905   6.275   4.985   0.075
 2002SOL    HW2 6906   6.430   5.028   0.048
 2003SOL     OW 6907   6.411   5.310   1.261
 2003SOL    HW1 6908   6.355   5.368   1.203
 2003SOL    HW2 6909   6.449   5.364   1.336
 2004SOL     OW 6910   3.774   0.691   2.825
 2004SOL    HW1 6911   3.707   0.765   2.818
 2004SOL    HW2 6912   3.761   0.626   2.750
 2005SOL     OW 6913   1.634   6.201   0.243
 2005SOL    HW1 6914   1.586   6.255   0.312
 2005SOL    HW2 6915   1.568   6.144   0.193
 2006SOL     OW 6916   6.022   7.012   1.789
 2006SOL    HW1 6917   5.933   6.975   1.766
 2006SOL    HW2 6918   6.075   6.944   1.839
 2007SOL     OW 6919   5.718   5.208   5.867
 2007SOL    HW1 6920   5.772   5.145   5.811
 2007SOL    HW2 6921   5.682   5.160   5.947
 2008SOL     OW 6922   1.911   3.086   2.761
 2008SOL    HW1 6923   1.840   3.142   2.803
 2008SOL    HW2 6924   2.001   3.123   2.786
 2009SOL     OW 6925   5.848   0.237   3.146
 2009SOL    HW1 6926   5.840   0.162   3.211
 2009SOL    HW2 6927   5.851   0.200   3.053
 2010SOL     OW 6928   0.083   1.531   1.374
 2010SOL    HW1 6929   0.081   1.566   1.280
 2010SOL    HW2 6930   0.177   1.533   1.408
 2011SOL     OW 6931   0.817   0.169   4.887
 2011SOL    HW1 6932   0.856   0.132   4.971
 2011SOL    HW2 6933   0.824   0.100   4.815
 2012SOL     OW 6934   0.007   2.378   0.508
 2012SOL    HW1 6935   0.106   2.388   0.499
 2012SOL    HW2 6936   7.007   2.326   0.591
 2013SOL     OW 6937   0.756   2.975   2.158
 2013SOL    HW1 6938   0.809   2.899   2.195
 2013SOL    HW2 6939   0.669   2.981   2.205
 2014SOL     OW 6940   3.798   1.846   3.621
 2014SOL    HW1 6941   3.731   1.914   3.652
 2014SOL    HW2 6942   3.809   1.776   3.692
 2015SOL     OW 6943   4.003   6.021   1.469
 2015SOL    HW1 6944   4.094   5.995   1.500
 2015SOL    HW2 6945   4.003   6.119   1.446
 2016SOL     OW 6946   1.576   0.711   4.849
 2016SOL    HW1 6947   1.480   0.712   4.821
 2016SOL    HW2 6948   1.582   0.709   4.949
 2017SOL     OW 6949   2.244   6.940   4.742
 2017SOL    HW1 6950   2.288   7.006   4.682
 2017SOL    HW2 6951   2.145   6.952   4.738
 2018SOL     OW 6952   0.450   0.752   4.623
 2018SOL    HW1 6953   0.401   0.666   4.634
 2018SOL    HW2 6954   0.519   0.743   4.551
 2019SOL     OW 6955   0.491   4.986   6.977
 2019SOL    HW1 6956   0.515   4.948   0.045
 2019SOL    HW2 6957   0.398   5.023   6.980
 2020SOL     OW 6958   1.526   6.650   1.539
 2020SOL    HW1 6959   1.576   6.736   1.533
 2020SOL    HW2 6960   1.590   6.574   1.544
 2021SOL     OW 6961   6.788   5.528   3.869
 2021SOL    HW1 6962   6.806   5.493   3.960
 2021SOL    HW2 6963   6.689   5.539   3.856
 2022SOL     OW 6964   2.278   2.910   4.121
 2022SOL    HW1 6965   2.225   2.965   4.056
 2022SOL    HW2 6966   2.250   2.932   4.214
 2023SOL     OW 6967   0.934   5.337   0.029
 2023SOL    HW1 6968   0.939   5.325   0.128
 2023SOL    HW2 6969   0.839   5.341   7.021
 2024SOL     OW 6970   6.486   6.114   3.582
 2024SOL    HW1 6971   6.428   6.111   3.501
 2024SOL    HW2 6972   6.580   6.138   3.556
 2025SOL     OW 6973   1.718   0.291   4.219
 2025SOL    HW1 6974   1.772   0.375   4.213
 2025SOL    HW2 6975   1.653   0.298   4.294
 2026SOL     OW 6976   1.654   6.930   5.497
 2026SOL    HW1 6977   1.675   7.008   5.555
 2026SOL    HW2 6978   1.735   6.870   5.491
 2027SOL     OW 6979   6.114   6.694   2.832
 2027SOL    HW1 6980   6.082   6.711   2.925
 2027SOL    HW2 6981   6.195   6.635   2.835
 2028SOL     OW 6982   2.295   6.139   4.718
 2028SOL    HW1 6983   2.215   6.199   4.711
 2028SOL    HW2 6984   2.368   6.174   4.661
 2029SOL     OW 6985   6.539   2.048   6.697
 2029SOL    HW1 6986   6.534   1.971   6.760
 2029SOL    HW2 6987   6.606   2.114   6.730
 2030SOL     OW 6988   1.639   6.187   2.771
 2030SOL    HW1 6989   1.659   6.285   2.764
 2030SOL    HW2 6990   1.580   6.171   2.850
 2031SOL     OW 6991   0.103   6.918   5.516
 2031SOL    HW1 6992   0.182   6.858   5.526
 2031SOL    HW2 6993   0.098   6.951   5.422
 2032SOL     OW 6994   2.847   2.801   6.596
 2032SOL    HW1 6995   2.846   2.702   6.607
 2032SOL    HW2 6996   2.921   2.840   6.651
 2033SOL     OW 6997   2.468   0.173   1.457
 2033SOL    HW1 6998   2.426   0.212   1.376
 2033SOL    HW2 6999   2.412   0.193   1.537
 2034SOL     OW 7000   0.580   3.962   4.981
 2034SOL    HW1 7001   0.500   3.929   4.932
 2034SOL    HW2 7002   0.592   4.060   4.964
 2035SOL     OW 7003   5.282   5.910   3.056
 2035SOL    HW1 7004   5.355   5.846   3.079
 2035SOL    HW2 7005   5.194   5.865   3.066
 2036SOL     OW 7006   0.181   3.406   6.032
 2036SOL    HW1 7007   0.215   3.473   5.967
 2036SOL    HW2 7008   0.126   3.451   6.102
 2037SOL     OW 7009   1.217   2.172   7.011
 2037SOL    HW1 7010   1.180   2.222   0.068
 2037SOL    HW2 7011   1.287   2.227   6.966
 2038SOL     OW 7012   1.538   0.985   5.617
 2038SOL    HW1 7013   1.515   0.911   5.680
 2038SOL    HW2 7014   1.613   1.039   5.656
 2039SOL     OW 7015   5.124   6.081   4.406
 2039SOL    HW1 7016   5.112   5.998   4.352
 2039SOL    HW2 7017   5.121   6.058   4.503
 2040SOL     OW 7018   2.775   1.418   1.027
 2040SOL    HW1 7019   2.768   1.327   0.985
 2040SOL    HW2 7020   2.836   1.476   0.973
 2041SOL     OW 7021   3.422   6.815   0.312
 2041SOL    HW1 7022   3.436   6.908   0.279
 2041SOL    HW2 7023   3.489   6.754   0.268
 2042SOL     OW 7024   0.299   0.363   5.188
 2042SOL    HW1 7025   0.348   0.451   5.191
 2042SOL    HW2 7026   0.302   0.320   5.277
 2043SOL     OW 7027   0.796   3.562   0.281
 2043SOL    HW1 7028   0.874   3.614   0.244
 2043SOL    HW2 7029   0.772   3.489   0.218
 2044SOL     OW 7030   3.681   0.934   2.116
 2044SOL    HW1 7031   3.706   0.899   2.206
 2044SOL    HW2 7032   3.703   1.032   2.112
 2045SOL     OW 7033   1.952   5.607   3.257
 2045SOL    HW1 7034   2.048   5.605   3.230
 2045SOL    HW2 7035   1.898   5.651   3.185
 2046SOL     OW 7036   0.938   2.526   5.934
 2046SOL    HW1 7037   0.972   2.620   5.941
 2046SOL    HW2 7038   0.930   2.487   6.026
 2047SOL     OW 7039   6.985   0.068   2.026
 2047SOL    HW1 7040   6.970   0.031   1.934
 2047SOL    HW2 7041   6.903   0.117   2.056
 2048SOL     OW 7042   1.636   0.892   3.622
 2048SOL    HW1 7043   1.650   0.911   3.525
 2048SOL    HW2 7044   1.630   0.793   3.636
 2049SOL     OW 7045   4.515   2.108   5.318
 2049SOL    HW1 7046   4.479   2.191   5.361
 2049SOL    HW2 7047   4.581   2.132   5.247
 2050SOL     OW 7048   0.441   1.044   2.649
 2050SOL    HW1 7049   0.383   0.966   2.671
 2050SOL    HW2 7050   0.534   1.027   2.683
 2051SOL     OW 7051   3.077   0.035   6.740
 2051SOL    HW1 7052   3.077   6.979   6.678
 2051SOL    HW2 7053   3.061   0.003   6.834
 2052SOL     OW 7054   6.849   4.362   0.821
 2052SOL    HW1 7055   6.901   4.283   0.854
 2052SOL    HW2 7056   6.816   4.415   0.899
 2053SOL     OW 7057   4.729   5.137   1.842
 2053SOL    HW1 7058   4.738   5.219   1.787
 2053SOL    HW2 7059   4.672   5.070   1.794
 2054SOL     OW 7060   3.228   4.091   3.487
 2054SOL    HW1 7061   3.291   4.108   3.563
 2054SOL    HW2 7062   3.135   4.079   3.522
 2055SOL     OW 7063   3.482   2.845   5.774
 2055SOL    HW1 7064   3.457   2.833   5.870
 2055SOL    HW2 7065   3.403   2.880   5.723
 2056SOL     OW 7066   2.603   5.382   2.260
 2056SOL    HW1 7067   2.583   5.314   2.189
 2056SOL    HW2 7068   2.624   5.469   2.217
 2057SOL     OW 7069   6.247   3.087   3.960
 2057SOL    HW1 7070   6.341   3.056   3.968
 2057SOL    HW2 7071   6.185   3.009   3.968
 2058SOL     OW 7072   5.331   6.995   3.962
 2058SOL    HW1 7073   5.303   6.970   3.869
 2058SOL    HW2 7074   5.278   0.054   3.992
 2059SOL     OW 7075   2.387   1.215   5.769
 2059SOL    HW1 7076   2.394   1.305   5.726
 2059SOL    HW2 7077   2.299   1.209   5.817
 2060SOL     OW 7078   1.114   2.499   6.664
 2060SOL    HW1 7079   1.175   2.422   6.642
 2060SOL    HW2 7080   1.069   2.482   6.752
 2061SOL     OW 7081   2.008   2.709   4.110
 2061SOL    HW1 7082   1.983   2.616   4.081
 2061SOL    HW2 7083   2.108   2.720   4.105
 2062SOL     OW 7084   5.147   5.411   3.857
 2062SOL    HW1 7085   5.112   5.318   3.869
 2062SOL    HW2 7086   5.070   5.475   3.850
 2063SOL     OW 7087   1.074   1.933   4.369
 2063SOL    HW1 7088   0.976   1.953   4.373
 2063SOL    HW2 7089   1.116   1.954   4.458
 2064SOL     OW 7090   0.485   3.835   4.678
 2064SOL    HW1 7091   0.580   3.849   4.648
 2064SOL    HW2 7092   0.475   3.742   4.713
 2065SOL     OW 7093   3.663   3.691   5.998
 2065SOL    HW1 7094   3.704   3.677   5.908
 2065SOL    HW2 7095   3.571   3.650   6.000
 2066SOL     OW 7096   2.159   2.482   4.375
 2066SOL    HW1 7097   2.246   2.528   4.356
 2066SOL    HW2 7098   2.131   2.503   4.468
 2067SOL     OW 7099   6.364   4.857   2.178
 2067SOL    HW1 7100   6.379   4.936   2.118
 2067SOL    HW2 7101   6.390   4.774   2.130
 2068SOL     OW 7102   3.124   6.828   4.214
 2068SOL    HW1 7103   3.098   6.923   4.231
 2068SOL    HW2 7104   3.222   6.817   4.230
 2069SOL     OW 7105   6.027   1.738   3.179
 2069SOL    HW1 7106   6.065   1.805   3.115
 2069SOL    HW2 7107   6.011   1.652   3.131
 2070SOL     OW 7108   0.181   5.010   1.905
 2070SOL    HW1 7109   0.129   5.095   1.912
 2070SOL    HW2 7110   0.218   5.000   1.813
 2071SOL     OW 7111   6.619   2.272   4.099
 2071SOL    HW1 7112   6.647   2.192   4.154
 2071SOL    HW2 7113   6.543   2.246   4.040
 2072SOL     OW 7114   5.118   3.133   5.273
 2072SOL    HW1 7115   5.183   3.193   5.226
 2072SOL    HW2 7116   5.168   3.071   5.333
 2073SOL     OW 7117   3.533   5.178   6.770
 2073SOL    HW1 7118   3.454   5.218   6.724
 2073SOL    HW2 7119   3.524   5.191   6.869
 2074SOL     OW 7120   3.787   4.640   5.390
 2074SOL    HW1 7121   3.796   4.543   5.365
 2074SOL    HW2 7122   3.861   4.665   5.452
 2075SOL     OW 7123   5.129   1.122   0.942
 2075SOL    HW1 7124   5.055   1.117   1.009
 2075SOL    HW2 7125   5.119   1.048   0.875
 2076SOL     OW 7126   0.046   6.968   3.942
 2076SOL    HW1 7127   0.136   6.926   3.952
 2076SOL    HW2 7128   0.050   0.042   3.975
 2077SOL     OW 7129   0.832   4.203   0.956
 2077SOL    HW1 7130   0.801   4.296   0.940
 2077SOL    HW2 7131   0.929   4.204   0.980
 2078SOL     OW 7132   0.842   2.569   0.197
 2078SOL    HW1 7133   0.781   2.493   0.174
 2078SOL    HW2 7134   0.811   2.612   0.282
 2079SOL     OW 7135   5.608   2.015   3.577
 2079SOL    HW1 7136   5.679   1.944   3.585
 2079SOL    HW2 7137   5.529   1.988   3.631
 2080SOL     OW 7138   2.100   2.774   5.726
 2080SOL    HW1 7139   2.030   2.797   5.658
 2080SOL    HW2 7140   2.190   2.780   5.684
 2081SOL     OW 7141   0.510   5.950   2.905
 2081SOL    HW1 7142   0.490   5.853   2.906
 2081SOL    HW2 7143   0.520   5.982   2.810
 2082SOL     OW 7144   6.511   6.644   3.461
 2082SOL    HW1 7145   6.491   6.708   3.536
 2082SOL    HW2 7146   6.588   6.586   3.488
 2083SOL     OW 7147   0.837   5.491   3.123
 2083SOL    HW1 7148   0.878   5.438   3.049
 2083SOL    HW2 7149   0.891   5.477   3.207
 2084SOL     OW 7150   6.054   2.278   1.436
 2084SOL    HW1 7151   5.962   2.238   1.442
 2084SOL    HW2 7152   6.118   2.220   1.487
 2085SOL     OW 7153   6.296   5.732   0.360
 2085SOL    HW1 7154   6.200   5.712   0.341
 2085SOL    HW2 7155   6.352   5.653   0.337
 2086SOL     OW 7156   6.012   0.230   5.537
 2086SOL    HW1 7157   6.089   0.207   5.595
 2086SOL    HW2 7158   5.928   0.193   5.576
 2087SOL     OW 7159   5.367   1.100   6.493
 2087SOL    HW1 7160   5.317   1.178   6.454
 2087SOL    HW2 7161   5.422   1.057   6.421
 2088SOL     OW 7162   0.380   2.997   5.537
 2088SOL    HW1 7163   0.435   2.914   5.546
 2088SOL    HW2 7164   0.406   3.062   5.608
 2089SOL     OW 7165   3.056   5.170   4.599
 2089SOL    HW1 7166   3.111   5.130   4.526
 2089SOL    HW2 7167   2.980   5.221   4.559
 2090SOL     OW 7168   5.029   1.967   6.305
 2090SOL    HW1 7169   5.128   1.967   6.289
 2090SOL    HW2 7170   5.004   2.050   6.356
 2091SOL     OW 7171   5.416   6.471   0.611
 2091SOL    HW1 7172   5.474   6.484   0.691
 2091SOL    HW2 7173   5.374   6.558   0.586
 2092SOL     OW 7174   3.493   2.926   2.923
 2092SOL    HW1 7175   3.395   2.910   2.912
 2092SOL    HW2 7176   3.510   2.970   3.011
 2093SOL     OW 7177   4.827   6.855   0.395
 2093SOL    HW1 7178   4.802   6.912   0.473
 2093SOL    HW2 7179   4.827   6.910   0.311
 2094SOL     OW 7180   4.722   3.033   0.847
 2094SOL    HW1 7181   4.763   2.950   0.886
 2094SOL    HW2 7182   4.662   3.007   0.770
 2095SOL     OW 7183   4.515   5.605   3.277
 2095SOL    HW1 7184   4.491   5.699   3.250
 2095SOL    HW2 7185   4.603   5.580   3.237
 2096SOL     OW 7186   3.574   6.897   2.847
 2096SOL    HW1 7187   3.649   6.839   2.879
 2096SOL    HW2 7188   3.498   6.839   2.816
 2097SOL     OW 7189   2.309   5.859   5.166
 2097SOL    HW1 7190   2.378   5.897   5.228
 2097SOL    HW2 7191   2.225   5.843   5.217
 2098SOL     OW 7192   1.515   6.914   3.768
 2098SOL    HW1 7193   1.601   6.898   3.815
 2098SOL    HW2 7194   1.439   6.888   3.828
 2099SOL     OW 7195   4.287   1.523   6.777
 2099SOL    HW1 7196   4.272   1.486   6.869
 2099SOL    HW2 7197   4.353   1.598   6.782
 2100SOL     OW 7198   4.254   0.197   0.874
 2100SOL    HW1 7199   4.255   0.296   0.891
 2100SOL    HW2 7200   4.338   0.171   0.827
 2101SOL     OW 7201   1.515   0.509   2.507
 2101SOL    HW1 7202   1.599   0.545   2.469
 2101SOL    HW2 7203   1.441   0.576   2.496
 2102SOL     OW 7204   3.552   2.913   2.462
 2102SOL    HW1 7205   3.629   2.863   2.423
 2102SOL    HW2 7206   3.569   2.931   2.558
 2103SOL     OW 7207   1.665   6.880   1.523
 2103SOL    HW1 7208   1.750   6.848   1.480
 2103SOL    HW2 7209   1.642   6.970   1.488
 2104SOL     OW 7210   1.277   4.261   2.448
 2104SOL    HW1 7211   1.236   4.186   2.500
 2104SOL    HW2 7212   1.252   4.348   2.491
 2105SOL     OW 7213   5.309   6.502   5.401
 2105SOL    HW1 7214   5.320   6.430   5.333
 2105SOL    HW2 7215   5.301   6.461   5.492
 2106SOL     OW 7216   3.456   2.603   1.050
 2106SOL    HW1 7217   3.528   2.671   1.054
 2106SOL    HW2 7218   3.448   2.568   0.957
 2107SOL     OW 7219   6.171   4.470   4.869
 2107SOL    HW1 7220   6.239   4.536   4.839
 2107SOL    HW2 7221   6.197   4.378   4.838
 2108SOL     OW 7222   4.589   6.510   5.336
 2108SOL    HW1 7223   4.594   6.608   5.356
 2108SOL    HW2 7224   4.681   6.473   5.326
 2109SOL     OW 7225   2.640   5.935   2.259
 2109SOL    HW1 7226   2.619   5.981   2.173
 2109SOL    HW2 7227   2.566   5.951   2.324
 2110SOL     OW 7228   3.852   5.765   6.458
 2110SOL    HW1 7229   3.841   5.678   6.412
 2110SOL    HW2 7230   3.930   5.761   6.521
 2111SOL     OW 7231   0.439   2.579   0.371
 2111SOL    HW1 7232   0.488   2.608   0.289
 2111SOL    HW2 7233   0.395   2.491   0.355
 2112SOL     OW 7234   0.714   0.793   6.575
 2112SOL    HW1 7235   0.667   0.800   6.664
 2112SOL    HW2 7236   0.657   0.742   6.511
 2113SOL     OW 7237   6.736   1.806   4.356
 2113SOL    HW1 7238   6.645   1.804   4.397
 2113SOL    HW2 7239   6.803   1.771   4.422
 2114SOL     OW 7240   3.295   1.045   5.302
 2114SOL    HW1 7241   3.347   1.057   5.387
 2114SOL    HW2 7242   3.198   1.032   5.323
 2115SOL     OW 7243   6.555   7.019   3.774
 2115SOL    HW1 7244   6.507   0.035   3.854
 2115SOL    HW2 7245   6.587   0.074   3.717
 2116SOL     OW 7246   1.929   0.806   5.736
 2116SOL    HW1 7247   2.011   0.808   5.679
 2116SOL    HW2 7248   1.908   0.898   5.767
 2117SOL     OW 7249   5.811   3.333   1.307
 2117SOL    HW1 7250   5.842   3.243   1.275
 2117SOL    HW2 7251   5.715   3.328   1.332
 2118SOL     OW 7252   6.932   3.436   2.733
 2118SOL    HW1 7253   6.980   3.482   2.807
 2118SOL    HW2 7254   6.834   3.452   2.741
 2119SOL     OW 7255   2.431   2.201   6.924
 2119SOL    HW1 7256   2.492   2.274   6.955
 2119SOL    HW2 7257   2.434   2.195   6.824
 2120SOL     OW 7258   5.848   1.666   0.601
 2120SOL    HW1 7259   5.891   1.668   0.511
 2120SOL    HW2 7260   5.900   1.604   0.661
 2121SOL     OW 7261   3.209   5.534   1.378
 2121SOL    HW1 7262   3.181   5.629   1.386
 2121SOL    HW2 7263   3.129   5.475   1.380
 2122SOL     OW 7264   0.481   0.592   5.188
 2122SOL    HW1 7265   0.443   0.675   5.230
 2122SOL    HW2 7266   0.533   0.617   5.107
 2123SOL     OW 7267   1.022   4.793   3.583
 2123SOL    HW1 7268   0.982   4.714   3.536
 2123SOL    HW2 7269   0.959   4.870   3.579
 2124SOL     OW 7270   4.964   3.100   6.188
 2124SOL    HW1 7271   5.033   3.028   6.193
 2124SOL    HW2 7272   4.899   3.077   6.115
 2125SOL     OW 7273   2.431   5.624   6.059
 2125SOL    HW1 7274   2.380   5.582   5.984
 2125SOL    HW2 7275   2.487   5.699   6.023
 2126SOL     OW 7276   2.833   5.182   1.944
 2126SOL    HW1 7277   2.780   5.262   1.915
 2126SOL    HW2 7278   2.827   5.110   1.875
 2127SOL     OW 7279   1.377   3.847   4.046
 2127SOL    HW1 7280   1.474   3.843   4.071
 2127SOL    HW2 7281   1.355   3.769   3.988
 2128SOL     OW 7282   5.313   2.799   0.844
 2128SOL    HW1 7283   5.368   2.808   0.927
 2128SOL    HW2 7284   5.317   2.885   0.792
 2129SOL     OW 7285   6.046   4.270   3.881
 2129SOL    HW1 7286   6.113   4.323   3.829
 2129SOL    HW2 7287   6.075   4.175   3.886
 2130SOL     OW 7288   1.766   0.255   2.557
 2130SOL    HW1 7289   1.735   0.209   2.474
 2130SOL    HW2 7290   1.826   0.331   2.534
 2131SOL     OW 7291   5.873   0.322   6.782
 2131SOL    HW1 7292   5.927   0.403   6.756
 2131SOL    HW2 7293   5.934   0.252   6.819
 2132SOL     OW 7294   3.337   1.944   6.924
 2132SOL    HW1 7295   3.313   1.876   6.855
 2132SOL    HW2 7296   3.403   2.009   6.886
 2133SOL     OW 7297   4.138   2.854   1.657
 2133SOL    HW1 7298   4.092   2.777   1.700
 2133SOL    HW2 7299   4.231   2.863   1.694
 2134SOL     OW 7300   2.479   0.333   5.169
 2134SOL    HW1 7301   2.433   0.257   5.215
 2134SOL    HW2 7302   2.415   0.409   5.159
 2135SOL     OW 7303   0.260   5.967   4.303
 2135SOL    HW1 7304   0.231   6.057   4.335
 2135SOL    HW2 7305   0.341   5.976   4.245
 2136SOL     OW 7306   0.440   5.257   3.495
 2136SOL    HW1 7307   0.435   5.162   3.464
 2136SOL    HW2 7308   0.350   5.285   3.530
 2137SOL     OW 7309   0.005   0.424   4.565
 2137SOL    HW1 7310   7.012   0.516   4.529
 2137SOL    HW2 7311   6.974   0.412   4.650
 2138SOL     OW 7312   1.036   2.086   6.839
 2138SOL    HW1 7313   1.088   2.001   6.842
 2138SOL    HW2 7314   1.081   2.155   6.896
 2139SOL     OW 7315   3.596   5.987   4.475
 2139SOL    HW1 7316   3.571   6.068   4.422
 2139SOL    HW2 7317   3.562   5.905   4.430
 2140SOL     OW 7318   1.499   5.641   3.454
 2140SOL    HW1 7319   1.481   5.580   3.377
 2140SOL    HW2 7320   1.598   5.646   3.470
 2141SOL     OW 7321   6.606   0.546   6.783
 2141SOL    HW1 7322   6.668   0.610   6.737
 2141SOL    HW2 7323   6.572   0.479   6.718
 2142SOL     OW 7324   3.935   0.903   3.259
 2142SOL    HW1 7325   3.867   0.863   3.198
 2142SOL    HW2 7326   4.004   0.952   3.205
 2143SOL     OW 7327   3.659   5.726   0.381
 2143SOL    HW1 7328   3.699   5.816   0.362
 2143SOL    HW2 7329   3.727   5.668   0.426
 2144SOL     OW 7330   0.512   1.419   1.981
 2144SOL    HW1 7331   0.570   1.410   2.062
 2144SOL    HW2 7332   0.528   1.507   1.937
 2145SOL     OW 7333   2.486   5.875   3.807
 2145SOL    HW1 7334   2.398   5.891   3.851
 2145SOL    HW2 7335   2.487   5.918   3.716
 2146SOL     OW 7336   3.337   2.324   1.182
 2146SOL    HW1 7337   3.404   2.312   1.255
 2146SOL    HW2 7338   3.254   2.364   1.220
 2147SOL     OW 7339   6.972   0.110   4.443
 2147SOL    HW1 7340   6.983   0.106   4.542
 2147SOL    HW2 7341   6.925   0.195   4.418
 2148SOL     OW 7342   6.889   4.116   3.989
 2148SOL    HW1 7343   6.961   4.169   4.034
 2148SOL    HW2 7344   6.804   4.170   3.987
 2149SOL     OW 7345   2.500   1.147   2.468
 2149SOL    HW1 7346   2.515   1.063   2.521
 2149SOL    HW2 7347   2.504   1.226   2.529
 2150SOL     OW 7348   5.171   0.531   2.993
 2150SOL    HW1 7349   5.227   0.508   3.073
 2150SOL    HW2 7350   5.084   0.570   3.023
 2151SOL     OW 7351   4.323   4.261   5.625
 2151SOL    HW1 7352   4.369   4.298   5.544
 2151SOL    HW2 7353   4.226   4.246   5.604
 2152SOL     OW 7354   0.159   6.149   2.952
 2152SOL    HW1 7355   0.103   6.227   2.924
 2152SOL    HW2 7356   0.252   6.161   2.917
 2153SOL     OW 7357   4.466   1.443   3.963
 2153SOL    HW1 7358   4.450   1.426   3.866
 2153SOL    HW2 7359   4.561   1.474   3.976
 2154SOL     OW 7360   4.091   0.099   4.451
 2154SOL    HW1 7361   4.102   0.144   4.539
 2154SOL    HW2 7362   4.038   0.157   4.390
 2155SOL     OW 7363   5.819   3.731   0.803
 2155SOL    HW1 7364   5.830   3.680   0.718
 2155SOL    HW2 7365   5.793   3.669   0.876
 2156SOL     OW 7366   6.025   5.962   2.463
 2156SOL    HW1 7367   6.039   6.030   2.391
 2156SOL    HW2 7368   5.957   5.995   2.528
 2157SOL     OW 7369   5.440   1.492   3.768
 2157SOL    HW1 7370   5.375   1.491   3.692
 2157SOL    HW2 7371   5.498   1.574   3.762
 2158SOL     OW 7372   4.158   0.576   3.441
 2158SOL    HW1 7373   4.155   0.590   3.342
 2158SOL    HW2 7374   4.070   0.601   3.481
 2159SOL     OW 7375   2.668   1.387   5.094
 2159SOL    HW1 7376   2.603   1.459   5.119
 2159SOL    HW2 7377   2.723   1.417   5.017
 2160SOL     OW 7378   2.468   3.897   0.641
 2160SOL    HW1 7379   2.459   3.799   0.653
 2160SOL    HW2 7380   2.558   3.927   0.671
 2161SOL     OW 7381   4.620   2.546   2.963
 2161SOL    HW1 7382   4.541   2.488   2.945
 2161SOL    HW2 7383   4.621   2.574   3.059
 2162SOL     OW 7384   2.632   1.481   2.090
 2162SOL    HW1 7385   2.558   1.429   2.047
 2162SOL    HW2 7386   2.643   1.568   2.042
 2163SOL     OW 7387   3.998   2.141   1.171
 2163SOL    HW1 7388   4.062   2.190   1.111
 2163SOL    HW2 7389   3.943   2.078   1.117
 2164SOL     OW 7390   6.276   0.757   1.429
 2164SOL    HW1 7391   6.258   0.836   1.371
 2164SOL    HW2 7392   6.365   0.717   1.404
 2165SOL     OW 7393   2.256   0.896   2.069
 2165SOL    HW1 7394   2.333   0.835   2.088
 2165SOL    HW2 7395   2.171   0.849   2.093
 2166SOL     OW 7396   5.447   2.857   4.836
 2166SOL    HW1 7397   5.469   2.761   4.848
 2166SOL    HW2 7398   5.381   2.867   4.761
 2167SOL     OW 7399   3.346   1.747   1.231
 2167SOL    HW1 7400   3.394   1.827   1.265
 2167SOL    HW2 7401   3.347   1.675   1.301
 2168SOL     OW 7402   5.508   6.798   4.602
 2168SOL    HW1 7403   5.501   6.876   4.539
 2168SOL    HW2 7404   5.492   6.713   4.552
 2169SOL     OW 7405   5.217   1.681   5.919
 2169SOL    HW1 7406   5.156   1.752   5.954
 2169SOL    HW2 7407   5.254   1.628   5.995
 2170SOL     OW 7408   4.753   5.454   4.398
 2170SOL    HW1 7409   4.697   5.391   4.452
 2170SOL    HW2 7410   4.765   5.539   4.449
 2171SOL     OW 7411   0.489   3.647   0.311
 2171SOL    HW1 7412   0.586   3.626   0.322
 2171SOL    HW2 7413   0.440   3.564   0.284
 2172SOL     OW 7414   1.748   0.207   2.813
 2172SOL    HW1 7415   1.737   0.298   2.853
 2172SOL    HW2 7416   1.763   0.216   2.714
 2173SOL     OW 7417   4.488   2.124   4.707
 2173SOL    HW1 7418   4.588   2.131   4.699
 2173SOL    HW2 7419   4.462   2.028   4.715
 2174SOL     OW 7420   0.995   5.586   4.942
 2174SOL    HW1 7421   1.012   5.656   4.873
 2174SOL    HW2 7422   0.967   5.629   5.027
 2175SOL     OW 7423   0.954   0.050   6.919
 2175SOL    HW1 7424   0.969   0.101   6.835
 2175SOL    HW2 7425   1.017   0.083   6.989
 2176SOL     OW 7426   2.060   2.690   2.376
 2176SOL    HW1 7427   2.001   2.714   2.299
 2176SOL    HW2 7428   2.133   2.759   2.385
 2177SOL     OW 7429   0.782   1.607   1.509
 2177SOL    HW1 7430   0.791   1.690   1.564
 2177SOL    HW2 7431   0.770   1.528   1.569
 2178SOL     OW 7432   6.633   5.819   0.341
 2178SOL    HW1 7433   6.546   5.825   0.292
 2178SOL    HW2 7434   6.635   5.888   0.413
 2179SOL     OW 7435   2.109   3.622   4.219
 2179SOL    HW1 7436   2.120   3.539   4.275
 2179SOL    HW2 7437   2.156   3.609   4.131
 2180SOL     OW 7438   3.074   3.288   2.303
 2180SOL    HW1 7439   3.109   3.281   2.397
 2180SOL    HW2 7440   3.041   3.199   2.273
 2181SOL     OW 7441   3.633   6.861   0.978
 2181SOL    HW1 7442   3.549   6.914   0.995
 2181SOL    HW2 7443   3.644   6.847   0.880
 2182SOL     OW 7444   4.015   3.641   0.533
 2182SOL    HW1 7445   4.061   3.719   0.490
 2182SOL    HW2 7446   3.919   3.663   0.548
 2183SOL     OW 7447   4.602   3.090   1.171
 2183SOL    HW1 7448   4.564   3.137   1.091
 2183SOL    HW2 7449   4.528   3.046   1.222
 2184SOL     OW 7450   4.789   2.668   5.986
 2184SOL    HW1 7451   4.888   2.680   5.985
 2184SOL    HW2 7452   4.746   2.753   6.017
 2185SOL     OW 7453   6.395   6.476   2.160
 2185SOL    HW1 7454   6.374   6.519   2.248
 2185SOL    HW2 7455   6.310   6.461   2.110
 2186SOL     OW 7456   6.995   4.452   3.212
 2186SOL    HW1 7457   6.975   4.383   3.143
 2186SOL    HW2 7458   6.956   4.540   3.184
 2187SOL     OW 7459   6.446   0.622   0.105
 2187SOL    HW1 7460   6.366   0.581   0.060
 2187SOL    HW2 7461   6.528   0.604   0.050
 2188SOL     OW 7462   4.462   2.084   3.519
 2188SOL    HW1 7463   4.450   2.090   3.420
 2188SOL    HW2 7464   4.373   2.095   3.564
 2189SOL     OW 7465   3.813   6.223   6.787
 2189SOL    HW1 7466   3.814   6.153   6.715
 2189SOL    HW2 7467   3.771   6.184   6.869
 2190SOL     OW 7468   5.555   3.358   1.015
 2190SOL    HW1 7469   5.566   3.456   1.028
 2190SOL    HW2 7470   5.614   3.308   1.078
 2191SOL     OW 7471   3.504   0.940   6.712
 2191SOL    HW1 7472   3.423   0.976   6.666
 2191SOL    HW2 7473   3.492   0.843   6.731
 2192SOL     OW 7474   4.193   6.203   2.037
 2192SOL    HW1 7475   4.200   6.292   2.082
 2192SOL    HW2 7476   4.283   6.174   2.005
 2193SOL     OW 7477   0.045   6.145   4.801
 2193SOL    HW1 7478   0.020   6.227   4.853
 2193SOL    HW2 7479   0.111   6.092   4.854
 2194SOL     OW 7480   2.486   6.888   1.978
 2194SOL    HW1 7481   2.562   6.897   2.042
 2194SOL    HW2 7482   2.399   6.897   2.027
 2195SOL     OW 7483   0.304   5.116   2.380
 2195SOL    HW1 7484   0.382   5.100   2.441
 2195SOL    HW2 7485   0.245   5.187   2.419
 2196SOL     OW 7486   4.368   3.868   0.337
 2196SOL    HW1 7487   4.282   3.855   0.287
 2196SOL    HW2 7488   4.403   3.779   0.367
 2197SOL     OW 7489   4.945   3.239   6.827
 2197SOL    HW1 7490   4.936   3.236   6.728
 2197SOL    HW2 7491   4.931   3.333   6.859
 2198SOL     OW 7492   0.583   4.243   7.018
 2198SOL    HW1 7493   0.497   4.246   6.969
 2198SOL    HW2 7494   0.655   4.284   6.962
 2199SOL     OW 7495   4.162   1.461   3.010
 2199SOL    HW1 7496   4.248   1.499   3.046
 2199SOL    HW2 7497   4.096   1.534   2.999
 2200SOL     OW 7498   3.805   0.236   4.367
 2200SOL    HW1 7499   3.798   0.270   4.460
 2200SOL    HW2 7500   3.743   0.287   4.308
 2201SOL     OW 7501   5.103   4.570   4.257
 2201SOL    HW1 7502   5.107   4.574   4.357
 2201SOL    HW2 7503   5.194   4.554   4.220
 2202SOL     OW 7504   4.422   6.235   4.098
 2202SOL    HW1 7505   4.431   6.136   4.088
 2202SOL    HW2 7506   4.325   6.259   4.096
 2203SOL     OW 7507   2.220   1.301   2.561
 2203SOL    HW1 7508   2.142   1.349   2.602
 2203SOL    HW2 7509   2.255   1.354   2.485
 2204SOL     OW 7510   3.697   2.316   0.886
 2204SOL    HW1 7511   3.720   2.231   0.838
 2204SOL    HW2 7512   3.645   2.294   0.969
 2205SOL     OW 7513   3.217   0.688   2.110
 2205SOL    HW1 7514   3.290   0.706   2.176
 2205SOL    HW2 7515   3.231   0.747   2.029
 2206SOL     OW 7516   1.377   3.974   0.296
 2206SOL    HW1 7517   1.302   4.040   0.299
 2206SOL    HW2 7518   1.435   3.993   0.217
 2207SOL     OW 7519   6.651   4.882   5.231
 2207SOL    HW1 7520   6.565   4.851   5.271
 2207SOL    HW2 7521   6.719   4.808   5.237
 2208SOL     OW 7522   6.655   5.292   2.149
 2208SOL    HW1 7523   6.673   5.298   2.051
 2208SOL    HW2 7524   6.742   5.293   2.199
 2209SOL     OW 7525   6.394   6.577   1.796
 2209SOL    HW1 7526   6.430   6.561   1.887
 2209SOL    HW2 7527   6.418   6.669   1.765
 2210SOL     OW 7528   2.383   4.743   3.973
 2210SOL    HW1 7529   2.291   4.771   3.999
 2210SOL    HW2 7530   2.378   4.656   3.923
 2211SOL     OW 7531   6.333   0.871   6.117
 2211SOL    HW1 7532   6.381   0.908   6.038
 2211SOL    HW2 7533   6.235   0.871   6.101
 2212SOL     OW 7534   2.548   6.930   6.240
 2212SOL    HW1 7535   2.598   6.953   6.323
 2212SOL    HW2 7536   2.449   6.934   6.257
 2213SOL     OW 7537   4.635   0.875   3.472
 2213SOL    HW1 7538   4.654   0.838   3.563
 2213SOL    HW2 7539   4.714   0.925   3.439
 2214SOL     OW 7540   3.768   0.390   4.616
 2214SOL    HW1 7541   3.792   0.482   4.648
 2214SOL    HW2 7542   3.805   0.322   4.678
 2215SOL     OW 7543   5.765   2.045   5.760
 2215SOL    HW1 7544   5.843   2.045   5.698
 2215SOL    HW2 7545   5.767   2.127   5.817
 2216SOL     OW 7546   3.069   1.407   2.219
 2216SOL    HW1 7547   3.032   1.417   2.311
 2216SOL    HW2 7548   3.147   1.468   2.208
 2217SOL     OW 7549   2.921   6.678   1.262
 2217SOL    HW1 7550   3.014   6.640   1.254
 2217SOL    HW2 7551   2.859   6.627   1.203
 2218SOL     OW 7552   6.968   0.942   2.257
 2218SOL    HW1 7553   6.890   1.004   2.254
 2218SOL    HW2 7554   6.978   0.897   2.169
 2219SOL     OW 7555   2.561   1.932   2.855
 2219SOL    HW1 7556   2.523   1.868   2.789
 2219SOL    HW2 7557   2.655   1.956   2.827
 2220SOL     OW 7558   1.825   6.696   2.755
 2220SOL    HW1 7559   1.835   6.794   2.775
 2220SOL    HW2 7560   1.865   6.642   2.829
 2221SOL     OW 7561   0.389   6.385   5.081
 2221SOL    HW1 7562   0.411   6.304   5.135
 2221SOL    HW2 7563   0.419   6.467   5.129
 2222SOL     OW 7564   5.905   5.098   4.162
 2222SOL    HW1 7565   5.975   5.164   4.131
 2222SOL    HW2 7566   5.915   5.084   4.261
 2223SOL     OW 7567   6.812   6.472   2.294
 2223SOL    HW1 7568   6.813   6.567   2.263
 2223SOL    HW2 7569   6.889   6.423   2.253
 2224SOL     OW 7570   1.081   5.742   1.266
 2224SOL    HW1 7571   1.113   5.836   1.281
 2224SOL    HW2 7572   1.149   5.692   1.212
 2225SOL     OW 7573   0.652   4.270   0.275
 2225SOL    HW1 7574   0.615   4.250   0.184
 2225SOL    HW2 7575   0.591   4.232   0.345
 2226SOL     OW 7576   3.787   3.677   2.809
 2226SOL    HW1 7577   3.748   3.769   2.806
 2226SOL    HW2 7578   3.844   3.663   2.728
 2227SOL     OW 7579   1.318   1.801   5.138
 2227SOL    HW1 7580   1.224   1.780   5.111
 2227SOL    HW2 7581   1.377   1.723   5.116
 2228SOL     OW 7582   1.929   4.445   4.497
 2228SOL    HW1 7583   1.847   4.388   4.490
 2228SOL    HW2 7584   2.010   4.389   4.478
 2229SOL     OW 7585   5.817   5.711   2.880
 2229SOL    HW1 7586   5.735   5.733   2.828
 2229SOL    HW2 7587   5.802   5.629   2.935
 2230SOL     OW 7588   2.075   5.562   2.908
 2230SOL    HW1 7589   2.060   5.467   2.936
 2230SOL    HW2 7590   2.116   5.563   2.817
 2231SOL     OW 7591   1.864   5.755   1.254
 2231SOL    HW1 7592   1.790   5.709   1.302
 2231SOL    HW2 7593   1.901   5.829   1.311
 2232SOL     OW 7594   6.006   2.050   3.887
 2232SOL    HW1 7595   6.039   2.143   3.903
 2232SOL    HW2 7596   5.949   2.020   3.963
 2233SOL     OW 7597   3.891   1.188   0.507
 2233SOL    HW1 7598   3.882   1.183   0.607
 2233SOL    HW2 7599   3.988   1.184   0.483
 2234SOL     OW 7600   4.684   2.272   0.893
 2234SOL    HW1 7601   4.652   2.210   0.965
 2234SOL    HW2 7602   4.689   2.223   0.806
 2235SOL     OW 7603   2.017   2.222   2.307
 2235SOL    HW1 7604   1.931   2.264   2.337
 2235SOL    HW2 7605   2.018   2.126   2.336
 2236SOL     OW 7606   0.621   3.779   5.396
 2236SOL    HW1 7607   0.688   3.729   5.451
 2236SOL    HW2 7608   0.616   3.874   5.428
 2237SOL     OW 7609   6.329   3.022   3.475
 2237SOL    HW1 7610   6.263   3.001   3.547
 2237SOL    HW2 7611   6.311   2.965   3.395
 2238SOL     OW 7612   5.257   6.190   6.575
 2238SOL    HW1 7613   5.323   6.129   6.620
 2238SOL    HW2 7614   5.294   6.283   6.574
 2239SOL     OW 7615   0.451   5.576   1.430
 2239SOL    HW1 7616   0.520   5.510   1.459
 2239SOL    HW2 7617   0.422   5.632   1.508
 2240SOL     OW 7618   6.468   3.628   1.227
 2240SOL    HW1 7619   6.448   3.636   1.325
 2240SOL    HW2 7620   6.394   3.579   1.181
 2241SOL     OW 7621   0.585   0.122   3.810
 2241SOL    HW1 7622   0.508   0.096   3.869
 2241SOL    HW2 7623   0.640   0.042   3.791
 2242SOL     OW 7624   2.209   1.759   3.102
 2242SOL    HW1 7625   2.143   1.808   3.160
 2242SOL    HW2 7626   2.290   1.816   3.088
 2243SOL     OW 7627   1.565   0.011   4.551
 2243SOL    HW1 7628   1.629   6.962   4.519
 2243SOL    HW2 7629   1.503   6.992   4.618
 2244SOL     OW 7630   3.699   0.518   5.129
 2244SOL    HW1 7631   3.618   0.499   5.073
 2244SOL    HW2 7632   3.686   0.479   5.220
 2245SOL     OW 7633   0.942   2.793   2.306
 2245SOL    HW1 7634   1.040   2.780   2.323
 2245SOL    HW2 7635   0.904   2.710   2.266
 2246SOL     OW 7636   0.850   3.988   5.189
 2246SOL    HW1 7637   0.888   3.919   5.126
 2246SOL    HW2 7638   0.924   4.026   5.245
 2247SOL     OW 7639   1.867   2.281   4.217
 2247SOL    HW1 7640   1.879   2.199   4.274
 2247SOL    HW2 7641   1.932   2.279   4.142
 2248SOL     OW 7642   5.305   3.651   5.977
 2248SOL    HW1 7643   5.340   3.740   5.946
 2248SOL    HW2 7644   5.216   3.665   6.022
 2249SOL     OW 7645   5.621   5.704   4.869
 2249SOL    HW1 7646   5.586   5.797   4.876
 2249SOL    HW2 7647   5.585   5.649   4.945
 2250SOL     OW 7648   4.453   4.551   1.880
 2250SOL    HW1 7649   4.492   4.459   1.893
 2250SOL    HW2 7650   4.369   4.544   1.827
 2251SOL     OW 7651   0.582   1.122   5.271
 2251SOL    HW1 7652   0.636   1.067   5.335
 2251SOL    HW2 7653   0.617   1.215   5.268
 2252SOL     OW 7654   3.502   1.083   6.465
 2252SOL    HW1 7655   3.463   1.119   6.380
 2252SOL    HW2 7656   3.556   1.002   6.446
 2253SOL     OW 7657   0.594   3.934   0.540
 2253SOL    HW1 7658   0.562   3.876   0.615
 2253SOL    HW2 7659   0.631   4.019   0.578
 2254SOL     OW 7660   1.316   4.491   6.328
 2254SOL    HW1 7661   1.302   4.587   6.350
 2254SOL    HW2 7662   1.414   4.469   6.335
 2255SOL     OW 7663   6.600   3.495   6.697
 2255SOL    HW1 7664   6.561   3.477   6.607
 2255SOL    HW2 7665   6.529   3.491   6.766
 2256SOL     OW 7666   3.179   5.297   2.228
 2256SOL    HW1 7667   3.262   5.244   2.247
 2256SOL    HW2 7668   3.140   5.267   2.141
 2257SOL     OW 7669   1.368   4.531   5.309
 2257SOL    HW1 7670   1.274   4.555   5.330
 2257SOL    HW2 7671   1.385   4.435   5.332
 2258SOL     OW 7672   2.196   6.292   6.111
 2258SOL    HW1 7673   2.243   6.273   6.026
 2258SOL    HW2 7674   2.168   6.389   6.113
 2259SOL     OW 7675   5.922   1.445   6.128
 2259SOL    HW1 7676   5.846   1.489   6.176
 2259SOL    HW2 7677   5.999   1.432   6.191
 2260SOL     OW 7678   4.177   3.301   0.492
 2260SOL    HW1 7679   4.203   3.335   0.401
 2260SOL    HW2 7680   4.149   3.205   0.484
 2261SOL     OW 7681   2.718   6.770   5.166
 2261SOL    HW1 7682   2.786   6.782   5.094
 2261SOL    HW2 7683   2.743   6.692   5.224
 2262SOL     OW 7684   2.738   1.865   3.573
 2262SOL    HW1 7685   2.823   1.917   3.563
 2262SOL    HW2 7686   2.701   1.844   3.482
 2263SOL     OW 7687   0.962   4.445   5.670
 2263SOL    HW1 7688   0.964   4.413   5.575
 2263SOL    HW2 7689   0.885   4.508   5.682
 2264SOL     OW 7690   3.434   3.621   3.762
 2264SOL    HW1 7691   3.504   3.596   3.696
 2264SOL    HW2 7692   3.379   3.697   3.726
 2265SOL     OW 7693   0.972   5.879   4.284
 2265SOL    HW1 7694   0.983   5.965   4.333
 2265SOL    HW2 7695   0.881   5.842   4.300
 2266SOL     OW 7696   6.819   0.596   5.389
 2266SOL    HW1 7697   6.862   0.616   5.301
 2266SOL    HW2 7698   6.734   0.649   5.398
 2267SOL     OW 7699   6.176   1.885   5.413
 2267SOL    HW1 7700   6.133   1.801   5.445
 2267SOL    HW2 7701   6.175   1.888   5.313
 2268SOL     OW 7702   0.256   6.279   0.337
 2268SOL    HW1 7703   0.331   6.340   0.363
 2268SOL    HW2 7704   0.204   6.320   0.262
 2269SOL     OW 7705   6.511   6.374   2.713
 2269SOL    HW1 7706   6.460   6.380   2.627
 2269SOL    HW2 7707   6.533   6.466   2.746
 2270SOL     OW 7708   3.244   2.941   3.236
 2270SOL    HW1 7709   3.184   2.986   3.170
 2270SOL    HW2 7710   3.338   2.969   3.219
 2271SOL     OW 7711   1.997   4.331   2.962
 2271SOL    HW1 7712   1.979   4.356   3.057
 2271SOL    HW2 7713   1.986   4.232   2.950
 2272SOL     OW 7714   4.945   0.738   5.610
 2272SOL    HW1 7715   5.026   0.772   5.563
 2272SOL    HW2 7716   4.924   0.796   5.688
 2273SOL     OW 7717   0.540   1.355   2.257
 2273SOL    HW1 7718   0.478   1.304   2.199
 2273SOL    HW2 7719   0.571   1.297   2.332
 2274SOL     OW 7720   0.324   4.691   3.390
 2274SOL    HW1 7721   0.315   4.649   3.300
 2274SOL    HW2 7722   0.257   4.764   3.400
 2275SOL     OW 7723   4.339   6.685   3.279
 2275SOL    HW1 7724   4.416   6.748   3.289
 2275SOL    HW2 7725   4.361   6.597   3.320
 2276SOL     OW 7726   3.448   6.177   2.607
 2276SOL    HW1 7727   3.408   6.253   2.555
 2276SOL    HW2 7728   3.524   6.212   2.663
 2277SOL     OW 7729   3.296   3.009   2.433
 2277SOL    HW1 7730   3.303   3.100   2.391
 2277SOL    HW2 7731   3.387   2.968   2.438
 2278SOL     OW 7732   4.011   4.837   1.352
 2278SOL    HW1 7733   4.029   4.779   1.273
 2278SOL    HW2 7734   4.005   4.932   1.323
 2279SOL     OW 7735   5.729   3.614   5.128
 2279SOL    HW1 7736   5.825   3.625   5.154
 2279SOL    HW2 7737   5.687   3.543   5.185
 2280SOL     OW 7738   5.775   0.831   5.837
 2280SOL    HW1 7739   5.759   0.913   5.892
 2280SOL    HW2 7740   5.828   0.765   5.890
 2281SOL     OW 7741   2.502   0.556   0.842
 2281SOL    HW1 7742   2.497   0.469   0.792
 2281SOL    HW2 7743   2.507   0.631   0.776
 2282SOL     OW 7744   3.693   0.337   2.530
 2282SOL    HW1 7745   3.677   0.243   2.562
 2282SOL    HW2 7746   3.660   0.345   2.436
 2283SOL     OW 7747   0.496   3.196   1.495
 2283SOL    HW1 7748   0.416   3.154   1.451
 2283SOL    HW2 7749   0.477   3.292   1.514
 2284SOL     OW 7750   2.231   3.169   0.933
 2284SOL    HW1 7751   2.303   3.101   0.917
 2284SOL    HW2 7752   2.255   3.224   1.013
 2285SOL     OW 7753   2.185   2.725   6.859
 2285SOL    HW1 7754   2.202   2.628   6.877
 2285SOL    HW2 7755   2.272   2.773   6.849
 2286SOL     OW 7756   6.470   6.184   3.851
 2286SOL    HW1 7757   6.399   6.137   3.903
 2286SOL    HW2 7758   6.472   6.147   3.758
 2287SOL     OW 7759   2.857   1.856   0.559
 2287SOL    HW1 7760   2.819   1.792   0.627
 2287SOL    HW2 7761   2.782   1.906   0.516
 2288SOL     OW 7762   2.531   5.809   4.189
 2288SOL    HW1 7763   2.532   5.845   4.283
 2288SOL    HW2 7764   2.616   5.836   4.143
 2289SOL     OW 7765   3.682   6.878   6.325
 2289SOL    HW1 7766   3.778   6.864   6.347
 2289SOL    HW2 7767   3.672   6.959   6.268
 2290SOL     OW 7768   2.637   3.412   5.329
 2290SOL    HW1 7769   2.541   3.441   5.327
 2290SOL    HW2 7770   2.694   3.490   5.357
 2291SOL     OW 7771   3.372   1.875   0.390
 2291SOL    HW1 7772   3.428   1.812   0.445
 2291SOL    HW2 7773   3.278   1.842   0.389
 2292SOL     OW 7774   5.338   2.326   2.683
 2292SOL    HW1 7775   5.262   2.263   2.670
 2292SOL    HW2 7776   5.384   2.305   2.770
 2293SOL     OW 7777   0.516   0.740   0.306
 2293SOL    HW1 7778   0.596   0.764   0.361
 2293SOL    HW2 7779   0.466   0.666   0.351
 2294SOL     OW 7780   6.405   2.940   5.624
 2294SOL    HW1 7781   6.427   2.871   5.693
 2294SOL    HW2 7782   6.476   3.011   5.624
 2295SOL     OW 7783   5.694   5.412   0.472
 2295SOL    HW1 7784   5.662   5.448   0.559
 2295SOL    HW2 7785   5.616   5.385   0.416
 2296SOL     OW 7786   3.850   5.728   4.010
 2296SOL    HW1 7787   3.897   5.771   4.087
 2296SOL    HW2 7788   3.895   5.642   3.987
 2297SOL     OW 7789   6.449   2.926   6.868
 2297SOL    HW1 7790   6.474   2.858   6.936
 2297SOL    HW2 7791   6.359   2.904   6.830
 2298SOL     OW 7792   2.348   3.889   5.389
 2298SOL    HW1 7793   2.399   3.950   5.327
 2298SOL    HW2 7794   2.255   3.877   5.354
 2299SOL     OW 7795   6.015   3.864   4.745
 2299SOL    HW1 7796   5.976   3.948   4.783
 2299SOL    HW2 7797   5.947   3.791   4.749
 2300SOL     OW 7798   4.068   0.273   3.281
 2300SOL    HW1 7799   4.115   0.241   3.199
 2300SOL    HW2 7800   4.042   0.369   3.269
 2301SOL     OW 7801   4.218   3.073   5.595
 2301SOL    HW1 7802   4.308   3.115   5.604
 2301SOL    HW2 7803   4.150   3.128   5.644
 2302SOL     OW 7804   0.120   2.997   5.112
 2302SOL    HW1 7805   0.208   2.985   5.157
 2302SOL    HW2 7806   0.046   2.970   5.174
 2303SOL     OW 7807   2.883   1.725   6.278
 2303SOL    HW1 7808   2.898   1.682   6.367
 2303SOL    HW2 7809   2.917   1.665   6.205
 2304SOL     OW 7810   4.252   6.443   2.742
 2304SOL    HW1 7811   4.224   6.353   2.774
 2304SOL    HW2 7812   4.196   6.513   2.786
 2305SOL     OW 7813   2.796   6.014   4.781
 2305SOL    HW1 7814   2.870   6.066   4.740
 2305SOL    HW2 7815   2.829   5.925   4.812
 2306SOL     OW 7816   1.109   4.570   5.388
 2306SOL    HW1 7817   1.095   4.637   5.461
 2306SOL    HW2 7818   1.029   4.510   5.383
 2307SOL     OW 7819   5.899   3.926   5.091
 2307SOL    HW1 7820   5.877   4.009   5.040
 2307SOL    HW2 7821   5.856   3.848   5.045
 2308SOL     OW 7822   0.926   6.220   2.483
 2308SOL    HW1 7823   0.943   6.311   2.521
 2308SOL    HW2 7824   0.982   6.208   2.401
 2309SOL     OW 7825   1.808   1.049   4.707
 2309SOL    HW1 7826   1.800   1.148   4.717
 2309SOL    HW2 7827   1.834   1.009   4.795
 2310SOL     OW 7828   5.304   6.193   0.276
 2310SOL    HW1 7829   5.373   6.177   0.347
 2310SOL    HW2 7830   5.344   6.176   0.186
 2311SOL     OW 7831   2.740   5.917   0.717
 2311SOL    HW1 7832   2.643   5.899   0.726
 2311SOL    HW2 7833   2.774   5.963   0.799
 2312SOL     OW 7834   2.530   4.501   2.668
 2312SOL    HW1 7835   2.536   4.576   2.603
 2312SOL    HW2 7836   2.517   4.415   2.619
 2313SOL     OW 7837   4.672   5.041   1.093
 2313SOL    HW1 7838   4.729   4.962   1.116
 2313SOL    HW2 7839   4.587   5.038   1.145
 2314SOL     OW 7840   2.394   4.506   2.907
 2314SOL    HW1 7841   2.361   4.418   2.943
 2314SOL    HW2 7842   2.429   4.493   2.814
 2315SOL     OW 7843   3.969   1.859   6.633
 2315SOL    HW1 7844   3.949   1.941   6.579
 2315SOL    HW2 7845   3.984   1.885   6.729
 2316SOL     OW 7846   5.210   3.971   1.414
 2316SOL    HW1 7847   5.135   3.929   1.363
 2316SOL    HW2 7848   5.188   3.970   1.512
 2317SOL     OW 7849   0.372   6.492   3.443
 2317SOL    HW1 7850   0.316   6.567   3.478
 2317SOL    HW2 7851   0.324   6.406   3.456
 2318SOL     OW 7852   6.771   1.661   3.504
 2318SOL    HW1 7853   6.748   1.567   3.529
 2318SOL    HW2 7854   6.698   1.723   3.533
 2319SOL     OW 7855   1.144   5.345   2.725
 2319SOL    HW1 7856   1.228   5.378   2.768
 2319SOL    HW2 7857   1.080   5.315   2.796
 2320SOL     OW 7858   6.594   4.908   3.705
 2320SOL    HW1 7859   6.501   4.917   3.669
 2320SOL    HW2 7860   6.644   4.838   3.654
 2321SOL     OW 7861   3.236   4.865   3.774
 2321SOL    HW1 7862   3.234   4.890   3.871
 2321SOL    HW2 7863   3.142   4.852   3.742
 2322SOL     OW 7864   2.324   1.581   4.555
 2322SOL    HW1 7865   2.398   1.518   4.529
 2322SOL    HW2 7866   2.354   1.675   4.544
 2323SOL     OW 7867   5.223   3.447   1.657
 2323SOL    HW1 7868   5.131   3.471   1.688
 2323SOL    HW2 7869   5.237   3.348   1.666
 2324SOL     OW 7870   6.998   5.215   4.319
 2324SOL    HW1 7871   0.028   5.129   4.309
 2324SOL    HW2 7872   0.035   5.282   4.365
 2325SOL     OW 7873   6.086   2.008   0.679
 2325SOL    HW1 7874   6.010   1.976   0.736
 2325SOL    HW2 7875   6.080   1.965   0.589
 2326SOL     OW 7876   0.766   5.252   0.608
 2326SOL    HW1 7877   0.773   5.297   0.697
 2326SOL    HW2 7878   0.670   5.228   0.591
 2327SOL     OW 7879   4.554   1.564   3.416
 2327SOL    HW1 7880   4.542   1.663   3.429
 2327SOL    HW2 7881   4.648   1.546   3.387
 2328SOL     OW 7882   6.180   4.811   4.216
 2328SOL    HW1 7883   6.258   4.760   4.181
 2328SOL    HW2 7884   6.113   4.824   4.143
 2329SOL     OW 7885   1.257   6.322   3.354
 2329SOL    HW1 7886   1.288   6.318   3.259
 2329SOL    HW2 7887   1.335   6.308   3.415
 2330SOL     OW 7888   1.354   4.429   0.320
 2330SOL    HW1 7889   1.392   4.469   0.403
 2330SOL    HW2 7890   1.271   4.378   0.343
 2331SOL     OW 7891   1.900   5.048   4.686
 2331SOL    HW1 7892   1.888   5.139   4.646
 2331SOL    HW2 7893   1.996   5.036   4.713
 2332SOL     OW 7894   6.776   3.590   5.973
 2332SOL    HW1 7895   6.740   3.592   6.066
 2332SOL    HW2 7896   6.772   3.496   5.939
 2333SOL     OW 7897   2.556   4.685   4.182
 2333SOL    HW1 7898   2.532   4.591   4.204
 2333SOL    HW2 7899   2.504   4.716   4.102
 2334SOL     OW 7900   2.718   6.924   5.566
 2334SOL    HW1 7901   2.741   6.827   5.581
 2334SOL    HW2 7902   2.620   6.937   5.579
 2335SOL     OW 7903   4.711   4.764   4.412
 2335SOL    HW1 7904   4.740   4.685   4.465
 2335SOL    HW2 7905   4.667   4.830   4.473
 2336SOL     OW 7906   4.579   1.231   5.584
 2336SOL    HW1 7907   4.670   1.233   5.544
 2336SOL    HW2 7908   4.546   1.324   5.598
 2337SOL     OW 7909   5.337   0.768   5.055
 2337SOL    HW1 7910   5.300   0.697   5.114
 2337SOL    HW2 7911   5.414   0.813   5.100
 2338SOL     OW 7912   1.592   0.027   6.859
 2338SOL    HW1 7913   1.604   0.107   6.917
 2338SOL    HW2 7914   1.586   6.966   6.915
 2339SOL     OW 7915   3.772   4.657   6.545
 2339SOL    HW1 7916   3.725   4.743   6.526
 2339SOL    HW2 7917   3.848   4.646   6.480
 2340SOL     OW 7918   4.319   5.001   3.993
 2340SOL    HW1 7919   4.394   4.951   3.949
 2340SOL    HW2 7920   4.235   4.948   3.985
 2341SOL     OW 7921   0.342   4.454   6.332
 2341SOL    HW1 7922   0.306   4.375   6.381
 2341SOL    HW2 7923   0.299   4.460   6.242
 2342SOL     OW 7924   6.092   1.009   6.003
 2342SOL    HW1 7925   6.148   1.088   5.980
 2342SOL    HW2 7926   6.028   1.033   6.075
 2343SOL     OW 7927   1.527   5.641   1.558
 2343SOL    HW1 7928   1.621   5.631   1.590
 2343SOL    HW2 7929   1.527   5.676   1.465
 2344SOL     OW 7930   2.353   0.778   2.608
 2344SOL    HW1 7931   2.304   0.864   2.623
 2344SOL    HW2 7932   2.394   0.779   2.517
 2345SOL     OW 7933   1.039   2.308   2.210
 2345SOL    HW1 7934   1.065   2.251   2.287
 2345SOL    HW2 7935   1.114   2.370   2.187
 2346SOL     OW 7936   4.872   3.181   4.755
 2346SOL    HW1 7937   4.883   3.255   4.689
 2346SOL    HW2 7938   4.900   3.212   4.846
 2347SOL     OW 7939   1.269   4.101   0.815
 2347SOL    HW1 7940   1.365   4.126   0.826
 2347SOL    HW2 7941   1.250   4.018   0.866
 2348SOL     OW 7942   2.680   0.094   1.292
 2348SOL    HW1 7943   2.768   0.073   1.337
 2348SOL    HW2 7944   2.608   0.098   1.360
 2349SOL     OW 7945   5.453   3.114   6.727
 2349SOL    HW1 7946   5.532   3.127   6.788
 2349SOL    HW2 7947   5.369   3.125   6.779
 2350SOL     OW 7948   2.050   6.123   5.506
 2350SOL    HW1 7949   2.062   6.026   5.490
 2350SOL    HW2 7950   1.990   6.162   5.436
 2351SOL     OW 7951   1.862   5.116   3.379
 2351SOL    HW1 7952   1.797   5.111   3.454
 2351SOL    HW2 7953   1.852   5.204   3.332
 2352SOL     OW 7954   6.019   6.139   6.577
 2352SOL    HW1 7955   6.001   6.137   6.479
 2352SOL    HW2 7956   6.079   6.216   6.599
 2353SOL     OW 7957   3.356   2.538   5.816
 2353SOL    HW1 7958   3.266   2.515   5.778
 2353SOL    HW2 7959   3.399   2.608   5.760
 2354SOL     OW 7960   3.710   1.595   2.331
 2354SOL    HW1 7961   3.676   1.503   2.312
 2354SOL    HW2 7962   3.634   1.660   2.327
 2355SOL     OW 7963   0.184   1.505   2.277
 2355SOL    HW1 7964   0.173   1.406   2.286
 2355SOL    HW2 7965   0.146   1.535   2.189
 2356SOL     OW 7966   3.949   4.958   4.248
 2356SOL    HW1 7967   3.974   4.927   4.340
 2356SOL    HW2 7968   4.024   5.014   4.211
 2357SOL     OW 7969   1.195   5.195   1.600
 2357SOL    HW1 7970   1.236   5.253   1.529
 2357SOL    HW2 7971   1.171   5.252   1.679
 2358SOL     OW 7972   2.022   0.482   5.407
 2358SOL    HW1 7973   2.057   0.392   5.429
 2358SOL    HW2 7974   2.054   0.510   5.316
 2359SOL     OW 7975   2.802   2.516   6.037
 2359SOL    HW1 7976   2.744   2.500   5.957
 2359SOL    HW2 7977   2.891   2.551   6.008
 2360SOL     OW 7978   3.387   4.888   0.913
 2360SOL    HW1 7979   3.310   4.825   0.899
 2360SOL    HW2 7980   3.461   4.865   0.850
 2361SOL     OW 7981   3.742   4.755   1.279
 2361SOL    HW1 7982   3.717   4.676   1.334
 2361SOL    HW2 7983   3.833   4.786   1.304
 2362SOL     OW 7984   2.760   4.773   4.593
 2362SOL    HW1 7985   2.735   4.757   4.689
 2362SOL    HW2 7986   2.697   4.723   4.534
 2363SOL     OW 7987   2.326   4.099   1.094
 2363SOL    HW1 7988   2.337   4.059   1.185
 2363SOL    HW2 7989   2.300   4.028   1.029
 2364SOL     OW 7990   5.087   0.923   2.453
 2364SOL    HW1 7991   5.063   0.902   2.358
 2364SOL    HW2 7992   5.009   0.906   2.512
 2365SOL     OW 7993   5.703   4.521   3.185
 2365SOL    HW1 7994   5.668   4.451   3.248
 2365SOL    HW2 7995   5.790   4.557   3.220
 2366SOL     OW 7996   3.290   4.927   4.984
 2366SOL    HW1 7997   3.340   4.893   5.063
 2366SOL    HW2 7998   3.211   4.869   4.967
 2367SOL     OW 7999   6.054   4.798   5.480
 2367SOL    HW1 8000   5.981   4.735   5.509
 2367SOL    HW2 8001   6.128   4.797   5.547
 2368SOL     OW 8002   5.113   0.113   5.190
 2368SOL    HW1 8003   5.143   0.132   5.097
 2368SOL    HW2 8004   5.054   0.186   5.223
 2369SOL     OW 8005   4.042   1.654   4.235
 2369SOL    HW1 8006   4.029   1.581   4.303
 2369SOL    HW2 8007   4.108   1.623   4.166
 2370SOL     OW 8008   3.952   2.372   1.290
 2370SOL    HW1 8009   3.877   2.384   1.355
 2370SOL    HW2 8010   3.953   2.277   1.258
 2371SOL     OW 8011   2.390   6.579   2.569
 2371SOL    HW1 8012   2.297   6.556   2.599
 2371SOL    HW2 8013   2.455   6.552   2.641
 2372SOL     OW 8014   6.495   6.981   5.680
 2372SOL    HW1 8015   6.415   0.007   5.644
 2372SOL    HW2 8016   6.493   6.885   5.651
 2373SOL     OW 8017   6.232   3.985   5.976
 2373SOL    HW1 8018   6.220   3.992   6.075
 2373SOL    HW2 8019   6.233   3.889   5.949
 2374SOL     OW 8020   6.843   6.018   2.507
 2374SOL    HW1 8021   6.827   5.959   2.428
 2374SOL    HW2 8022   6.797   6.106   2.492
 2375SOL     OW 8023   1.916   0.266   4.584
 2375SOL    HW1 8024   1.948   0.241   4.493
 2375SOL    HW2 8025   1.819   0.292   4.579
 2376SOL     OW 8026   5.497   3.144   3.977
 2376SOL    HW1 8027   5.566   3.086   3.935
 2376SOL    HW2 8028   5.538   3.234   3.998
 2377SOL     OW 8029   3.488   4.235   5.628
 2377SOL    HW1 8030   3.468   4.328   5.661
 2377SOL    HW2 8031   3.406   4.196   5.587
 2378SOL     OW 8032   1.102   1.121   0.607
 2378SOL    HW1 8033   1.014   1.080   0.586
 2378SOL    HW2 8034   1.089   1.217   0.633
 2379SOL     OW 8035   0.924   4.867   2.531
 2379SOL    HW1 8036   0.942   4.832   2.440
 2379SOL    HW2 8037   0.986   4.825   2.597
 2380SOL     OW 8038   4.386   5.251   6.650
 2380SOL    HW1 8039   4.332   5.214   6.725
 2380SOL    HW2 8040   4.422   5.341   6.675
 2381SOL     OW 8041   2.081   3.837   3.708
 2381SOL    HW1 8042   2.056   3.799   3.797
 2381SOL    HW2 8043   2.097   3.762   3.643
 2382SOL     OW 8044   6.067   6.502   2.612
 2382SOL    HW1 8045   6.007   6.508   2.533
 2382SOL    HW2 8046   6.049   6.579   2.674
 2383SOL     OW 8047   5.125   4.581   6.151
 2383SOL    HW1 8048   5.051   4.628   6.199
 2383SOL    HW2 8049   5.171   4.518   6.213
 2384SOL     OW 8050   0.748   2.266   3.322
 2384SOL    HW1 8051   0.708   2.232   3.238
 2384SOL    HW2 8052   0.848   2.257   3.318
 2385SOL     OW 8053   0.472   1.163   0.825
 2385SOL    HW1 8054   0.407   1.191   0.896
 2385SOL    HW2 8055   0.422   1.127   0.747
 2386SOL     OW 8056   6.777   5.182   5.614
 2386SOL    HW1 8057   6.687   5.201   5.654
 2386SOL    HW2 8058   6.846   5.184   5.686
 2387SOL     OW 8059   0.082   0.593   3.401
 2387SOL    HW1 8060   0.178   0.606   3.377
 2387SOL    HW2 8061   0.050   0.505   3.364
 2388SOL     OW 8062   1.688   3.681   4.537
 2388SOL    HW1 8063   1.773   3.678   4.484
 2388SOL    HW2 8064   1.691   3.759   4.599
 2389SOL     OW 8065   3.374   0.033   2.968
 2389SOL    HW1 8066   3.450   7.006   2.925
 2389SOL    HW2 8067   3.343   7.003   3.048
 2390SOL     OW 8068   5.229   2.664   5.646
 2390SOL    HW1 8069   5.184   2.594   5.590
 2390SOL    HW2 8070   5.160   2.725   5.685
 2391SOL     OW 8071   2.718   3.880   6.243
 2391SOL    HW1 8072   2.749   3.874   6.148
 2391SOL    HW2 8073   2.756   3.963   6.285
 2392SOL     OW 8074   4.308   5.100   5.810
 2392SOL    HW1 8075   4.315   5.029   5.881
 2392SOL    HW2 8076   4.375   5.082   5.738
 2393SOL     OW 8077   4.436   4.119   0.324
 2393SOL    HW1 8078   4.533   4.137   0.306
 2393SOL    HW2 8079   4.423   4.021   0.339
 2394SOL     OW 8080   6.998   3.010   3.207
 2394SOL    HW1 8081   0.013   2.922   3.240
 2394SOL    HW2 8082   6.932   3.045   3.273
 2395SOL     OW 8083   1.372   2.472   3.769
 2395SOL    HW1 8084   1.282   2.475   3.812
 2395SOL    HW2 8085   1.365   2.498   3.673
 2396SOL     OW 8086   0.397   0.472   6.281
 2396SOL    HW1 8087   0.419   0.420   6.363
 2396SOL    HW2 8088   0.336   0.548   6.304
 2397SOL     OW 8089   2.337   4.851   6.062
 2397SOL    HW1 8090   2.418   4.887   6.109
 2397SOL    HW2 8091   2.366   4.800   5.981
 2398SOL     OW 8092   3.857   6.243   4.675
 2398SOL    HW1 8093   3.812   6.284   4.596
 2398SOL    HW2 8094   3.790   6.223   4.746
 2399SOL     OW 8095   3.246   1.601   2.315
 2399SOL    HW1 8096   3.258   1.560   2.406
 2399SOL    HW2 8097   3.328   1.585   2.260
 2400SOL     OW 8098   1.159   2.405   0.160
 2400SOL    HW1 8099   1.090   2.339   0.190
 2400SOL    HW2 8100   1.113   2.486   0.123
 2401SOL     OW 8101   1.266   6.365   0.860
 2401SOL    HW1 8102   1.225   6.442   0.812
 2401SOL    HW2 8103   1.348   6.396   0.908
 2402SOL     OW 8104   0.797   3.424   2.409
 2402SOL    HW1 8105   0.792   3.425   2.508
 2402SOL    HW2 8106   0.717   3.376   2.372
 2403SOL     OW 8107   3.071   4.459   5.357
 2403SOL    HW1 8108   3.011   4.492   5.284
 2403SOL    HW2 8109   3.098   4.365   5.338
 2404SOL     OW 8110   6.218   2.139   1.947
 2404SOL    HW1 8111   6.204   2.118   1.850
 2404SOL    HW2 8112   6.168   2.073   2.003
 2405SOL     OW 8113   1.983   2.841   0.317
 2405SOL    HW1 8114   2.047   2.835   0.393
 2405SOL    HW2 8115   1.900   2.888   0.346
 2406SOL     OW 8116   4.269   5.910   5.069
 2406SOL    HW1 8117   4.206   5.978   5.031
 2406SOL    HW2 8118   4.225   5.863   5.146
 2407SOL     OW 8119   2.148   1.789   3.622
 2407SOL    HW1 8120   2.086   1.842   3.563
 2407SOL    HW2 8121   2.100   1.708   3.655
 2408SOL     OW 8122   4.753   0.096   5.267
 2408SOL    HW1 8123   4.767   0.004   5.230
 2408SOL    HW2 8124   4.665   0.100   5.315
 2409SOL     OW 8125   1.215   3.040   6.492
 2409SOL    HW1 8126   1.287   2.997   6.437
 2409SOL    HW2 8127   1.197   2.986   6.573
 2410SOL     OW 8128   6.894   3.918   4.356
 2410SOL    HW1 8129   6.936   3.828   4.340
 2410SOL    HW2 8130   6.825   3.935   4.286
 2411SOL     OW 8131   3.406   1.352   0.350
 2411SOL    HW1 8132   3.475   1.281   0.359
 2411SOL    HW2 8133   3.316   1.310   0.337
 2412SOL     OW 8134   3.246   2.473   6.715
 2412SOL    HW1 8135   3.209   2.486   6.624
 2412SOL    HW2 8136   3.323   2.535   6.730
 2413SOL     OW 8137   6.737   3.899   6.415
 2413SOL    HW1 8138   6.817   3.857   6.459
 2413SOL    HW2 8139   6.757   3.995   6.395
 2414SOL     OW 8140   6.477   1.563   4.723
 2414SOL    HW1 8141   6.475   1.625   4.802
 2414SOL    HW2 8142   6.480   1.616   4.639
 2415SOL     OW 8143   2.738   4.118   5.598
 2415SOL    HW1 8144   2.688   4.094   5.681
 2415SOL    HW2 8145   2.743   4.218   5.590
 2416SOL     OW 8146   6.827   3.621   4.077
 2416SOL    HW1 8147   6.742   3.673   4.068
 2416SOL    HW2 8148   6.904   3.685   4.085
 2417SOL     OW 8149   3.571   2.549   1.735
 2417SOL    HW1 8150   3.567   2.629   1.794
 2417SOL    HW2 8151   3.588   2.467   1.790
 2418SOL     OW 8152   6.101   3.506   6.434
 2418SOL    HW1 8153   6.104   3.568   6.513
 2418SOL    HW2 8154   6.040   3.429   6.455
 2419SOL     OW 8155   3.637   1.191   2.849
 2419SOL    HW1 8156   3.607   1.242   2.768
 2419SOL    HW2 8157   3.735   1.207   2.862
 2420SOL     OW 8158   0.914   3.218   1.816
 2420SOL    HW1 8159   0.893   3.213   1.718
 2420SOL    HW2 8160   0.956   3.133   1.846
 2421SOL     OW 8161   2.506   0.273   2.828
 2421SOL    HW1 8162   2.463   0.322   2.904
 2421SOL    HW2 8163   2.602   0.299   2.821
 2422SOL     OW 8164   3.600   6.616   0.224
 2422SOL    HW1 8165   3.588   6.567   0.138
 2422SOL    HW2 8166   3.670   6.569   0.279
 2423SOL     OW 8167   3.847   4.939   4.704
 2423SOL    HW1 8168   3.910   4.908   4.776
 2423SOL    HW2 8169   3.753   4.937   4.740
 2424SOL     OW 8170   5.399   0.392   6.318
 2424SOL    HW1 8171   5.361   0.477   6.282
 2424SOL    HW2 8172   5.341   0.359   6.392
 2425SOL     OW 8173   4.189   5.539   5.291
 2425SOL    HW1 8174   4.205   5.496   5.380
 2425SOL    HW2 8175   4.192   5.471   5.219
 2426SOL     OW 8176   2.940   2.462   5.280
 2426SOL    HW1 8177   2.972   2.556   5.292
 2426SOL    HW2 8178   3.016   2.405   5.249
 2427SOL     OW 8179   4.480   2.074   6.927
 2427SOL    HW1 8180   4.438   1.998   6.878
 2427SOL    HW2 8181   4.410   2.132   6.967
 2428SOL     OW 8182   1.811   2.004   2.330
 2428SOL    HW1 8183   1.859   1.988   2.416
 2428SOL    HW2 8184   1.731   2.061   2.347
 2429SOL     OW 8185   5.079   6.007   1.376
 2429SOL    HW1 8186   5.137   6.088   1.381
 2429SOL    HW2 8187   4.985   6.034   1.354
 2430SOL     OW 8188   0.019   0.177   0.087
 2430SOL    HW1 8189   6.967   0.205   0.024
 2430SOL    HW2 8190   0.004   0.220   0.176
 2431SOL     OW 8191   1.767   2.744   1.517
 2431SOL    HW1 8192   1.783   2.671   1.451
 2431SOL    HW2 8193   1.799   2.715   1.607
 2432SOL     OW 8194   2.994   5.999   2.119
 2432SOL    HW1 8195   2.934   6.006   2.199
 2432SOL    HW2 8196   3.044   5.913   2.122
 2433SOL     OW 8197   0.337   4.676   4.328
 2433SOL    HW1 8198   0.366   4.725   4.410
 2433SOL    HW2 8199   0.360   4.579   4.337
 2434SOL     OW 8200   4.033   1.803   2.636
 2434SOL    HW1 8201   4.057   1.871   2.566
 2434SOL    HW2 8202   3.934   1.788   2.635
 2435SOL     OW 8203   5.541   7.016   6.772
 2435SOL    HW1 8204   5.560   0.028   6.864
 2435SOL    HW2 8205   5.618   0.014   6.712
 2436SOL     OW 8206   6.797   2.508   0.954
 2436SOL    HW1 8207   6.769   2.416   0.926
 2436SOL    HW2 8208   6.868   2.542   0.892
 2437SOL     OW 8209   1.085   4.534   1.477
 2437SOL    HW1 8210   1.001   4.486   1.502
 2437SOL    HW2 8211   1.144   4.473   1.425
 2438SOL     OW 8212   3.797   1.866   4.003
 2438SOL    HW1 8213   3.834   1.786   3.957
 2438SOL    HW2 8214   3.724   1.838   4.066
 2439SOL     OW 8215   0.291   5.572   0.255
 2439SOL    HW1 8216   0.227   5.502   0.222
 2439SOL    HW2 8217   0.368   5.579   0.191
 2440SOL     OW 8218   6.205   2.550   5.422
 2440SOL    HW1 8219   6.133   2.600   5.470
 2440SOL    HW2 8220   6.193   2.560   5.324
 2441SOL     OW 8221   6.471   0.420   0.312
 2441SOL    HW1 8222   6.570   0.418   0.330
 2441SOL    HW2 8223   6.445   0.512   0.281
 2442SOL     OW 8224   5.482   2.952   2.681
 2442SOL    HW1 8225   5.435   3.027   2.727
 2442SOL    HW2 8226   5.569   2.985   2.644
 2443SOL     OW 8227   0.105   2.951   1.119
 2443SOL    HW1 8228   0.026   2.911   1.164
 2443SOL    HW2 8229   0.179   2.884   1.113
 2444SOL     OW 8230   3.768   4.885   2.780
 2444SOL    HW1 8231   3.678   4.875   2.737
 2444SOL    HW2 8232   3.836   4.838   2.724
 2445SOL     OW 8233   0.680   2.183   1.195
 2445SOL    HW1 8234   0.630   2.131   1.264
 2445SOL    HW2 8235   0.717   2.266   1.236
 2446SOL     OW 8236   6.679   5.507   1.141
 2446SOL    HW1 8237   6.619   5.544   1.069
 2446SOL    HW2 8238   6.711   5.416   1.114
 2447SOL     OW 8239   1.704   6.545   0.387
 2447SOL    HW1 8240   1.664   6.631   0.417
 2447SOL    HW2 8241   1.747   6.556   0.297
 2448SOL     OW 8242   5.725   1.102   3.931
 2448SOL    HW1 8243   5.791   1.135   3.863
 2448SOL    HW2 8244   5.666   1.033   3.889
 2449SOL     OW 8245   2.203   4.071   1.396
 2449SOL    HW1 8246   2.292   4.029   1.375
 2449SOL    HW2 8247   2.146   4.070   1.314
 2450SOL     OW 8248   0.103   6.569   5.289
 2450SOL    HW1 8249   0.163   6.649   5.283
 2450SOL    HW2 8250   0.079   6.537   5.198
 2451SOL     OW 8251   1.499   6.912   0.083
 2451SOL    HW1 8252   1.455   6.828   0.115
 2451SOL    HW2 8253   1.464   6.990   0.135
 2452SOL     OW 8254   2.386   2.088   3.640
 2452SOL    HW1 8255   2.362   2.083   3.543
 2452SOL    HW2 8256   2.343   2.012   3.689
 2453SOL     OW 8257   1.601   1.976   6.466
 2453SOL    HW1 8258   1.607   2.076   6.466
 2453SOL    HW2 8259   1.621   1.941   6.375
 2454SOL     OW 8260   3.210   6.810   0.095
 2454SOL    HW1 8261   3.220   6.906   0.072
 2454SOL    HW2 8262   3.271   6.787   0.171
 2455SOL     OW 8263   4.655   2.246   0.040
 2455SOL    HW1 8264   4.631   2.190   0.118
 2455SOL    HW2 8265   4.654   2.190   6.978
 2456SOL     OW 8266   0.391   3.013   6.222
 2456SOL    HW1 8267   0.488   3.030   6.205
 2456SOL    HW2 8268   0.344   2.998   6.135
 2457SOL     OW 8269   5.070   1.286   6.105
 2457SOL    HW1 8270   5.125   1.292   6.022
 2457SOL    HW2 8271   5.056   1.378   6.142
 2458SOL     OW 8272   0.853   0.222   2.325
 2458SOL    HW1 8273   0.908   0.283   2.268
 2458SOL    HW2 8274   0.757   0.249   2.320
 2459SOL     OW 8275   1.707   6.447   1.610
 2459SOL    HW1 8276   1.761   6.435   1.527
 2459SOL    HW2 8277   1.752   6.400   1.686
 2460SOL     OW 8278   0.119   0.173   4.060
 2460SOL    HW1 8279   0.094   0.255   4.010
 2460SOL    HW2 8280   0.137   0.197   4.156
 2461SOL     OW 8281   2.636   1.187   3.269
 2461SOL    HW1 8282   2.632   1.089   3.249
 2461SOL    HW2 8283   2.618   1.202   3.367
 2462SOL     OW 8284   6.958   6.546   0.934
 2462SOL    HW1 8285   6.995   6.453   0.936
 2462SOL    HW2 8286   6.921   6.569   1.024
 2463SOL     OW 8287   0.026   6.905   0.836
 2463SOL    HW1 8288   0.075   6.819   0.821
 2463SOL    HW2 8289   6.951   6.893   0.809
 2464SOL     OW 8290   0.767   2.555   4.891
 2464SOL    HW1 8291   0.720   2.467   4.888
 2464SOL    HW2 8292   0.781   2.589   4.798
 2465SOL     OW 8293   6.499   1.489   0.075
 2465SOL    HW1 8294   6.562   1.561   0.104
 2465SOL    HW2 8295   6.413   1.530   0.046
 2466SOL     OW 8296   1.051   2.295   1.131
 2466SOL    HW1 8297   1.147   2.269   1.120
 2466SOL    HW2 8298   1.045   2.375   1.190
 2467SOL     OW 8299   5.157   2.131   5.248
 2467SOL    HW1 8300   5.203   2.067   5.310
 2467SOL    HW2 8301   5.064   2.147   5.279
 2468SOL     OW 8302   3.216   0.487   5.114
 2468SOL    HW1 8303   3.238   0.425   5.039
 2468SOL    HW2 8304   3.243   0.444   5.201
 2469SOL     OW 8305   2.908   2.048   6.054
 2469SOL    HW1 8306   2.966   2.040   5.973
 2469SOL    HW2 8307   2.955   2.101   6.124
 2470SOL     OW 8308   2.087   5.423   6.385
 2470SOL    HW1 8309   2.141   5.487   6.330
 2470SOL    HW2 8310   2.142   5.342   6.404
 2471SOL     OW 8311   3.458   5.869   3.144
 2471SOL    HW1 8312   3.420   5.877   3.052
 2471SOL    HW2 8313   3.421   5.786   3.187
 2472SOL     OW 8314   4.949   1.748   2.794
 2472SOL    HW1 8315   4.955   1.717   2.698
 2472SOL    HW2 8316   4.981   1.843   2.800
 2473SOL     OW 8317   0.682   4.277   4.554
 2473SOL    HW1 8318   0.722   4.239   4.470
 2473SOL    HW2 8319   0.591   4.239   4.567
 2474SOL     OW 8320   1.573   6.183   1.048
 2474SOL    HW1 8321   1.528   6.270   1.025
 2474SOL    HW2 8322   1.513   6.130   1.108
 2475SOL     OW 8323   5.804   2.178   1.066
 2475SOL    HW1 8324   5.880   2.114   1.073
 2475SOL    HW2 8325   5.756   2.164   0.979
 2476SOL     OW 8326   4.627   0.097   0.070
 2476SOL    HW1 8327   4.606   0.183   0.023
 2476SOL    HW2 8328   4.722   0.098   0.100
 2477SOL     OW 8329   3.938   1.208   3.399
 2477SOL    HW1 8330   3.973   1.301   3.396
 2477SOL    HW2 8331   3.923   1.180   3.494
 2478SOL     OW 8332   3.526   0.494   4.546
 2478SOL    HW1 8333   3.588   0.419   4.568
 2478SOL    HW2 8334   3.449   0.460   4.492
 2479SOL     OW 8335   5.383   4.190   1.357
 2479SOL    HW1 8336   5.306   4.135   1.391
 2479SOL    HW2 8337   5.362   4.287   1.370
 2480SOL     OW 8338   3.169   2.494   1.384
 2480SOL    HW1 8339   3.155   2.424   1.453
 2480SOL    HW2 8340   3.092   2.559   1.385
 2481SOL     OW 8341   2.960   0.053   1.807
 2481SOL    HW1 8342   3.053   0.036   1.774
 2481SOL    HW2 8343   2.963   0.105   1.892
 2482SOL     OW 8344   6.970   2.892   0.289
 2482SOL    HW1 8345   0.006   2.833   0.231
 2482SOL    HW2 8346   0.002   2.924   0.367
 2483SOL     OW 8347   2.630   1.934   1.473
 2483SOL    HW1 8348   2.580   2.021   1.472
 2483SOL    HW2 8349   2.626   1.892   1.383
 2484SOL     OW 8350   4.178   0.319   6.700
 2484SOL    HW1 8351   4.189   0.401   6.645
 2484SOL    HW2 8352   4.083   0.289   6.696
 2485SOL     OW 8353   0.344   1.651   6.136
 2485SOL    HW1 8354   0.286   1.575   6.166
 2485SOL    HW2 8355   0.288   1.731   6.117
 2486SOL     OW 8356   6.607   5.989   3.108
 2486SOL    HW1 8357   6.667   6.036   3.172
 2486SOL    HW2 8358   6.658   5.919   3.059
 2487SOL     OW 8359   4.696   6.053   0.194
 2487SOL    HW1 8360   4.614   6.023   0.243
 2487SOL    HW2 8361   4.712   6.150   0.213
 2488SOL     OW 8362   6.825   4.050   1.241
 2488SOL    HW1 8363   6.782   4.125   1.192
 2488SOL    HW2 8364   6.782   3.964   1.215
 2489SOL     OW 8365   5.963   5.249   4.580
 2489SOL    HW1 8366   5.894   5.306   4.536
 2489SOL    HW2 8367   6.025   5.306   4.633
 2490SOL     OW 8368   2.655   5.632   2.171
 2490SOL    HW1 8369   2.640   5.606   2.076
 2490SOL    HW2 8370   2.611   5.720   2.189
 2491SOL     OW 8371   3.925   4.528   1.720
 2491SOL    HW1 8372   3.866   4.447   1.727
 2491SOL    HW2 8373   3.963   4.534   1.628
 2492SOL     OW 8374   0.049   5.669   1.356
 2492SOL    HW1 8375   6.980   5.659   1.312
 2492SOL    HW2 8376   0.100   5.742   1.309
 2493SOL     OW 8377   5.823   6.332   0.431
 2493SOL    HW1 8378   5.732   6.368   0.407
 2493SOL    HW2 8379   5.833   6.333   0.531
 2494SOL     OW 8380   6.674   4.192   1.046
 2494SOL    HW1 8381   6.578   4.211   1.062
 2494SOL    HW2 8382   6.688   4.164   0.951
 2495SOL     OW 8383   6.947   3.293   2.077
 2495SOL    HW1 8384   6.916   3.388   2.087
 2495SOL    HW2 8385   6.887   3.233   2.129
 2496SOL     OW 8386   5.701   4.197   6.521
 2496SOL    HW1 8387   5.746   4.218   6.608
 2496SOL    HW2 8388   5.750   4.124   6.474
 2497SOL     OW 8389   0.401   6.994   2.941
 2497SOL    HW1 8390   0.451   6.920   2.897
 2497SOL    HW2 8391   0.308   6.962   2.963
 2498SOL     OW 8392   1.825   3.287   4.433
 2498SOL    HW1 8393   1.853   3.337   4.516
 2498SOL    HW2 8394   1.726   3.296   4.421
 2499SOL     OW 8395   6.000   3.628   2.382
 2499SOL    HW1 8396   6.036   3.636   2.289
 2499SOL    HW2 8397   5.944   3.545   2.389
 2500SOL     OW 8398   3.408   3.309   2.249
 2500SOL    HW1 8399   3.384   3.233   2.187
 2500SOL    HW2 8400   3.372   3.394   2.212
 2501SOL     OW 8401   5.938   5.709   5.583
 2501SOL    HW1 8402   6.030   5.673   5.601
 2501SOL    HW2 8403   5.889   5.648   5.522
 2502SOL     OW 8404   2.504   5.444   3.994
 2502SOL    HW1 8405   2.598   5.454   4.029
 2502SOL    HW2 8406   2.446   5.516   4.033
 2503SOL     OW 8407   2.284   0.119   5.283
 2503SOL    HW1 8408   2.365   0.067   5.255
 2503SOL    HW2 8409   2.216   0.057   5.320
 2504SOL     OW 8410   3.646   0.324   3.250
 2504SOL    HW1 8411   3.699   0.367   3.177
 2504SOL    HW2 8412   3.687   0.346   3.339
 2505SOL     OW 8413   5.972   4.497   4.042
 2505SOL    HW1 8414   5.872   4.491   4.033
 2505SOL    HW2 8415   6.013   4.411   4.011
 2506SOL     OW 8416   6.260   5.373   6.494
 2506SOL    HW1 8417   6.181   5.314   6.506
 2506SOL    HW2 8418   6.340   5.332   6.538
 2507SOL     OW 8419   6.457   3.176   3.298
 2507SOL    HW1 8420   6.409   3.105   3.349
 2507SOL    HW2 8421   6.404   3.261   3.301
 2508SOL     OW 8422   6.323   0.744   3.836
 2508SOL    HW1 8423   6.224   0.754   3.830
 2508SOL    HW2 8424   6.350   0.731   3.932
 2509SOL     OW 8425   6.991   3.128   6.302
 2509SOL    HW1 8426   6.976   3.114   6.204
 2509SOL    HW2 8427   0.044   3.193   6.317
 2510SOL     OW 8428   3.544   3.661   2.489
 2510SOL    HW1 8429   3.515   3.754   2.511
 2510SOL    HW2 8430   3.632   3.664   2.440
 2511SOL     OW 8431   1.789   0.836   4.512
 2511SOL    HW1 8432   1.801   0.884   4.425
 2511SOL    HW2 8433   1.772   0.903   4.584
 2512SOL     OW 8434   3.845   4.963   3.983
 2512SOL    HW1 8435   3.753   4.999   4.000
 2512SOL    HW2 8436   3.892   4.951   4.070
 2513SOL     OW 8437   2.023   5.790   6.686
 2513SOL    HW1 8438   1.972   5.850   6.624
 2513SOL    HW2 8439   1.978   5.701   6.691
 2514SOL     OW 8440   1.750   1.716   2.689
 2514SOL    HW1 8441   1.843   1.741   2.715
 2514SOL    HW2 8442   1.689   1.726   2.768
 2515SOL     OW 8443   0.067   2.051   1.134
 2515SOL    HW1 8444   0.108   2.010   1.216
 2515SOL    HW2 8445   0.069   2.151   1.142
 2516SOL     OW 8446   6.291   2.498   5.075
 2516SOL    HW1 8447   6.235   2.431   5.026
 2516SOL    HW2 8448   6.234   2.576   5.101
 2517SOL     OW 8449   0.788   1.327   3.999
 2517SOL    HW1 8450   0.713   1.261   3.999
 2517SOL    HW2 8451   0.757   1.413   3.959
 2518SOL     OW 8452   2.523   3.838   0.986
 2518SOL    HW1 8453   2.450   3.872   0.927
 2518SOL    HW2 8454   2.575   3.915   1.022
 2519SOL     OW 8455   0.977   1.377   0.919
 2519SOL    HW1 8456   1.062   1.376   0.867
 2519SOL    HW2 8457   0.981   1.449   0.988
 2520SOL     OW 8458   2.726   2.572   0.948
 2520SOL    HW1 8459   2.756   2.615   1.033
 2520SOL    HW2 8460   2.694   2.643   0.885
 2521SOL     OW 8461   4.803   0.462   4.994
 2521SOL    HW1 8462   4.850   0.547   5.017
 2521SOL    HW2 8463   4.729   0.447   5.059
 2522SOL     OW 8464   1.195   1.854   6.884
 2522SOL    HW1 8465   1.244   1.839   6.970
 2522SOL    HW2 8466   1.258   1.892   6.816
 2523SOL     OW 8467   1.012   5.703   6.184
 2523SOL    HW1 8468   0.952   5.760   6.239
 2523SOL    HW2 8469   1.045   5.755   6.105
 2524SOL     OW 8470   1.076   1.770   5.076
 2524SOL    HW1 8471   1.017   1.847   5.054
 2524SOL    HW2 8472   1.058   1.695   5.013
 2525SOL     OW 8473   5.957   2.889   6.145
 2525SOL    HW1 8474   5.860   2.911   6.160
 2525SOL    HW2 8475   5.968   2.838   6.060
 2526SOL     OW 8476   1.708   0.816   0.598
 2526SOL    HW1 8477   1.619   0.843   0.633
 2526SOL    HW2 8478   1.772   0.893   0.606
 2527SOL     OW 8479   3.888   4.710   6.775
 2527SOL    HW1 8480   3.919   4.625   6.818
 2527SOL    HW2 8481   3.852   4.690   6.684
 2528SOL     OW 8482   4.569   5.514   6.497
 2528SOL    HW1 8483   4.599   5.445   6.432
 2528SOL    HW2 8484   4.608   5.603   6.472
 2529SOL     OW 8485   0.400   6.233   5.770
 2529SOL    HW1 8486   0.432   6.247   5.864
 2529SOL    HW2 8487   0.436   6.306   5.712
 2530SOL     OW 8488   2.606   6.082   6.708
 2530SOL    HW1 8489   2.544   6.118   6.778
 2530SOL    HW2 8490   2.693   6.058   6.750
 2531SOL     OW 8491   0.167   5.047   6.447
 2531SOL    HW1 8492   0.266   5.039   6.462
 2531SOL    HW2 8493   0.133   4.964   6.403
 2532SOL     OW 8494   5.601   5.709   1.823
 2532SOL    HW1 8495   5.600   5.663   1.912
 2532SOL    HW2 8496   5.696   5.724   1.795
 2533SOL     OW 8497   4.527   1.173   3.757
 2533SOL    HW1 8498   4.470   1.102   3.798
 2533SOL    HW2 8499   4.469   1.247   3.722
 2534SOL     OW 8500   4.215   1.563   2.586
 2534SOL    HW1 8501   4.184   1.656   2.605
 2534SOL    HW2 8502   4.201   1.543   2.489
 2535SOL     OW 8503   3.894   2.948   6.163
 2535SOL    HW1 8504   3.876   2.909   6.073
 2535SOL    HW2 8505   3.975   3.007   6.158
 2536SOL     OW 8506   1.382   0.196   0.883
 2536SOL    HW1 8507   1.357   0.201   0.979
 2536SOL    HW2 8508   1.414   0.104   0.861
 2537SOL     OW 8509   3.943   6.895   5.723
 2537SOL    HW1 8510   3.948   6.929   5.629
 2537SOL    HW2 8511   4.030   6.851   5.747
 2538SOL     OW 8512   6.040   3.737   3.813
 2538SOL    HW1 8513   6.112   3.703   3.753
 2538SOL    HW2 8514   5.975   3.664   3.832
 2539SOL     OW 8515   4.663   2.381   5.272
 2539SOL    HW1 8516   4.600   2.458   5.276
 2539SOL    HW2 8517   4.683   2.359   5.176
 2540SOL     OW 8518   2.923   2.053   1.565
 2540SOL    HW1 8519   2.830   2.020   1.547
 2540SOL    HW2 8520   2.976   2.050   1.481
 2541SOL     OW 8521   3.250   6.946   3.711
 2541SOL    HW1 8522   3.262   6.866   3.652
 2541SOL    HW2 8523   3.302   6.934   3.795
 2542SOL     OW 8524   1.752   5.802   6.101
 2542SOL    HW1 8525   1.715   5.781   6.192
 2542SOL    HW2 8526   1.724   5.731   6.037
 2543SOL     OW 8527   0.377   0.807   4.126
 2543SOL    HW1 8528   0.473   0.826   4.148
 2543SOL    HW2 8529   0.373   0.755   4.041
 2544SOL     OW 8530   0.644   5.222   6.351
 2544SOL    HW1 8531   0.672   5.293   6.415
 2544SOL    HW2 8532   0.684   5.240   6.261
 2545SOL     OW 8533   2.454   6.012   3.564
 2545SOL    HW1 8534   2.385   6.079   3.592
 2545SOL    HW2 8535   2.415   5.950   3.497
 2546SOL     OW 8536   6.843   0.863   1.626
 2546SOL    HW1 8537   6.766   0.806   1.599
 2546SOL    HW2 8538   6.864   0.928   1.553
 2547SOL     OW 8539   0.453   3.389   5.347
 2547SOL    HW1 8540   0.475   3.382   5.444
 2547SOL    HW2 8541   0.517   3.333   5.294
 2548SOL     OW 8542   1.028   0.496   6.122
 2548SOL    HW1 8543   0.946   0.450   6.089
 2548SOL    HW2 8544   1.020   0.594   6.106
 2549SOL     OW 8545   6.104   2.805   2.250
 2549SOL    HW1 8546   6.035   2.836   2.315
 2549SOL    HW2 8547   6.061   2.743   2.184
 2550SOL     OW 8548   5.692   5.358   6.912
 2550SOL    HW1 8549   5.624   5.317   6.851
 2550SOL    HW2 8550   5.659   5.354   7.006
 2551SOL     OW 8551   1.053   5.035   0.328
 2551SOL    HW1 8552   0.961   4.999   0.343
 2551SOL    HW2 8553   1.066   5.056   0.231
 2552SOL     OW 8554   1.752   5.679   3.443
 2552SOL    HW1 8555   1.837   5.661   3.394
 2552SOL    HW2 8556   1.774   5.716   3.534
 2553SOL     OW 8557   4.051   3.659   6.770
 2553SOL    HW1 8558   4.145   3.628   6.765
 2553SOL    HW2 8559   4.036   3.731   6.702
 2554SOL     OW 8560   1.219   2.135   0.384
 2554SOL    HW1 8561   1.146   2.195   0.350
 2554SOL    HW2 8562   1.178   2.051   0.420
 2555SOL     OW 8563   0.148   0.137   6.537
 2555SOL    HW1 8564   0.133   0.124   6.439
 2555SOL    HW2 8565   0.150   0.235   6.557
 2556SOL     OW 8566   4.088   4.708   0.350
 2556SOL    HW1 8567   4.107   4.635   0.285
 2556SOL    HW2 8568   4.157   4.780   0.340
 2557SOL     OW 8569   1.607   4.864   6.676
 2557SOL    HW1 8570   1.525   4.812   6.700
 2557SOL    HW2 8571   1.649   4.900   6.759
 2558SOL     OW 8572   4.185   0.679   5.275
 2558SOL    HW1 8573   4.108   0.697   5.337
 2558SOL    HW2 8574   4.206   0.581   5.275
 2559SOL     OW 8575   0.720   4.621   5.195
 2559SOL    HW1 8576   0.696   4.684   5.269
 2559SOL    HW2 8577   0.691   4.528   5.220
 2560SOL     OW 8578   6.207   0.886   6.941
 2560SOL    HW1 8579   6.211   0.867   0.018
 2560SOL    HW2 8580   6.283   0.840   6.895
 2561SOL     OW 8581   3.177   5.851   3.816
 2561SOL    HW1 8582   3.184   5.877   3.720
 2561SOL    HW2 8583   3.081   5.838   3.840
 2562SOL     OW 8584   2.062   3.801   0.123
 2562SOL    HW1 8585   1.985   3.864   0.126
 2562SOL    HW2 8586   2.053   3.733   0.196
 2563SOL     OW 8587   1.376   0.700   1.509
 2563SOL    HW1 8588   1.461   0.647   1.508
 2563SOL    HW2 8589   1.349   0.717   1.604
 2564SOL     OW 8590   1.380   6.774   2.536
 2564SOL    HW1 8591   1.321   6.849   2.509
 2564SOL    HW2 8592   1.476   6.799   2.518
 2565SOL     OW 8593   0.220   1.041   1.722
 2565SOL    HW1 8594   0.307   0.994   1.738
 2565SOL    HW2 8595   0.219   1.128   1.770
 2566SOL     OW 8596   1.859   0.101   5.252
 2566SOL    HW1 8597   1.808   0.019   5.226
 2566SOL    HW2 8598   1.934   0.075   5.313
 2567SOL     OW 8599   0.859   0.712   0.699
 2567SOL    HW1 8600   0.920   0.662   0.638
 2567SOL    HW2 8601   0.913   0.755   0.771
 2568SOL     OW 8602   5.159   3.652   6.980
 2568SOL    HW1 8603   5.188   3.587   0.029
 2568SOL    HW2 8604   5.240   3.691   6.936
 2569SOL     OW 8605   2.487   0.463   2.455
 2569SOL    HW1 8606   2.540   0.380   2.442
 2569SOL    HW2 8607   2.519   0.510   2.537
 2570SOL     OW 8608   5.334   1.993   5.884
 2570SOL    HW1 8609   5.423   1.988   5.927
 2570SOL    HW2 8610   5.267   1.941   5.937
 2571SOL     OW 8611   0.795   3.987   4.714
 2571SOL    HW1 8612   0.802   4.075   4.761
 2571SOL    HW2 8613   0.875   3.931   4.734
 2572SOL     OW 8614   1.730   4.552   3.560
 2572SOL    HW1 8615   1.637   4.550   3.525
 2572SOL    HW2 8616   1.770   4.460   3.554
 2573SOL     OW 8617   1.454   0.093   0.298
 2573SOL    HW1 8618   1.517   0.020   0.321
 2573SOL    HW2 8619   1.388   0.106   0.373
 2574SOL     OW 8620   6.367   3.400   0.508
 2574SOL    HW1 8621   6.387   3.415   0.604
 2574SOL    HW2 8622   6.441   3.437   0.452
 2575SOL     OW 8623   0.495   6.431   6.360
 2575SOL    HW1 8624   0.497   6.522   6.400
 2575SOL    HW2 8625   0.580   6.414   6.310
 2576SOL     OW 8626   4.217   6.560   5.145
 2576SOL    HW1 8627   4.173   6.529   5.060
 2576SOL    HW2 8628   4.309   6.522   5.151
 2577SOL     OW 8629   1.443   3.532   2.640
 2577SOL    HW1 8630   1.447   3.609   2.703
 2577SOL    HW2 8631   1.511   3.545   2.567
 2578SOL     OW 8632   4.326   1.933   2.172
 2578SOL    HW1 8633   4.343   1.853   2.231
 2578SOL    HW2 8634   4.382   2.009   2.204
 2579SOL     OW 8635   0.331   6.214   2.737
 2579SOL    HW1 8636   0.381   6.136   2.698
 2579SOL    HW2 8637   0.375   6.299   2.710
 2580SOL     OW 8638   2.449   1.452   5.629
 2580SOL    HW1 8639   2.505   1.526   5.667
 2580SOL    HW2 8640   2.393   1.487   5.554
 2581SOL     OW 8641   3.208   0.266   5.753
 2581SOL    HW1 8642   3.157   0.230   5.831
 2581SOL    HW2 8643   3.144   0.308   5.688
 2582SOL     OW 8644   6.944   3.568   1.130
 2582SOL    HW1 8645   0.003   3.510   1.115
 2582SOL    HW2 8646   6.937   3.590   1.227
 2583SOL     OW 8647   5.445   0.347   0.913
 2583SOL    HW1 8648   5.378   0.371   0.843
 2583SOL    HW2 8649   5.520   0.296   0.871
 2584SOL     OW 8650   3.570   4.134   6.418
 2584SOL    HW1 8651   3.534   4.221   6.452
 2584SOL    HW2 8652   3.643   4.102   6.480
 2585SOL     OW 8653   2.623   5.116   0.061
 2585SOL    HW1 8654   2.645   5.167   0.143
 2585SOL    HW2 8655   2.529   5.136   0.033
 2586SOL     OW 8656   2.585   1.065   3.995
 2586SOL    HW1 8657   2.661   1.098   3.938
 2586SOL    HW2 8658   2.584   0.965   3.996
 2587SOL     OW 8659   5.857   0.987   4.944
 2587SOL    HW1 8660   5.950   0.955   4.928
 2587SOL    HW2 8661   5.792   0.914   4.918
 2588SOL     OW 8662   4.362   0.619   6.899
 2588SOL    HW1 8663   4.399   0.634   6.990
 2588SOL    HW2 8664   4.363   0.706   6.848
 2589SOL     OW 8665   1.831   6.178   0.478
 2589SOL    HW1 8666   1.928   6.163   0.461
 2589SOL    HW2 8667   1.785   6.201   0.393
 2590SOL     OW 8668   2.568   5.533   0.376
 2590SOL    HW1 8669   2.553   5.576   0.465
 2590SOL    HW2 8670   2.522   5.586   0.305
 2591SOL     OW 8671   5.106   6.104   2.988
 2591SOL    HW1 8672   5.120   6.192   2.944
 2591SOL    HW2 8673   5.194   6.068   3.020
 2592SOL     OW 8674   2.863   3.355   0.959
 2592SOL    HW1 8675   2.885   3.295   1.036
 2592SOL    HW2 8676   2.803   3.429   0.990
 2593SOL     OW 8677   3.377   4.615   6.960
 2593SOL    HW1 8678   3.463   4.652   6.925
 2593SOL    HW2 8679   3.327   4.571   6.885
 2594SOL     OW 8680   2.106   3.337   3.532
 2594SOL    HW1 8681   2.068   3.351   3.623
 2594SOL    HW2 8682   2.159   3.252   3.531
 2595SOL     OW 8683   2.075   1.135   2.897
 2595SOL    HW1 8684   2.146   1.195   2.932
 2595SOL    HW2 8685   1.988   1.184   2.896
 2596SOL     OW 8686   0.020   1.926   0.535
 2596SOL    HW1 8687   0.069   2.010   0.558
 2596SOL    HW2 8688   0.072   1.847   0.567
 2597SOL     OW 8689   6.578   6.248   0.616
 2597SOL    HW1 8690   6.669   6.286   0.607
 2597SOL    HW2 8691   6.517   6.292   0.550
 2598SOL     OW 8692   4.841   2.762   2.005
 2598SOL    HW1 8693   4.848   2.720   1.914
 2598SOL    HW2 8694   4.814   2.857   1.996
 2599SOL     OW 8695   2.459   5.976   2.459
 2599SOL    HW1 8696   2.368   5.981   2.498
 2599SOL    HW2 8697   2.503   5.891   2.487
 2600SOL     OW 8698   5.948   4.020   4.336
 2600SOL    HW1 8699   5.919   4.115   4.351
 2600SOL    HW2 8700   5.925   3.993   4.243
 2601SOL     OW 8701   6.948   1.275   4.432
 2601SOL    HW1 8702   6.881   1.215   4.388
 2601SOL    HW2 8703   7.012   1.220   4.485
 2602SOL     OW 8704   1.099   4.801   2.725
 2602SOL    HW1 8705   1.191   4.839   2.716
 2602SOL    HW2 8706   1.050   4.849   2.797
 2603SOL     OW 8707   2.009   5.631   1.993
 2603SOL    HW1 8708   1.944   5.702   2.020
 2603SOL    HW2 8709   2.070   5.611   2.069
 2604SOL     OW 8710   4.807   3.045   3.267
 2604SOL    HW1 8711   4.809   2.962   3.212
 2604SOL    HW2 8712   4.762   3.026   3.354
 2605SOL     OW 8713   1.460   2.842   1.246
 2605SOL    HW1 8714   1.368   2.830   1.209
 2605SOL    HW2 8715   1.460   2.816   1.343
 2606SOL     OW 8716   5.154   3.913   0.917
 2606SOL    HW1 8717   5.230   3.977   0.921
 2606SOL    HW2 8718   5.172   3.836   0.977
 2607SOL     OW 8719   2.503   2.999   1.373
 2607SOL    HW1 8720   2.598   2.979   1.352
 2607SOL    HW2 8721   2.443   2.945   1.313
 2608SOL     OW 8722   3.173   5.321   4.803
 2608SOL    HW1 8723   3.192   5.279   4.892
 2608SOL    HW2 8724   3.156   5.249   4.735
 2609SOL     OW 8725   0.480   1.805   1.479
 2609SOL    HW1 8726   0.549   1.754   1.427
 2609SOL    HW2 8727   0.525   1.859   1.550
 2610SOL     OW 8728   1.273   4.204   4.766
 2610SOL    HW1 8729   1.253   4.275   4.698
 2610SOL    HW2 8730   1.193   4.193   4.826
 2611SOL     OW 8731   5.678   0.669   5.620
 2611SOL    HW1 8732   5.725   0.732   5.682
 2611SOL    HW2 8733   5.613   0.613   5.671
 2612SOL     OW 8734   6.812   6.422   0.541
 2612SOL    HW1 8735   6.875   6.494   0.569
 2612SOL    HW2 8736   6.838   6.388   0.451
 2613SOL     OW 8737   1.515   6.377   0.455
 2613SOL    HW1 8738   1.531   6.331   0.543
 2613SOL    HW2 8739   1.592   6.436   0.433
 2614SOL     OW 8740   5.542   2.171   0.858
 2614SOL    HW1 8741   5.470   2.232   0.825
 2614SOL    HW2 8742   5.503   2.105   0.922
 2615SOL     OW 8743   0.859   3.330   6.687
 2615SOL    HW1 8744   0.792   3.401   6.666
 2615SOL    HW2 8745   0.816   3.258   6.741
 2616SOL     OW 8746   1.147   0.752   4.352
 2616SOL    HW1 8747   1.214   0.818   4.318
 2616SOL    HW2 8748   1.156   0.744   4.452
 2617SOL     OW 8749   5.188   0.184   0.370
 2617SOL    HW1 8750   5.143   0.144   0.290
 2617SOL    HW2 8751   5.280   0.146   0.379
 2618SOL     OW 8752   1.363   0.351   0.069
 2618SOL    HW1 8753   1.348   0.395   7.002
 2618SOL    HW2 8754   1.295   0.385   0.135
 2619SOL     OW 8755   4.849   1.455   2.903
 2619SOL    HW1 8756   4.772   1.403   2.940
 2619SOL    HW2 8757   4.837   1.552   2.925
 2620SOL     OW 8758   5.911   2.253   2.355
 2620SOL    HW1 8759   5.996   2.247   2.303
 2620SOL    HW2 8760   5.834   2.263   2.292
 2621SOL     OW 8761   2.770   6.279   1.257
 2621SOL    HW1 8762   2.703   6.209   1.233
 2621SOL    HW2 8763   2.738   6.368   1.226
 2622SOL     OW 8764   2.578   3.722   6.724
 2622SOL    HW1 8765   2.551   3.779   6.801
 2622SOL    HW2 8766   2.631   3.777   6.659
 2623SOL     OW 8767   6.835   1.220   3.777
 2623SOL    HW1 8768   6.738   1.201   3.789
 2623SOL    HW2 8769   6.868   1.178   3.692
 2624SOL     OW 8770   1.362   1.944   5.649
 2624SOL    HW1 8771   1.348   1.862   5.595
 2624SOL    HW2 8772   1.345   2.025   5.592
 2625SOL     OW 8773   2.918   5.466   5.754
 2625SOL    HW1 8774   2.936   5.563   5.734
 2625SOL    HW2 8775   2.819   5.451   5.757
 2626SOL     OW 8776   0.127   6.874   0.332
 2626SOL    HW1 8777   0.041   6.900   0.288
 2626SOL    HW2 8778   0.184   6.956   0.345
 2627SOL     OW 8779   2.353   0.434   5.655
 2627SOL    HW1 8780   2.258   0.450   5.683
 2627SOL    HW2 8781   2.412   0.497   5.706
 2628SOL     OW 8782   0.189   5.428   1.352
 2628SOL    HW1 8783   0.125   5.505   1.342
 2628SOL    HW2 8784   0.275   5.462   1.392
 2629SOL     OW 8785   3.344   4.062   3.234
 2629SOL    HW1 8786   3.275   4.050   3.163
 2629SOL    HW2 8787   3.313   4.131   3.300
 2630SOL     OW 8788   3.512   0.385   4.988
 2630SOL    HW1 8789   3.427   0.433   4.966
 2630SOL    HW2 8790   3.491   0.297   5.031
 2631SOL     OW 8791   4.547   5.869   0.423
 2631SOL    HW1 8792   4.643   5.889   0.443
 2631SOL    HW2 8793   4.539   5.779   0.381
 2632SOL     OW 8794   5.497   5.264   1.882
 2632SOL    HW1 8795   5.422   5.297   1.940
 2632SOL    HW2 8796   5.584   5.293   1.922
 2633SOL     OW 8797   0.401   3.201   5.744
 2633SOL    HW1 8798   0.320   3.260   5.749
 2633SOL    HW2 8799   0.479   3.254   5.711
 2634SOL     OW 8800   1.670   1.893   6.196
 2634SOL    HW1 8801   1.607   1.828   6.153
 2634SOL    HW2 8802   1.644   1.986   6.172
 2635SOL     OW 8803   3.865   5.118   2.939
 2635SOL    HW1 8804   3.805   5.198   2.935
 2635SOL    HW2 8805   3.820   5.041   2.894
 2636SOL     OW 8806   3.370   6.353   6.206
 2636SOL    HW1 8807   3.442   6.284   6.197
 2636SOL    HW2 8808   3.347   6.390   6.116
 2637SOL     OW 8809   0.298   1.894   3.103
 2637SOL    HW1 8810   0.268   1.864   3.193
 2637SOL    HW2 8811   0.268   1.827   3.034
 2638SOL     OW 8812   0.611   6.102   4.774
 2638SOL    HW1 8813   0.543   6.174   4.783
 2638SOL    HW2 8814   0.580   6.034   4.708
 2639SOL     OW 8815   5.062   5.366   4.881
 2639SOL    HW1 8816   5.020   5.291   4.829
 2639SOL    HW2 8817   5.002   5.446   4.879
 2640SOL     OW 8818   2.110   0.911   3.028
 2640SOL    HW1 8819   2.092   1.000   2.988
 2640SOL    HW2 8820   2.049   0.896   3.106
 2641SOL     OW 8821   5.347   1.983   6.943
 2641SOL    HW1 8822   5.301   1.906   6.900
 2641SOL    HW2 8823   5.304   2.003   0.010
 2642SOL     OW 8824   0.356   0.348   2.295
 2642SOL    HW1 8825   0.333   0.265   2.246
 2642SOL    HW2 8826   0.280   0.413   2.288
 2643SOL     OW 8827   1.927   4.463   4.216
 2643SOL    HW1 8828   1.946   4.474   4.314
 2643SOL    HW2 8829   1.982   4.528   4.164
 2644SOL     OW 8830   5.682   5.350   3.782
 2644SOL    HW1 8831   5.741   5.270   3.783
 2644SOL    HW2 8832   5.614   5.342   3.855
 2645SOL     OW 8833   4.461   5.636   2.288
 2645SOL    HW1 8834   4.524   5.714   2.290
 2645SOL    HW2 8835   4.367   5.670   2.299
 2646SOL     OW 8836   1.294   2.064   6.296
 2646SOL    HW1 8837   1.287   2.106   6.386
 2646SOL    HW2 8838   1.260   1.970   6.300
 2647SOL     OW 8839   4.029   0.268   2.865
 2647SOL    HW1 8840   3.979   0.193   2.908
 2647SOL    HW2 8841   4.091   0.231   2.796
 2648SOL     OW 8842   1.479   0.803   5.840
 2648SOL    HW1 8843   1.522   0.713   5.839
 2648SOL    HW2 8844   1.417   0.810   5.918
 2649SOL     OW 8845   6.423   1.870   3.784
 2649SOL    HW1 8846   6.397   1.956   3.741
 2649SOL    HW2 8847   6.342   1.822   3.816
 2650SOL     OW 8848   1.968   6.957   4.231
 2650SOL    HW1 8849   2.039   6.892   4.257
 2650SOL    HW2 8850   1.884   6.909   4.208
 2651SOL     OW 8851   3.627   1.611   3.192
 2651SOL    HW1 8852   3.660   1.700   3.223
 2651SOL    HW2 8853   3.528   1.606   3.206
 2652SOL     OW 8854   5.025   3.737   5.397
 2652SOL    HW1 8855   4.932   3.774   5.397
 2652SOL    HW2 8856   5.088   3.802   5.438
 2653SOL     OW 8857   2.077   6.250   0.127
 2653SOL    HW1 8858   2.085   6.213   0.220
 2653SOL    HW2 8859   2.162   6.296   0.103
 2654SOL     OW 8860   0.094   0.758   1.014
 2654SOL    HW1 8861   0.136   0.817   1.083
 2654SOL    HW2 8862   0.093   0.663   1.047
 2655SOL     OW 8863   5.198   6.811   3.108
 2655SOL    HW1 8864   5.250   6.881   3.157
 2655SOL    HW2 8865   5.217   6.722   3.147
 2656SOL     OW 8866   4.702   6.908   4.547
 2656SOL    HW1 8867   4.782   6.859   4.512
 2656SOL    HW2 8868   4.674   6.869   4.635
 2657SOL     OW 8869   1.579   3.179   6.552
 2657SOL    HW1 8870   1.654   3.241   6.530
 2657SOL    HW2 8871   1.495   3.211   6.509
 2658SOL     OW 8872   3.719   4.317   0.173
 2658SOL    HW1 8873   3.788   4.256   0.133
 2658SOL    HW2 8874   3.689   4.279   0.261
 2659SOL     OW 8875   0.057   2.132   5.309
 2659SOL    HW1 8876   0.147   2.115   5.350
 2659SOL    HW2 8877   0.000   2.051   5.318
 2660SOL     OW 8878   1.200   1.385   0.768
 2660SOL    HW1 8879   1.249   1.413   0.850
 2660SOL    HW2 8880   1.201   1.459   0.701
 2661SOL     OW 8881   2.131   0.589   0.864
 2661SOL    HW1 8882   2.066   0.583   0.789
 2661SOL    HW2 8883   2.106   0.523   0.935
 2662SOL     OW 8884   2.849   1.649   1.741
 2662SOL    HW1 8885   2.906   1.727   1.716
 2662SOL    HW2 8886   2.881   1.568   1.691
 2663SOL     OW 8887   3.832   1.063   0.829
 2663SOL    HW1 8888   3.916   1.117   0.829
 2663SOL    HW2 8889   3.778   1.085   0.910
 2664SOL     OW 8890   5.028   2.834   5.732
 2664SOL    HW1 8891   4.944   2.861   5.686
 2664SOL    HW2 8892   5.063   2.910   5.786
 2665SOL     OW 8893   1.172   3.259   4.572
 2665SOL    HW1 8894   1.111   3.313   4.514
 2665SOL    HW2 8895   1.255   3.236   4.522
 2666SOL     OW 8896   1.807   3.830   1.865
 2666SOL    HW1 8897   1.795   3.793   1.957
 2666SOL    HW2 8898   1.883   3.895   1.864
 2667SOL     OW 8899   5.950   2.702   4.943
 2667SOL    HW1 8900   5.915   2.611   4.923
 2667SOL    HW2 8901   5.874   2.765   4.959
 2668SOL     OW 8902   5.745   0.958   4.298
 2668SOL    HW1 8903   5.786   0.867   4.308
 2668SOL    HW2 8904   5.647   0.949   4.280
 2669SOL     OW 8905   2.538   1.027   1.652
 2669SOL    HW1 8906   2.486   1.096   1.601
 2669SOL    HW2 8907   2.518   1.035   1.749
 2670SOL     OW 8908   0.858   0.552   1.212
 2670SOL    HW1 8909   0.956   0.555   1.191
 2670SOL    HW2 8910   0.832   0.459   1.238
 2671SOL     OW 8911   5.576   4.200   6.002
 2671SOL    HW1 8912   5.579   4.111   6.047
 2671SOL    HW2 8913   5.669   4.229   5.978
 2672SOL     OW 8914   2.391   1.745   2.396
 2672SOL    HW1 8915   2.334   1.802   2.455
 2672SOL    HW2 8916   2.374   1.770   2.300
 2673SOL     OW 8917   3.167   0.018   2.792
 2673SOL    HW1 8918   3.236   0.022   2.864
 2673SOL    HW2 8919   3.212   0.007   2.704
 2674SOL     OW 8920   6.246   5.761   3.242
 2674SOL    HW1 8921   6.199   5.797   3.323
 2674SOL    HW2 8922   6.254   5.834   3.174
 2675SOL     OW 8923   4.630   1.030   4.590
 2675SOL    HW1 8924   4.619   0.937   4.555
 2675SOL    HW2 8925   4.539   1.069   4.608
 2676SOL     OW 8926   4.062   3.251   4.934
 2676SOL    HW1 8927   4.101   3.275   4.845
 2676SOL    HW2 8928   3.963   3.253   4.928
 2677SOL     OW 8929   1.552   5.455   0.863
 2677SOL    HW1 8930   1.599   5.543   0.867
 2677SOL    HW2 8931   1.605   5.387   0.913
 2678SOL     OW 8932   3.528   1.957   2.036
 2678SOL    HW1 8933   3.437   1.975   1.999
 2678SOL    HW2 8934   3.584   2.040   2.028
 2679SOL     OW 8935   2.162   3.616   2.412
 2679SOL    HW1 8936   2.184   3.518   2.407
 2679SOL    HW2 8937   2.131   3.648   2.323
 2680SOL     OW 8938   5.524   2.462   6.388
 2680SOL    HW1 8939   5.586   2.527   6.432
 2680SOL    HW2 8940   5.568   2.372   6.382
 2681SOL     OW 8941   2.381   2.590   3.266
 2681SOL    HW1 8942   2.401   2.667   3.327
 2681SOL    HW2 8943   2.463   2.566   3.215
 2682SOL     OW 8944   3.665   4.039   2.318
 2682SOL    HW1 8945   3.606   3.973   2.365
 2682SOL    HW2 8946   3.610   4.091   2.252
 2683SOL     OW 8947   1.725   3.415   1.369
 2683SOL    HW1 8948   1.673   3.487   1.414
 2683SOL    HW2 8949   1.732   3.436   1.271
 2684SOL     OW 8950   5.265   0.759   4.011
 2684SOL    HW1 8951   5.203   0.806   4.073
 2684SOL    HW2 8952   5.344   0.817   3.990
 2685SOL     OW 8953   1.589   6.972   5.827
 2685SOL    HW1 8954   1.684   6.958   5.854
 2685SOL    HW2 8955   1.576   0.047   5.803
 2686SOL     OW 8956   1.881   1.707   6.137
 2686SOL    HW1 8957   1.961   1.760   6.107
 2686SOL    HW2 8958   1.805   1.769   6.156
 2687SOL     OW 8959   4.079   2.584   1.663
 2687SOL    HW1 8960   4.170   2.564   1.701
 2687SOL    HW2 8961   4.015   2.512   1.690
 2688SOL     OW 8962   3.891   2.714   6.842
 2688SOL    HW1 8963   3.867   2.751   6.753
 2688SOL    HW2 8964   3.957   2.775   6.887
 2689SOL     OW 8965   6.595   3.684   2.576
 2689SOL    HW1 8966   6.623   3.597   2.619
 2689SOL    HW2 8967   6.519   3.723   2.627
 2690SOL     OW 8968   5.304   1.153   4.638
 2690SOL    HW1 8969   5.295   1.241   4.593
 2690SOL    HW2 8970   5.369   1.160   4.714
 2691SOL     OW 8971   6.621   3.451   4.272
 2691SOL    HW1 8972   6.613   3.489   4.180
 2691SOL    HW2 8973   6.717   3.443   4.297
 2692SOL     OW 8974   1.633   5.076   1.570
 2692SOL    HW1 8975   1.592   5.001   1.518
 2692SOL    HW2 8976   1.732   5.070   1.563
 2693SOL     OW 8977   0.550   5.225   2.857
 2693SOL    HW1 8978   0.460   5.246   2.820
 2693SOL    HW2 8979   0.620   5.274   2.804
 2694SOL     OW 8980   2.114   0.186   2.256
 2694SOL    HW1 8981   2.064   0.256   2.205
 2694SOL    HW2 8982   2.054   0.109   2.275
 2695SOL     OW 8983   6.555   5.816   3.326
 2695SOL    HW1 8984   6.507   5.772   3.403
 2695SOL    HW2 8985   6.491   5.828   3.250
 2696SOL     OW 8986   3.777   4.321   6.323
 2696SOL    HW1 8987   3.750   4.229   6.295
 2696SOL    HW2 8988   3.746   4.338   6.416
 2697SOL     OW 8989   3.951   2.501   0.193
 2697SOL    HW1 8990   4.025   2.514   0.127
 2697SOL    HW2 8991   3.894   2.583   0.196
 2698SOL     OW 8992   1.695   5.860   7.018
 2698SOL    HW1 8993   1.716   5.763   0.011
 2698SOL    HW2 8994   1.775   5.915   0.024
 2699SOL     OW 8995   2.449   6.570   2.288
 2699SOL    HW1 8996   2.412   6.657   2.254
 2699SOL    HW2 8997   2.412   6.552   2.379
 2700SOL     OW 8998   4.711   2.046   1.364
 2700SOL    HW1 8999   4.635   2.070   1.425
 2700SOL    HW2 9000   4.721   1.947   1.360
 2701SOL     OW 9001   5.272   3.347   5.139
 2701SOL    HW1 9002   5.331   3.317   5.064
 2701SOL    HW2 9003   5.235   3.437   5.119
 2702SOL     OW 9004   1.737   1.735   4.560
 2702SOL    HW1 9005   1.664   1.803   4.569
 2702SOL    HW2 9006   1.794   1.736   4.642
 2703SOL     OW 9007   2.365   6.231   1.914
 2703SOL    HW1 9008   2.423   6.186   1.846
 2703SOL    HW2 9009   2.275   6.189   1.912
 2704SOL     OW 9010   4.207   0.943   3.581
 2704SOL    HW1 9011   4.200   0.893   3.667
 2704SOL    HW2 9012   4.272   0.897   3.520
 2705SOL     OW 9013   1.121   6.749   5.330
 2705SOL    HW1 9014   1.166   6.682   5.389
 2705SOL    HW2 9015   1.053   6.703   5.273
 2706SOL     OW 9016   0.078   4.527   4.335
 2706SOL    HW1 9017   7.014   4.578   4.344
 2706SOL    HW2 9018   0.152   4.589   4.310
 2707SOL     OW 9019   4.631   1.258   2.977
 2707SOL    HW1 9020   4.584   1.231   3.062
 2707SOL    HW2 9021   4.634   1.180   2.915
 2708SOL     OW 9022   5.113   3.031   5.910
 2708SOL    HW1 9023   5.149   3.124   5.910
 2708SOL    HW2 9024   5.139   2.985   5.995
 2709SOL     OW 9025   5.341   1.056   5.975
 2709SOL    HW1 9026   5.338   0.999   5.892
 2709SOL    HW2 9027   5.316   1.150   5.951
 2710SOL     OW 9028   0.838   2.951   4.372
 2710SOL    HW1 9029   0.929   2.985   4.347
 2710SOL    HW2 9030   0.835   2.852   4.358
 2711SOL     OW 9031   4.694   0.838   1.639
 2711SOL    HW1 9032   4.594   0.834   1.634
 2711SOL    HW2 9033   4.733   0.753   1.605
 2712SOL     OW 9034   4.994   6.292   1.705
 2712SOL    HW1 9035   5.047   6.372   1.732
 2712SOL    HW2 9036   4.940   6.313   1.623
 2713SOL     OW 9037   3.631   5.031   5.574
 2713SOL    HW1 9038   3.581   5.111   5.609
 2713SOL    HW2 9039   3.652   4.969   5.649
 2714SOL     OW 9040   3.039   4.192   5.931
 2714SOL    HW1 9041   3.088   4.121   5.983
 2714SOL    HW2 9042   2.951   4.209   5.974
 2715SOL     OW 9043   4.431   6.382   0.433
 2715SOL    HW1 9044   4.463   6.358   0.525
 2715SOL    HW2 9045   4.344   6.337   0.415
 2716SOL     OW 9046   4.469   1.384   2.356
 2716SOL    HW1 9047   4.465   1.394   2.257
 2716SOL    HW2 9048   4.547   1.435   2.392
 2717SOL     OW 9049   1.064   2.192   2.663
 2717SOL    HW1 9050   1.108   2.247   2.734
 2717SOL    HW2 9051   1.124   2.187   2.583
 2718SOL     OW 9052   6.602   1.564   6.030
 2718SOL    HW1 9053   6.606   1.639   6.095
 2718SOL    HW2 9054   6.690   1.557   5.982
 2719SOL     OW 9055   0.842   4.989   3.603
 2719SOL    HW1 9056   0.770   4.993   3.534
 2719SOL    HW2 9057   0.809   5.030   3.689
 2720SOL     OW 9058   2.030   4.980   6.297
 2720SOL    HW1 9059   2.094   5.055   6.279
 2720SOL    HW2 9060   1.969   5.006   6.372
 2721SOL     OW 9061   2.072   6.294   3.764
 2721SOL    HW1 9062   2.061   6.337   3.853
 2721SOL    HW2 9063   2.062   6.363   3.692
 2722SOL     OW 9064   3.421   4.178   6.688
 2722SOL    HW1 9065   3.349   4.196   6.621
 2722SOL    HW2 9066   3.379   4.162   6.778
 2723SOL     OW 9067   3.893   5.529   6.855
 2723SOL    HW1 9068   3.906   5.454   6.791
 2723SOL    HW2 9069   3.973   5.538   6.914
 2724SOL     OW 9070   6.535   5.683   0.935
 2724SOL    HW1 9071   6.440   5.712   0.936
 2724SOL    HW2 9072   6.573   5.697   0.843
 2725SOL     OW 9073   6.204   4.961   3.112
 2725SOL    HW1 9074   6.164   5.052   3.112
 2725SOL    HW2 9075   6.173   4.910   3.192
 2726SOL     OW 9076   6.272   2.225   3.011
 2726SOL    HW1 9077   6.225   2.304   3.051
 2726SOL    HW2 9078   6.281   2.239   2.912
 2727SOL     OW 9079   1.448   5.072   4.123
 2727SOL    HW1 9080   1.382   5.012   4.077
 2727SOL    HW2 9081   1.499   5.124   4.055
 2728SOL     OW 9082   5.140   5.368   5.830
 2728SOL    HW1 9083   5.043   5.348   5.840
 2728SOL    HW2 9084   5.175   5.323   5.749
 2729SOL     OW 9085   0.297   0.069   0.331
 2729SOL    HW1 9086   0.370   0.065   0.262
 2729SOL    HW2 9087   0.309   0.150   0.388
 2730SOL     OW 9088   1.423   5.564   3.200
 2730SOL    HW1 9089   1.485   5.592   3.127
 2730SOL    HW2 9090   1.329   5.564   3.165
 2731SOL     OW 9091   3.984   3.722   5.077
 2731SOL    HW1 9092   3.930   3.787   5.132
 2731SOL    HW2 9093   4.069   3.702   5.124
 2732SOL     OW 9094   4.450   0.698   1.989
 2732SOL    HW1 9095   4.393   0.721   2.068
 2732SOL    HW2 9096   4.518   0.769   1.976
 2733SOL     OW 9097   1.015   0.309   0.701
 2733SOL    HW1 9098   1.065   0.225   0.680
 2733SOL    HW2 9099   1.058   0.386   0.653
 2734SOL     OW 9100   3.125   0.277   1.959
 2734SOL    HW1 9101   3.207   0.222   1.970
 2734SOL    HW2 9102   3.114   0.302   1.863
 2735SOL     OW 9103   1.491   2.563   2.894
 2735SOL    HW1 9104   1.441   2.630   2.839
 2735SOL    HW2 9105   1.491   2.591   2.990
 2736SOL     OW 9106   5.563   4.774   3.015
 2736SOL    HW1 9107   5.621   4.845   3.055
 2736SOL    HW2 9108   5.480   4.763   3.069
 2737SOL     OW 9109   2.591   0.254   6.095
 2737SOL    HW1 9110   2.625   0.161   6.083
 2737SOL    HW2 9111   2.513   0.253   6.158
 2738SOL     OW 9112   5.232   6.321   1.009
 2738SOL    HW1 9113   5.190   6.343   0.921
 2738SOL    HW2 9114   5.272   6.229   1.006
 2739SOL     OW 9115   0.567   5.091   1.738
 2739SOL    HW1 9116   0.529   5.012   1.786
 2739SOL    HW2 9117   0.497   5.162   1.731
 2740SOL     OW 9118   6.745   5.391   4.655
 2740SOL    HW1 9119   6.834   5.410   4.696
 2740SOL    HW2 9120   6.694   5.327   4.712
 2741SOL     OW 9121   0.974   6.996   6.630
 2741SOL    HW1 9122   1.065   6.969   6.659
 2741SOL    HW2 9123   0.981   0.037   6.551
 2742SOL     OW 9124   2.796   4.998   2.619
 2742SOL    HW1 9125   2.787   4.913   2.567
 2742SOL    HW2 9126   2.782   5.076   2.558
 2743SOL     OW 9127   5.704   1.827   2.544
 2743SOL    HW1 9128   5.726   1.796   2.636
 2743SOL    HW2 9129   5.684   1.749   2.485
 2744SOL     OW 9130   3.027   3.862   2.646
 2744SOL    HW1 9131   3.116   3.873   2.600
 2744SOL    HW2 9132   2.959   3.920   2.601
 2745SOL     OW 9133   0.498   6.201   0.110
 2745SOL    HW1 9134   0.497   6.103   0.126
 2745SOL    HW2 9135   0.407   6.230   0.077
 2746SOL     OW 9136   1.325   0.742   4.611
 2746SOL    HW1 9137   1.236   0.774   4.641
 2746SOL    HW2 9138   1.339   0.647   4.642
 2747SOL     OW 9139   4.645   4.601   0.308
 2747SOL    HW1 9140   4.673   4.671   0.373
 2747SOL    HW2 9141   4.725   4.548   0.279
 2748SOL     OW 9142   4.056   0.881   0.713
 2748SOL    HW1 9143   3.966   0.845   0.739
 2748SOL    HW2 9144   4.047   0.932   0.628
 2749SOL     OW 9145   3.649   1.210   0.397
 2749SOL    HW1 9146   3.598   1.127   0.416
 2749SOL    HW2 9147   3.747   1.193   0.410
 2750SOL     OW 9148   2.188   5.904   2.360
 2750SOL    HW1 9149   2.137   5.986   2.385
 2750SOL    HW2 9150   2.247   5.924   2.282
 2751SOL     OW 9151   6.305   4.904   1.149
 2751SOL    HW1 9152   6.272   4.982   1.201
 2751SOL    HW2 9153   6.405   4.912   1.138
 2752SOL     OW 9154   4.147   5.096   6.160
 2752SOL    HW1 9155   4.209   5.025   6.193
 2752SOL    HW2 9156   4.145   5.172   6.224
 2753SOL     OW 9157   5.167   4.820   5.647
 2753SOL    HW1 9158   5.136   4.911   5.619
 2753SOL    HW2 9159   5.248   4.829   5.705
 2754SOL     OW 9160   1.303   0.513   4.751
 2754SOL    HW1 9161   1.314   0.567   4.835
 2754SOL    HW2 9162   1.345   0.423   4.764
 2755SOL     OW 9163   3.213   0.079   2.170
 2755SOL    HW1 9164   3.238   0.032   2.085
 2755SOL    HW2 9165   3.295   0.087   2.228
 2756SOL     OW 9166   4.716   5.489   6.824
 2756SOL    HW1 9167   4.618   5.473   6.826
 2756SOL    HW2 9168   4.750   5.482   6.730
 2757SOL     OW 9169   0.630   4.717   0.609
 2757SOL    HW1 9170   0.659   4.624   0.630
 2757SOL    HW2 9171   0.683   4.782   0.664
 2758SOL     OW 9172   4.327   0.545   5.845
 2758SOL    HW1 9173   4.290   0.497   5.924
 2758SOL    HW2 9174   4.255   0.595   5.798
 2759SOL     OW 9175   4.688   5.136   3.794
 2759SOL    HW1 9176   4.768   5.098   3.840
 2759SOL    HW2 9177   4.621   5.064   3.778
 2760SOL     OW 9178   0.679   5.895   3.216
 2760SOL    HW1 9179   0.778   5.897   3.223
 2760SOL    HW2 9180   0.647   5.978   3.170
 2761SOL     OW 9181   2.278   5.123   4.415
 2761SOL    HW1 9182   2.320   5.196   4.468
 2761SOL    HW2 9183   2.204   5.160   4.359
 2762SOL     OW 9184   1.772   1.505   5.646
 2762SOL    HW1 9185   1.850   1.549   5.602
 2762SOL    HW2 9186   1.706   1.476   5.576
 2763SOL     OW 9187   5.533   0.479   2.333
 2763SOL    HW1 9188   5.473   0.545   2.287
 2763SOL    HW2 9189   5.494   0.387   2.325
 2764SOL     OW 9190   6.433   0.985   2.016
 2764SOL    HW1 9191   6.520   1.033   2.009
 2764SOL    HW2 9192   6.431   0.934   2.102
 2765SOL     OW 9193   5.337   1.818   2.930
 2765SOL    HW1 9194   5.300   1.810   2.837
 2765SOL    HW2 9195   5.290   1.891   2.979
 2766SOL     OW 9196   5.455   6.922   2.960
 2766SOL    HW1 9197   5.359   6.909   2.982
 2766SOL    HW2 9198   5.464   6.982   2.880
 2767SOL     OW 9199   6.437   4.230   5.554
 2767SOL    HW1 9200   6.444   4.226   5.654
 2767SOL    HW2 9201   6.370   4.162   5.523
 2768SOL     OW 9202   5.931   1.040   6.527
 2768SOL    HW1 9203   6.004   1.018   6.593
 2768SOL    HW2 9204   5.859   1.092   6.573
 2769SOL     OW 9205   0.668   4.108   0.767
 2769SOL    HW1 9206   0.581   4.070   0.800
 2769SOL    HW2 9207   0.724   4.135   0.846
 2770SOL     OW 9208   4.785   5.914   2.412
 2770SOL    HW1 9209   4.863   5.870   2.457
 2770SOL    HW2 9210   4.792   5.900   2.313
 2771SOL     OW 9211   4.544   0.306   1.361
 2771SOL    HW1 9212   4.534   0.381   1.296
 2771SOL    HW2 9213   4.497   0.328   1.446
 2772SOL     OW 9214   3.267   1.173   6.664
 2772SOL    HW1 9215   3.330   1.200   6.592
 2772SOL    HW2 9216   3.273   1.237   6.740
 2773SOL     OW 9217   2.912   4.195   1.421
 2773SOL    HW1 9218   2.898   4.245   1.506
 2773SOL    HW2 9219   2.927   4.099   1.441
 2774SOL     OW 9220   4.952   3.167   1.949
 2774SOL    HW1 9221   4.975   3.240   2.014
 2774SOL    HW2 9222   4.871   3.118   1.981
 2775SOL     OW 9223   0.087   0.437   2.558
 2775SOL    HW1 9224   7.020   0.476   2.583
 2775SOL    HW2 9225   0.076   0.379   2.476
 2776SOL     OW 9226   2.531   6.423   0.290
 2776SOL    HW1 9227   2.630   6.410   0.296
 2776SOL    HW2 9228   2.511   6.521   0.279
 2777SOL     OW 9229   1.453   2.430   4.528
 2777SOL    HW1 9230   1.355   2.413   4.518
 2777SOL    HW2 9231   1.475   2.438   4.626
 2778SOL     OW 9232   2.710   2.315   5.182
 2778SOL    HW1 9233   2.788   2.377   5.194
 2778SOL    HW2 9234   2.698   2.294   5.086
 2779SOL     OW 9235   6.464   1.300   0.977
 2779SOL    HW1 9236   6.413   1.220   0.944
 2779SOL    HW2 9237   6.430   1.382   0.932
 2780SOL     OW 9238   3.533   5.979   0.019
 2780SOL    HW1 9239   3.533   5.880   0.034
 2780SOL    HW2 9240   3.439   6.013   0.019
 2781SOL     OW 9241   5.117   3.919   6.265
 2781SOL    HW1 9242   5.024   3.886   6.277
 2781SOL    HW2 9243   5.166   3.913   6.352
 2782SOL     OW 9244   3.641   1.088   5.632
 2782SOL    HW1 9245   3.626   1.186   5.643
 2782SOL    HW2 9246   3.564   1.038   5.671
 2783SOL     OW 9247   0.608   3.875   5.825
 2783SOL    HW1 9248   0.537   3.886   5.755
 2783SOL    HW2 9249   0.570   3.826   5.904
 2784SOL     OW 9250   2.546   2.195   1.418
 2784SOL    HW1 9251   2.564   2.252   1.499
 2784SOL    HW2 9252   2.454   2.214   1.384
 2785SOL     OW 9253   6.088   1.935   2.066
 2785SOL    HW1 9254   6.116   1.850   2.020
 2785SOL    HW2 9255   5.998   1.922   2.108
 2786SOL     OW 9256   3.801   0.335   0.508
 2786SOL    HW1 9257   3.740   0.278   0.563
 2786SOL    HW2 9258   3.750   0.414   0.473
 2787SOL     OW 9259   2.053   3.891   6.053
 2787SOL    HW1 9260   2.056   3.937   5.965
 2787SOL    HW2 9261   1.959   3.863   6.073
 2788SOL     OW 9262   0.964   3.295   0.203
 2788SOL    HW1 9263   1.044   3.337   0.162
 2788SOL    HW2 9264   0.971   3.196   0.195
 2789SOL     OW 9265   0.243   3.046   3.828
 2789SOL    HW1 9266   0.322   3.064   3.887
 2789SOL    HW2 9267   0.265   2.970   3.767
 2790SOL     OW 9268   3.760   6.214   4.087
 2790SOL    HW1 9269   3.825   6.269   4.036
 2790SOL    HW2 9270   3.682   6.192   4.028
 2791SOL     OW 9271   1.638   3.669   2.496
 2791SOL    HW1 9272   1.699   3.715   2.560
 2791SOL    HW2 9273   1.612   3.733   2.423
 2792SOL     OW 9274   0.796   2.037   5.533
 2792SOL    HW1 9275   0.818   2.103   5.605
 2792SOL    HW2 9276   0.872   1.974   5.520
 2793SOL     OW 9277   4.724   0.747   4.468
 2793SOL    HW1 9278   4.823   0.759   4.456
 2793SOL    HW2 9279   4.703   0.746   4.565
 2794SOL     OW 9280   0.493   1.664   2.161
 2794SOL    HW1 9281   0.554   1.736   2.194
 2794SOL    HW2 9282   0.538   1.575   2.173
 2795SOL     OW 9283   0.734   3.762   1.229
 2795SOL    HW1 9284   0.816   3.818   1.223
 2795SOL    HW2 9285   0.674   3.782   1.151
 2796SOL     OW 9286   4.559   4.551   2.542
 2796SOL    HW1 9287   4.578   4.503   2.628
 2796SOL    HW2 9288   4.522   4.642   2.563
 2797SOL     OW 9289   4.613   4.030   5.429
 2797SOL    HW1 9290   4.543   3.993   5.368
 2797SOL    HW2 9291   4.569   4.082   5.502
 2798SOL     OW 9292   1.739   4.029   3.208
 2798SOL    HW1 9293   1.808   3.959   3.188
 2798SOL    HW2 9294   1.697   4.011   3.297
 2799SOL     OW 9295   6.844   6.287   6.026
 2799SOL    HW1 9296   6.906   6.277   6.104
 2799SOL    HW2 9297   6.887   6.250   5.944
 2800SOL     OW 9298   2.694   0.832   6.346
 2800SOL    HW1 9299   2.715   0.844   6.443
 2800SOL    HW2 9300   2.712   0.737   6.320
 2801SOL     OW 9301   3.976   5.024   2.112
 2801SOL    HW1 9302   3.981   5.110   2.164
 2801SOL    HW2 9303   3.881   4.994   2.106
 2802SOL     OW 9304   6.646   0.378   6.134
 2802SOL    HW1 9305   6.733   0.347   6.171
 2802SOL    HW2 9306   6.621   0.322   6.055
 2803SOL     OW 9307   3.155   5.909   5.053
 2803SOL    HW1 9308   3.099   5.990   5.071
 2803SOL    HW2 9309   3.190   5.913   4.960
 2804SOL     OW 9310   0.631   4.828   2.334
 2804SOL    HW1 9311   0.622   4.896   2.261
 2804SOL    HW2 9312   0.659   4.740   2.294
 2805SOL     OW 9313   6.330   4.107   6.609
 2805SOL    HW1 9314   6.384   4.033   6.570
 2805SOL    HW2 9315   6.252   4.126   6.549
 2806SOL     OW 9316   6.464   5.790   2.434
 2806SOL    HW1 9317   6.517   5.816   2.353
 2806SOL    HW2 9318   6.511   5.820   2.516
 2807SOL     OW 9319   4.080   4.970   3.806
 2807SOL    HW1 9320   3.996   4.990   3.857
 2807SOL    HW2 9321   4.091   5.037   3.733
 2808SOL     OW 9322   4.580   6.303   4.523
 2808SOL    HW1 9323   4.632   6.386   4.503
 2808SOL    HW2 9324   4.502   6.325   4.582
 2809SOL     OW 9325   5.541   2.252   0.090
 2809SOL    HW1 9326   5.521   2.251   0.188
 2809SOL    HW2 9327   5.576   2.162   0.063
 2810SOL     OW 9328   1.837   1.074   6.652
 2810SOL    HW1 9329   1.760   1.011   6.653
 2810SOL    HW2 9330   1.830   1.136   6.730
 2811SOL     OW 9331   0.278   0.490   3.789
 2811SOL    HW1 9332   0.260   0.578   3.747
 2811SOL    HW2 9333   0.299   0.423   3.718
 2812SOL     OW 9334   4.831   4.609   2.764
 2812SOL    HW1 9335   4.856   4.514   2.783
 2812SOL    HW2 9336   4.850   4.631   2.668
 2813SOL     OW 9337   6.332   1.509   6.038
 2813SOL    HW1 9338   6.310   1.480   6.131
 2813SOL    HW2 9339   6.425   1.547   6.036
 2814SOL     OW 9340   5.647   4.332   5.025
 2814SOL    HW1 9341   5.611   4.396   5.093
 2814SOL    HW2 9342   5.577   4.264   5.004
 2815SOL     OW 9343   0.842   1.490   4.746
 2815SOL    HW1 9344   0.843   1.390   4.752
 2815SOL    HW2 9345   0.752   1.524   4.773
 2816SOL     OW 9346   4.735   6.454   3.221
 2816SOL    HW1 9347   4.693   6.477   3.133
 2816SOL    HW2 9348   4.748   6.538   3.274
 2817SOL     OW 9349   1.473   1.546   1.263
 2817SOL    HW1 9350   1.568   1.539   1.233
 2817SOL    HW2 9351   1.412   1.533   1.185
 2818SOL     OW 9352   1.489   2.605   0.062
 2818SOL    HW1 9353   1.562   2.656   0.016
 2818SOL    HW2 9354   1.423   2.574   7.015
 2819SOL     OW 9355   6.455   2.868   1.548
 2819SOL    HW1 9356   6.480   2.950   1.496
 2819SOL    HW2 9357   6.379   2.889   1.609
 2820SOL     OW 9358   4.946   2.464   3.960
 2820SOL    HW1 9359   4.921   2.497   3.869
 2820SOL    HW2 9360   4.863   2.435   4.009
 2821SOL     OW 9361   1.316   3.033   3.209
 2821SOL    HW1 9362   1.396   2.982   3.243
 2821SOL    HW2 9363   1.347   3.106   3.148
 2822SOL     OW 9364   3.089   1.803   0.410
 2822SOL    HW1 9365   3.122   1.740   0.481
 2822SOL    HW2 9366   3.000   1.840   0.437
 2823SOL     OW 9367   1.664   0.046   4.073
 2823SOL    HW1 9368   1.567   0.068   4.059
 2823SOL    HW2 9369   1.705   0.114   4.135
 2824SOL     OW 9370   3.095   1.932   5.512
 2824SOL    HW1 9371   2.999   1.905   5.504
 2824SOL    HW2 9372   3.118   1.997   5.440
 2825SOL     OW 9373   6.258   6.152   0.988
 2825SOL    HW1 9374   6.325   6.116   0.922
 2825SOL    HW2 9375   6.169   6.111   0.971
 2826SOL     OW 9376   4.851   3.758   4.076
 2826SOL    HW1 9377   4.823   3.713   4.161
 2826SOL    HW2 9378   4.770   3.786   4.025
 2827SOL     OW 9379   0.100   0.082   6.251
 2827SOL    HW1 9380   0.056   7.013   6.258
 2827SOL    HW2 9381   0.135   0.096   6.159
 2828SOL     OW 9382   3.699   1.942   6.212
 2828SOL    HW1 9383   3.627   1.933   6.281
 2828SOL    HW2 9384   3.705   2.038   6.183
 2829SOL     OW 9385   3.002   0.708   6.774
 2829SOL    HW1 9386   3.026   0.656   6.693
 2829SOL    HW2 9387   3.035   0.802   6.764
 2830SOL     OW 9388   3.283   3.586   6.744
 2830SOL    HW1 9389   3.264   3.684   6.743
 2830SOL    HW2 9390   3.199   3.536   6.765
 2831SOL     OW 9391   6.613   6.553   3.990
 2831SOL    HW1 9392   6.655   6.643   3.983
 2831SOL    HW2 9393   6.587   6.522   3.898
 2832SOL     OW 9394   0.240   0.928   2.024
 2832SOL    HW1 9395   0.281   0.910   2.113
 2832SOL    HW2 9396   0.312   0.948   1.958
 2833SOL     OW 9397   6.595   3.291   2.198
 2833SOL    HW1 9398   6.671   3.268   2.258
 2833SOL    HW2 9399   6.551   3.375   2.230
 2834SOL     OW 9400   4.361   0.879   5.221
 2834SOL    HW1 9401   4.283   0.819   5.238
 2834SOL    HW2 9402   4.441   0.824   5.196
 2835SOL     OW 9403   6.406   6.461   3.768
 2835SOL    HW1 9404   6.397   6.365   3.795
 2835SOL    HW2 9405   6.477   6.469   3.698
 2836SOL     OW 9406   6.569   0.332   0.849
 2836SOL    HW1 9407   6.489   0.385   0.822
 2836SOL    HW2 9408   6.541   0.236   0.863
 2837SOL     OW 9409   5.860   2.930   3.643
 2837SOL    HW1 9410   5.819   2.930   3.734
 2837SOL    HW2 9411   5.789   2.911   3.574
 2838SOL     OW 9412   1.686   4.282   4.396
 2838SOL    HW1 9413   1.620   4.313   4.464
 2838SOL    HW2 9414   1.638   4.230   4.325
 2839SOL     OW 9415   4.876   3.084   0.494
 2839SOL    HW1 9416   4.960   3.133   0.469
 2839SOL    HW2 9417   4.809   3.149   0.530
 2840SOL     OW 9418   6.586   2.792   5.007
 2840SOL    HW1 9419   6.500   2.837   4.981
 2840SOL    HW2 9420   6.663   2.852   4.984
 2841SOL     OW 9421   0.295   5.978   0.398
 2841SOL    HW1 9422   0.227   5.987   0.470
 2841SOL    HW2 9423   0.288   6.055   0.336
 2842SOL     OW 9424   6.015   3.696   3.057
 2842SOL    HW1 9425   5.967   3.625   3.109
 2842SOL    HW2 9426   5.958   3.727   2.981
 2843SOL     OW 9427   4.106   1.095   4.060
 2843SOL    HW1 9428   4.171   1.149   4.007
 2843SOL    HW2 9429   4.013   1.108   4.024
 2844SOL     OW 9430   1.399   3.987   5.375
 2844SOL    HW1 9431   1.492   4.021   5.357
 2844SOL    HW2 9432   1.367   4.025   5.462
 2845SOL     OW 9433   0.222   3.850   6.140
 2845SOL    HW1 9434   0.258   3.837   6.232
 2845SOL    HW2 9435   0.297   3.849   6.074
 2846SOL     OW 9436   5.621   1.133   5.911
 2846SOL    HW1 9437   5.624   1.115   5.812
 2846SOL    HW2 9438   5.529   1.116   5.945
 2847SOL     OW 9439   4.451   4.954   4.338
 2847SOL    HW1 9440   4.474   4.936   4.434
 2847SOL    HW2 9441   4.458   5.052   4.320
 2848SOL     OW 9442   2.090   6.984   5.377
 2848SOL    HW1 9443   2.101   6.968   5.475
 2848SOL    HW2 9444   2.130   6.907   5.326
 2849SOL     OW 9445   2.168   3.066   1.877
 2849SOL    HW1 9446   2.144   3.089   1.971
 2849SOL    HW2 9447   2.121   2.982   1.850
 2850SOL     OW 9448   4.215   1.430   0.877
 2850SOL    HW1 9449   4.232   1.459   0.782
 2850SOL    HW2 9450   4.302   1.424   0.926
 2851SOL     OW 9451   2.837   5.753   5.751
 2851SOL    HW1 9452   2.751   5.791   5.785
 2851SOL    HW2 9453   2.859   5.796   5.663
 2852SOL     OW 9454   0.578   2.260   6.878
 2852SOL    HW1 9455   0.567   2.356   6.849
 2852SOL    HW2 9456   0.618   2.258   6.970
 2853SOL     OW 9457   3.490   2.430   1.516
 2853SOL    HW1 9458   3.408   2.471   1.476
 2853SOL    HW2 9459   3.507   2.472   1.605
 2854SOL     OW 9460   0.468   0.954   3.488
 2854SOL    HW1 9461   0.396   0.914   3.545
 2854SOL    HW2 9462   0.514   1.026   3.539
 2855SOL     OW 9463   3.396   1.596   4.378
 2855SOL    HW1 9464   3.485   1.552   4.370
 2855SOL    HW2 9465   3.370   1.601   4.475
 2856SOL     OW 9466   2.682   1.290   5.636
 2856SOL    HW1 9467   2.673   1.197   5.673
 2856SOL    HW2 9468   2.600   1.342   5.657
 2857SOL     OW 9469   3.139   3.067   3.486
 2857SOL    HW1 9470   3.126   3.001   3.561
 2857SOL    HW2 9471   3.156   3.017   3.401
 2858SOL     OW 9472   5.649   2.613   2.987
 2858SOL    HW1 9473   5.677   2.517   2.995
 2858SOL    HW2 9474   5.636   2.636   2.890
 2859SOL     OW 9475   5.402   5.935   0.038
 2859SOL    HW1 9476   5.489   5.984   0.042
 2859SOL    HW2 9477   5.399   5.866   0.110
 2860SOL     OW 9478   4.297   2.283   0.747
 2860SOL    HW1 9479   4.306   2.323   0.839
 2860SOL    HW2 9480   4.250   2.195   0.755
 2861SOL     OW 9481   4.320   4.806   6.226
 2861SOL    HW1 9482   4.393   4.819   6.292
 2861SOL    HW2 9483   4.241   4.763   6.271
 2862SOL     OW 9484   6.537   0.288   3.634
 2862SOL    HW1 9485   6.482   0.332   3.563
 2862SOL    HW2 9486   6.634   0.296   3.610
 2863SOL     OW 9487   6.563   0.199   6.817
 2863SOL    HW1 9488   6.562   0.233   6.723
 2863SOL    HW2 9489   6.483   0.141   6.833
 2864SOL     OW 9490   3.759   2.058   0.754
 2864SOL    HW1 9491   3.797   2.109   0.677
 2864SOL    HW2 9492   3.833   2.019   0.809
 2865SOL     OW 9493   4.945   4.990   5.059
 2865SOL    HW1 9494   4.979   4.905   5.018
 2865SOL    HW2 9495   4.919   5.054   4.987
 2866SOL     OW 9496   0.902   6.856   6.293
 2866SOL    HW1 9497   0.854   6.776   6.257
 2866SOL    HW2 9498   0.981   6.827   6.346
 2867SOL     OW 9499   6.792   4.334   4.203
 2867SOL    HW1 9500   6.772   4.328   4.301
 2867SOL    HW2 9501   6.718   4.384   4.158
 2868SOL     OW 9502   1.678   4.741   4.831
 2868SOL    HW1 9503   1.668   4.771   4.736
 2868SOL    HW2 9504   1.634   4.652   4.842
 2869SOL     OW 9505   6.139   1.515   2.069
 2869SOL    HW1 9506   6.192   1.433   2.050
 2869SOL    HW2 9507   6.092   1.505   2.157
 2870SOL     OW 9508   4.047   2.194   2.333
 2870SOL    HW1 9509   4.007   2.129   2.268
 2870SOL    HW2 9510   3.975   2.251   2.371
 2871SOL     OW 9511   1.225   1.551   5.966
 2871SOL    HW1 9512   1.166   1.560   6.047
 2871SOL    HW2 9513   1.223   1.636   5.914
 2872SOL     OW 9514   2.102   0.468   3.838
 2872SOL    HW1 9515   2.083   0.376   3.804
 2872SOL    HW2 9516   2.153   0.519   3.768
 2873SOL     OW 9517   6.292   5.724   1.875
 2873SOL    HW1 9518   6.327   5.632   1.889
 2873SOL    HW2 9519   6.267   5.737   1.779
 2874SOL     OW 9520   5.592   2.358   1.969
 2874SOL    HW1 9521   5.530   2.408   1.907
 2874SOL    HW2 9522   5.552   2.269   1.990
 2875SOL     OW 9523   3.107   4.790   0.804
 2875SOL    HW1 9524   3.021   4.779   0.854
 2875SOL    HW2 9525   3.095   4.759   0.709
 2876SOL     OW 9526   5.930   2.429   1.998
 2876SOL    HW1 9527   6.013   2.386   2.033
 2876SOL    HW2 9528   5.856   2.415   2.064
 2877SOL     OW 9529   1.786   3.481   5.123
 2877SOL    HW1 9530   1.687   3.471   5.134
 2877SOL    HW2 9531   1.827   3.392   5.105
 2878SOL     OW 9532   3.956   4.916   0.495
 2878SOL    HW1 9533   3.882   4.882   0.552
 2878SOL    HW2 9534   3.996   4.840   0.444
 2879SOL     OW 9535   5.020   4.346   6.391
 2879SOL    HW1 9536   5.022   4.325   6.488
 2879SOL    HW2 9537   5.113   4.341   6.353
 2880SOL     OW 9538   1.689   6.474   3.196
 2880SOL    HW1 9539   1.643   6.495   3.281
 2880SOL    HW2 9540   1.649   6.392   3.155
 2881SOL     OW 9541   0.087   0.280   6.806
 2881SOL    HW1 9542   0.051   0.189   6.785
 2881SOL    HW2 9543   0.028   0.324   6.873
 2882SOL     OW 9544   6.761   3.479   3.228
 2882SOL    HW1 9545   6.842   3.439   3.185
 2882SOL    HW2 9546   6.729   3.419   3.301
 2883SOL     OW 9547   3.969   6.106   2.127
 2883SOL    HW1 9548   4.001   6.040   2.195
 2883SOL    HW2 9549   4.048   6.144   2.078
 2884SOL     OW 9550   2.010   5.331   3.049
 2884SOL    HW1 9551   2.061   5.246   3.036
 2884SOL    HW2 9552   2.002   5.351   3.146
 2885SOL     OW 9553   0.934   2.290   4.513
 2885SOL    HW1 9554   0.915   2.195   4.538
 2885SOL    HW2 9555   0.849   2.336   4.491
 2886SOL     OW 9556   2.720   2.914   6.290
 2886SOL    HW1 9557   2.811   2.949   6.314
 2886SOL    HW2 9558   2.716   2.816   6.307
 2887SOL     OW 9559   2.814   1.533   4.906
 2887SOL    HW1 9560   2.910   1.526   4.876
 2887SOL    HW2 9561   2.780   1.625   4.887
 2888SOL     OW 9562   0.034   5.173   6.936
 2888SOL    HW1 9563   0.029   5.141   6.841
 2888SOL    HW2 9564   0.106   5.241   6.945
 2889SOL     OW 9565   1.281   0.596   0.833
 2889SOL    HW1 9566   1.226   0.668   0.874
 2889SOL    HW2 9567   1.376   0.606   0.862
 2890SOL     OW 9568   2.791   0.444   0.642
 2890SOL    HW1 9569   2.805   0.410   0.735
 2890SOL    HW2 9570   2.750   0.372   0.586
 2891SOL     OW 9571   3.020   4.849   4.890
 2891SOL    HW1 9572   2.977   4.905   4.820
 2891SOL    HW2 9573   2.961   4.771   4.911
 2892SOL     OW 9574   4.061   4.284   5.272
 2892SOL    HW1 9575   4.139   4.305   5.213
 2892SOL    HW2 9576   4.007   4.210   5.231
 2893SOL     OW 9577   3.179   0.623   5.850
 2893SOL    HW1 9578   3.208   0.711   5.889
 2893SOL    HW2 9579   3.256   0.581   5.803
 2894SOL     OW 9580   4.109   3.084   1.506
 2894SOL    HW1 9581   4.198   3.119   1.535
 2894SOL    HW2 9582   4.102   2.987   1.527
 2895SOL     OW 9583   3.707   3.405   0.278
 2895SOL    HW1 9584   3.633   3.338   0.274
 2895SOL    HW2 9585   3.750   3.402   0.368
 2896SOL     OW 9586   1.525   4.785   0.037
 2896SOL    HW1 9587   1.507   4.787   6.959
 2896SOL    HW2 9588   1.579   4.865   0.062
 2897SOL     OW 9589   1.079   6.811   3.864
 2897SOL    HW1 9590   1.149   6.739   3.860
 2897SOL    HW2 9591   0.997   6.781   3.816
 2898SOL     OW 9592   2.127   5.192   2.731
 2898SOL    HW1 9593   2.030   5.212   2.743
 2898SOL    HW2 9594   2.154   5.115   2.790
 2899SOL     OW 9595   5.757   0.717   0.796
 2899SOL    HW1 9596   5.719   0.772   0.870
 2899SOL    HW2 9597   5.843   0.758   0.765
 2900SOL     OW 9598   3.285   5.334   6.289
 2900SOL    HW1 9599   3.328   5.346   6.200
 2900SOL    HW2 9600   3.284   5.421   6.338
 2901SOL     OW 9601   2.462   6.634   0.998
 2901SOL    HW1 9602   2.487   6.618   0.903
 2901SOL    HW2 9603   2.376   6.588   1.019
 2902SOL     OW 9604   4.861   5.267   0.660
 2902SOL    HW1 9605   4.819   5.302   0.576
 2902SOL    HW2 9606   4.799   5.282   0.737
 2903SOL     OW 9607   2.857   2.606   1.645
 2903SOL    HW1 9608   2.868   2.536   1.715
 2903SOL    HW2 9609   2.770   2.654   1.659
 2904SOL     OW 9610   2.479   2.316   4.597
 2904SOL    HW1 9611   2.574   2.308   4.627
 2904SOL    HW2 9612   2.422   2.253   4.651
 2905SOL     OW 9613   1.176   1.639   2.329
 2905SOL    HW1 9614   1.113   1.688   2.389
 2905SOL    HW2 9615   1.217   1.562   2.378
 2906SOL     OW 9616   5.146   5.249   2.420
 2906SOL    HW1 9617   5.146   5.156   2.457
 2906SOL    HW2 9618   5.240   5.279   2.405
 2907SOL     OW 9619   6.222   0.364   4.781
 2907SOL    HW1 9620   6.219   0.458   4.815
 2907SOL    HW2 9621   6.133   0.340   4.741
 2908SOL     OW 9622   3.546   5.737   4.912
 2908SOL    HW1 9623   3.614   5.672   4.946
 2908SOL    HW2 9624   3.587   5.798   4.844
 2909SOL     OW 9625   2.200   6.128   5.885
 2909SOL    HW1 9626   2.115   6.088   5.921
 2909SOL    HW2 9627   2.278   6.081   5.926
 2910SOL     OW 9628   4.500   5.873   5.681
 2910SOL    HW1 9629   4.501   5.959   5.629
 2910SOL    HW2 9630   4.527   5.798   5.621
 2911SOL     OW 9631   2.565   4.513   3.596
 2911SOL    HW1 9632   2.640   4.464   3.552
 2911SOL    HW2 9633   2.479   4.488   3.552
 2912SOL     OW 9634   3.012   5.344   1.336
 2912SOL    HW1 9635   2.955   5.291   1.399
 2912SOL    HW2 9636   3.037   5.288   1.257
 2913SOL     OW 9637   1.060   3.091   2.375
 2913SOL    HW1 9638   1.127   3.042   2.320
 2913SOL    HW2 9639   1.071   3.067   2.472
 2914SOL     OW 9640   5.350   4.491   5.780
 2914SOL    HW1 9641   5.357   4.590   5.767
 2914SOL    HW2 9642   5.257   4.468   5.807
 2915SOL     OW 9643   4.270   1.643   3.616
 2915SOL    HW1 9644   4.177   1.679   3.610
 2915SOL    HW2 9645   4.333   1.706   3.570
 2916SOL     OW 9646   4.798   7.017   4.878
 2916SOL    HW1 9647   4.892   0.006   4.843
 2916SOL    HW2 9648   4.759   6.932   4.845
 2917SOL     OW 9649   3.962   0.724   2.401
 2917SOL    HW1 9650   3.903   0.796   2.437
 2917SOL    HW2 9651   4.034   0.704   2.468
 2918SOL     OW 9652   1.172   2.678   4.738
 2918SOL    HW1 9653   1.100   2.747   4.736
 2918SOL    HW2 9654   1.149   2.608   4.805
 2919SOL     OW 9655   6.115   5.578   0.694
 2919SOL    HW1 9656   6.056   5.508   0.656
 2919SOL    HW2 9657   6.202   5.537   0.723
 2920SOL     OW 9658   4.486   2.018   2.528
 2920SOL    HW1 9659   4.505   1.920   2.522
 2920SOL    HW2 9660   4.509   2.051   2.619
 2921SOL     OW 9661   0.016   1.302   0.917
 2921SOL    HW1 9662   0.029   1.235   0.845
 2921SOL    HW2 9663   6.968   1.269   0.981
 2922SOL     OW 9664   4.020   6.860   4.753
 2922SOL    HW1 9665   4.105   6.867   4.702
 2922SOL    HW2 9666   3.943   6.884   4.694
 2923SOL     OW 9667   6.904   4.600   6.545
 2923SOL    HW1 9668   6.997   4.580   6.513
 2923SOL    HW2 9669   6.850   4.516   6.546
 2924SOL     OW 9670   6.834   6.968   6.011
 2924SOL    HW1 9671   6.808   0.002   5.931
 2924SOL    HW2 9672   6.854   0.008   6.088
 2925SOL     OW 9673   5.672   3.974   0.745
 2925SOL    HW1 9674   5.709   3.893   0.791
 2925SOL    HW2 9675   5.574   3.980   0.762
 2926SOL     OW 9676   0.361   1.300   3.843
 2926SOL    HW1 9677   0.284   1.243   3.815
 2926SOL    HW2 9678   0.383   1.281   3.939
 2927SOL     OW 9679   0.202   3.376   2.944
 2927SOL    HW1 9680   0.155   3.458   2.911
 2927SOL    HW2 9681   0.301   3.388   2.933
 2928SOL     OW 9682   5.570   5.801   0.414
 2928SOL    HW1 9683   5.602   5.780   0.507
 2928SOL    HW2 9684   5.526   5.890   0.413
 2929SOL     OW 9685   0.872   6.975   5.630
 2929SOL    HW1 9686   0.885   6.919   5.712
 2929SOL    HW2 9687   0.817   0.034   5.653
 2930SOL     OW 9688   2.731   6.878   4.343
 2930SOL    HW1 9689   2.696   6.883   4.437
 2930SOL    HW2 9690   2.760   6.784   4.323
 2931SOL     OW 9691   4.402   4.951   6.577
 2931SOL    HW1 9692   4.381   5.022   6.645
 2931SOL    HW2 9693   4.500   4.930   6.581
 2932SOL     OW 9694   1.606   4.375   1.742
 2932SOL    HW1 9695   1.565   4.369   1.833
 2932SOL    HW2 9696   1.550   4.433   1.683
 2933SOL     OW 9697   5.176   2.285   3.538
 2933SOL    HW1 9698   5.190   2.370   3.487
 2933SOL    HW2 9699   5.232   2.213   3.498
 2934SOL     OW 9700   2.150   1.400   0.847
 2934SOL    HW1 9701   2.059   1.432   0.876
 2934SOL    HW2 9702   2.184   1.333   0.912
 2935SOL     OW 9703   0.041   1.605   0.801
 2935SOL    HW1 9704   7.015   1.576   0.884
 2935SOL    HW2 9705   6.996   1.635   0.733
 2936SOL     OW 9706   3.124   5.324   0.482
 2936SOL    HW1 9707   3.097   5.365   0.395
 2936SOL    HW2 9708   3.132   5.225   0.471
 2937SOL     OW 9709   2.704   4.338   6.999
 2937SOL    HW1 9710   2.709   4.265   6.931
 2937SOL    HW2 9711   2.720   4.300   0.069
 2938SOL     OW 9712   4.806   4.564   6.102
 2938SOL    HW1 9713   4.766   4.511   6.176
 2938SOL    HW2 9714   4.892   4.522   6.073
 2939SOL     OW 9715   0.514   6.490   5.691
 2939SOL    HW1 9716   0.551   6.447   5.774
 2939SOL    HW2 9717   0.432   6.542   5.714
 2940SOL     OW 9718   3.629   0.406   5.363
 2940SOL    HW1 9719   3.637   0.460   5.447
 2940SOL    HW2 9720   3.658   0.312   5.381
 2941SOL     OW 9721   3.705   1.746   4.949
 2941SOL    HW1 9722   3.625   1.693   4.975
 2941SOL    HW2 9723   3.783   1.684   4.936
 2942SOL     OW 9724   3.756   6.355   4.456
 2942SOL    HW1 9725   3.683   6.288   4.440
 2942SOL    HW2 9726   3.817   6.357   4.377
 2943SOL     OW 9727   5.794   4.938   3.079
 2943SOL    HW1 9728   5.835   4.929   2.989
 2943SOL    HW2 9729   5.831   4.867   3.139
 2944SOL     OW 9730   4.415   5.926   6.908
 2944SOL    HW1 9731   4.427   5.828   6.921
 2944SOL    HW2 9732   4.353   5.943   6.831
 2945SOL     OW 9733   3.111   3.911   4.700
 2945SOL    HW1 9734   3.116   3.812   4.693
 2945SOL    HW2 9735   3.154   3.941   4.785
 2946SOL     OW 9736   0.676   6.153   6.061
 2946SOL    HW1 9737   0.700   6.199   6.146
 2946SOL    HW2 9738   0.719   6.201   5.984
 2947SOL     OW 9739   0.086   5.406   0.409
 2947SOL    HW1 9740   0.024   5.483   0.419
 2947SOL    HW2 9741   0.052   5.345   0.338
 2948SOL     OW 9742   5.583   3.496   5.340
 2948SOL    HW1 9743   5.627   3.528   5.423
 2948SOL    HW2 9744   5.493   3.457   5.362
 2949SOL     OW 9745   0.720   6.284   0.687
 2949SOL    HW1 9746   0.705   6.380   0.664
 2949SOL    HW2 9747   0.641   6.230   0.659
 2950SOL     OW 9748   4.921   3.387   4.568
 2950SOL    HW1 9749   5.015   3.366   4.592
 2950SOL    HW2 9750   4.906   3.486   4.574
 2951SOL     OW 9751   5.872   0.319   0.624
 2951SOL    HW1 9752   5.866   0.221   0.605
 2951SOL    HW2 9753   5.960   0.355   0.593
 2952SOL     OW 9754   0.690   3.400   1.760
 2952SOL    HW1 9755   0.787   3.379   1.769
 2952SOL    HW2 9756   0.643   3.375   1.845
 2953SOL     OW 9757   5.869   1.923   2.201
 2953SOL    HW1 9758   5.865   1.835   2.249
 2953SOL    HW2 9759   5.833   1.995   2.261
 2954SOL     OW 9760   5.129   5.530   1.609
 2954SOL    HW1 9761   5.054   5.504   1.549
 2954SOL    HW2 9762   5.216   5.508   1.565
 2955SOL     OW 9763   6.033   2.369   1.032
 2955SOL    HW1 9764   6.035   2.462   1.067
 2955SOL    HW2 9765   5.939   2.334   1.037
 2956SOL     OW 9766   6.082   5.889   3.414
 2956SOL    HW1 9767   6.009   5.958   3.411
 2956SOL    HW2 9768   6.139   5.904   3.494
 2957SOL     OW 9769   1.552   4.575   1.239
 2957SOL    HW1 9770   1.466   4.622   1.222
 2957SOL    HW2 9771   1.547   4.526   1.326
 2958SOL     OW 9772   2.762   5.392   6.312
 2958SOL    HW1 9773   2.715   5.361   6.394
 2958SOL    HW2 9774   2.847   5.341   6.300
 2959SOL     OW 9775   3.645   5.203   0.214
 2959SOL    HW1 9776   3.738   5.225   0.243
 2959SOL    HW2 9777   3.607   5.133   0.274
 2960SOL     OW 9778   3.053   1.658   6.761
 2960SOL    HW1 9779   3.045   1.576   6.818
 2960SOL    HW2 9780   3.148   1.689   6.761
 2961SOL     OW 9781   5.921   1.670   4.253
 2961SOL    HW1 9782   5.878   1.674   4.163
 2961SOL    HW2 9783   5.999   1.732   4.256
 2962SOL     OW 9784   4.206   0.332   3.061
 2962SOL    HW1 9785   4.146   0.326   2.981
 2962SOL    HW2 9786   4.290   0.381   3.036
 2963SOL     OW 9787   1.915   3.411   4.649
 2963SOL    HW1 9788   1.975   3.481   4.612
 2963SOL    HW2 9789   1.864   3.449   4.727
 2964SOL     OW 9790   2.958   6.054   0.527
 2964SOL    HW1 9791   2.866   6.013   0.530
 2964SOL    HW2 9792   3.015   6.012   0.597
 2965SOL     OW 9793   0.730   2.710   6.141
 2965SOL    HW1 9794   0.636   2.726   6.170
 2965SOL    HW2 9795   0.753   2.613   6.156
 2966SOL     OW 9796   5.040   4.837   3.714
 2966SOL    HW1 9797   5.114   4.882   3.666
 2966SOL    HW2 9798   4.992   4.776   3.651
 2967SOL     OW 9799   5.704   2.999   3.885
 2967SOL    HW1 9800   5.749   3.001   3.974
 2967SOL    HW2 9801   5.716   3.087   3.840
 2968SOL     OW 9802   6.470   3.782   3.568
 2968SOL    HW1 9803   6.557   3.831   3.571
 2968SOL    HW2 9804   6.453   3.751   3.474
 2969SOL     OW 9805   3.654   1.728   4.663
 2969SOL    HW1 9806   3.601   1.791   4.606
 2969SOL    HW2 9807   3.651   1.759   4.758
 2970SOL     OW 9808   1.312   4.078   5.971
 2970SOL    HW1 9809   1.406   4.091   5.940
 2970SOL    HW2 9810   1.263   4.164   5.967
 2971SOL     OW 9811   5.416   3.672   2.586
 2971SOL    HW1 9812   5.420   3.729   2.668
 2971SOL    HW2 9813   5.337   3.699   2.531
 2972SOL     OW 9814   0.839   4.256   5.164
 2972SOL    HW1 9815   0.931   4.292   5.145
 2972SOL    HW2 9816   0.840   4.157   5.155
 2973SOL     OW 9817   5.799   0.023   4.068
 2973SOL    HW1 9818   5.899   0.025   4.061
 2973SOL    HW2 9819   5.759   0.036   3.978
 2974SOL     OW 9820   6.942   4.505   1.555
 2974SOL    HW1 9821   6.988   4.430   1.604
 2974SOL    HW2 9822   6.915   4.576   1.621
 2975SOL     OW 9823   6.670   1.463   4.338
 2975SOL    HW1 9824   6.664   1.391   4.269
 2975SOL    HW2 9825   6.685   1.551   4.294
 2976SOL     OW 9826   2.506   5.925   1.453
 2976SOL    HW1 9827   2.588   5.873   1.432
 2976SOL    HW2 9828   2.522   5.983   1.533
 2977SOL     OW 9829   3.067   6.635   3.845
 2977SOL    HW1 9830   3.011   6.574   3.902
 2977SOL    HW2 9831   3.049   6.616   3.749
 2978SOL     OW 9832   3.052   0.009   6.425
 2978SOL    HW1 9833   2.969   0.064   6.421
 2978SOL    HW2 9834   3.039   6.954   6.489
 2979SOL     OW 9835   3.022   1.219   3.055
 2979SOL    HW1 9836   3.012   1.214   2.955
 2979SOL    HW2 9837   2.967   1.147   3.097
 2980SOL     OW 9838   6.033   6.744   3.500
 2980SOL    HW1 9839   5.973   6.766   3.577
 2980SOL    HW2 9840   6.124   6.723   3.535
 2981SOL     OW 9841   2.105   1.403   6.233
 2981SOL    HW1 9842   2.152   1.475   6.283
 2981SOL    HW2 9843   2.044   1.443   6.165
 2982SOL     OW 9844   4.633   5.685   1.992
 2982SOL    HW1 9845   4.583   5.641   1.916
 2982SOL    HW2 9846   4.722   5.640   2.003
 2983SOL     OW 9847   6.820   0.839   2.649
 2983SOL    HW1 9848   6.806   0.773   2.723
 2983SOL    HW2 9849   6.914   0.831   2.615
 2984SOL     OW 9850   5.897   4.661   1.698
 2984SOL    HW1 9851   5.881   4.668   1.600
 2984SOL    HW2 9852   5.819   4.698   1.748
 2985SOL     OW 9853   6.814   2.607   3.131
 2985SOL    HW1 9854   6.715   2.603   3.141
 2985SOL    HW2 9855   6.844   2.538   3.065
 2986SOL     OW 9856   2.187   3.461   5.117
 2986SOL    HW1 9857   2.228   3.414   5.196
 2986SOL    HW2 9858   2.137   3.541   5.149
 2987SOL     OW 9859   5.150   1.705   4.948
 2987SOL    HW1 9860   5.191   1.741   5.032
 2987SOL    HW2 9861   5.198   1.743   4.869
 2988SOL     OW 9862   1.066   0.030   2.352
 2988SOL    HW1 9863   1.002   0.104   2.332
 2988SOL    HW2 9864   1.129   0.019   2.275
 2989SOL     OW 9865   6.497   5.320   0.900
 2989SOL    HW1 9866   6.514   5.221   0.904
 2989SOL    HW2 9867   6.585   5.368   0.901
 2990SOL     OW 9868   3.095   1.466   1.511
 2990SOL    HW1 9869   3.105   1.565   1.503
 2990SOL    HW2 9870   3.076   1.427   1.421
 2991SOL     OW 9871   6.652   4.727   0.227
 2991SOL    HW1 9872   6.713   4.806   0.220
 2991SOL    HW2 9873   6.558   4.758   0.243
 2992SOL     OW 9874   4.462   4.068   6.680
 2992SOL    HW1 9875   4.403   4.113   6.747
 2992SOL    HW2 9876   4.556   4.066   6.715
 2993SOL     OW 9877   1.566   4.346   0.158
 2993SOL    HW1 9878   1.494   4.395   0.205
 2993SOL    HW2 9879   1.600   4.272   0.217
 2994SOL     OW 9880   4.408   6.324   0.120
 2994SOL    HW1 9881   4.336   6.381   0.082
 2994SOL    HW2 9882   4.446   6.266   0.048
 2995SOL     OW 9883   2.402   0.201   5.530
 2995SOL    HW1 9884   2.365   0.193   5.438
 2995SOL    HW2 9885   2.374   0.288   5.570
 2996SOL     OW 9886   4.436   6.389   5.966
 2996SOL    HW1 9887   4.361   6.339   6.011
 2996SOL    HW2 9888   4.398   6.458   5.905
 2997SOL     OW 9889   4.132   5.971   0.182
 2997SOL    HW1 9890   4.184   5.888   0.204
 2997SOL    HW2 9891   4.116   5.975   0.084
 2998SOL     OW 9892   6.488   4.769   5.412
 2998SOL    HW1 9893   6.575   4.799   5.452
 2998SOL    HW2 9894   6.474   4.673   5.432
 2999SOL     OW 9895   2.540   1.417   1.732
 2999SOL    HW1 9896   2.464   1.359   1.703
 2999SOL    HW2 9897   2.620   1.361   1.751
 3000SOL     OW 9898   1.248   1.884   4.592
 3000SOL    HW1 9899   1.258   1.980   4.620
 3000SOL    HW2 9900   1.178   1.840   4.648
 3001SOL     OW 9901   4.932   6.515   5.647
 3001SOL    HW1 9902   4.940   6.524   5.548
 3001SOL    HW2 9903   4.915   6.419   5.671
 3002SOL     OW 9904   3.123   0.602   5.438
 3002SOL    HW1 9905   3.085   0.650   5.517
 3002SOL    HW2 9906   3.097   0.650   5.354
 3003SOL     OW 9907   1.390   6.799   5.505
 3003SOL    HW1 9908   1.326   6.841   5.570
 3003SOL    HW2 9909   1.464   6.863   5.485
 3004SOL     OW 9910   6.733   2.944   5.798
 3004SOL    HW1 9911   6.779   2.858   5.819
 3004SOL    HW2 9912   6.653   2.955   5.858
 3005SOL     OW 9913   4.823   2.670   0.892
 3005SOL    HW1 9914   4.839   2.594   0.829
 3005SOL    HW2 9915   4.880   2.659   0.973
 3006SOL     OW 9916   4.399   0.027   1.632
 3006SOL    HW1 9917   4.453   6.964   1.621
 3006SOL    HW2 9918   4.412   0.063   1.724
 3007SOL     OW 9919   5.730   5.384   1.959
 3007SOL    HW1 9920   5.792   5.344   2.027
 3007SOL    HW2 9921   5.686   5.465   1.998
 3008SOL     OW 9922   4.482   5.444   5.587
 3008SOL    HW1 9923   4.501   5.538   5.561
 3008SOL    HW2 9924   4.527   5.423   5.674
 3009SOL     OW 9925   1.068   0.594   2.377
 3009SOL    HW1 9926   1.009   0.525   2.420
 3009SOL    HW2 9927   1.089   0.666   2.443
 3010SOL     OW 9928   2.736   6.815   3.055
 3010SOL    HW1 9929   2.835   6.810   3.042
 3010SOL    HW2 9930   2.710   6.910   3.070
 3011SOL     OW 9931   5.474   0.098   0.422
 3011SOL    HW1 9932   5.513   0.159   0.491
 3011SOL    HW2 9933   5.499   0.003   0.444
 3012SOL     OW 9934   0.072   4.994   1.295
 3012SOL    HW1 9935   0.058   5.038   1.207
 3012SOL    HW2 9936   7.008   4.953   1.327
 3013SOL     OW 9937   5.738   4.216   2.188
 3013SOL    HW1 9938   5.693   4.184   2.271
 3013SOL    HW2 9939   5.693   4.300   2.156
 3014SOL     OW 9940   5.177   6.886   5.751
 3014SOL    HW1 9941   5.171   6.892   5.851
 3014SOL    HW2 9942   5.249   6.947   5.718
 3015SOL     OW 9943   2.700   1.016   0.395
 3015SOL    HW1 9944   2.706   0.947   0.466
 3015SOL    HW2 9945   2.765   1.090   0.414
 3016SOL     OW 9946   3.745   6.280   3.485
 3016SOL    HW1 9947   3.789   6.202   3.530
 3016SOL    HW2 9948   3.710   6.252   3.396
 3017SOL     OW 9949   0.370   5.698   1.676
 3017SOL    HW1 9950   0.408   5.657   1.758
 3017SOL    HW2 9951   0.278   5.661   1.659
 3018SOL     OW 9952   4.172   6.947   6.054
 3018SOL    HW1 9953   4.084   6.922   6.015
 3018SOL    HW2 9954   4.232   6.982   5.983
 3019SOL     OW 9955   4.795   0.332   1.921
 3019SOL    HW1 9956   4.783   0.369   1.829
 3019SOL    HW2 9957   4.833   0.239   1.915
 3020SOL     OW 9958   1.984   0.363   2.093
 3020SOL    HW1 9959   2.005   0.350   1.996
 3020SOL    HW2 9960   1.890   0.395   2.103
 3021SOL     OW 9961   4.039   0.768   6.633
 3021SOL    HW1 9962   3.979   0.799   6.707
 3021SOL    HW2 9963   3.985   0.756   6.549
 3022SOL     OW 9964   6.624   0.422   2.929
 3022SOL    HW1 9965   6.677   0.372   2.997
 3022SOL    HW2 9966   6.616   0.368   2.846
 3023SOL     OW 9967   5.992   0.278   1.442
 3023SOL    HW1 9968   5.973   0.268   1.540
 3023SOL    HW2 9969   6.009   0.374   1.421
 3024SOL     OW 9970   2.421   0.313   6.413
 3024SOL    HW1 9971   2.427   0.217   6.441
 3024SOL    HW2 9972   2.464   0.371   6.482
 3025SOL     OW 9973   2.004   2.374   1.706
 3025SOL    HW1 9974   2.077   2.439   1.683
 3025SOL    HW2 9975   1.984   2.316   1.627
 3026SOL     OW 9976   2.376   5.936   0.497
 3026SOL    HW1 9977   2.410   6.027   0.474
 3026SOL    HW2 9978   2.387   5.920   0.595
 3027SOL     OW 9979   1.510   2.045   3.490
 3027SOL    HW1 9980   1.544   2.121   3.436
 3027SOL    HW2 9981   1.429   2.073   3.541
 3028SOL     OW 9982   1.089   0.377   4.875
 3028SOL    HW1 9983   1.138   0.445   4.820
 3028SOL    HW2 9984   1.010   0.343   4.824
 3029SOL     OW 9985   6.143   5.129   5.857
 3029SOL    HW1 9986   6.155   5.227   5.844
 3029SOL    HW2 9987   6.182   5.102   5.945
 3030SOL     OW 9988   1.187   0.629   5.415
 3030SOL    HW1 9989   1.097   0.653   5.377
 3030SOL    HW2 9990   1.220   0.545   5.373
 3031SOL     OW 9991   0.353   5.540   6.165
 3031SOL    HW1 9992   0.367   5.445   6.192
 3031SOL    HW2 9993   0.363   5.600   6.244
 3032SOL     OW 9994   3.831   6.381   5.917
 3032SOL    HW1 9995   3.847   6.283   5.933
 3032SOL    HW2 9996   3.892   6.434   5.976
 3033SOL     OW 9997   5.414   4.731   5.514
 3033SOL    HW1 9998   5.350   4.785   5.458
 3033SOL    HW2 9999   5.398   4.750   5.611
 3034SOL     OW10000   2.428   6.706   4.435
 3034SOL    HW110001   2.477   6.693   4.349
 3034SOL    HW210002   2.457   6.636   4.500
 3035SOL     OW10003   6.303   0.106   6.977
 3035SOL    HW110004   6.295   0.206   6.984
 3035SOL    HW210005   6.325   0.068   0.046
 3036SOL     OW10006   1.278   4.906   5.366
 3036SOL    HW110007   1.250   4.824   5.416
 3036SOL    HW210008   1.236   4.986   5.408
 3037SOL     OW10009   5.396   0.009   5.710
 3037SOL    HW110010   5.460   6.963   5.748
 3037SOL    HW210011   5.384   0.084   5.775
 3038SOL     OW10012   6.318   6.564   6.134
 3038SOL    HW110013   6.267   6.631   6.189
 3038SOL    HW210014   6.264   6.539   6.054
 3039SOL     OW10015   0.530   5.137   0.568
 3039SOL    HW110016   0.557   5.089   0.651
 3039SOL    HW210017   0.534   5.074   0.491
 3040SOL     OW10018   2.975   1.368   6.889
 3040SOL    HW110019   2.946   1.315   6.808
 3040SOL    HW210020   3.072   1.388   6.883
 3041SOL     OW10021   1.666   2.288   6.477
 3041SOL    HW110022   1.746   2.343   6.453
 3041SOL    HW210023   1.591   2.310   6.415
 3042SOL     OW10024   6.304   6.880   1.310
 3042SOL    HW110025   6.256   6.795   1.330
 3042SOL    HW210026   6.239   6.956   1.309
 3043SOL     OW10027   6.821   5.248   6.660
 3043SOL    HW110028   6.752   5.208   6.600
 3043SOL    HW210029   6.776   5.300   6.733
 3044SOL     OW10030   2.134   3.575   6.452
 3044SOL    HW110031   2.163   3.546   6.361
 3044SOL    HW210032   2.212   3.573   6.514
 3045SOL     OW10033   4.909   2.291   3.558
 3045SOL    HW110034   5.008   2.287   3.543
 3045SOL    HW210035   4.878   2.205   3.598
 3046SOL     OW10036   1.796   2.420   6.086
 3046SOL    HW110037   1.848   2.499   6.055
 3046SOL    HW210038   1.751   2.376   6.008
 3047SOL     OW10039   0.191   5.173   1.451
 3047SOL    HW110040   0.169   5.111   1.375
 3047SOL    HW210041   0.190   5.267   1.419
 3048SOL     OW10042   3.288   2.689   1.604
 3048SOL    HW110043   3.227   2.728   1.535
 3048SOL    HW210044   3.378   2.673   1.563
 3049SOL     OW10045   0.687   0.647   1.498
 3049SOL    HW110046   0.609   0.622   1.556
 3049SOL    HW210047   0.765   0.588   1.519
 3050SOL     OW10048   1.685   0.999   4.026
 3050SOL    HW110049   1.753   0.999   3.953
 3050SOL    HW210050   1.640   0.910   4.030
 3051SOL     OW10051   2.842   4.357   6.290
 3051SOL    HW110052   2.848   4.370   6.191
 3051SOL    HW210053   2.767   4.411   6.327
 3052SOL     OW10054   5.265   6.797   2.533
 3052SOL    HW110055   5.262   6.736   2.612
 3052SOL    HW210056   5.182   6.783   2.478
 3053SOL     OW10057   3.893   0.054   1.844
 3053SOL    HW110058   3.991   0.047   1.823
 3053SOL    HW210059   3.868   7.005   1.910
 3054SOL     OW10060   2.175   4.431   5.152
 3054SOL    HW110061   2.235   4.381   5.214
 3054SOL    HW210062   2.208   4.525   5.142
 3055SOL     OW10063   6.458   6.642   3.037
 3055SOL    HW110064   6.369   6.596   3.034
 3055SOL    HW210065   6.444   6.740   3.027
 3056SOL     OW10066   5.463   0.784   1.922
 3056SOL    HW110067   5.562   0.795   1.916
 3056SOL    HW210068   5.418   0.850   1.862
 3057SOL     OW10069   6.399   5.518   2.410
 3057SOL    HW110070   6.301   5.513   2.392
 3057SOL    HW210071   6.424   5.613   2.431
 3058SOL     OW10072   6.223   5.646   1.465
 3058SOL    HW110073   6.317   5.627   1.437
 3058SOL    HW210074   6.177   5.560   1.488
 3059SOL     OW10075   2.396   2.729   5.962
 3059SOL    HW110076   2.309   2.741   5.914
 3059SOL    HW210077   2.460   2.680   5.903
 3060SOL     OW10078   0.641   6.425   0.142
 3060SOL    HW110079   0.581   6.345   0.153
 3060SOL    HW210080   0.595   6.493   0.086
 3061SOL     OW10081   0.591   0.568   5.853
 3061SOL    HW110082   0.507   0.586   5.904
 3061SOL    HW210083   0.569   0.552   5.757
 3062SOL     OW10084   3.017   5.267   6.297
 3062SOL    HW110085   3.009   5.167   6.304
 3062SOL    HW210086   3.113   5.293   6.304
 3063SOL     OW10087   2.873   6.103   0.874
 3063SOL    HW110088   2.951   6.160   0.900
 3063SOL    HW210089   2.841   6.050   0.953
 3064SOL     OW10090   0.099   4.894   3.484
 3064SOL    HW110091   0.147   4.917   3.569
 3064SOL    HW210092   0.007   4.861   3.505
 3065SOL     OW10093   3.258   1.305   1.007
 3065SOL    HW110094   3.227   1.292   0.913
 3065SOL    HW210095   3.281   1.217   1.047
 3066SOL     OW10096   5.432   5.296   0.360
 3066SOL    HW110097   5.409   5.213   0.309
 3066SOL    HW210098   5.390   5.292   0.451
 3067SOL     OW10099   4.329   6.741   2.933
 3067SOL    HW110100   4.423   6.755   2.963
 3067SOL    HW210101   4.272   6.817   2.966
 3068SOL     OW10102   6.271   4.596   0.124
 3068SOL    HW110103   6.245   4.662   0.194
 3068SOL    HW210104   6.348   4.541   0.156
 3069SOL     OW10105   0.854   4.672   3.947
 3069SOL    HW110106   0.871   4.706   4.040
 3069SOL    HW210107   0.768   4.708   3.913
 3070SOL     OW10108   4.346   2.090   4.004
 3070SOL    HW110109   4.276   2.160   4.025
 3070SOL    HW210110   4.303   2.013   3.957
 3071SOL     OW10111   5.452   0.415   3.911
 3071SOL    HW110112   5.435   0.385   4.005
 3071SOL    HW210113   5.410   0.351   3.847
 3072SOL     OW10114   0.287   0.619   1.839
 3072SOL    HW110115   0.291   0.624   1.939
 3072SOL    HW210116   0.205   0.666   1.806
 3073SOL     OW10117   1.962   2.301   5.183
 3073SOL    HW110118   2.033   2.306   5.253
 3073SOL    HW210119   1.888   2.241   5.215
 3074SOL     OW10120   4.942   3.444   5.729
 3074SOL    HW110121   5.039   3.462   5.717
 3074SOL    HW210122   4.889   3.513   5.679
 3075SOL     OW10123   6.989   5.598   1.021
 3075SOL    HW110124   6.939   5.672   1.066
 3075SOL    HW210125   6.995   5.520   1.083
 3076SOL     OW10126   0.362   0.995   5.159
 3076SOL    HW110127   0.443   1.034   5.202
 3076SOL    HW210128   0.384   0.968   5.065
 3077SOL     OW10129   5.275   4.246   3.234
 3077SOL    HW110130   5.369   4.212   3.232
 3077SOL    HW210131   5.241   4.253   3.140
 3078SOL     OW10132   1.691   2.418   0.261
 3078SOL    HW110133   1.691   2.516   0.238
 3078SOL    HW210134   1.602   2.379   0.240
 3079SOL     OW10135   5.493   2.764   6.185
 3079SOL    HW110136   5.517   2.699   6.112
 3079SOL    HW210137   5.573   2.822   6.205
 3080SOL     OW10138   6.001   6.577   1.319
 3080SOL    HW110139   5.963   6.593   1.228
 3080SOL    HW210140   5.950   6.504   1.364
 3081SOL     OW10141   1.199   4.518   5.798
 3081SOL    HW110142   1.134   4.512   5.722
 3081SOL    HW210143   1.156   4.566   5.875
 3082SOL     OW10144   3.084   0.294   2.307
 3082SOL    HW110145   3.069   0.383   2.264
 3082SOL    HW210146   3.137   0.236   2.246
 3083SOL     OW10147   3.752   0.431   2.114
 3083SOL    HW110148   3.669   0.454   2.062
 3083SOL    HW210149   3.727   0.375   2.193
 3084SOL     OW10150   4.192   6.534   4.043
 3084SOL    HW110151   4.270   6.545   3.981
 3084SOL    HW210152   4.153   6.443   4.032
 3085SOL     OW10153   1.162   4.884   2.003
 3085SOL    HW110154   1.062   4.885   1.994
 3085SOL    HW210155   1.190   4.951   2.072
 3086SOL     OW10156   6.357   1.558   4.343
 3086SOL    HW110157   6.446   1.551   4.297
 3086SOL    HW210158   6.312   1.469   4.343
 3087SOL     OW10159   5.773   3.982   1.509
 3087SOL    HW110160   5.841   4.039   1.463
 3087SOL    HW210161   5.705   4.040   1.554
 3088SOL     OW10162   2.888   4.098   6.267
 3088SOL    HW110163   2.871   4.196   6.272
 3088SOL    HW210164   2.974   4.076   6.313
 3089SOL     OW10165   3.524   1.852   1.560
 3089SOL    HW110166   3.427   1.853   1.535
 3089SOL    HW210167   3.545   1.931   1.617
 3090SOL     OW10168   6.611   1.868   0.555
 3090SOL    HW110169   6.588   1.957   0.594
 3090SOL    HW210170   6.596   1.797   0.623
 3091SOL     OW10171   2.173   6.543   0.397
 3091SOL    HW110172   2.235   6.617   0.423
 3091SOL    HW210173   2.153   6.549   0.299
 3092SOL     OW10174   3.407   5.415   0.165
 3092SOL    HW110175   3.380   5.392   0.071
 3092SOL    HW210176   3.501   5.383   0.180
 3093SOL     OW10177   4.699   6.992   3.122
 3093SOL    HW110178   4.799   6.990   3.111
 3093SOL    HW210179   4.668   0.066   3.125
 3094SOL     OW10180   3.208   5.582   5.154
 3094SOL    HW110181   3.262   5.662   5.179
 3094SOL    HW210182   3.140   5.608   5.085
 3095SOL     OW10183   1.873   5.174   5.204
 3095SOL    HW110184   1.909   5.267   5.197
 3095SOL    HW210185   1.946   5.109   5.180
 3096SOL     OW10186   0.435   1.231   5.524
 3096SOL    HW110187   0.469   1.214   5.617
 3096SOL    HW210188   0.488   1.176   5.459
 3097SOL     OW10189   2.082   1.239   0.058
 3097SOL    HW110190   2.078   1.150   0.103
 3097SOL    HW210191   2.166   1.246   0.005
 3098SOL     OW10192   4.308   2.784   0.682
 3098SOL    HW110193   4.379   2.753   0.746
 3098SOL    HW210194   4.304   2.721   0.604
 3099SOL     OW10195   1.727   6.032   5.194
 3099SOL    HW110196   1.784   6.093   5.249
 3099SOL    HW210197   1.638   6.022   5.237
 3100SOL     OW10198   6.555   6.650   5.946
 3100SOL    HW110199   6.475   6.666   5.888
 3100SOL    HW210200   6.558   6.720   6.018
 3101SOL     OW10201   3.587   0.235   1.143
 3101SOL    HW110202   3.530   0.156   1.118
 3101SOL    HW210203   3.627   0.219   1.233
 3102SOL     OW10204   0.688   5.870   0.170
 3102SOL    HW110205   0.588   5.868   0.171
 3102SOL    HW210206   0.719   5.957   0.208
 3103SOL     OW10207   4.291   4.248   1.614
 3103SOL    HW110208   4.345   4.265   1.696
 3103SOL    HW210209   4.201   4.212   1.639
 3104SOL     OW10210   5.828   5.574   3.829
 3104SOL    HW110211   5.774   5.496   3.796
 3104SOL    HW210212   5.767   5.651   3.848
 3105SOL     OW10213   6.026   5.621   3.654
 3105SOL    HW110214   5.953   5.611   3.722
 3105SOL    HW210215   5.989   5.662   3.571
 3106SOL     OW10216   6.323   2.883   4.967
 3106SOL    HW110217   6.244   2.853   5.020
 3106SOL    HW210218   6.343   2.979   4.987
 3107SOL     OW10219   2.417   0.023   4.248
 3107SOL    HW110220   2.440   0.104   4.192
 3107SOL    HW210221   2.501   6.996   4.273
 3108SOL     OW10222   2.245   0.568   2.781
 3108SOL    HW110223   2.259   0.473   2.754
 3108SOL    HW210224   2.280   0.629   2.709
 3109SOL     OW10225   4.697   5.917   3.577
 3109SOL    HW110226   4.707   5.868   3.491
 3109SOL    HW210227   4.770   5.890   3.639
 3110SOL     OW10228   1.467   2.868   1.758
 3110SOL    HW110229   1.547   2.928   1.756
 3110SOL    HW210230   1.384   2.922   1.770
 3111SOL     OW10231   0.322   4.663   2.460
 3111SOL    HW110232   0.413   4.622   2.455
 3111SOL    HW210233   0.291   4.663   2.555
 3112SOL     OW10234   2.731   3.862   5.853
 3112SOL    HW110235   2.693   3.950   5.882
 3112SOL    HW210236   2.814   3.843   5.906
 3113SOL     OW10237   3.920   6.595   4.039
 3113SOL    HW110238   4.009   6.553   4.056
 3113SOL    HW210239   3.908   6.674   4.099
 3114SOL     OW10240   5.168   5.712   0.437
 3114SOL    HW110241   5.135   5.684   0.527
 3114SOL    HW210242   5.133   5.803   0.415
 3115SOL     OW10243   2.879   3.471   2.212
 3115SOL    HW110244   2.860   3.511   2.302
 3115SOL    HW210245   2.952   3.404   2.221
 3116SOL     OW10246   0.475   1.014   6.847
 3116SOL    HW110247   0.431   0.972   6.769
 3116SOL    HW210248   0.515   0.943   6.906
 3117SOL     OW10249   3.649   4.106   5.821
 3117SOL    HW110250   3.606   4.030   5.870
 3117SOL    HW210251   3.585   4.144   5.754
 3118SOL     OW10252   6.074   5.353   0.041
 3118SOL    HW110253   6.010   5.333   6.988
 3118SOL    HW210254   6.143   5.418   0.008
 3119SOL     OW10255   2.210   4.359   6.945
 3119SOL    HW110256   2.151   4.357   6.865
 3119SOL    HW210257   2.212   4.451   6.984
 3120SOL     OW10258   2.629   5.332   6.547
 3120SOL    HW110259   2.543   5.383   6.546
 3120SOL    HW210260   2.653   5.309   6.641
 3121SOL     OW10261   0.250   5.981   3.551
 3121SOL    HW110262   0.316   6.052   3.532
 3121SOL    HW210263   0.278   5.930   3.633
 3122SOL     OW10264   3.609   5.444   1.202
 3122SOL    HW110265   3.618   5.477   1.107
 3122SOL    HW210266   3.557   5.359   1.203
 3123SOL     OW10267   3.385   6.801   4.270
 3123SOL    HW110268   3.431   6.884   4.241
 3123SOL    HW210269   3.399   6.786   4.367
 3124SOL     OW10270   3.678   0.110   6.194
 3124SOL    HW110271   3.750   0.094   6.127
 3124SOL    HW210272   3.657   0.208   6.198
 3125SOL     OW10273   0.334   2.398   5.659
 3125SOL    HW110274   0.375   2.421   5.571
 3125SOL    HW210275   0.402   2.352   5.717
 3126SOL     OW10276   3.926   6.224   6.476
 3126SOL    HW110277   3.865   6.302   6.493
 3126SOL    HW210278   3.885   6.141   6.514
 3127SOL     OW10279   1.203   1.701   3.933
 3127SOL    HW110280   1.285   1.727   3.882
 3127SOL    HW210281   1.219   1.714   4.031
 3128SOL     OW10282   1.884   0.393   1.381
 3128SOL    HW110283   1.824   0.342   1.319
 3128SOL    HW210284   1.971   0.345   1.390
 3129SOL     OW10285   1.084   3.045   3.351
 3129SOL    HW110286   1.027   3.089   3.282
 3129SOL    HW210287   1.180   3.049   3.322
 3130SOL     OW10288   2.756   5.331   3.390
 3130SOL    HW110289   2.799   5.265   3.453
 3130SOL    HW210290   2.657   5.317   3.391
 3131SOL     OW10291   0.910   2.908   4.689
 3131SOL    HW110292   0.878   2.816   4.667
 3131SOL    HW210293   1.006   2.916   4.663
 3132SOL     OW10294   5.044   4.396   5.521
 3132SOL    HW110295   4.956   4.391   5.474
 3132SOL    HW210296   5.042   4.468   5.590
 3133SOL     OW10297   2.305   1.975   3.373
 3133SOL    HW110298   2.338   1.883   3.394
 3133SOL    HW210299   2.316   1.992   3.275
 3134SOL     OW10300   5.500   2.956   1.470
 3134SOL    HW110301   5.538   3.034   1.521
 3134SOL    HW210302   5.409   2.980   1.436
 3135SOL     OW10303   1.539   2.194   3.086
 3135SOL    HW110304   1.464   2.252   3.117
 3135SOL    HW210305   1.509   2.098   3.084
 3136SOL     OW10306   6.143   0.036   4.879
 3136SOL    HW110307   6.179   6.971   4.844
 3136SOL    HW210308   6.219   0.094   4.911
 3137SOL     OW10309   0.580   2.171   4.222
 3137SOL    HW110310   0.585   2.232   4.143
 3137SOL    HW210311   0.484   2.155   4.245
 3138SOL     OW10312   5.964   2.220   4.420
 3138SOL    HW110313   5.878   2.249   4.462
 3138SOL    HW210314   5.993   2.133   4.461
 3139SOL     OW10315   4.746   5.538   5.239
 3139SOL    HW110316   4.777   5.540   5.335
 3139SOL    HW210317   4.801   5.473   5.188
 3140SOL     OW10318   5.844   6.345   6.063
 3140SOL    HW110319   5.793   6.262   6.041
 3140SOL    HW210320   5.803   6.423   6.016
 3141SOL     OW10321   1.153   5.735   2.144
 3141SOL    HW110322   1.064   5.700   2.115
 3141SOL    HW210323   1.215   5.659   2.161
 3142SOL     OW10324   3.818   6.986   0.303
 3142SOL    HW110325   3.816   6.930   0.386
 3142SOL    HW210326   3.855   6.931   0.228
 3143SOL     OW10327   0.395   1.824   0.908
 3143SOL    HW110328   0.441   1.798   0.823
 3143SOL    HW210329   0.325   1.894   0.889
 3144SOL     OW10330   2.253   3.148   6.888
 3144SOL    HW110331   2.292   3.099   6.966
 3144SOL    HW210332   2.192   3.086   6.837
 3145SOL     OW10333   3.202   5.136   3.155
 3145SOL    HW110334   3.177   5.040   3.152
 3145SOL    HW210335   3.177   5.175   3.244
 3146SOL     OW10336   2.418   6.877   3.820
 3146SOL    HW110337   2.337   6.879   3.879
 3146SOL    HW210338   2.449   6.782   3.810
 3147SOL     OW10339   3.523   4.459   0.712
 3147SOL    HW110340   3.574   4.510   0.781
 3147SOL    HW210341   3.429   4.444   0.744
 3148SOL     OW10342   3.227   6.040   4.823
 3148SOL    HW110343   3.220   6.019   4.725
 3148SOL    HW210344   3.273   6.128   4.835
 3149SOL     OW10345   2.496   6.494   5.989
 3149SOL    HW110346   2.516   6.553   5.911
 3149SOL    HW210347   2.581   6.472   6.037
 3150SOL     OW10348   6.922   6.762   4.328
 3150SOL    HW110349   7.002   6.816   4.357
 3150SOL    HW210350   6.918   6.761   4.228
 3151SOL     OW10351   3.760   6.875   1.554
 3151SOL    HW110352   3.723   6.798   1.607
 3151SOL    HW210353   3.738   6.961   1.599
 3152SOL     OW10354   1.616   4.669   6.279
 3152SOL    HW110355   1.584   4.758   6.310
 3152SOL    HW210356   1.582   4.597   6.340
 3153SOL     OW10357   6.840   4.658   3.108
 3153SOL    HW110358   6.789   4.744   3.107
 3153SOL    HW210359   6.817   4.606   3.026
 3154SOL     OW10360   5.844   2.295   6.243
 3154SOL    HW110361   5.779   2.314   6.169
 3154SOL    HW210362   5.891   2.380   6.267
 3155SOL     OW10363   4.302   5.967   0.516
 3155SOL    HW110364   4.393   5.947   0.479
 3155SOL    HW210365   4.264   6.046   0.468
 3156SOL     OW10366   3.683   3.500   3.400
 3156SOL    HW110367   3.662   3.563   3.325
 3156SOL    HW210368   3.599   3.463   3.437
 3157SOL     OW10369   2.150   2.224   5.006
 3157SOL    HW110370   2.057   2.232   5.043
 3157SOL    HW210371   2.161   2.289   4.930
 3158SOL     OW10372   4.587   6.754   1.350
 3158SOL    HW110373   4.650   6.787   1.280
 3158SOL    HW210374   4.494   6.749   1.311
 3159SOL     OW10375   5.106   4.584   0.341
 3159SOL    HW110376   5.164   4.533   0.277
 3159SOL    HW210377   5.157   4.662   0.377
 3160SOL     OW10378   6.239   4.699   0.551
 3160SOL    HW110379   6.219   4.663   0.642
 3160SOL    HW210380   6.285   4.628   0.497
 3161SOL     OW10381   1.310   1.456   3.718
 3161SOL    HW110382   1.210   1.449   3.721
 3161SOL    HW210383   1.345   1.478   3.809
 3162SOL     OW10384   0.137   6.979   5.816
 3162SOL    HW110385   0.078   6.967   5.737
 3162SOL    HW210386   0.113   6.912   5.886
 3163SOL     OW10387   1.859   4.620   5.265
 3163SOL    HW110388   1.869   4.521   5.255
 3163SOL    HW210389   1.914   4.651   5.343
 3164SOL     OW10390   6.526   5.264   5.701
 3164SOL    HW110391   6.463   5.307   5.636
 3164SOL    HW210392   6.573   5.335   5.754
 3165SOL     OW10393   0.500   2.937   1.760
 3165SOL    HW110394   0.447   2.951   1.676
 3165SOL    HW210395   0.437   2.921   1.836
 3166SOL     OW10396   4.114   3.106   6.101
 3166SOL    HW110397   4.205   3.065   6.112
 3166SOL    HW210398   4.124   3.200   6.070
 3167SOL     OW10399   0.107   4.826   2.340
 3167SOL    HW110400   0.146   4.907   2.296
 3167SOL    HW210401   0.175   4.783   2.399
 3168SOL     OW10402   6.152   2.716   0.955
 3168SOL    HW110403   6.247   2.730   0.981
 3168SOL    HW210404   6.142   2.628   0.909
 3169SOL     OW10405   2.314   2.054   5.598
 3169SOL    HW110406   2.248   2.113   5.644
 3169SOL    HW210407   2.385   2.110   5.555
 3170SOL     OW10408   3.897   6.827   5.448
 3170SOL    HW110409   3.799   6.806   5.438
 3170SOL    HW210410   3.951   6.751   5.413
 3171SOL     OW10411   5.767   6.008   2.931
 3171SOL    HW110412   5.792   5.920   2.971
 3171SOL    HW210413   5.685   6.043   2.976
 3172SOL     OW10414   5.940   6.927   5.525
 3172SOL    HW110415   5.912   6.998   5.589
 3172SOL    HW210416   5.860   6.891   5.477
 3173SOL     OW10417   2.284   0.853   1.781
 3173SOL    HW110418   2.279   0.879   1.877
 3173SOL    HW210419   2.376   0.818   1.761
 3174SOL     OW10420   2.484   3.199   6.587
 3174SOL    HW110421   2.392   3.163   6.603
 3174SOL    HW210422   2.497   3.215   6.489
 3175SOL     OW10423   0.212   6.632   0.382
 3175SOL    HW110424   0.173   6.722   0.363
 3175SOL    HW210425   0.312   6.638   0.380
 3176SOL     OW10426   1.214   5.340   0.010
 3176SOL    HW110427   1.116   5.344   0.025
 3176SOL    HW210428   1.247   5.247   0.027
 3177SOL     OW10429   0.825   6.768   4.501
 3177SOL    HW110430   0.848   6.809   4.413
 3177SOL    HW210431   0.829   6.668   4.494
 3178SOL     OW10432   3.278   3.132   6.950
 3178SOL    HW110433   3.272   3.101   6.855
 3178SOL    HW210434   3.186   3.134   6.990
 3179SOL     OW10435   1.159   2.498   3.978
 3179SOL    HW110436   1.129   2.520   4.071
 3179SOL    HW210437   1.155   2.399   3.964
 3180SOL     OW10438   6.426   1.339   6.392
 3180SOL    HW110439   6.368   1.416   6.368
 3180SOL    HW210440   6.384   1.254   6.359
 3181SOL     OW10441   0.965   1.972   2.775
 3181SOL    HW110442   0.869   1.970   2.748
 3181SOL    HW210443   1.009   2.052   2.735
 3182SOL     OW10444   1.882   4.453   5.901
 3182SOL    HW110445   1.836   4.471   5.814
 3182SOL    HW210446   1.867   4.530   5.963
 3183SOL     OW10447   4.272   3.440   1.155
 3183SOL    HW110448   4.301   3.363   1.212
 3183SOL    HW210449   4.333   3.517   1.169
 3184SOL     OW10450   0.520   2.210   3.407
 3184SOL    HW110451   0.616   2.232   3.388
 3184SOL    HW210452   0.512   2.112   3.426
 3185SOL     OW10453   0.378   6.510   6.919
 3185SOL    HW110454   0.331   6.429   6.954
 3185SOL    HW210455   0.381   6.507   6.819
 3186SOL     OW10456   3.136   0.206   1.483
 3186SOL    HW110457   3.103   0.276   1.421
 3186SOL    HW210458   3.231   0.183   1.460
 3187SOL     OW10459   2.983   4.135   0.136
 3187SOL    HW110460   2.931   4.082   0.070
 3187SOL    HW210461   3.043   4.199   0.087
 3188SOL     OW10462   3.829   6.788   2.929
 3188SOL    HW110463   3.873   6.793   3.018
 3188SOL    HW210464   3.789   6.697   2.916
 3189SOL     OW10465   5.900   6.571   2.367
 3189SOL    HW110466   5.805   6.543   2.365
 3189SOL    HW210467   5.925   6.613   2.280
 3190SOL     OW10468   1.234   0.055   2.097
 3190SOL    HW110469   1.219   6.989   2.049
 3190SOL    HW210470   1.303   0.043   2.168
 3191SOL     OW10471   3.926   1.482   0.302
 3191SOL    HW110472   3.886   1.553   0.361
 3191SOL    HW210473   3.855   1.421   0.269
 3192SOL     OW10474   5.420   2.635   4.198
 3192SOL    HW110475   5.427   2.637   4.098
 3192SOL    HW210476   5.374   2.551   4.226
 3193SOL     OW10477   5.356   4.415   1.493
 3193SOL    HW110478   5.449   4.447   1.514
 3193SOL    HW210479   5.306   4.400   1.578
 3194SOL     OW10480   2.825   5.724   4.741
 3194SOL    HW110481   2.852   5.733   4.837
 3194SOL    HW210482   2.736   5.679   4.736
 3195SOL     OW10483   6.854   4.688   3.882
 3195SOL    HW110484   6.867   4.601   3.929
 3195SOL    HW210485   6.924   4.753   3.913
 3196SOL     OW10486   6.969   6.351   6.301
 3196SOL    HW110487   6.965   6.257   6.333
 3196SOL    HW210488   0.021   6.361   6.233
 3197SOL     OW10489   0.919   4.355   5.424
 3197SOL    HW110490   0.836   4.357   5.369
 3197SOL    HW210491   0.961   4.264   5.420
 3198SOL     OW10492   5.982   0.075   0.595
 3198SOL    HW110493   6.039   0.062   0.514
 3198SOL    HW210494   5.963   7.007   0.637
 3199SOL     OW10495   2.960   1.479   3.005
 3199SOL    HW110496   2.980   1.382   3.018
 3199SOL    HW210497   3.035   1.522   2.955
 3200SOL     OW10498   6.278   2.133   0.335
 3200SOL    HW110499   6.217   2.180   0.271
 3200SOL    HW210500   6.248   2.038   0.345
 3201SOL     OW10501   4.181   4.753   2.999
 3201SOL    HW110502   4.084   4.774   3.013
 3201SOL    HW210503   4.231   4.766   3.085
 3202SOL     OW10504   1.386   5.057   1.726
 3202SOL    HW110505   1.328   5.114   1.668
 3202SOL    HW210506   1.462   5.111   1.761
 3203SOL     OW10507   4.751   0.256   0.338
 3203SOL    HW110508   4.770   0.161   0.362
 3203SOL    HW210509   4.837   0.305   0.323
 3204SOL     OW10510   6.214   6.342   1.850
 3204SOL    HW110511   6.272   6.384   1.780
 3204SOL    HW210512   6.171   6.259   1.813
 3205SOL     OW10513   0.981   3.776   4.489
 3205SOL    HW110514   0.977   3.716   4.569
 3205SOL    HW210515   0.895   3.769   4.438
 3206SOL     OW10516   1.852   6.586   0.159
 3206SOL    HW110517   1.951   6.574   0.165
 3206SOL    HW210518   1.821   6.564   0.067
 3207SOL     OW10519   1.625   1.748   2.907
 3207SOL    HW110520   1.530   1.733   2.935
 3207SOL    HW210521   1.685   1.729   2.985
 3208SOL     OW10522   6.417   6.740   5.463
 3208SOL    HW110523   6.417   6.649   5.420
 3208SOL    HW210524   6.386   6.808   5.396
 3209SOL     OW10525   0.836   6.735   3.658
 3209SOL    HW110526   0.842   6.636   3.641
 3209SOL    HW210527   0.847   6.784   3.572
 3210SOL     OW10528   0.883   5.658   2.159
 3210SOL    HW110529   0.906   5.732   2.222
 3210SOL    HW210530   0.785   5.662   2.137
 3211SOL     OW10531   0.169   4.535   3.557
 3211SOL    HW110532   0.194   4.608   3.493
 3211SOL    HW210533   0.202   4.557   3.648
 3212SOL     OW10534   4.640   2.716   4.942
 3212SOL    HW110535   4.581   2.770   4.882
 3212SOL    HW210536   4.583   2.656   4.999
 3213SOL     OW10537   5.465   6.883   1.365
 3213SOL    HW110538   5.460   6.818   1.441
 3213SOL    HW210539   5.529   6.956   1.388
 3214SOL     OW10540   4.634   3.916   0.082
 3214SOL    HW110541   4.637   3.839   0.146
 3214SOL    HW210542   4.661   4.000   0.129
 3215SOL     OW10543   6.289   1.586   6.972
 3215SOL    HW110544   6.193   1.609   6.955
 3215SOL    HW210545   6.334   1.563   6.886
 3216SOL     OW10546   5.170   6.421   5.038
 3216SOL    HW110547   5.238   6.364   5.085
 3216SOL    HW210548   5.197   6.434   4.943
 3217SOL     OW10549   6.734   4.382   6.551
 3217SOL    HW110550   6.764   4.343   6.638
 3217SOL    HW210551   6.640   4.355   6.533
 3218SOL     OW10552   4.097   2.308   1.518
 3218SOL    HW110553   4.068   2.300   1.423
 3218SOL    HW210554   4.017   2.321   1.576
 3219SOL     OW10555   0.360   1.553   3.075
 3219SOL    HW110556   0.429   1.522   3.141
 3219SOL    HW210557   0.347   1.482   3.005
 3220SOL     OW10558   6.490   3.128   6.555
 3220SOL    HW110559   6.556   3.143   6.628
 3220SOL    HW210560   6.397   3.132   6.593
 3221SOL     OW10561   3.466   0.907   1.816
 3221SOL    HW110562   3.535   0.836   1.827
 3221SOL    HW210563   3.375   0.867   1.826
 3222SOL     OW10564   6.617   4.021   2.467
 3222SOL    HW110565   6.557   4.100   2.471
 3222SOL    HW210566   6.591   3.956   2.538
 3223SOL     OW10567   1.653   4.096   4.666
 3223SOL    HW110568   1.636   4.133   4.758
 3223SOL    HW210569   1.742   4.128   4.634
 3224SOL     OW10570   3.437   6.067   0.898
 3224SOL    HW110571   3.365   6.120   0.943
 3224SOL    HW210572   3.426   5.970   0.920
 3225SOL     OW10573   1.608   2.716   0.886
 3225SOL    HW110574   1.516   2.753   0.896
 3225SOL    HW210575   1.620   2.680   0.793
 3226SOL     OW10576   6.595   1.143   3.946
 3226SOL    HW110577   6.542   1.087   4.010
 3226SOL    HW210578   6.650   1.209   3.997
 3227SOL     OW10579   2.356   1.555   5.382
 3227SOL    HW110580   2.387   1.581   5.290
 3227SOL    HW210581   2.337   1.638   5.435
 3228SOL     OW10582   4.917   3.251   5.032
 3228SOL    HW110583   4.934   3.349   5.025
 3228SOL    HW210584   4.871   3.231   5.118
 3229SOL     OW10585   4.569   1.650   5.152
 3229SOL    HW110586   4.586   1.741   5.114
 3229SOL    HW210587   4.517   1.659   5.237
 3230SOL     OW10588   1.398   0.127   4.039
 3230SOL    HW110589   1.374   0.198   4.106
 3230SOL    HW210590   1.403   0.168   3.948
 3231SOL     OW10591   4.428   4.490   0.579
 3231SOL    HW110592   4.497   4.561   0.560
 3231SOL    HW210593   4.474   4.406   0.608
 3232SOL     OW10594   1.120   3.802   3.212
 3232SOL    HW110595   1.129   3.787   3.310
 3232SOL    HW210596   1.115   3.901   3.194
 3233SOL     OW10597   2.424   4.234   0.870
 3233SOL    HW110598   2.344   4.243   0.811
 3233SOL    HW210599   2.393   4.215   0.964
 3234SOL     OW10600   6.839   1.751   4.597
 3234SOL    HW110601   6.806   1.659   4.615
 3234SOL    HW210602   6.774   1.818   4.633
 3235SOL     OW10603   6.317   0.888   2.437
 3235SOL    HW110604   6.254   0.874   2.513
 3235SOL    HW210605   6.303   0.979   2.398
 3236SOL     OW10606   0.468   2.080   1.364
 3236SOL    HW110607   0.420   1.994   1.383
 3236SOL    HW210608   0.410   2.138   1.307
 3237SOL     OW10609   2.934   6.203   4.604
 3237SOL    HW110610   2.877   6.278   4.636
 3237SOL    HW210611   2.887   6.153   4.531
 3238SOL     OW10612   6.539   6.751   6.844
 3238SOL    HW110613   6.565   6.659   6.814
 3238SOL    HW210614   6.506   6.747   6.938
 3239SOL     OW10615   1.747   6.191   6.151
 3239SOL    HW110616   1.754   6.245   6.067
 3239SOL    HW210617   1.839   6.174   6.187
 3240SOL     OW10618   1.180   2.171   4.918
 3240SOL    HW110619   1.226   2.117   4.988
 3240SOL    HW210620   1.081   2.161   4.929
 3241SOL     OW10621   3.567   6.676   5.234
 3241SOL    HW110622   3.640   6.611   5.213
 3241SOL    HW210623   3.548   6.675   5.331
 3242SOL     OW10624   2.934   0.641   0.949
 3242SOL    HW110625   2.910   0.544   0.957
 3242SOL    HW210626   2.851   0.697   0.956
 3243SOL     OW10627   4.184   5.432   2.265
 3243SOL    HW110628   4.131   5.358   2.306
 3243SOL    HW210629   4.265   5.394   2.220
 3244SOL     OW10630   0.994   0.096   5.129
 3244SOL    HW110631   1.075   0.037   5.122
 3244SOL    HW210632   1.022   0.191   5.142
 3245SOL     OW10633   3.287   1.558   5.764
 3245SOL    HW110634   3.241   1.614   5.834
 3245SOL    HW210635   3.293   1.610   5.679
 3246SOL     OW10636   5.607   6.543   2.674
 3246SOL    HW110637   5.517   6.506   2.696
 3246SOL    HW210638   5.629   6.618   2.736
 3247SOL     OW10639   5.946   3.132   5.531
 3247SOL    HW110640   5.918   3.206   5.469
 3247SOL    HW210641   6.026   3.085   5.493
 3248SOL     OW10642   5.127   3.902   3.378
 3248SOL    HW110643   5.188   3.858   3.444
 3248SOL    HW210644   5.046   3.937   3.426
 3249SOL     OW10645   3.294   5.298   5.572
 3249SOL    HW110646   3.322   5.347   5.490
 3249SOL    HW210647   3.252   5.211   5.547
 3250SOL     OW10648   4.230   4.543   0.974
 3250SOL    HW110649   4.256   4.639   0.986
 3250SOL    HW210650   4.227   4.521   0.877
 3251SOL     OW10651   2.839   1.371   3.321
 3251SOL    HW110652   2.756   1.321   3.297
 3251SOL    HW210653   2.861   1.437   3.248
 3252SOL     OW10654   3.146   2.210   2.993
 3252SOL    HW110655   3.087   2.178   3.067
 3252SOL    HW210656   3.109   2.182   2.905
 3253SOL     OW10657   5.170   4.373   1.692
 3253SOL    HW110658   5.211   4.300   1.747
 3253SOL    HW210659   5.077   4.348   1.667
 3254SOL     OW10660   6.537   4.521   2.612
 3254SOL    HW110661   6.478   4.598   2.633
 3254SOL    HW210662   6.631   4.552   2.600
 3255SOL     OW10663   3.545   4.905   0.692
 3255SOL    HW110664   3.473   4.912   0.624
 3255SOL    HW210665   3.572   4.997   0.722
 3256SOL     OW10666   6.484   0.282   5.175
 3256SOL    HW110667   6.484   0.244   5.268
 3256SOL    HW210668   6.489   0.382   5.180
 3257SOL     OW10669   2.640   1.216   1.276
 3257SOL    HW110670   2.716   1.170   1.230
 3257SOL    HW210671   2.677   1.281   1.343
 3258SOL     OW10672   5.006   6.604   2.026
 3258SOL    HW110673   5.084   6.555   2.065
 3258SOL    HW210674   4.937   6.539   1.995
 3259SOL     OW10675   5.518   5.772   3.048
 3259SOL    HW110676   5.588   5.814   3.106
 3259SOL    HW210677   5.514   5.674   3.066
 3260SOL     OW10678   2.356   1.461   1.240
 3260SOL    HW110679   2.257   1.480   1.236
 3260SOL    HW210680   2.389   1.444   1.147
 3261SOL     OW10681   4.668   6.687   3.893
 3261SOL    HW110682   4.640   6.772   3.849
 3261SOL    HW210683   4.586   6.636   3.921
 3262SOL     OW10684   4.779   2.060   3.581
 3262SOL    HW110685   4.681   2.076   3.588
 3262SOL    HW210686   4.803   1.975   3.627
 3263SOL     OW10687   3.147   4.870   3.102
 3263SOL    HW110688   3.113   4.842   3.192
 3263SOL    HW210689   3.073   4.866   3.036
 3264SOL     OW10690   5.565   4.368   6.368
 3264SOL    HW110691   5.632   4.404   6.304
 3264SOL    HW210692   5.609   4.303   6.430
 3265SOL     OW10693   5.521   7.013   5.433
 3265SOL    HW110694   5.448   6.974   5.377
 3265SOL    HW210695   5.487   0.005   5.527
 3266SOL     OW10696   1.261   2.569   6.907
 3266SOL    HW110697   1.191   2.582   6.977
 3266SOL    HW210698   1.242   2.628   6.828
 3267SOL     OW10699   5.267   3.894   1.945
 3267SOL    HW110700   5.305   3.941   2.024
 3267SOL    HW210701   5.305   3.801   1.940
 3268SOL     OW10702   1.835   5.478   0.503
 3268SOL    HW110703   1.789   5.550   0.555
 3268SOL    HW210704   1.812   5.389   0.541
 3269SOL     OW10705   4.469   3.421   0.929
 3269SOL    HW110706   4.523   3.357   0.983
 3269SOL    HW210707   4.374   3.421   0.962
 3270SOL     OW10708   6.664   5.764   3.680
 3270SOL    HW110709   6.669   5.671   3.646
 3270SOL    HW210710   6.727   5.823   3.629
 3271SOL     OW10711   4.844   6.560   1.149
 3271SOL    HW110712   4.860   6.598   1.240
 3271SOL    HW210713   4.860   6.631   1.080
 3272SOL     OW10714   4.655   5.527   6.078
 3272SOL    HW110715   4.606   5.501   5.995
 3272SOL    HW210716   4.602   5.597   6.127
 3273SOL     OW10717   0.393   0.307   3.119
 3273SOL    HW110718   0.482   0.272   3.090
 3273SOL    HW210719   0.323   0.275   3.055
 3274SOL     OW10720   2.862   1.016   0.649
 3274SOL    HW110721   2.846   1.063   0.736
 3274SOL    HW210722   2.958   1.023   0.624
 3275SOL     OW10723   4.264   0.103   6.964
 3275SOL    HW110724   4.275   0.188   7.015
 3275SOL    HW210725   4.311   0.110   6.876
 3276SOL     OW10726   1.295   5.846   1.431
 3276SOL    HW110727   1.298   5.747   1.445
 3276SOL    HW210728   1.231   5.887   1.496
 3277SOL     OW10729   0.234   6.259   6.948
 3277SOL    HW110730   0.188   6.211   0.002
 3277SOL    HW210731   0.179   6.251   6.865
 3278SOL     OW10732   1.153   0.156   0.094
 3278SOL    HW110733   1.167   0.171   0.192
 3278SOL    HW210734   1.233   0.186   0.043
 3279SOL     OW10735   2.367   6.683   1.523
 3279SOL    HW110736   2.392   6.773   1.489
 3279SOL    HW210737   2.351   6.688   1.622
 3280SOL     OW10738   2.743   6.051   3.564
 3280SOL    HW110739   2.645   6.063   3.552
 3280SOL    HW210740   2.774   5.974   3.507
 3281SOL     OW10741   1.079   6.027   1.291
 3281SOL    HW110742   1.062   6.050   1.387
 3281SOL    HW210743   1.126   6.103   1.246
 3282SOL     OW10744   1.962   4.719   2.539
 3282SOL    HW110745   2.001   4.787   2.477
 3282SOL    HW210746   1.863   4.711   2.521
 3283SOL     OW10747   1.827   0.452   3.677
 3283SOL    HW110748   1.760   0.522   3.655
 3283SOL    HW210749   1.877   0.478   3.760
 3284SOL     OW10750   1.781   5.932   5.541
 3284SOL    HW110751   1.710   5.938   5.471
 3284SOL    HW210752   1.781   6.016   5.595
 3285SOL     OW10753   0.569   2.783   4.602
 3285SOL    HW110754   0.497   2.749   4.663
 3285SOL    HW210755   0.586   2.880   4.621
 3286SOL     OW10756   4.980   4.777   6.333
 3286SOL    HW110757   5.041   4.794   6.409
 3286SOL    HW210758   4.886   4.768   6.366
 3287SOL     OW10759   0.216   2.802   1.549
 3287SOL    HW110760   0.144   2.775   1.613
 3287SOL    HW210761   0.197   2.893   1.513
 3288SOL     OW10762   0.755   0.248   0.673
 3288SOL    HW110763   0.849   0.280   0.686
 3288SOL    HW210764   0.694   0.326   0.663
 3289SOL     OW10765   1.717   0.524   3.973
 3289SOL    HW110766   1.735   0.544   4.069
 3289SOL    HW210767   1.668   0.437   3.966
 3290SOL     OW10768   0.028   4.861   3.944
 3290SOL    HW110769   0.079   4.815   4.017
 3290SOL    HW210770   0.092   4.898   3.877
 3291SOL     OW10771   1.135   1.942   1.677
 3291SOL    HW110772   1.053   1.983   1.718
 3291SOL    HW210773   1.139   1.845   1.700
 3292SOL     OW10774   0.644   6.085   4.353
 3292SOL    HW110775   0.624   6.025   4.431
 3292SOL    HW210776   0.736   6.123   4.363
 3293SOL     OW10777   6.135   0.389   2.764
 3293SOL    HW110778   6.082   0.454   2.818
 3293SOL    HW210779   6.197   0.439   2.704
 3294SOL     OW10780   6.472   0.055   0.808
 3294SOL    HW110781   6.407   0.064   0.884
 3294SOL    HW210782   6.510   6.984   0.808
 3295SOL     OW10783   3.038   3.115   5.988
 3295SOL    HW110784   2.958   3.057   6.002
 3295SOL    HW210785   3.047   3.137   5.890
 3296SOL     OW10786   0.878   6.743   2.102
 3296SOL    HW110787   0.972   6.753   2.069
 3296SOL    HW210788   0.879   6.713   2.197
 3297SOL     OW10789   3.401   0.951   5.701
 3297SOL    HW110790   3.403   0.855   5.728
 3297SOL    HW210791   3.316   0.970   5.652
 3298SOL     OW10792   0.626   5.124   3.110
 3298SOL    HW110793   0.587   5.187   3.043
 3298SOL    HW210794   0.725   5.136   3.113
 3299SOL     OW10795   1.359   1.582   4.558
 3299SOL    HW110796   1.323   1.672   4.532
 3299SOL    HW210797   1.308   1.510   4.511
 3300SOL     OW10798   0.025   6.759   4.828
 3300SOL    HW110799   6.961   6.809   4.813
 3300SOL    HW210800   0.102   6.814   4.796
 3301SOL     OW10801   6.333   4.248   2.122
 3301SOL    HW110802   6.280   4.300   2.189
 3301SOL    HW210803   6.307   4.151   2.128
 3302SOL     OW10804   1.540   6.048   5.410
 3302SOL    HW110805   1.450   6.026   5.371
 3302SOL    HW210806   1.534   6.133   5.462
 3303SOL     OW10807   3.343   3.380   4.869
 3303SOL    HW110808   3.385   3.348   4.784
 3303SOL    HW210809   3.332   3.479   4.866
 3304SOL     OW10810   1.557   1.243   4.023
 3304SOL    HW110811   1.583   1.146   4.024
 3304SOL    HW210812   1.621   1.293   3.964
 3305SOL     OW10813   0.726   2.656   0.434
 3305SOL    HW110814   0.750   2.668   0.530
 3305SOL    HW210815   0.627   2.655   0.424
 3306SOL     OW10816   1.737   1.535   1.191
 3306SOL    HW110817   1.789   1.583   1.263
 3306SOL    HW210818   1.735   1.591   1.109
 3307SOL     OW10819   0.519   0.162   6.809
 3307SOL    HW110820   0.578   0.113   6.744
 3307SOL    HW210821   0.522   0.260   6.790
 3308SOL     OW10822   5.352   5.924   0.861
 3308SOL    HW110823   5.404   6.005   0.835
 3308SOL    HW210824   5.269   5.951   0.908
 3309SOL     OW10825   1.289   4.230   1.763
 3309SOL    HW110826   1.339   4.143   1.758
 3309SOL    HW210827   1.322   4.291   1.691
 3310SOL     OW10828   2.241   5.927   1.887
 3310SOL    HW110829   2.338   5.926   1.862
 3310SOL    HW210830   2.190   5.868   1.824
 3311SOL     OW10831   3.981   5.365   0.950
 3311SOL    HW110832   4.067   5.373   0.899
 3311SOL    HW210833   3.946   5.456   0.970
 3312SOL     OW10834   1.869   2.438   6.394
 3312SOL    HW110835   1.852   2.482   6.306
 3312SOL    HW210836   1.967   2.415   6.401
 3313SOL     OW10837   5.594   6.675   5.136
 3313SOL    HW110838   5.686   6.710   5.120
 3313SOL    HW210839   5.531   6.752   5.146
 3314SOL     OW10840   0.672   4.227   6.314
 3314SOL    HW110841   0.625   4.282   6.246
 3314SOL    HW210842   0.678   4.132   6.283
 3315SOL     OW10843   5.715   3.176   2.841
 3315SOL    HW110844   5.755   3.085   2.828
 3315SOL    HW210845   5.751   3.239   2.773
 3316SOL     OW10846   3.526   0.218   6.867
 3316SOL    HW110847   3.554   0.132   6.910
 3316SOL    HW210848   3.434   0.242   6.898
 3317SOL     OW10849   5.062   2.869   1.054
 3317SOL    HW110850   4.972   2.878   1.096
 3317SOL    HW210851   5.076   2.774   1.026
 3318SOL     OW10852   2.375   5.019   6.582
 3318SOL    HW110853   2.442   4.997   6.511
 3318SOL    HW210854   2.332   4.935   6.615
 3319SOL     OW10855   0.756   5.974   6.372
 3319SOL    HW110856   0.673   6.017   6.409
 3319SOL    HW210857   0.806   6.041   6.317
 3320SOL     OW10858   1.058   0.946   1.209
 3320SOL    HW110859   1.083   1.027   1.263
 3320SOL    HW210860   1.012   0.880   1.268
 3321SOL     OW10861   3.804   3.552   4.387
 3321SOL    HW110862   3.766   3.641   4.363
 3321SOL    HW210863   3.780   3.485   4.316
 3322SOL     OW10864   5.142   3.534   2.727
 3322SOL    HW110865   5.078   3.509   2.655
 3322SOL    HW210866   5.126   3.628   2.756
 3323SOL     OW10867   1.421   4.548   0.552
 3323SOL    HW110868   1.488   4.621   0.568
 3323SOL    HW210869   1.331   4.578   0.583
 3324SOL     OW10870   6.423   3.383   1.578
 3324SOL    HW110871   6.347   3.431   1.534
 3324SOL    HW210872   6.491   3.357   1.509
 3325SOL     OW10873   1.078   4.951   4.925
 3325SOL    HW110874   1.025   4.867   4.934
 3325SOL    HW210875   1.170   4.937   4.963
 3326SOL     OW10876   5.155   7.020   2.255
 3326SOL    HW110877   5.228   7.015   2.323
 3326SOL    HW210878   5.161   0.087   2.207
 3327SOL     OW10879   4.605   6.275   1.290
 3327SOL    HW110880   4.634   6.312   1.202
 3327SOL    HW210881   4.587   6.350   1.354
 3328SOL     OW10882   6.122   6.488   3.869
 3328SOL    HW110883   6.142   6.582   3.841
 3328SOL    HW210884   6.116   6.429   3.789
 3329SOL     OW10885   5.637   0.269   6.244
 3329SOL    HW110886   5.551   0.297   6.287
 3329SOL    HW210887   5.683   0.202   6.303
 3330SOL     OW10888   6.321   0.203   2.838
 3330SOL    HW110889   6.351   0.235   2.928
 3330SOL    HW210890   6.243   0.257   2.808
 3331SOL     OW10891   1.064   3.363   2.383
 3331SOL    HW110892   0.968   3.389   2.393
 3331SOL    HW210893   1.070   3.266   2.361
 3332SOL     OW10894   4.023   4.935   0.913
 3332SOL    HW110895   3.987   4.858   0.860
 3332SOL    HW210896   4.075   4.996   0.852
 3333SOL     OW10897   2.645   4.231   0.712
 3333SOL    HW110898   2.685   4.145   0.743
 3333SOL    HW210899   2.559   4.247   0.762
 3334SOL     OW10900   1.895   2.650   2.593
 3334SOL    HW110901   1.872   2.747   2.594
 3334SOL    HW210902   1.957   2.631   2.517
 3335SOL     OW10903   4.680   4.163   6.212
 3335SOL    HW110904   4.596   4.110   6.220
 3335SOL    HW210905   4.662   4.259   6.235
 3336SOL     OW10906   3.567   5.549   5.911
 3336SOL    HW110907   3.559   5.457   5.951
 3336SOL    HW210908   3.552   5.544   5.813
 3337SOL     OW10909   3.021   3.819   4.113
 3337SOL    HW110910   2.942   3.806   4.173
 3337SOL    HW210911   3.105   3.807   4.165
 3338SOL     OW10912   3.291   3.051   1.528
 3338SOL    HW110913   3.225   2.981   1.501
 3338SOL    HW210914   3.363   3.057   1.458
 3339SOL     OW10915   1.135   6.740   6.072
 3339SOL    HW110916   1.219   6.780   6.034
 3339SOL    HW210917   1.074   6.814   6.100
 3340SOL     OW10918   4.929   1.393   6.432
 3340SOL    HW110919   4.898   1.467   6.493
 3340SOL    HW210920   4.852   1.364   6.375
 3341SOL     OW10921   1.288   4.355   1.347
 3341SOL    HW110922   1.350   4.367   1.269
 3341SOL    HW210923   1.254   4.261   1.349
 3342SOL     OW10924   5.789   0.387   2.053
 3342SOL    HW110925   5.742   0.360   2.137
 3342SOL    HW210926   5.841   0.310   2.017
 3343SOL     OW10927   3.662   4.802   1.037
 3343SOL    HW110928   3.687   4.793   1.133
 3343SOL    HW210929   3.616   4.890   1.022
 3344SOL     OW10930   1.340   3.292   1.697
 3344SOL    HW110931   1.337   3.389   1.720
 3344SOL    HW210932   1.403   3.277   1.621
 3345SOL     OW10933   5.054   4.860   0.980
 3345SOL    HW110934   5.039   4.803   1.060
 3345SOL    HW210935   5.085   4.804   0.904
 3346SOL     OW10936   1.392   0.996   6.647
 3346SOL    HW110937   1.399   1.085   6.693
 3346SOL    HW210938   1.299   0.984   6.612
 3347SOL     OW10939   0.883   3.409   5.398
 3347SOL    HW110940   0.819   3.485   5.403
 3347SOL    HW210941   0.903   3.375   5.490
 3348SOL     OW10942   3.476   3.941   5.973
 3348SOL    HW110943   3.479   3.841   5.986
 3348SOL    HW210944   3.464   3.985   6.062
 3349SOL     OW10945   2.100   5.256   1.836
 3349SOL    HW110946   2.020   5.315   1.825
 3349SOL    HW210947   2.152   5.254   1.751
 3350SOL     OW10948   3.261   5.633   4.246
 3350SOL    HW110949   3.179   5.608   4.298
 3350SOL    HW210950   3.301   5.552   4.204
 3351SOL     OW10951   5.488   6.705   1.537
 3351SOL    HW110952   5.506   6.698   1.635
 3351SOL    HW210953   5.546   6.641   1.488
 3352SOL     OW10954   5.951   1.115   0.243
 3352SOL    HW110955   6.027   1.088   0.184
 3352SOL    HW210956   5.865   1.098   0.195
 3353SOL     OW10957   3.996   0.573   6.071
 3353SOL    HW110958   3.923   0.580   6.138
 3353SOL    HW210959   4.030   0.664   6.049
 3354SOL     OW10960   2.753   1.931   0.203
 3354SOL    HW110961   2.755   1.983   0.289
 3354SOL    HW210962   2.803   1.980   0.133
 3355SOL     OW10963   1.108   1.916   5.395
 3355SOL    HW110964   1.170   1.994   5.392
 3355SOL    HW210965   1.047   1.919   5.315
 3356SOL     OW10966   3.038   0.401   5.583
 3356SOL    HW110967   3.050   0.485   5.530
 3356SOL    HW210968   2.942   0.392   5.610
 3357SOL     OW10969   3.190   4.094   4.500
 3357SOL    HW110970   3.124   4.167   4.515
 3357SOL    HW210971   3.169   4.016   4.559
 3358SOL     OW10972   0.032   1.969   1.579
 3358SOL    HW110973   0.026   1.872   1.554
 3358SOL    HW210974   0.021   1.979   1.678
 3359SOL     OW10975   1.325   6.893   4.038
 3359SOL    HW110976   1.233   6.899   4.000
 3359SOL    HW210977   1.368   6.983   4.037
 3360SOL     OW10978   1.079   5.323   4.816
 3360SOL    HW110979   1.161   5.347   4.764
 3360SOL    HW210980   1.053   5.400   4.874
 3361SOL     OW10981   0.349   6.926   4.506
 3361SOL    HW110982   0.443   6.899   4.526
 3361SOL    HW210983   0.349   7.007   4.448
 3362SOL     OW10984   3.010   0.949   5.302
 3362SOL    HW110985   3.034   0.864   5.257
 3362SOL    HW210986   2.921   0.940   5.347
 3363SOL     OW10987   4.912   3.641   0.486
 3363SOL    HW110988   4.837   3.643   0.552
 3363SOL    HW210989   4.906   3.721   0.426
 3364SOL     OW10990   1.664   2.990   1.154
 3364SOL    HW110991   1.595   2.918   1.154
 3364SOL    HW210992   1.660   3.041   1.068
 3365SOL     OW10993   0.736   2.565   2.943
 3365SOL    HW110994   0.651   2.573   2.996
 3365SOL    HW210995   0.714   2.559   2.846
 3366SOL     OW10996   5.773   3.597   3.545
 3366SOL    HW110997   5.673   3.602   3.540
 3366SOL    HW210998   5.801   3.501   3.547
 3367SOL     OW10999   3.209   4.058   4.015
 3367SOL    HW111000   3.152   3.980   4.038
 3367SOL    HW211001   3.152   4.139   4.005
 3368SOL     OW11002   1.567   1.188   3.541
 3368SOL    HW111003   1.567   1.095   3.579
 3368SOL    HW211004   1.544   1.183   3.443
 3369SOL     OW11005   5.680   2.831   0.479
 3369SOL    HW111006   5.617   2.832   0.402
 3369SOL    HW211007   5.628   2.835   0.564
 3370SOL     OW11008   0.610   5.751   3.429
 3370SOL    HW111009   0.581   5.799   3.347
 3370SOL    HW211010   0.604   5.652   3.415
 3371SOL     OW11011   2.477   2.819   1.113
 3371SOL    HW111012   2.572   2.822   1.144
 3371SOL    HW211013   2.456   2.901   1.059
 3372SOL     OW11014   5.122   3.051   3.036
 3372SOL    HW111015   5.111   3.129   2.974
 3372SOL    HW211016   5.107   3.080   3.130
 3373SOL     OW11017   0.206   4.883   0.861
 3373SOL    HW111018   0.209   4.872   0.960
 3373SOL    HW211019   0.133   4.948   0.838
 3374SOL     OW11020   1.243   5.578   4.024
 3374SOL    HW111021   1.284   5.662   3.989
 3374SOL    HW211022   1.189   5.534   3.952
 3375SOL     OW11023   6.949   6.752   5.634
 3375SOL    HW111024   6.985   6.659   5.637
 3375SOL    HW211025   7.011   6.809   5.578
 3376SOL     OW11026   3.544   3.719   4.768
 3376SOL    HW111027   3.598   3.736   4.850
 3376SOL    HW211028   3.564   3.628   4.733
 3377SOL     OW11029   6.955   5.575   4.131
 3377SOL    HW111030   6.876   5.533   4.175
 3377SOL    HW211031   7.012   5.503   4.090
 3378SOL     OW11032   1.202   5.943   0.348
 3378SOL    HW111033   1.201   5.845   0.329
 3378SOL    HW211034   1.152   5.992   0.276
 3379SOL     OW11035   6.104   4.628   3.828
 3379SOL    HW111036   6.050   4.598   3.907
 3379SOL    HW211037   6.197   4.648   3.858
 3380SOL     OW11038   1.504   4.433   2.021
 3380SOL    HW111039   1.602   4.439   2.040
 3380SOL    HW211040   1.453   4.438   2.108
 3381SOL     OW11041   3.068   4.169   6.797
 3381SOL    HW111042   3.151   4.139   6.844
 3381SOL    HW211043   3.070   4.268   6.783
 3382SOL     OW11044   0.275   4.269   6.536
 3382SOL    HW111045   0.255   4.284   6.633
 3382SOL    HW211046   0.190   4.251   6.487
 3383SOL     OW11047   3.661   6.041   0.380
 3383SOL    HW111048   3.571   6.065   0.344
 3383SOL    HW211049   3.719   6.123   0.383
 3384SOL     OW11050   3.568   2.348   5.877
 3384SOL    HW111051   3.487   2.391   5.837
 3384SOL    HW211052   3.642   2.416   5.882
 3385SOL     OW11053   5.747   2.326   4.576
 3385SOL    HW111054   5.775   2.307   4.670
 3385SOL    HW211055   5.671   2.392   4.576
 3386SOL     OW11056   0.339   4.748   5.511
 3386SOL    HW111057   0.389   4.806   5.446
 3386SOL    HW211058   0.252   4.792   5.533
 3387SOL     OW11059   5.894   0.662   2.543
 3387SOL    HW111060   5.921   0.709   2.627
 3387SOL    HW211061   5.807   0.615   2.557
 3388SOL     OW11062   0.894   4.014   0.648
 3388SOL    HW111063   0.905   3.919   0.677
 3388SOL    HW211064   0.818   4.055   0.698
 3389SOL     OW11065   6.240   5.433   5.984
 3389SOL    HW111066   6.288   5.351   6.015
 3389SOL    HW211067   6.201   5.417   5.893
 3390SOL     OW11068   2.878   4.763   0.941
 3390SOL    HW111069   2.793   4.714   0.961
 3390SOL    HW211070   2.925   4.785   1.027
 3391SOL     OW11071   5.250   3.879   5.485
 3391SOL    HW111072   5.231   3.963   5.535
 3391SOL    HW211073   5.349   3.861   5.486
 3392SOL     OW11074   4.755   5.859   5.891
 3392SOL    HW111075   4.842   5.820   5.861
 3392SOL    HW211076   4.711   5.906   5.814
 3393SOL     OW11077   3.522   0.591   0.605
 3393SOL    HW111078   3.475   0.644   0.535
 3393SOL    HW211079   3.492   0.496   0.601
 3394SOL     OW11080   2.844   5.862   1.677
 3394SOL    HW111081   2.835   5.864   1.777
 3394SOL    HW211082   2.876   5.951   1.645
 3395SOL     OW11083   1.609   5.963   3.190
 3395SOL    HW111084   1.708   5.951   3.202
 3395SOL    HW211085   1.561   5.916   3.263
 3396SOL     OW11086   3.867   0.533   4.294
 3396SOL    HW111087   3.941   0.479   4.253
 3396SOL    HW211088   3.885   0.542   4.392
 3397SOL     OW11089   2.965   6.185   1.437
 3397SOL    HW111090   2.903   6.208   1.362
 3397SOL    HW211091   3.051   6.234   1.426
 3398SOL     OW11092   0.032   0.411   0.278
 3398SOL    HW111093   0.048   0.430   0.375
 3398SOL    HW211094   0.080   0.478   0.223
 3399SOL     OW11095   6.370   6.176   2.071
 3399SOL    HW111096   6.333   6.239   2.003
 3399SOL    HW211097   6.374   6.083   2.033
 3400SOL     OW11098   3.575   3.151   5.358
 3400SOL    HW111099   3.487   3.175   5.398
 3400SOL    HW211100   3.609   3.067   5.401
 3401SOL     OW11101   6.607   3.815   4.012
 3401SOL    HW111102   6.557   3.848   3.932
 3401SOL    HW211103   6.649   3.893   4.059
 3402SOL     OW11104   6.146   3.692   0.258
 3402SOL    HW111105   6.071   3.714   0.321
 3402SOL    HW211106   6.155   3.592   0.251
 3403SOL     OW11107   5.728   6.792   4.089
 3403SOL    HW111108   5.629   6.787   4.102
 3403SOL    HW211109   5.754   6.887   4.068
 3404SOL     OW11110   5.377   5.224   2.990
 3404SOL    HW111111   5.315   5.150   2.965
 3404SOL    HW211112   5.468   5.187   3.009
 3405SOL     OW11113   4.354   6.988   1.217
 3405SOL    HW111114   4.448   7.021   1.218
 3405SOL    HW211115   4.352   6.890   1.238
 3406SOL     OW11116   4.378   5.237   0.872
 3406SOL    HW111117   4.449   5.178   0.834
 3406SOL    HW211118   4.357   5.310   0.807
 3407SOL     OW11119   1.885   1.605   0.906
 3407SOL    HW111120   1.802   1.657   0.927
 3407SOL    HW211121   1.864   1.532   0.841
 3408SOL     OW11122   3.476   0.091   3.882
 3408SOL    HW111123   3.417   0.017   3.915
 3408SOL    HW211124   3.422   0.157   3.830
 3409SOL     OW11125   4.383   2.277   6.740
 3409SOL    HW111126   4.413   2.239   6.652
 3409SOL    HW211127   4.423   2.223   6.814
 3410SOL     OW11128   6.572   1.249   2.563
 3410SOL    HW111129   6.565   1.153   2.590
 3410SOL    HW211130   6.494   1.299   2.601
 3411SOL     OW11131   5.439   3.060   6.448
 3411SOL    HW111132   5.406   3.068   6.542
 3411SOL    HW211133   5.364   3.076   6.385
 3412SOL     OW11134   5.078   3.237   3.521
 3412SOL    HW111135   5.027   3.162   3.563
 3412SOL    HW211136   5.030   3.269   3.440
 3413SOL     OW11137   1.152   2.721   0.770
 3413SOL    HW111138   1.205   2.725   0.855
 3413SOL    HW211139   1.072   2.781   0.778
 3414SOL     OW11140   3.625   3.037   2.072
 3414SOL    HW111141   3.527   3.055   2.076
 3414SOL    HW211142   3.675   3.123   2.064
 3415SOL     OW11143   2.578   0.166   6.810
 3415SOL    HW111144   2.503   0.215   6.765
 3415SOL    HW211145   2.664   0.187   6.763
 3416SOL     OW11146   5.344   6.611   5.945
 3416SOL    HW111147   5.410   6.683   5.926
 3416SOL    HW211148   5.284   6.599   5.866
 3417SOL     OW11149   6.199   1.060   2.138
 3417SOL    HW111150   6.272   1.038   2.073
 3417SOL    HW211151   6.115   1.014   2.110
 3418SOL     OW11152   4.286   4.771   1.357
 3418SOL    HW111153   4.196   4.813   1.367
 3418SOL    HW211154   4.326   4.754   1.447
 3419SOL     OW11155   3.029   4.802   5.176
 3419SOL    HW111156   2.984   4.712   5.178
 3419SOL    HW211157   3.019   4.842   5.086
 3420SOL     OW11158   4.911   1.010   1.641
 3420SOL    HW111159   4.877   1.094   1.685
 3420SOL    HW211160   4.839   0.941   1.641
 3421SOL     OW11161   0.436   1.648   4.277
 3421SOL    HW111162   0.517   1.601   4.313
 3421SOL    HW211163   0.451   1.747   4.279
 3422SOL     OW11164   3.163   4.904   1.405
 3422SOL    HW111165   3.226   4.982   1.409
 3422SOL    HW211166   3.168   4.852   1.490
 3423SOL     OW11167   1.825   4.710   6.032
 3423SOL    HW111168   1.820   4.692   6.130
 3423SOL    HW211169   1.874   4.796   6.016
 3424SOL     OW11170   5.347   6.213   2.563
 3424SOL    HW111171   5.307   6.154   2.494
 3424SOL    HW211172   5.438   6.179   2.588
 3425SOL     OW11173   5.264   2.544   6.280
 3425SOL    HW111174   5.244   2.642   6.272
 3425SOL    HW211175   5.362   2.532   6.298
 3426SOL     OW11176   6.515   5.601   6.277
 3426SOL    HW111177   6.565   5.685   6.297
 3426SOL    HW211178   6.431   5.598   6.332
 3427SOL     OW11179   1.773   1.509   6.888
 3427SOL    HW111180   1.706   1.581   6.902
 3427SOL    HW211181   1.842   1.539   6.822
 3428SOL     OW11182   4.426   0.942   4.136
 3428SOL    HW111183   4.431   1.037   4.106
 3428SOL    HW211184   4.377   0.936   4.223
 3429SOL     OW11185   5.088   5.432   0.385
 3429SOL    HW111186   5.124   5.525   0.388
 3429SOL    HW211187   5.094   5.391   0.476
 3430SOL     OW11188   2.677   4.122   6.811
 3430SOL    HW111189   2.721   4.049   6.863
 3430SOL    HW211190   2.654   4.088   6.719
 3431SOL     OW11191   1.556   4.118   2.046
 3431SOL    HW111192   1.476   4.071   2.008
 3431SOL    HW211193   1.542   4.217   2.039
 3432SOL     OW11194   0.329   5.286   6.261
 3432SOL    HW111195   0.268   5.262   6.337
 3432SOL    HW211196   0.420   5.249   6.278
 3433SOL     OW11197   0.668   1.340   0.097
 3433SOL    HW111198   0.611   1.312   0.020
 3433SOL    HW211199   0.681   1.263   0.160
 3434SOL     OW11200   4.206   2.202   1.838
 3434SOL    HW111201   4.179   2.158   1.752
 3434SOL    HW211202   4.142   2.175   1.910
 3435SOL     OW11203   3.160   2.628   1.007
 3435SOL    HW111204   3.128   2.546   0.961
 3435SOL    HW211205   3.255   2.617   1.035
 3436SOL     OW11206   4.219   5.437   5.547
 3436SOL    HW111207   4.315   5.427   5.572
 3436SOL    HW211208   4.167   5.360   5.582
 3437SOL     OW11209   2.691   6.258   0.699
 3437SOL    HW111210   2.751   6.328   0.663
 3437SOL    HW211211   2.745   6.178   0.727
 3438SOL     OW11212   2.702   4.202   0.212
 3438SOL    HW111213   2.627   4.136   0.199
 3438SOL    HW211214   2.781   4.155   0.250
 3439SOL     OW11215   3.137   5.922   0.923
 3439SOL    HW111216   3.215   5.869   0.956
 3439SOL    HW211217   3.149   6.018   0.947
 3440SOL     OW11218   4.099   4.504   5.721
 3440SOL    HW111219   4.002   4.482   5.733
 3440SOL    HW211220   4.148   4.485   5.806
 3441SOL     OW11221   0.256   5.454   5.675
 3441SOL    HW111222   0.325   5.509   5.629
 3441SOL    HW211223   0.278   5.447   5.772
 3442SOL     OW11224   1.495   2.011   0.388
 3442SOL    HW111225   1.443   2.093   0.366
 3442SOL    HW211226   1.540   2.023   0.477
 3443SOL     OW11227   6.762   5.865   2.298
 3443SOL    HW111228   6.821   5.788   2.270
 3443SOL    HW211229   6.673   5.856   2.253
 3444SOL     OW11230   1.106   3.878   6.006
 3444SOL    HW111231   1.048   3.874   6.088
 3444SOL    HW211232   1.183   3.939   6.022
 3445SOL     OW11233   5.929   5.022   4.739
 3445SOL    HW111234   5.919   5.087   4.664
 3445SOL    HW211235   6.000   4.955   4.716
 3446SOL     OW11236   4.934   1.744   0.370
 3446SOL    HW111237   5.011   1.696   0.327
 3446SOL    HW211238   4.857   1.681   0.381
 3447SOL     OW11239   5.038   1.557   6.184
 3447SOL    HW111240   4.998   1.600   6.265
 3447SOL    HW211241   5.137   1.573   6.184
 3448SOL     OW11242   0.880   5.615   4.546
 3448SOL    HW111243   0.980   5.626   4.547
 3448SOL    HW211244   0.839   5.672   4.616
 3449SOL     OW11245   1.307   3.860   4.664
 3449SOL    HW111246   1.279   3.778   4.616
 3449SOL    HW211247   1.375   3.910   4.610
 3450SOL     OW11248   1.948   6.602   3.226
 3450SOL    HW111249   1.972   6.586   3.322
 3450SOL    HW211250   1.859   6.562   3.206
 3451SOL     OW11251   2.498   2.009   1.020
 3451SOL    HW111252   2.398   2.010   1.027
 3451SOL    HW211253   2.538   2.057   1.098
 3452SOL     OW11254   4.425   1.156   5.347
 3452SOL    HW111255   4.478   1.189   5.425
 3452SOL    HW211256   4.463   1.068   5.316
 3453SOL     OW11257   4.392   6.335   5.379
 3453SOL    HW111258   4.463   6.406   5.386
 3453SOL    HW211259   4.419   6.267   5.311
 3454SOL     OW11260   1.500   3.157   4.003
 3454SOL    HW111261   1.436   3.204   4.064
 3454SOL    HW211262   1.450   3.107   3.933
 3455SOL     OW11263   1.602   3.954   6.026
 3455SOL    HW111264   1.612   3.918   5.933
 3455SOL    HW211265   1.510   3.936   6.060
 3456SOL     OW11266   4.137   5.737   2.673
 3456SOL    HW111267   4.045   5.765   2.699
 3456SOL    HW211268   4.189   5.817   2.641
 3457SOL     OW11269   3.675   3.746   0.242
 3457SOL    HW111270   3.696   3.728   0.146
 3457SOL    HW211271   3.580   3.721   0.261
 3458SOL     OW11272   3.563   1.872   1.052
 3458SOL    HW111273   3.645   1.892   1.107
 3458SOL    HW211274   3.488   1.932   1.081
 3459SOL     OW11275   6.386   0.595   2.856
 3459SOL    HW111276   6.347   0.584   2.764
 3459SOL    HW211277   6.435   0.512   2.882
 3460SOL     OW11278   4.933   1.364   5.163
 3460SOL    HW111279   4.904   1.458   5.144
 3460SOL    HW211280   4.921   1.343   5.260
 3461SOL     OW11281   4.374   4.640   3.677
 3461SOL    HW111282   4.411   4.730   3.654
 3461SOL    HW211283   4.449   4.576   3.689
 3462SOL     OW11284   1.464   4.396   6.907
 3462SOL    HW111285   1.393   4.330   6.886
 3462SOL    HW211286   1.491   4.387   7.002
 3463SOL     OW11287   6.271   4.006   0.001
 3463SOL    HW111288   6.289   4.007   6.924
 3463SOL    HW211289   6.311   3.925   0.043
 3464SOL     OW11290   6.702   5.041   4.590
 3464SOL    HW111291   6.650   5.090   4.520
 3464SOL    HW211292   6.716   5.102   4.669
 3465SOL     OW11293   0.921   2.564   1.631
 3465SOL    HW111294   0.905   2.639   1.568
 3465SOL    HW211295   1.014   2.570   1.668
 3466SOL     OW11296   5.841   3.805   3.371
 3466SOL    HW111297   5.851   3.738   3.445
 3466SOL    HW211298   5.804   3.759   3.290
 3467SOL     OW11299   2.109   1.465   5.810
 3467SOL    HW111300   2.052   1.441   5.731
 3467SOL    HW211301   2.055   1.454   5.894
 3468SOL     OW11302   5.483   4.977   1.831
 3468SOL    HW111303   5.521   5.069   1.820
 3468SOL    HW211304   5.383   4.981   1.826
 3469SOL     OW11305   5.950   3.734   0.435
 3469SOL    HW111306   6.001   3.812   0.472
 3469SOL    HW211307   5.853   3.756   0.430
 3470SOL     OW11308   6.752   5.826   0.007
 3470SOL    HW111309   6.725   5.852   6.935
 3470SOL    HW211310   6.681   5.768   0.047
 3471SOL     OW11311   4.201   6.835   4.552
 3471SOL    HW111312   4.156   6.914   4.511
 3471SOL    HW211313   4.289   6.819   4.507
 3472SOL     OW11314   3.664   1.120   4.434
 3472SOL    HW111315   3.565   1.107   4.436
 3472SOL    HW211316   3.709   1.035   4.461
 3473SOL     OW11317   4.786   0.370   4.300
 3473SOL    HW111318   4.820   0.319   4.379
 3473SOL    HW211319   4.861   0.386   4.236
 3474SOL     OW11320   4.937   4.989   0.685
 3474SOL    HW111321   5.031   4.957   0.697
 3474SOL    HW211322   4.927   5.079   0.728
 3475SOL     OW11323   1.834   5.781   5.187
 3475SOL    HW111324   1.815   5.876   5.160
 3475SOL    HW211325   1.756   5.724   5.162
 3476SOL     OW11326   3.221   1.896   3.355
 3476SOL    HW111327   3.256   1.817   3.305
 3476SOL    HW211328   3.159   1.865   3.427
 3477SOL     OW11329   4.549   5.582   2.918
 3477SOL    HW111330   4.573   5.594   2.822
 3477SOL    HW211331   4.597   5.503   2.955
 3478SOL     OW11332   3.755   4.585   0.103
 3478SOL    HW111333   3.767   4.494   0.142
 3478SOL    HW211334   3.828   4.645   0.136
 3479SOL     OW11335   1.774   0.250   0.280
 3479SOL    HW111336   1.718   0.291   0.208
 3479SOL    HW211337   1.868   0.282   0.272
 3480SOL     OW11338   1.143   6.457   4.511
 3480SOL    HW111339   1.222   6.399   4.532
 3480SOL    HW211340   1.169   6.553   4.523
 3481SOL     OW11341   2.306   4.621   0.270
 3481SOL    HW111342   2.282   4.634   0.367
 3481SOL    HW211343   2.406   4.622   0.261
 3482SOL     OW11344   0.359   2.222   2.206
 3482SOL    HW111345   0.405   2.278   2.137
 3482SOL    HW211346   0.418   2.145   2.231
 3483SOL     OW11347   4.125   1.399   1.414
 3483SOL    HW111348   4.052   1.460   1.444
 3483SOL    HW211349   4.086   1.319   1.368
 3484SOL     OW11350   3.358   4.092   3.760
 3484SOL    HW111351   3.343   4.061   3.854
 3484SOL    HW211352   3.456   4.108   3.745
 3485SOL     OW11353   6.393   2.311   4.321
 3485SOL    HW111354   6.325   2.247   4.284
 3485SOL    HW211355   6.466   2.324   4.255
 3486SOL     OW11356   6.400   1.399   2.780
 3486SOL    HW111357   6.433   1.484   2.739
 3486SOL    HW211358   6.321   1.366   2.728
 3487SOL     OW11359   1.668   6.477   1.159
 3487SOL    HW111360   1.742   6.411   1.151
 3487SOL    HW211361   1.706   6.569   1.169
 3488SOL     OW11362   6.285   3.650   5.362
 3488SOL    HW111363   6.230   3.709   5.303
 3488SOL    HW211364   6.315   3.569   5.311
 3489SOL     OW11365   3.011   5.525   6.844
 3489SOL    HW111366   3.001   5.522   6.744
 3489SOL    HW211367   2.920   5.535   6.886
 3490SOL     OW11368   5.480   3.560   6.943
 3490SOL    HW111369   5.433   3.472   6.936
 3490SOL    HW211370   5.536   3.560   0.005
 3491SOL     OW11371   5.887   2.757   5.359
 3491SOL    HW111372   5.960   2.813   5.318
 3491SOL    HW211373   5.913   2.732   5.452
 3492SOL     OW11374   0.463   4.789   6.685
 3492SOL    HW111375   0.479   4.750   6.594
 3492SOL    HW211376   0.483   4.720   6.754
 3493SOL     OW11377   6.740   4.785   0.994
 3493SOL    HW111378   6.838   4.805   1.000
 3493SOL    HW211379   6.727   4.688   0.975
 3494SOL     OW11380   3.252   0.182   0.916
 3494SOL    HW111381   3.182   0.110   0.918
 3494SOL    HW211382   3.213   0.264   0.874
 3495SOL     OW11383   6.097   4.502   5.959
 3495SOL    HW111384   6.010   4.543   5.932
 3495SOL    HW211385   6.089   4.402   5.959
 3496SOL     OW11386   0.557   5.900   1.715
 3496SOL    HW111387   0.473   5.865   1.674
 3496SOL    HW211388   0.543   5.911   1.813
 3497SOL     OW11389   2.869   0.376   5.214
 3497SOL    HW111390   2.865   0.335   5.305
 3497SOL    HW211391   2.926   0.459   5.217
 3498SOL     OW11392   0.820   1.948   0.476
 3498SOL    HW111393   0.733   1.919   0.517
 3498SOL    HW211394   0.844   1.885   0.401
 3499SOL     OW11395   6.521   4.091   2.991
 3499SOL    HW111396   6.485   4.036   3.066
 3499SOL    HW211397   6.445   4.135   2.943
 3500SOL     OW11398   6.498   2.573   1.125
 3500SOL    HW111399   6.441   2.528   1.057
 3500SOL    HW211400   6.504   2.671   1.105
 3501SOL     OW11401   6.811   5.548   3.183
 3501SOL    HW111402   6.729   5.491   3.186
 3501SOL    HW211403   6.850   5.547   3.091
 3502SOL     OW11404   0.682   6.516   1.603
 3502SOL    HW111405   0.764   6.572   1.614
 3502SOL    HW211406   0.705   6.433   1.551
 3503SOL     OW11407   3.006   0.697   3.676
 3503SOL    HW111408   3.032   0.640   3.598
 3503SOL    HW211409   3.016   0.793   3.651
 3504SOL     OW11410   2.147   3.107   2.484
 3504SOL    HW111411   2.078   3.040   2.455
 3504SOL    HW211412   2.139   3.189   2.427
 3505SOL     OW11413   4.173   6.543   4.580
 3505SOL    HW111414   4.188   6.641   4.569
 3505SOL    HW211415   4.139   6.505   4.494
 3506SOL     OW11416   6.663   3.858   2.883
 3506SOL    HW111417   6.610   3.839   2.800
 3506SOL    HW211418   6.677   3.956   2.892
 3507SOL     OW11419   6.850   0.321   5.374
 3507SOL    HW111420   6.851   0.420   5.383
 3507SOL    HW211421   6.884   0.294   5.284
 3508SOL     OW11422   0.329   4.491   6.987
 3508SOL    HW111423   0.408   4.527   6.939
 3508SOL    HW211424   0.318   4.539   0.053
 3509SOL     OW11425   4.447   6.675   6.424
 3509SOL    HW111426   4.500   6.606   6.472
 3509SOL    HW211427   4.507   6.749   6.393
 3510SOL     OW11428   1.971   0.915   2.705
 3510SOL    HW111429   2.059   0.963   2.706
 3510SOL    HW211430   1.902   0.971   2.659
 3511SOL     OW11431   0.911   0.683   4.216
 3511SOL    HW111432   0.925   0.717   4.123
 3511SOL    HW211433   0.975   0.728   4.278
 3512SOL     OW11434   3.116   3.407   1.850
 3512SOL    HW111435   3.121   3.393   1.751
 3512SOL    HW211436   3.025   3.441   1.874
 3513SOL     OW11437   6.616   4.506   0.971
 3513SOL    HW111438   6.692   4.476   1.029
 3513SOL    HW211439   6.564   4.427   0.940
 3514SOL     OW11440   3.368   5.972   3.513
 3514SOL    HW111441   3.433   5.907   3.555
 3514SOL    HW211442   3.330   5.932   3.430
 3515SOL     OW11443   4.376   5.734   3.766
 3515SOL    HW111444   4.282   5.744   3.735
 3515SOL    HW211445   4.428   5.816   3.744
 3516SOL     OW11446   0.961   1.101   0.231
 3516SOL    HW111447   0.998   1.194   0.229
 3516SOL    HW211448   0.893   1.094   0.304
 3517SOL     OW11449   0.260   0.401   0.049
 3517SOL    HW111450   0.219   0.313   0.022
 3517SOL    HW211451   0.356   0.387   0.074
 3518SOL     OW11452   4.065   3.684   6.243
 3518SOL    HW111453   4.125   3.717   6.170
 3518SOL    HW211454   4.114   3.688   6.330
 3519SOL     OW11455   4.296   0.343   0.086
 3519SOL    HW111456   4.318   0.403   0.010
 3519SOL    HW211457   4.355   0.364   0.164
 3520SOL     OW11458   4.032   4.559   1.477
 3520SOL    HW111459   4.018   4.656   1.457
 3520SOL    HW211460   3.974   4.504   1.417
 3521SOL     OW11461   0.298   2.137   5.424
 3521SOL    HW111462   0.395   2.136   5.401
 3521SOL    HW211463   0.285   2.178   5.514
 3522SOL     OW11464   2.422   0.218   0.783
 3522SOL    HW111465   2.325   0.192   0.781
 3522SOL    HW211466   2.465   0.181   0.864
 3523SOL     OW11467   2.110   4.200   5.035
 3523SOL    HW111468   2.187   4.137   5.025
 3523SOL    HW211469   2.144   4.288   5.070
 3524SOL     OW11470   2.567   1.764   3.751
 3524SOL    HW111471   2.647   1.783   3.696
 3524SOL    HW211472   2.588   1.693   3.818
 3525SOL     OW11473   1.840   3.037   3.636
 3525SOL    HW111474   1.901   2.983   3.579
 3525SOL    HW211475   1.764   3.072   3.580
 3526SOL     OW11476   3.664   5.768   3.613
 3526SOL    HW111477   3.721   5.687   3.629
 3526SOL    HW211478   3.677   5.798   3.518
 3527SOL     OW11479   6.764   4.166   6.352
 3527SOL    HW111480   6.712   4.206   6.428
 3527SOL    HW211481   6.735   4.208   6.266
 3528SOL     OW11482   0.863   6.437   4.226
 3528SOL    HW111483   0.770   6.411   4.199
 3528SOL    HW211484   0.865   6.456   4.324
 3529SOL     OW11485   3.397   5.913   0.532
 3529SOL    HW111486   3.408   6.010   0.507
 3529SOL    HW211487   3.425   5.856   0.456
 3530SOL     OW11488   2.161   5.696   2.549
 3530SOL    HW111489   2.169   5.764   2.476
 3530SOL    HW211490   2.227   5.717   2.622
 3531SOL     OW11491   5.181   4.574   6.574
 3531SOL    HW111492   5.141   4.497   6.524
 3531SOL    HW211493   5.268   4.599   6.532
 3532SOL     OW11494   2.493   6.705   0.223
 3532SOL    HW111495   2.404   6.732   0.262
 3532SOL    HW211496   2.557   6.782   0.231
 3533SOL     OW11497   1.270   1.090   3.533
 3533SOL    HW111498   1.297   1.175   3.488
 3533SOL    HW211499   1.197   1.109   3.598
 3534SOL     OW11500   4.718   6.816   4.204
 3534SOL    HW111501   4.667   6.902   4.217
 3534SOL    HW211502   4.787   6.829   4.134
 3535SOL     OW11503   4.296   4.831   6.995
 3535SOL    HW111504   4.394   4.841   7.010
 3535SOL    HW211505   4.262   4.754   0.028
 3536SOL     OW11506   2.030   3.335   2.383
 3536SOL    HW111507   2.018   3.353   2.285
 3536SOL    HW211508   1.960   3.384   2.434
 3537SOL     OW11509   3.181   4.891   2.105
 3537SOL    HW111510   3.181   4.956   2.029
 3537SOL    HW211511   3.172   4.939   2.192
 3538SOL     OW11512   3.182   0.304   3.302
 3538SOL    HW111513   3.262   0.312   3.363
 3538SOL    HW211514   3.138   0.216   3.318
 3539SOL     OW11515   5.527   5.411   5.641
 3539SOL    HW111516   5.488   5.451   5.724
 3539SOL    HW211517   5.615   5.455   5.621
 3540SOL     OW11518   4.604   4.105   6.902
 3540SOL    HW111519   4.695   4.143   6.883
 3540SOL    HW211520   4.613   4.021   6.955
 3541SOL     OW11521   0.817   2.937   2.499
 3541SOL    HW111522   0.828   3.031   2.531
 3541SOL    HW211523   0.881   2.919   2.424
 3542SOL     OW11524   5.734   1.093   0.045
 3542SOL    HW111525   5.660   1.159   0.031
 3542SOL    HW211526   5.777   1.071   6.979
 3543SOL     OW11527   6.889   2.891   4.978
 3543SOL    HW111528   6.896   2.897   4.878
 3543SOL    HW211529   6.965   2.940   5.020
 3544SOL     OW11530   3.684   4.682   5.691
 3544SOL    HW111531   3.724   4.664   5.600
 3544SOL    HW211532   3.756   4.715   5.752
 3545SOL     OW11533   2.637   6.521   1.172
 3545SOL    HW111534   2.699   6.499   1.096
 3545SOL    HW211535   2.557   6.568   1.136
 3546SOL     OW11536   0.253   4.847   1.141
 3546SOL    HW111537   0.227   4.926   1.197
 3546SOL    HW211538   0.208   4.765   1.177
 3547SOL     OW11539   1.863   3.667   4.309
 3547SOL    HW111540   1.959   3.664   4.284
 3547SOL    HW211541   1.828   3.760   4.293
 3548SOL     OW11542   6.342   0.181   5.577
 3548SOL    HW111543   6.286   0.103   5.552
 3548SOL    HW211544   6.413   0.195   5.507
 3549SOL     OW11545   1.895   0.001   6.724
 3549SOL    HW111546   1.863   7.014   6.819
 3549SOL    HW211547   1.984   0.047   6.722
 3550SOL     OW11548   6.719   2.168   5.061
 3550SOL    HW111549   6.658   2.225   5.007
 3550SOL    HW211550   6.773   2.225   5.122
 3551SOL     OW11551   6.161   1.103   5.025
 3551SOL    HW111552   6.244   1.158   5.032
 3551SOL    HW211553   6.082   1.160   5.048
 3552SOL     OW11554   6.154   0.990   3.634
 3552SOL    HW111555   6.219   0.942   3.575
 3552SOL    HW211556   6.194   1.077   3.663
 3553SOL     OW11557   5.549   6.513   6.161
 3553SOL    HW111558   5.480   6.586   6.163
 3553SOL    HW211559   5.509   6.429   6.196
 3554SOL     OW11560   5.774   3.700   6.339
 3554SOL    HW111561   5.867   3.678   6.308
 3554SOL    HW211562   5.709   3.688   6.264
 3555SOL     OW11563   3.517   1.419   5.327
 3555SOL    HW111564   3.505   1.480   5.405
 3555SOL    HW211565   3.428   1.396   5.288
 3556SOL     OW11566   5.680   1.061   0.995
 3556SOL    HW111567   5.646   1.109   1.076
 3556SOL    HW211568   5.662   0.963   1.004
 3557SOL     OW11569   4.809   0.000   1.684
 3557SOL    HW111570   4.860   6.942   1.650
 3557SOL    HW211571   4.774   0.053   1.607
 3558SOL     OW11572   3.907   5.644   3.084
 3558SOL    HW111573   3.920   5.551   3.047
 3558SOL    HW211574   3.986   5.700   3.060
 3559SOL     OW11575   4.139   6.072   6.440
 3559SOL    HW111576   4.232   6.102   6.459
 3559SOL    HW211577   4.075   6.148   6.457
 3560SOL     OW11578   2.019   6.063   4.081
 3560SOL    HW111579   1.978   6.003   4.150
 3560SOL    HW211580   2.119   6.060   4.089
 3561SOL     OW11581   3.828   2.544   5.922
 3561SOL    HW111582   3.915   2.518   5.963
 3561SOL    HW211583   3.834   2.536   5.822
 3562SOL     OW11584   3.023   0.963   0.079
 3562SOL    HW111585   2.979   1.050   0.105
 3562SOL    HW211586   3.119   0.966   0.105
 3563SOL     OW11587   7.002   2.273   6.383
 3563SOL    HW111588   6.962   2.248   6.295
 3563SOL    HW211589   0.061   2.331   6.368
 3564SOL     OW11590   5.870   2.969   3.080
 3564SOL    HW111591   5.949   3.027   3.104
 3564SOL    HW211592   5.860   2.966   2.981
 3565SOL     OW11593   4.748   6.560   4.656
 3565SOL    HW111594   4.836   6.539   4.614
 3565SOL    HW211595   4.732   6.497   4.733
 3566SOL     OW11596   0.439   0.992   4.862
 3566SOL    HW111597   0.415   1.016   4.768
 3566SOL    HW211598   0.512   1.053   4.894
 3567SOL     OW11599   0.914   4.584   6.470
 3567SOL    HW111600   0.826   4.605   6.427
 3567SOL    HW211601   0.984   4.647   6.436
 3568SOL     OW11602   2.615   4.372   5.884
 3568SOL    HW111603   2.605   4.446   5.817
 3568SOL    HW211604   2.543   4.380   5.953
 3569SOL     OW11605   0.852   0.409   3.087
 3569SOL    HW111606   0.952   0.418   3.083
 3569SOL    HW211607   0.809   0.486   3.041
 3570SOL     OW11608   0.502   2.229   4.605
 3570SOL    HW111609   0.493   2.130   4.595
 3570SOL    HW211610   0.459   2.275   4.527
 3571SOL     OW11611   6.599   5.556   4.886
 3571SOL    HW111612   6.669   5.608   4.936
 3571SOL    HW211613   6.621   5.459   4.890
 3572SOL     OW11614   5.535   6.315   5.394
 3572SOL    HW111615   5.620   6.348   5.353
 3572SOL    HW211616   5.552   6.231   5.445
 3573SOL     OW11617   0.574   2.693   2.002
 3573SOL    HW111618   0.606   2.670   1.909
 3573SOL    HW211619   0.518   2.775   1.998
 3574SOL     OW11620   6.815   3.803   0.269
 3574SOL    HW111621   6.835   3.715   0.226
 3574SOL    HW211622   6.891   3.866   0.254
 3575SOL     OW11623   6.555   0.327   2.658
 3575SOL    HW111624   6.513   0.236   2.657
 3575SOL    HW211625   6.488   0.395   2.630
 3576SOL     OW11626   0.294   1.008   0.605
 3576SOL    HW111627   0.334   0.978   0.519
 3576SOL    HW211628   0.269   1.105   0.598
 3577SOL     OW11629   2.237   4.693   0.515
 3577SOL    HW111630   2.241   4.611   0.573
 3577SOL    HW211631   2.156   4.746   0.538
 3578SOL     OW11632   3.368   4.585   1.637
 3578SOL    HW111633   3.450   4.604   1.691
 3578SOL    HW211634   3.298   4.653   1.659
 3579SOL     OW11635   2.446   2.943   6.414
 3579SOL    HW111636   2.356   2.982   6.433
 3579SOL    HW211637   2.506   3.014   6.378
 3580SOL     OW11638   5.598   1.443   1.737
 3580SOL    HW111639   5.659   1.521   1.722
 3580SOL    HW211640   5.536   1.434   1.659
 3581SOL     OW11641   0.101   1.155   2.810
 3581SOL    HW111642   0.003   1.171   2.821
 3581SOL    HW211643   0.119   1.057   2.813
 3582SOL     OW11644   0.553   0.469   5.588
 3582SOL    HW111645   0.632   0.481   5.529
 3582SOL    HW211646   0.534   0.371   5.600
 3583SOL     OW11647   1.414   6.840   1.870
 3583SOL    HW111648   1.345   6.881   1.810
 3583SOL    HW211649   1.465   6.913   1.916
 3584SOL     OW11650   5.266   0.785   4.594
 3584SOL    HW111651   5.197   0.717   4.622
 3584SOL    HW211652   5.324   0.808   4.672
 3585SOL     OW11653   2.578   4.543   3.874
 3585SOL    HW111654   2.599   4.528   3.778
 3585SOL    HW211655   2.605   4.635   3.900
 3586SOL     OW11656   1.281   1.012   6.997
 3586SOL    HW111657   1.268   1.082   6.927
 3586SOL    HW211658   1.329   1.051   0.054
 3587SOL     OW11659   3.481   6.819   6.147
 3587SOL    HW111660   3.533   6.764   6.081
 3587SOL    HW211661   3.536   6.832   6.229
 3588SOL     OW11662   2.668   2.580   5.483
 3588SOL    HW111663   2.684   2.666   5.435
 3588SOL    HW211664   2.585   2.536   5.448
 3589SOL     OW11665   3.167   6.282   4.477
 3589SOL    HW111666   3.250   6.248   4.522
 3589SOL    HW211667   3.087   6.258   4.532
 3590SOL     OW11668   0.973   5.704   6.792
 3590SOL    HW111669   0.969   5.606   6.775
 3590SOL    HW211670   0.949   5.753   6.708
 3591SOL     OW11671   5.188   1.581   5.344
 3591SOL    HW111672   5.274   1.627   5.367
 3591SOL    HW211673   5.145   1.627   5.266
 3592SOL     OW11674   5.593   1.412   2.199
 3592SOL    HW111675   5.602   1.505   2.236
 3592SOL    HW211676   5.681   1.365   2.205
 3593SOL     OW11677   0.888   5.285   4.087
 3593SOL    HW111678   0.912   5.371   4.133
 3593SOL    HW211679   0.796   5.257   4.113
 3594SOL     OW11680   4.269   1.549   4.113
 3594SOL    HW111681   4.240   1.484   4.183
 3594SOL    HW211682   4.353   1.517   4.070
 3595SOL     OW11683   2.285   6.296   6.363
 3595SOL    HW111684   2.329   6.206   6.367
 3595SOL    HW211685   2.246   6.310   6.272
 3596SOL     OW11686   6.442   3.405   2.901
 3596SOL    HW111687   6.369   3.454   2.948
 3596SOL    HW211688   6.420   3.308   2.897
 3597SOL     OW11689   4.130   0.454   4.156
 3597SOL    HW111690   4.136   0.377   4.092
 3597SOL    HW211691   4.184   0.530   4.122
 3598SOL     OW11692   2.347   0.250   0.262
 3598SOL    HW111693   2.322   0.230   0.167
 3598SOL    HW211694   2.349   0.349   0.276
 3599SOL     OW11695   0.271   2.483   3.819
 3599SOL    HW111696   0.321   2.541   3.883
 3599SOL    HW211697   0.331   2.455   3.744
 3600SOL     OW11698   6.139   6.727   1.497
 3600SOL    HW111699   6.101   6.673   1.422
 3600SOL    HW211700   6.105   6.693   1.584
 3601SOL     OW11701   7.019   3.596   5.807
 3601SOL    HW111702   6.985   3.621   5.717
 3601SOL    HW211703   6.944   3.599   5.873
 3602SOL     OW11704   3.385   2.617   1.313
 3602SOL    HW111705   3.306   2.557   1.330
 3602SOL    HW211706   3.412   2.610   1.217
 3603SOL     OW11707   3.962   5.374   4.883
 3603SOL    HW111708   3.932   5.333   4.797
 3603SOL    HW211709   3.924   5.323   4.960
 3604SOL     OW11710   6.210   4.604   3.008
 3604SOL    HW111711   6.183   4.614   3.104
 3604SOL    HW211712   6.302   4.565   3.004
 3605SOL     OW11713   5.650   1.353   6.435
 3605SOL    HW111714   5.702   1.275   6.403
 3605SOL    HW211715   5.653   1.357   6.535
 3606SOL     OW11716   1.915   4.057   2.911
 3606SOL    HW111717   1.884   3.986   2.975
 3606SOL    HW211718   1.876   4.039   2.821
 3607SOL     OW11719   4.120   0.043   5.564
 3607SOL    HW111720   4.051   0.108   5.597
 3607SOL    HW211721   4.189   0.028   5.634
 3608SOL     OW11722   6.983   3.003   2.928
 3608SOL    HW111723   6.958   3.036   3.019
 3608SOL    HW211724   0.052   2.958   2.933
 3609SOL     OW11725   6.974   0.888   3.699
 3609SOL    HW111726   6.989   0.970   3.644
 3609SOL    HW211727   6.939   0.815   3.641
 3610SOL     OW11728   1.892   5.045   5.521
 3610SOL    HW111729   1.834   4.967   5.543
 3610SOL    HW211730   1.842   5.106   5.458
 3611SOL     OW11731   5.042   4.590   5.748
 3611SOL    HW111732   5.039   4.615   5.845
 3611SOL    HW211733   5.085   4.664   5.696
 3612SOL     OW11734   2.260   5.887   1.351
 3612SOL    HW111735   2.257   5.909   1.253
 3612SOL    HW211736   2.348   5.915   1.388
 3613SOL     OW11737   5.553   4.672   6.223
 3613SOL    HW111738   5.503   4.631   6.146
 3613SOL    HW211739   5.630   4.725   6.187
 3614SOL     OW11740   3.675   2.865   4.671
 3614SOL    HW111741   3.620   2.805   4.728
 3614SOL    HW211742   3.747   2.906   4.726
 3615SOL     OW11743   5.773   6.666   6.326
 3615SOL    HW111744   5.847   6.665   6.259
 3615SOL    HW211745   5.692   6.620   6.288
 3616SOL     OW11746   6.738   1.506   4.641
 3616SOL    HW111747   6.685   1.531   4.722
 3616SOL    HW211748   6.683   1.521   4.559
 3617SOL     OW11749   0.209   0.469   0.819
 3617SOL    HW111750   0.303   0.463   0.853
 3617SOL    HW211751   0.147   0.487   0.896
 3618SOL     OW11752   3.785   5.508   6.354
 3618SOL    HW111753   3.734   5.454   6.421
 3618SOL    HW211754   3.813   5.449   6.278
 3619SOL     OW11755   4.920   3.432   3.814
 3619SOL    HW111756   4.872   3.347   3.795
 3619SOL    HW211757   4.956   3.431   3.907
 3620SOL     OW11758   6.185   1.873   5.148
 3620SOL    HW111759   6.184   1.805   5.075
 3620SOL    HW211760   6.225   1.958   5.114
 3621SOL     OW11761   1.534   2.561   6.385
 3621SOL    HW111762   1.612   2.623   6.392
 3621SOL    HW211763   1.550   2.494   6.313
 3622SOL     OW11764   1.186   3.889   1.000
 3622SOL    HW111765   1.087   3.893   1.011
 3622SOL    HW211766   1.212   3.800   0.961
 3623SOL     OW11767   6.422   4.722   5.071
 3623SOL    HW111768   6.382   4.696   4.984
 3623SOL    HW211769   6.361   4.786   5.118
 3624SOL     OW11770   1.530   0.490   1.827
 3624SOL    HW111771   1.566   0.480   1.734
 3624SOL    HW211772   1.497   0.402   1.860
 3625SOL     OW11773   1.387   2.361   5.190
 3625SOL    HW111774   1.331   2.424   5.243
 3625SOL    HW211775   1.389   2.391   5.094
 3626SOL     OW11776   2.070   3.366   5.446
 3626SOL    HW111777   2.006   3.332   5.515
 3626SOL    HW211778   2.062   3.465   5.440
 3627SOL     OW11779   3.583   3.083   4.549
 3627SOL    HW111780   3.595   2.997   4.598
 3627SOL    HW211781   3.673   3.116   4.518
 3628SOL     OW11782   2.771   5.488   4.024
 3628SOL    HW111783   2.827   5.405   4.020
 3628SOL    HW211784   2.799   5.543   4.103
 3629SOL     OW11785   5.476   3.390   4.560
 3629SOL    HW111786   5.510   3.484   4.568
 3629SOL    HW211787   5.553   3.327   4.552
 3630SOL     OW11788   6.278   2.117   5.042
 3630SOL    HW111789   6.214   2.181   5.002
 3630SOL    HW211790   6.333   2.163   5.112
 3631SOL     OW11791   1.810   0.985   4.293
 3631SOL    HW111792   1.817   0.979   4.194
 3631SOL    HW211793   1.860   1.065   4.326
 3632SOL     OW11794   4.843   6.654   5.873
 3632SOL    HW111795   4.859   6.580   5.939
 3632SOL    HW211796   4.875   6.625   5.783
 3633SOL     OW11797   0.884   2.589   5.586
 3633SOL    HW111798   0.852   2.543   5.504
 3633SOL    HW211799   0.821   2.569   5.662
 3634SOL     OW11800   2.952   4.713   6.186
 3634SOL    HW111801   3.040   4.667   6.175
 3634SOL    HW211802   2.917   4.740   6.096
 3635SOL     OW11803   1.971   2.025   4.314
 3635SOL    HW111804   1.940   2.026   4.409
 3635SOL    HW211805   2.070   2.040   4.312
 3636SOL     OW11806   0.935   6.618   1.639
 3636SOL    HW111807   1.012   6.632   1.577
 3636SOL    HW211808   0.950   6.536   1.693
 3637SOL     OW11809   5.059   1.435   2.436
 3637SOL    HW111810   5.011   1.347   2.441
 3637SOL    HW211811   5.074   1.469   2.529
 3638SOL     OW11812   6.783   5.130   3.544
 3638SOL    HW111813   6.689   5.135   3.512
 3638SOL    HW211814   6.842   5.101   3.469
 3639SOL     OW11815   2.994   6.483   6.951
 3639SOL    HW111816   2.937   6.503   6.871
 3639SOL    HW211817   2.942   6.429   7.016
 3640SOL     OW11818   2.023   6.722   1.966
 3640SOL    HW111819   1.938   6.753   2.009
 3640SOL    HW211820   2.072   6.800   1.928
 3641SOL     OW11821   1.928   1.284   5.091
 3641SOL    HW111822   1.901   1.378   5.109
 3641SOL    HW211823   2.021   1.268   5.126
 3642SOL     OW11824   6.338   0.240   2.314
 3642SOL    HW111825   6.287   0.205   2.392
 3642SOL    HW211826   6.436   0.222   2.328
 3643SOL     OW11827   3.554   0.055   4.264
 3643SOL    HW111828   3.469   0.108   4.270
 3643SOL    HW211829   3.611   0.092   4.191
 3644SOL     OW11830   5.912   0.155   1.946
 3644SOL    HW111831   5.939   0.095   1.871
 3644SOL    HW211832   5.990   0.169   2.007
 3645SOL     OW11833   4.478   6.133   3.768
 3645SOL    HW111834   4.426   6.219   3.769
 3645SOL    HW211835   4.457   6.080   3.851
 3646SOL     OW11836   0.657   5.110   5.076
 3646SOL    HW111837   0.685   5.205   5.060
 3646SOL    HW211838   0.613   5.074   4.994
 3647SOL     OW11839   3.079   3.050   0.587
 3647SOL    HW111840   2.992   3.045   0.636
 3647SOL    HW211841   3.083   2.978   0.517
 3648SOL     OW11842   2.779   6.486   3.210
 3648SOL    HW111843   2.714   6.548   3.255
 3648SOL    HW211844   2.814   6.421   3.277
 3649SOL     OW11845   3.204   2.937   2.963
 3649SOL    HW111846   3.166   2.848   2.989
 3649SOL    HW211847   3.180   2.956   2.868
 3650SOL     OW11848   5.642   6.262   1.309
 3650SOL    HW111849   5.603   6.308   1.229
 3650SOL    HW211850   5.697   6.185   1.280
 3651SOL     OW11851   1.840   5.653   1.761
 3651SOL    HW111852   1.897   5.631   1.840
 3651SOL    HW211853   1.887   5.625   1.677
 3652SOL     OW11854   4.110   6.523   3.580
 3652SOL    HW111855   4.098   6.622   3.584
 3652SOL    HW211856   4.030   6.478   3.620
 3653SOL     OW11857   0.093   3.283   3.672
 3653SOL    HW111858   0.163   3.351   3.647
 3653SOL    HW211859   0.137   3.203   3.712
 3654SOL     OW11860   2.146   6.969   1.942
 3654SOL    HW111861   2.206   0.014   1.897
 3654SOL    HW211862   2.053   7.006   1.947
 3655SOL     OW11863   6.418   1.100   3.737
 3655SOL    HW111864   6.487   1.126   3.805
 3655SOL    HW211865   6.458   1.105   3.646
 3656SOL     OW11866   2.399   1.784   2.700
 3656SOL    HW111867   2.425   1.720   2.627
 3656SOL    HW211868   2.310   1.757   2.738
 3657SOL     OW11869   5.270   5.112   1.509
 3657SOL    HW111870   5.244   5.189   1.567
 3657SOL    HW211871   5.359   5.075   1.539
 3658SOL     OW11872   2.923   4.754   5.640
 3658SOL    HW111873   2.900   4.821   5.569
 3658SOL    HW211874   3.009   4.708   5.616
 3659SOL     OW11875   1.735   4.165   6.594
 3659SOL    HW111876   1.698   4.248   6.636
 3659SOL    HW211877   1.680   4.140   6.515
 3660SOL     OW11878   4.502   3.828   0.930
 3660SOL    HW111879   4.424   3.891   0.929
 3660SOL    HW211880   4.482   3.748   0.874
 3661SOL     OW11881   5.452   1.315   1.564
 3661SOL    HW111882   5.502   1.245   1.616
 3661SOL    HW211883   5.391   1.270   1.498
 3662SOL     OW11884   1.106   6.712   4.192
 3662SOL    HW111885   1.136   6.617   4.177
 3662SOL    HW211886   1.177   6.761   4.244
 3663SOL     OW11887   2.425   2.521   6.156
 3663SOL    HW111888   2.515   2.547   6.192
 3663SOL    HW211889   2.380   2.601   6.117
 3664SOL     OW11890   3.444   0.739   2.237
 3664SOL    HW111891   3.516   0.807   2.228
 3664SOL    HW211892   3.439   0.708   2.332
 3665SOL     OW11893   2.186   1.198   5.100
 3665SOL    HW111894   2.227   1.231   5.014
 3665SOL    HW211895   2.216   1.104   5.116
 3666SOL     OW11896   0.762   4.701   3.330
 3666SOL    HW111897   0.738   4.606   3.310
 3666SOL    HW211898   0.697   4.738   3.396
 3667SOL     OW11899   0.291   1.194   0.118
 3667SOL    HW111900   0.266   1.106   0.159
 3667SOL    HW211901   0.378   1.184   0.071
 3668SOL     OW11902   2.108   6.514   1.779
 3668SOL    HW111903   2.087   6.580   1.852
 3668SOL    HW211904   2.203   6.483   1.788
 3669SOL     OW11905   5.781   1.618   3.996
 3669SOL    HW111906   5.704   1.659   4.046
 3669SOL    HW211907   5.753   1.530   3.959
 3670SOL     OW11908   3.106   4.928   5.967
 3670SOL    HW111909   3.069   4.835   5.964
 3670SOL    HW211910   3.041   4.988   6.013
 3671SOL     OW11911   2.010   1.290   3.171
 3671SOL    HW111912   2.069   1.213   3.194
 3671SOL    HW211913   1.916   1.258   3.159
 3672SOL     OW11914   6.442   6.681   0.191
 3672SOL    HW111915   6.512   6.630   0.140
 3672SOL    HW211916   6.453   6.663   0.289
 3673SOL     OW11917   4.344   0.108   6.462
 3673SOL    HW111918   4.274   0.046   6.497
 3673SOL    HW211919   4.316   0.143   6.373
 3674SOL     OW11920   0.832   6.018   1.123
 3674SOL    HW111921   0.905   6.014   1.191
 3674SOL    HW211922   0.776   6.099   1.138
 3675SOL     OW11923   2.022   2.293   4.011
 3675SOL    HW111924   2.113   2.335   4.020
 3675SOL    HW211925   2.014   2.252   3.920
 3676SOL     OW11926   1.844   5.321   2.817
 3676SOL    HW111927   1.761   5.267   2.834
 3676SOL    HW211928   1.889   5.340   2.904
 3677SOL     OW11929   5.531   0.502   3.501
 3677SOL    HW111930   5.619   0.543   3.478
 3677SOL    HW211931   5.498   0.541   3.587
 3678SOL     OW11932   0.879   2.698   4.306
 3678SOL    HW111933   0.821   2.640   4.249
 3678SOL    HW211934   0.975   2.676   4.291
 3679SOL     OW11935   6.354   1.327   2.032
 3679SOL    HW111936   6.380   1.233   2.055
 3679SOL    HW211937   6.401   1.391   2.094
 3680SOL     OW11938   6.044   4.553   4.579
 3680SOL    HW111939   6.015   4.478   4.637
 3680SOL    HW211940   5.988   4.556   4.497
 3681SOL     OW11941   5.465   0.376   5.073
 3681SOL    HW111942   5.506   0.396   5.162
 3681SOL    HW211943   5.521   0.417   5.001
 3682SOL     OW11944   0.265   2.081   0.099
 3682SOL    HW111945   0.301   1.994   0.066
 3682SOL    HW211946   0.166   2.084   0.085
 3683SOL     OW11947   4.931   6.383   3.027
 3683SOL    HW111948   4.878   6.331   2.960
 3683SOL    HW211949   4.874   6.403   3.107
 3684SOL     OW11950   2.329   3.972   1.802
 3684SOL    HW111951   2.314   4.057   1.853
 3684SOL    HW211952   2.426   3.950   1.800
 3685SOL     OW11953   5.578   6.212   5.656
 3685SOL    HW111954   5.659   6.159   5.629
 3685SOL    HW211955   5.598   6.262   5.740
 3686SOL     OW11956   0.162   4.064   0.517
 3686SOL    HW111957   0.199   3.971   0.524
 3686SOL    HW211958   0.099   4.080   0.593
 3687SOL     OW11959   4.252   1.176   0.629
 3687SOL    HW111960   4.270   1.163   0.531
 3687SOL    HW211961   4.336   1.207   0.674
 3688SOL     OW11962   0.093   3.569   0.458
 3688SOL    HW111963   0.100   3.498   0.529
 3688SOL    HW211964   0.000   3.606   0.456
 3689SOL     OW11965   1.833   6.542   3.478
 3689SOL    HW111966   1.754   6.484   3.457
 3689SOL    HW211967   1.801   6.630   3.512
 3690SOL     OW11968   4.940   5.011   5.827
 3690SOL    HW111969   4.923   5.108   5.842
 3690SOL    HW211970   4.976   4.970   5.911
 3691SOL     OW11971   3.291   3.022   6.072
 3691SOL    HW111972   3.199   3.047   6.042
 3691SOL    HW211973   3.313   3.071   6.156
 3692SOL     OW11974   0.265   0.298   5.470
 3692SOL    HW111975   0.355   0.259   5.492
 3692SOL    HW211976   0.199   0.272   5.541
 3693SOL     OW11977   1.258   1.744   3.626
 3693SOL    HW111978   1.265   1.654   3.669
 3693SOL    HW211979   1.335   1.801   3.657
 3694SOL     OW11980   1.723   5.022   3.631
 3694SOL    HW111981   1.745   4.927   3.608
 3694SOL    HW211982   1.792   5.057   3.694
 3695SOL     OW11983   2.157   2.364   0.207
 3695SOL    HW111984   2.072   2.316   0.228
 3695SOL    HW211985   2.157   2.454   0.250
 3696SOL     OW11986   2.895   6.147   5.598
 3696SOL    HW111987   2.927   6.142   5.693
 3696SOL    HW211988   2.952   6.088   5.541
 3697SOL     OW11989   5.054   0.980   3.696
 3697SOL    HW111990   4.995   0.960   3.618
 3697SOL    HW211991   5.144   0.939   3.682
 3698SOL     OW11992   3.200   6.633   6.457
 3698SOL    HW111993   3.273   6.663   6.518
 3698SOL    HW211994   3.213   6.537   6.434
 3699SOL     OW11995   1.074   5.131   2.305
 3699SOL    HW111996   1.152   5.111   2.246
 3699SOL    HW211997   1.099   5.204   2.370
 3700SOL     OW11998   6.171   0.502   3.337
 3700SOL    HW111999   6.200   0.566   3.266
 3700SOL    HW212000   6.142   0.553   3.418
 3701SOL     OW12001   4.699   1.107   3.956
 3701SOL    HW112002   4.641   1.139   3.881
 3701SOL    HW212003   4.670   1.015   3.983
 3702SOL     OW12004   5.080   1.106   6.627
 3702SOL    HW112005   5.143   1.141   6.557
 3702SOL    HW212006   5.106   1.013   6.652
 3703SOL     OW12007   3.993   4.679   1.112
 3703SOL    HW112008   4.081   4.635   1.097
 3703SOL    HW212009   3.962   4.724   1.028
 3704SOL     OW12010   3.607   6.192   1.070
 3704SOL    HW112011   3.540   6.146   1.011
 3704SOL    HW212012   3.599   6.291   1.059
 3705SOL     OW12013   6.984   1.113   4.127
 3705SOL    HW112014   6.937   1.105   4.214
 3705SOL    HW212015   6.948   1.046   4.062
 3706SOL     OW12016   2.921   2.027   3.181
 3706SOL    HW112017   2.831   2.040   3.140
 3706SOL    HW212018   2.916   1.953   3.249
 3707SOL     OW12019   4.383   2.344   5.446
 3707SOL    HW112020   4.307   2.303   5.497
 3707SOL    HW212021   4.439   2.398   5.509
 3708SOL     OW12022   6.773   0.477   0.300
 3708SOL    HW112023   6.864   0.435   0.301
 3708SOL    HW212024   6.775   0.559   0.243
 3709SOL     OW12025   6.902   6.656   6.795
 3709SOL    HW112026   6.891   6.735   6.854
 3709SOL    HW212027   6.943   6.685   6.708
 3710SOL     OW12028   0.531   5.128   6.726
 3710SOL    HW112029   0.525   5.041   6.775
 3710SOL    HW212030   0.626   5.152   6.711
 3711SOL     OW12031   6.839   5.671   1.874
 3711SOL    HW112032   6.894   5.744   1.834
 3711SOL    HW212033   6.811   5.698   1.966
 3712SOL     OW12034   1.785   6.865   0.036
 3712SOL    HW112035   1.701   6.865   0.090
 3712SOL    HW212036   1.794   6.777   7.010
 3713SOL     OW12037   3.743   5.036   5.904
 3713SOL    HW112038   3.791   4.987   5.976
 3713SOL    HW212039   3.648   5.050   5.931
 3714SOL     OW12040   4.927   1.908   5.019
 3714SOL    HW112041   5.017   1.950   5.008
 3714SOL    HW212042   4.938   1.816   5.059
 3715SOL     OW12043   4.859   3.962   3.457
 3715SOL    HW112044   4.817   3.963   3.547
 3715SOL    HW212045   4.800   4.008   3.391
 3716SOL     OW12046   1.182   1.402   4.393
 3716SOL    HW112047   1.254   1.417   4.325
 3716SOL    HW212048   1.120   1.480   4.394
 3717SOL     OW12049   6.022   0.544   6.655
 3717SOL    HW112050   6.094   0.475   6.650
 3717SOL    HW212051   6.062   0.635   6.648
 3718SOL     OW12052   0.983   6.538   6.625
 3718SOL    HW112053   1.070   6.532   6.576
 3718SOL    HW212054   0.941   6.448   6.630
 3719SOL     OW12055   3.175   4.334   0.526
 3719SOL    HW112056   3.154   4.411   0.466
 3719SOL    HW212057   3.140   4.250   0.486
 3720SOL     OW12058   0.062   1.064   6.264
 3720SOL    HW112059   0.065   0.964   6.271
 3720SOL    HW212060   0.153   1.100   6.283
 3721SOL     OW12061   4.664   2.982   0.261
 3721SOL    HW112062   4.568   2.999   0.280
 3721SOL    HW212063   4.720   3.039   0.321
 3722SOL     OW12064   4.689   5.708   1.215
 3722SOL    HW112065   4.664   5.696   1.311
 3722SOL    HW212066   4.638   5.642   1.159
 3723SOL     OW12067   4.774   1.291   0.722
 3723SOL    HW112068   4.832   1.296   0.803
 3723SOL    HW212069   4.806   1.355   0.653
 3724SOL     OW12070   0.799   4.252   5.885
 3724SOL    HW112071   0.865   4.286   5.818
 3724SOL    HW212072   0.824   4.158   5.911
 3725SOL     OW12073   5.274   6.216   1.337
 3725SOL    HW112074   5.288   6.312   1.362
 3725SOL    HW212075   5.325   6.158   1.400
 3726SOL     OW12076   6.219   2.931   1.646
 3726SOL    HW112077   6.205   3.023   1.609
 3726SOL    HW212078   6.164   2.919   1.728
 3727SOL     OW12079   2.957   3.021   5.495
 3727SOL    HW112080   3.006   2.987   5.415
 3727SOL    HW212081   2.883   3.081   5.466
 3728SOL     OW12082   0.571   4.277   6.566
 3728SOL    HW112083   0.620   4.259   6.481
 3728SOL    HW212084   0.474   4.293   6.547
 3729SOL     OW12085   0.903   3.249   4.013
 3729SOL    HW112086   0.980   3.186   4.006
 3729SOL    HW212087   0.824   3.211   3.964
 3730SOL     OW12088   2.063   6.919   1.429
 3730SOL    HW112089   2.157   6.893   1.403
 3730SOL    HW212090   2.041   6.879   1.518
 3731SOL     OW12091   2.441   5.754   0.186
 3731SOL    HW112092   2.395   5.807   0.258
 3731SOL    HW212093   2.403   5.780   0.097
 3732SOL     OW12094   2.136   3.574   4.566
 3732SOL    HW112095   2.129   3.661   4.518
 3732SOL    HW212096   2.187   3.508   4.509
 3733SOL     OW12097   2.929   3.637   1.556
 3733SOL    HW112098   3.018   3.605   1.524
 3733SOL    HW212099   2.858   3.573   1.528
 3734SOL     OW12100   4.164   1.077   3.264
 3734SOL    HW112101   4.095   1.130   3.313
 3734SOL    HW212102   4.242   1.061   3.325
 3735SOL     OW12103   3.917   2.152   1.947
 3735SOL    HW112104   3.943   2.102   2.029
 3735SOL    HW212105   3.823   2.185   1.956
 3736SOL     OW12106   4.719   1.064   6.184
 3736SOL    HW112107   4.648   0.996   6.198
 3736SOL    HW212108   4.691   1.126   6.110
 3737SOL     OW12109   2.998   0.045   3.658
 3737SOL    HW112110   3.006   0.133   3.705
 3737SOL    HW212111   3.080   7.012   3.675
 3738SOL     OW12112   0.144   0.851   4.245
 3738SOL    HW112113   0.227   0.832   4.192
 3738SOL    HW212114   0.135   0.949   4.259
 3739SOL     OW12115   0.299   3.309   1.112
 3739SOL    HW112116   0.340   3.314   1.021
 3739SOL    HW212117   0.340   3.234   1.164
 3740SOL     OW12118   5.778   6.755   0.093
 3740SOL    HW112119   5.837   6.720   0.165
 3740SOL    HW212120   5.749   6.679   0.034
 3741SOL     OW12121   3.799   1.615   6.906
 3741SOL    HW112122   3.729   1.586   6.971
 3741SOL    HW212123   3.790   1.563   6.821
 3742SOL     OW12124   3.814   3.271   5.877
 3742SOL    HW112125   3.849   3.327   5.952
 3742SOL    HW212126   3.740   3.213   5.911
 3743SOL     OW12127   0.678   5.679   6.033
 3743SOL    HW112128   0.769   5.720   6.043
 3743SOL    HW212129   0.611   5.752   6.016
 3744SOL     OW12130   6.716   4.939   3.090
 3744SOL    HW112131   6.757   5.014   3.143
 3744SOL    HW212132   6.630   4.970   3.050
 3745SOL     OW12133   5.186   4.981   1.291
 3745SOL    HW112134   5.209   5.060   1.349
 3745SOL    HW212135   5.087   4.966   1.293
 3746SOL     OW12136   4.079   1.910   1.665
 3746SOL    HW112137   3.989   1.920   1.708
 3746SOL    HW212138   4.143   1.870   1.731
 3747SOL     OW12139   2.344   7.003   1.071
 3747SOL    HW112140   2.415   0.053   1.070
 3747SOL    HW212141   2.342   6.958   0.982
 3748SOL     OW12142   6.007   0.296   1.726
 3748SOL    HW112143   5.913   0.279   1.756
 3748SOL    HW212144   6.070   0.279   1.802
 3749SOL     OW12145   0.712   0.540   4.014
 3749SOL    HW112146   0.661   0.555   4.099
 3749SOL    HW212147   0.804   0.577   4.023
 3750SOL     OW12148   0.570   3.850   6.601
 3750SOL    HW112149   0.583   3.790   6.680
 3750SOL    HW212150   0.524   3.933   6.629
 3751SOL     OW12151   1.924   5.130   1.482
 3751SOL    HW112152   1.991   5.082   1.425
 3751SOL    HW212153   1.908   5.221   1.444
 3752SOL     OW12154   5.377   5.854   6.761
 3752SOL    HW112155   5.385   5.873   6.859
 3752SOL    HW212156   5.285   5.879   6.730
 3753SOL     OW12157   0.320   0.618   3.113
 3753SOL    HW112158   0.368   0.678   3.177
 3753SOL    HW212159   0.367   0.530   3.108
 3754SOL     OW12160   3.405   2.028   1.276
 3754SOL    HW112161   3.426   2.100   1.210
 3754SOL    HW212162   3.399   2.067   1.368
 3755SOL     OW12163   2.346   5.667   4.057
 3755SOL    HW112164   2.303   5.716   3.980
 3755SOL    HW212165   2.396   5.732   4.113
 3756SOL     OW12166   1.178   6.169   1.075
 3756SOL    HW112167   1.201   6.260   1.041
 3756SOL    HW212168   1.117   6.124   1.011
 3757SOL     OW12169   0.799   5.008   0.236
 3757SOL    HW112170   0.843   4.940   0.176
 3757SOL    HW212171   0.738   4.961   0.300
 3758SOL     OW12172   0.440   6.060   3.877
 3758SOL    HW112173   0.370   6.111   3.925
 3758SOL    HW212174   0.397   5.998   3.812
 3759SOL     OW12175   4.476   0.722   3.730
 3759SOL    HW112176   4.504   0.818   3.738
 3759SOL    HW212177   4.553   0.663   3.753
 3760SOL     OW12178   0.675   1.037   3.212
 3760SOL    HW112179   0.659   1.055   3.115
 3760SOL    HW212180   0.674   1.123   3.262
 3761SOL     OW12181   4.708   1.149   5.238
 3761SOL    HW112182   4.761   1.092   5.176
 3761SOL    HW212183   4.650   1.211   5.186
 3762SOL     OW12184   0.450   2.614   3.957
 3762SOL    HW112185   0.509   2.653   3.886
 3762SOL    HW212186   0.497   2.620   4.046
 3763SOL     OW12187   1.164   6.786   6.972
 3763SOL    HW112188   1.202   6.811   0.040
 3763SOL    HW212189   1.066   6.803   6.972
 3764SOL     OW12190   3.486   1.728   2.563
 3764SOL    HW112191   3.445   1.644   2.527
 3764SOL    HW212192   3.502   1.792   2.488
 3765SOL     OW12193   5.758   3.808   2.630
 3765SOL    HW112194   5.741   3.743   2.556
 3765SOL    HW212195   5.850   3.845   2.621
 3766SOL     OW12196   1.981   2.979   2.302
 3766SOL    HW112197   1.954   2.933   2.387
 3766SOL    HW212198   1.972   2.916   2.225
 3767SOL     OW12199   1.549   5.977   6.023
 3767SOL    HW112200   1.618   5.922   6.069
 3767SOL    HW212201   1.576   6.074   6.025
 3768SOL     OW12202   1.450   6.779   3.517
 3768SOL    HW112203   1.466   6.830   3.602
 3768SOL    HW212204   1.498   6.824   3.441
 3769SOL     OW12205   5.230   5.077   5.548
 3769SOL    HW112206   5.177   5.162   5.549
 3769SOL    HW212207   5.322   5.095   5.582
 3770SOL     OW12208   2.674   6.827   0.915
 3770SOL    HW112209   2.695   6.842   1.012
 3770SOL    HW212210   2.576   6.812   0.905
 3771SOL     OW12211   6.438   6.138   5.750
 3771SOL    HW112212   6.491   6.089   5.820
 3771SOL    HW212213   6.473   6.231   5.741
 3772SOL     OW12214   2.782   5.924   1.977
 3772SOL    HW112215   2.818   6.016   1.993
 3772SOL    HW212216   2.828   5.859   2.037
 3773SOL     OW12217   5.043   4.315   6.666
 3773SOL    HW112218   4.959   4.359   6.699
 3773SOL    HW212219   5.109   4.311   6.740
 3774SOL     OW12220   6.838   4.445   1.098
 3774SOL    HW112221   6.877   4.486   1.180
 3774SOL    HW212222   6.875   4.353   1.086
 3775SOL     OW12223   5.549   6.491   4.709
 3775SOL    HW112224   5.645   6.479   4.685
 3775SOL    HW212225   5.536   6.477   4.807
 3776SOL     OW12226   4.535   2.536   6.658
 3776SOL    HW112227   4.464   2.535   6.587
 3776SOL    HW212228   4.552   2.443   6.690
 3777SOL     OW12229   3.164   5.142   3.738
 3777SOL    HW112230   3.254   5.186   3.733
 3777SOL    HW212231   3.176   5.043   3.746
 3778SOL     OW12232   3.154   5.486   6.475
 3778SOL    HW112233   3.058   5.462   6.489
 3778SOL    HW212234   3.163   5.586   6.466
 3779SOL     OW12235   0.014   4.924   5.879
 3779SOL    HW112236   0.099   4.903   5.927
 3779SOL    HW212237   6.961   4.934   5.945
 3780SOL     OW12238   6.121   2.319   2.159
 3780SOL    HW112239   6.184   2.390   2.191
 3780SOL    HW212240   6.165   2.267   2.086
 3781SOL     OW12241   1.354   6.851   5.933
 3781SOL    HW112242   1.444   6.872   5.896
 3781SOL    HW212243   1.287   6.851   5.860
 3782SOL     OW12244   3.641   5.528   6.967
 3782SOL    HW112245   3.575   5.585   6.918
 3782SOL    HW212246   3.727   5.525   6.916
 3783SOL     OW12247   4.831   4.732   5.469
 3783SOL    HW112248   4.822   4.687   5.380
 3783SOL    HW212249   4.809   4.667   5.542
 3784SOL     OW12250   5.819   3.389   4.419
 3784SOL    HW112251   5.829   3.420   4.514
 3784SOL    HW212252   5.871   3.450   4.359
 3785SOL     OW12253   0.816   3.171   2.642
 3785SOL    HW112254   0.822   3.130   2.733
 3785SOL    HW212255   0.822   3.270   2.650
 3786SOL     OW12256   2.591   3.287   6.081
 3786SOL    HW112257   2.506   3.333   6.054
 3786SOL    HW212258   2.587   3.191   6.054
 3787SOL     OW12259   5.043   5.871   5.217
 3787SOL    HW112260   5.035   5.841   5.312
 3787SOL    HW212261   5.135   5.909   5.202
 3788SOL     OW12262   5.713   2.968   6.262
 3788SOL    HW112263   5.681   3.060   6.238
 3788SOL    HW212264   5.696   2.951   6.359
 3789SOL     OW12265   2.062   4.398   1.121
 3789SOL    HW112266   2.044   4.314   1.069
 3789SOL    HW212267   2.098   4.374   1.211
 3790SOL     OW12268   2.078   6.827   1.687
 3790SOL    HW112269   2.161   6.803   1.737
 3790SOL    HW212270   2.008   6.857   1.752
 3791SOL     OW12271   5.002   0.744   4.405
 3791SOL    HW112272   5.031   0.658   4.362
 3791SOL    HW212273   5.056   0.820   4.368
 3792SOL     OW12274   6.369   0.243   3.121
 3792SOL    HW112275   6.292   0.235   3.184
 3792SOL    HW212276   6.448   0.196   3.159
 3793SOL     OW12277   4.725   3.412   0.156
 3793SOL    HW112278   4.772   3.373   0.077
 3793SOL    HW212279   4.627   3.414   0.139
 3794SOL     OW12280   1.561   5.046   5.793
 3794SOL    HW112281   1.560   5.079   5.699
 3794SOL    HW212282   1.527   4.952   5.797
 3795SOL     OW12283   3.159   5.905   0.641
 3795SOL    HW112284   3.255   5.897   0.616
 3795SOL    HW212285   3.147   5.887   0.738
 3796SOL     OW12286   5.270   0.699   0.053
 3796SOL    HW112287   5.307   0.621   0.103
 3796SOL    HW212288   5.235   0.669   6.986
 3797SOL     OW12289   6.929   2.865   1.310
 3797SOL    HW112290   6.954   2.925   1.386
 3797SOL    HW212291   6.831   2.871   1.292
 3798SOL     OW12292   0.606   4.749   3.815
 3798SOL    HW112293   0.607   4.762   3.716
 3798SOL    HW212294   0.527   4.693   3.840
 3799SOL     OW12295   7.000   1.792   2.627
 3799SOL    HW112296   6.996   1.788   2.726
 3799SOL    HW212297   7.012   1.699   2.590
 3800SOL     OW12298   5.412   3.103   2.209
 3800SOL    HW112299   5.353   3.161   2.267
 3800SOL    HW212300   5.506   3.109   2.242
 3801SOL     OW12301   6.037   1.450   1.046
 3801SOL    HW112302   6.134   1.429   1.061
 3801SOL    HW212303   6.011   1.528   1.103
 3802SOL     OW12304   6.254   3.542   3.040
 3802SOL    HW112305   6.161   3.576   3.022
 3802SOL    HW212306   6.320   3.616   3.023
 3803SOL     OW12307   4.119   3.974   6.014
 3803SOL    HW112308   4.152   4.000   5.923
 3803SOL    HW212309   4.021   3.957   6.010
 3804SOL     OW12310   2.886   5.979   3.124
 3804SOL    HW112311   2.901   5.901   3.185
 3804SOL    HW212312   2.951   6.051   3.146
 3805SOL     OW12313   2.592   1.815   6.680
 3805SOL    HW112314   2.607   1.726   6.638
 3805SOL    HW212315   2.514   1.860   6.637
 3806SOL     OW12316   1.824   3.584   2.062
 3806SOL    HW112317   1.740   3.529   2.059
 3806SOL    HW212318   1.903   3.523   2.056
 3807SOL     OW12319   0.606   4.214   3.834
 3807SOL    HW112320   0.520   4.199   3.784
 3807SOL    HW212321   0.683   4.193   3.774
 3808SOL     OW12322   2.607   6.259   5.802
 3808SOL    HW112323   2.572   6.276   5.710
 3808SOL    HW212324   2.613   6.346   5.851
 3809SOL     OW12325   5.139   1.375   1.561
 3809SOL    HW112326   5.185   1.291   1.533
 3809SOL    HW212327   5.184   1.454   1.518
 3810SOL     OW12328   5.317   2.065   3.458
 3810SOL    HW112329   5.320   2.027   3.550
 3810SOL    HW212330   5.379   2.014   3.399
 3811SOL     OW12331   0.380   5.986   5.460
 3811SOL    HW112332   0.308   5.917   5.454
 3811SOL    HW212333   0.449   5.956   5.526
 3812SOL     OW12334   4.065   5.788   6.951
 3812SOL    HW112335   3.978   5.837   6.950
 3812SOL    HW212336   4.062   5.716   7.019
 3813SOL     OW12337   6.347   3.331   6.832
 3813SOL    HW112338   6.261   3.371   6.802
 3813SOL    HW212339   6.378   3.377   6.915
 3814SOL     OW12340   0.017   0.366   5.147
 3814SOL    HW112341   0.111   0.385   5.175
 3814SOL    HW212342   6.993   0.452   5.122
 3815SOL     OW12343   4.892   2.113   5.317
 3815SOL    HW112344   4.829   2.081   5.246
 3815SOL    HW212345   4.858   2.199   5.355
 3816SOL     OW12346   6.934   6.602   1.482
 3816SOL    HW112347   6.914   6.547   1.563
 3816SOL    HW212348   0.001   6.648   1.494
 3817SOL     OW12349   3.743   3.713   2.301
 3817SOL    HW112350   3.699   3.682   2.217
 3817SOL    HW212351   3.801   3.793   2.281
 3818SOL     OW12352   4.181   5.488   2.744
 3818SOL    HW112353   4.232   5.475   2.829
 3818SOL    HW212354   4.148   5.582   2.738
 3819SOL     OW12355   6.298   3.407   3.287
 3819SOL    HW112356   6.295   3.454   3.199
 3819SOL    HW212357   6.249   3.461   3.355
 3820SOL     OW12358   3.028   6.414   6.142
 3820SOL    HW112359   3.098   6.484   6.129
 3820SOL    HW212360   3.045   6.364   6.226
 3821SOL     OW12361   1.851   6.668   1.482
 3821SOL    HW112362   1.895   6.677   1.571
 3821SOL    HW212363   1.871   6.577   1.444
 3822SOL     OW12364   5.879   6.842   1.461
 3822SOL    HW112365   5.832   6.848   1.549
 3822SOL    HW212366   5.957   6.780   1.468
 3823SOL     OW12367   5.469   6.101   4.725
 3823SOL    HW112368   5.555   6.150   4.738
 3823SOL    HW212369   5.404   6.161   4.678
 3824SOL     OW12370   1.819   2.313   0.778
 3824SOL    HW112371   1.747   2.334   0.713
 3824SOL    HW212372   1.784   2.323   0.871
 3825SOL     OW12373   0.519   4.663   5.696
 3825SOL    HW112374   0.452   4.674   5.623
 3825SOL    HW212375   0.607   4.636   5.657
 3826SOL     OW12376   4.820   4.026   3.764
 3826SOL    HW112377   4.824   3.926   3.773
 3826SOL    HW212378   4.913   4.061   3.751
 3827SOL     OW12379   0.465   1.288   6.877
 3827SOL    HW112380   0.490   1.192   6.865
 3827SOL    HW212381   0.386   1.309   6.821
 3828SOL     OW12382   3.412   3.978   5.384
 3828SOL    HW112383   3.384   4.070   5.410
 3828SOL    HW212384   3.438   3.927   5.466
 3829SOL     OW12385   6.937   2.951   1.891
 3829SOL    HW112386   6.993   2.887   1.839
 3829SOL    HW212387   6.840   2.936   1.870
 3830SOL     OW12388   5.349   6.700   3.629
 3830SOL    HW112389   5.417   6.647   3.680
 3830SOL    HW212390   5.387   6.727   3.541
 3831SOL     OW12391   5.285   2.334   3.802
 3831SOL    HW112392   5.366   2.275   3.805
 3831SOL    HW212393   5.254   2.342   3.707
 3832SOL     OW12394   6.134   1.331   3.800
 3832SOL    HW112395   6.156   1.338   3.703
 3832SOL    HW212396   6.035   1.323   3.812
 3833SOL     OW12397   1.818   3.010   6.059
 3833SOL    HW112398   1.812   3.070   6.138
 3833SOL    HW212399   1.752   2.935   6.069
 3834SOL     OW12400   5.164   4.703   0.779
 3834SOL    HW112401   5.115   4.632   0.728
 3834SOL    HW212402   5.245   4.663   0.822
 3835SOL     OW12403   4.615   5.335   4.780
 3835SOL    HW112404   4.591   5.397   4.706
 3835SOL    HW212405   4.606   5.382   4.868
 3836SOL     OW12406   0.372   0.148   4.392
 3836SOL    HW112407   0.295   0.206   4.365
 3836SOL    HW212408   0.412   0.184   4.476
 3837SOL     OW12409   4.789   4.364   5.461
 3837SOL    HW112410   4.750   4.456   5.451
 3837SOL    HW212411   4.765   4.327   5.550
 3838SOL     OW12412   6.790   1.311   4.079
 3838SOL    HW112413   6.825   1.318   3.985
 3838SOL    HW212414   6.856   1.262   4.136
 3839SOL     OW12415   4.387   1.402   3.699
 3839SOL    HW112416   4.369   1.489   3.652
 3839SOL    HW212417   4.306   1.344   3.696
 3840SOL     OW12418   3.873   1.246   6.285
 3840SOL    HW112419   3.940   1.319   6.302
 3840SOL    HW212420   3.920   1.157   6.286
 3841SOL     OW12421   5.622   4.346   3.368
 3841SOL    HW112422   5.559   4.325   3.442
 3841SOL    HW212423   5.609   4.279   3.294
 3842SOL     OW12424   2.009   3.661   5.109
 3842SOL    HW112425   1.931   3.602   5.125
 3842SOL    HW212426   1.990   3.722   5.032
 3843SOL     OW12427   5.657   2.177   6.381
 3843SOL    HW112428   5.740   2.217   6.341
 3843SOL    HW212429   5.664   2.181   6.481
 3844SOL     OW12430   6.620   6.716   0.468
 3844SOL    HW112431   6.673   6.797   0.490
 3844SOL    HW212432   6.661   6.636   0.510
 3845SOL     OW12433   2.127   5.515   0.166
 3845SOL    HW112434   2.083   5.578   0.231
 3845SOL    HW212435   2.067   5.438   0.149
 3846SOL     OW12436   6.532   3.138   2.836
 3846SOL    HW112437   6.540   3.055   2.781
 3846SOL    HW212438   6.622   3.181   2.845
 3847SOL     OW12439   0.761   1.169   6.814
 3847SOL    HW112440   0.831   1.237   6.834
 3847SOL    HW212441   0.783   1.084   6.863
 3848SOL     OW12442   6.397   5.014   1.968
 3848SOL    HW112443   6.489   5.043   1.940
 3848SOL    HW212444   6.353   4.967   1.892
 3849SOL     OW12445   0.608   3.559   5.850
 3849SOL    HW112446   0.585   3.475   5.900
 3849SOL    HW212447   0.677   3.610   5.900
 3850SOL     OW12448   3.246   3.036   1.212
 3850SOL    HW112449   3.332   2.990   1.235
 3850SOL    HW212450   3.253   3.074   1.120
 3851SOL     OW12451   0.300   5.535   2.598
 3851SOL    HW112452   0.242   5.600   2.549
 3851SOL    HW212453   0.374   5.583   2.643
 3852SOL     OW12454   2.343   0.568   5.073
 3852SOL    HW112455   2.397   0.585   4.991
 3852SOL    HW212456   2.368   0.633   5.144
 3853SOL     OW12457   2.366   0.981   3.099
 3853SOL    HW112458   2.280   0.936   3.075
 3853SOL    HW212459   2.390   0.958   3.194
 3854SOL     OW12460   0.549   1.950   2.002
 3854SOL    HW112461   0.552   1.939   2.102
 3854SOL    HW212462   0.455   1.971   1.975
 3855SOL     OW12463   2.967   6.374   6.548
 3855SOL    HW112464   3.034   6.435   6.591
 3855SOL    HW212465   3.008   6.332   6.467
 3856SOL     OW12466   6.699   2.658   6.518
 3856SOL    HW112467   6.793   2.692   6.526
 3856SOL    HW212468   6.636   2.732   6.543
 3857SOL     OW12469   1.611   0.354   6.596
 3857SOL    HW112470   1.703   0.388   6.575
 3857SOL    HW212471   1.610   0.254   6.586
 3858SOL     OW12472   3.744   1.516   5.202
 3858SOL    HW112473   3.650   1.492   5.227
 3858SOL    HW212474   3.779   1.448   5.137
 3859SOL     OW12475   5.914   0.153   2.301
 3859SOL    HW112476   5.998   0.160   2.247
 3859SOL    HW212477   5.915   0.223   2.373
 3860SOL     OW12478   1.589   6.606   4.598
 3860SOL    HW112479   1.501   6.633   4.636
 3860SOL    HW212480   1.611   6.664   4.520
 3861SOL     OW12481   3.128   5.774   2.462
 3861SOL    HW112482   3.189   5.851   2.479
 3861SOL    HW212483   3.161   5.694   2.512
 3862SOL     OW12484   1.480   0.461   4.431
 3862SOL    HW112485   1.550   0.446   4.501
 3862SOL    HW212486   1.500   0.546   4.381
 3863SOL     OW12487   4.361   0.800   1.084
 3863SOL    HW112488   4.285   0.747   1.121
 3863SOL    HW212489   4.407   0.849   1.158
 3864SOL     OW12490   0.742   0.029   4.294
 3864SOL    HW112491   0.666   0.060   4.237
 3864SOL    HW212492   0.770   6.958   4.265
 3865SOL     OW12493   5.083   0.924   0.746
 3865SOL    HW112494   5.001   0.871   0.725
 3865SOL    HW212495   5.078   1.013   0.701
 3866SOL     OW12496   3.228   0.568   6.853
 3866SOL    HW112497   3.253   0.552   6.949
 3866SOL    HW212498   3.148   0.628   6.849
 3867SOL     OW12499   6.496   3.536   2.307
 3867SOL    HW112500   6.557   3.613   2.324
 3867SOL    HW212501   6.426   3.532   2.379
 3868SOL     OW12502   3.766   0.582   0.267
 3868SOL    HW112503   3.741   0.485   0.266
 3868SOL    HW212504   3.862   0.592   0.241
 3869SOL     OW12505   4.001   1.094   4.346
 3869SOL    HW112506   4.056   1.056   4.271
 3869SOL    HW212507   3.935   1.026   4.377
 3870SOL     OW12508   0.097   1.641   5.492
 3870SOL    HW112509   0.133   1.726   5.530
 3870SOL    HW212510   0.172   1.587   5.453
 3871SOL     OW12511   2.762   5.062   3.828
 3871SOL    HW112512   2.774   5.101   3.920
 3871SOL    HW212513   2.666   5.066   3.802
 3872SOL     OW12514   2.885   4.013   5.234
 3872SOL    HW112515   2.897   3.960   5.150
 3872SOL    HW212516   2.807   4.074   5.224
 3873SOL     OW12517   4.744   1.821   6.880
 3873SOL    HW112518   4.825   1.784   6.835
 3873SOL    HW212519   4.744   1.794   6.977
 3874SOL     OW12520   2.375   1.205   1.334
 3874SOL    HW112521   2.354   1.298   1.304
 3874SOL    HW212522   2.474   1.190   1.329
 3875SOL     OW12523   1.027   1.570   6.483
 3875SOL    HW112524   1.119   1.530   6.482
 3875SOL    HW212525   0.965   1.509   6.533
 3876SOL     OW12526   3.573   5.604   2.662
 3876SOL    HW112527   3.585   5.527   2.600
 3876SOL    HW212528   3.640   5.597   2.737
 3877SOL     OW12529   0.719   1.369   5.601
 3877SOL    HW112530   0.666   1.453   5.606
 3877SOL    HW212531   0.668   1.294   5.643
 3878SOL     OW12532   4.823   1.357   4.921
 3878SOL    HW112533   4.901   1.368   4.983
 3878SOL    HW212534   4.740   1.339   4.974
 3879SOL     OW12535   5.350   5.467   0.149
 3879SOL    HW112536   5.385   5.418   0.228
 3879SOL    HW212537   5.389   5.560   0.148
 3880SOL     OW12538   4.704   4.712   3.947
 3880SOL    HW112539   4.778   4.670   3.894
 3880SOL    HW212540   4.701   4.671   4.038
 3881SOL     OW12541   1.345   3.282   0.256
 3881SOL    HW112542   1.428   3.232   0.233
 3881SOL    HW212543   1.297   3.308   0.173
 3882SOL     OW12544   0.366   2.111   5.722
 3882SOL    HW112545   0.350   2.118   5.820
 3882SOL    HW212546   0.463   2.095   5.705
 3883SOL     OW12547   4.119   6.152   4.259
 3883SOL    HW112548   4.178   6.122   4.334
 3883SOL    HW212549   4.027   6.117   4.272
 3884SOL     OW12550   0.215   3.631   2.295
 3884SOL    HW112551   0.128   3.647   2.343
 3884SOL    HW212552   0.290   3.670   2.349
 3885SOL     OW12553   4.436   5.652   1.782
 3885SOL    HW112554   4.435   5.752   1.775
 3885SOL    HW212555   4.343   5.619   1.798
 3886SOL     OW12556   2.661   5.434   5.782
 3886SOL    HW112557   2.644   5.508   5.718
 3886SOL    HW212558   2.621   5.456   5.871
 3887SOL     OW12559   1.823   5.365   1.865
 3887SOL    HW112560   1.768   5.283   1.846
 3887SOL    HW212561   1.800   5.437   1.800
 3888SOL     OW12562   5.333   5.015   3.990
 3888SOL    HW112563   5.414   4.990   3.937
 3888SOL    HW212564   5.303   4.937   4.044
 3889SOL     OW12565   5.442   4.321   0.247
 3889SOL    HW112566   5.436   4.221   0.256
 3889SOL    HW212567   5.517   4.354   0.303
 3890SOL     OW12568   5.379   3.764   3.804
 3890SOL    HW112569   5.311   3.829   3.770
 3890SOL    HW212570   5.333   3.678   3.828
 3891SOL     OW12571   4.655   5.303   4.026
 3891SOL    HW112572   4.654   5.237   3.951
 3891SOL    HW212573   4.679   5.394   3.991
 3892SOL     OW12574   6.518   2.048   1.363
 3892SOL    HW112575   6.541   2.018   1.271
 3892SOL    HW212576   6.497   2.146   1.361
 3893SOL     OW12577   4.034   3.157   3.533
 3893SOL    HW112578   4.056   3.170   3.437
 3893SOL    HW212579   4.106   3.199   3.590
 3894SOL     OW12580   4.204   0.748   6.012
 3894SOL    HW112581   4.268   0.757   5.936
 3894SOL    HW212582   4.253   0.716   6.094
 3895SOL     OW12583   0.349   0.020   3.936
 3895SOL    HW112584   0.367   6.991   4.021
 3895SOL    HW212585   0.266   0.075   3.947
 3896SOL     OW12586   2.155   1.247   6.465
 3896SOL    HW112587   2.109   1.278   6.549
 3896SOL    HW212588   2.129   1.308   6.390
 3897SOL     OW12589   3.901   5.770   1.201
 3897SOL    HW112590   3.857   5.758   1.291
 3897SOL    HW212591   3.903   5.867   1.178
 3898SOL     OW12592   3.234   3.068   1.793
 3898SOL    HW112593   3.265   3.100   1.704
 3898SOL    HW212594   3.241   2.968   1.798
 3899SOL     OW12595   2.855   0.033   5.783
 3899SOL    HW112596   2.951   0.018   5.806
 3899SOL    HW212597   2.829   6.993   5.707
 3900SOL     OW12598   4.613   4.715   2.938
 3900SOL    HW112599   4.676   4.681   2.868
 3900SOL    HW212600   4.520   4.685   2.917
 3901SOL     OW12601   3.096   0.968   6.833
 3901SOL    HW112602   3.183   1.017   6.830
 3901SOL    HW212603   3.065   0.960   6.928
 3902SOL     OW12604   5.414   3.136   3.157
 3902SOL    HW112605   5.399   3.082   3.074
 3902SOL    HW212606   5.349   3.212   3.160
 3903SOL     OW12607   3.409   4.365   6.179
 3903SOL    HW112608   3.336   4.418   6.136
 3903SOL    HW212609   3.439   4.411   6.263
 3904SOL     OW12610   1.925   6.683   0.860
 3904SOL    HW112611   1.883   6.698   0.950
 3904SOL    HW212612   1.916   6.587   0.835
 3905SOL     OW12613   6.954   6.318   4.980
 3905SOL    HW112614   6.978   6.414   4.963
 3905SOL    HW212615   6.896   6.313   5.062
 3906SOL     OW12616   0.100   6.208   5.258
 3906SOL    HW112617   0.114   6.241   5.164
 3906SOL    HW212618   0.005   6.222   5.284
 3907SOL     OW12619   5.614   2.281   3.724
 3907SOL    HW112620   5.635   2.190   3.688
 3907SOL    HW212621   5.637   2.350   3.656
 3908SOL     OW12622   2.680   4.121   5.972
 3908SOL    HW112623   2.619   4.097   6.048
 3908SOL    HW212624   2.658   4.212   5.939
 3909SOL     OW12625   5.480   5.738   3.353
 3909SOL    HW112626   5.555   5.798   3.327
 3909SOL    HW212627   5.502   5.694   3.441
 3910SOL     OW12628   3.805   3.294   2.786
 3910SOL    HW112629   3.810   3.200   2.754
 3910SOL    HW212630   3.764   3.352   2.716
 3911SOL     OW12631   5.982   2.156   5.972
 3911SOL    HW112632   6.076   2.192   5.971
 3911SOL    HW212633   5.985   2.058   5.990
 3912SOL     OW12634   5.365   2.329   6.102
 3912SOL    HW112635   5.277   2.336   6.056
 3912SOL    HW212636   5.364   2.382   6.186
 3913SOL     OW12637   1.517   6.783   1.248
 3913SOL    HW112638   1.496   6.797   1.345
 3913SOL    HW212639   1.438   6.741   1.203
 3914SOL     OW12640   2.920   5.779   5.469
 3914SOL    HW112641   3.000   5.839   5.470
 3914SOL    HW212642   2.949   5.684   5.466
 3915SOL     OW12643   6.893   5.816   1.566
 3915SOL    HW112644   6.978   5.797   1.615
 3915SOL    HW212645   6.897   5.776   1.474
 3916SOL     OW12646   0.413   0.274   3.627
 3916SOL    HW112647   0.460   0.283   3.540
 3916SOL    HW212648   0.476   0.238   3.696
 3917SOL     OW12649   2.508   6.906   6.747
 3917SOL    HW112650   2.552   6.923   6.835
 3917SOL    HW212651   2.495   6.808   6.734
 3918SOL     OW12652   5.617   3.379   6.726
 3918SOL    HW112653   5.571   3.301   6.683
 3918SOL    HW212654   5.566   3.407   6.808
 3919SOL     OW12655   3.398   6.567   0.886
 3919SOL    HW112656   3.414   6.595   0.981
 3919SOL    HW212657   3.422   6.471   0.876
 3920SOL     OW12658   2.208   0.981   6.847
 3920SOL    HW112659   2.173   0.900   6.893
 3920SOL    HW212660   2.149   1.002   6.768
 3921SOL     OW12661   0.695   3.500   1.305
 3921SOL    HW112662   0.707   3.597   1.286
 3921SOL    HW212663   0.660   3.488   1.398
 3922SOL     OW12664   1.280   5.063   1.353
 3922SOL    HW112665   1.358   5.118   1.322
 3922SOL    HW212666   1.279   5.060   1.453
 3923SOL     OW12667   6.659   0.038   1.050
 3923SOL    HW112668   6.636   0.003   0.959
 3923SOL    HW212669   6.595   0.000   1.117
 3924SOL     OW12670   6.626   4.791   4.831
 3924SOL    HW112671   6.673   4.725   4.773
 3924SOL    HW212672   6.598   4.746   4.916
 3925SOL     OW12673   1.470   4.866   1.530
 3925SOL    HW112674   1.476   4.767   1.542
 3925SOL    HW212675   1.424   4.906   1.609
 3926SOL     OW12676   3.475   5.465   3.071
 3926SOL    HW112677   3.537   5.509   3.136
 3926SOL    HW212678   3.381   5.494   3.090
 3927SOL     OW12679   1.688   2.914   6.513
 3927SOL    HW112680   1.650   3.005   6.523
 3927SOL    HW212681   1.659   2.857   6.590
 3928SOL     OW12682   6.207   6.821   6.215
 3928SOL    HW112683   6.253   6.887   6.156
 3928SOL    HW212684   6.225   6.842   6.311
 3929SOL     OW12685   1.044   1.654   4.378
 3929SOL    HW112686   1.063   1.752   4.365
 3929SOL    HW212687   0.997   1.619   4.297
 3930SOL     OW12688   2.788   1.926   3.912
 3930SOL    HW112689   2.807   1.990   3.987
 3930SOL    HW212690   2.690   1.929   3.890
 3931SOL     OW12691   4.220   0.135   1.981
 3931SOL    HW112692   4.243   0.091   1.895
 3931SOL    HW212693   4.304   0.160   2.029
 3932SOL     OW12694   1.850   2.739   3.686
 3932SOL    HW112695   1.949   2.744   3.667
 3932SOL    HW212696   1.826   2.810   3.752
 3933SOL     OW12697   1.836   0.662   5.950
 3933SOL    HW112698   1.793   0.733   6.004
 3933SOL    HW212699   1.870   0.701   5.864
 3934SOL     OW12700   5.310   6.510   7.019
 3934SOL    HW112701   5.401   6.481   0.027
 3934SOL    HW212702   5.250   6.431   7.011
 3935SOL     OW12703   4.779   6.746   1.790
 3935SOL    HW112704   4.859   6.750   1.730
 3935SOL    HW212705   4.753   6.839   1.817
 3936SOL     OW12706   0.711   4.528   2.600
 3936SOL    HW112707   0.683   4.622   2.620
 3936SOL    HW212708   0.810   4.524   2.589
 3937SOL     OW12709   0.516   2.385   2.050
 3937SOL    HW112710   0.537   2.483   2.060
 3937SOL    HW212711   0.600   2.332   2.055
 3938SOL     OW12712   6.543   2.758   3.174
 3938SOL    HW112713   6.581   2.846   3.147
 3938SOL    HW212714   6.488   2.720   3.099
 3939SOL     OW12715   2.226   1.897   1.483
 3939SOL    HW112716   2.281   1.945   1.551
 3939SOL    HW212717   2.272   1.813   1.455
 3940SOL     OW12718   4.309   4.057   1.180
 3940SOL    HW112719   4.286   4.152   1.161
 3940SOL    HW212720   4.336   4.047   1.275
 3941SOL     OW12721   5.206   3.097   6.845
 3941SOL    HW112722   5.126   3.156   6.833
 3941SOL    HW212723   5.215   3.073   6.942
 3942SOL     OW12724   0.009   0.383   0.578
 3942SOL    HW112725   0.028   0.341   0.667
 3942SOL    HW212726   7.013   0.481   0.590
 3943SOL     OW12727   6.227   3.086   5.479
 3943SOL    HW112728   6.278   3.139   5.411
 3943SOL    HW212729   6.291   3.028   5.530
 3944SOL     OW12730   5.402   1.497   4.320
 3944SOL    HW112731   5.367   1.495   4.413
 3944SOL    HW212732   5.492   1.540   4.318
 3945SOL     OW12733   0.102   0.485   1.083
 3945SOL    HW112734   0.026   0.489   1.148
 3945SOL    HW212735   0.165   0.412   1.109
 3946SOL     OW12736   3.730   5.337   3.568
 3946SOL    HW112737   3.665   5.270   3.533
 3946SOL    HW212738   3.767   5.391   3.492
 3947SOL     OW12739   6.541   4.345   6.033
 3947SOL    HW112740   6.501   4.272   6.089
 3947SOL    HW212741   6.586   4.305   5.954
 3948SOL     OW12742   6.491   3.404   0.758
 3948SOL    HW112743   6.581   3.433   0.726
 3948SOL    HW212744   6.490   3.404   0.858
 3949SOL     OW12745   5.424   6.286   3.432
 3949SOL    HW112746   5.416   6.316   3.527
 3949SOL    HW212747   5.366   6.205   3.418
 3950SOL     OW12748   1.362   6.168   0.680
 3950SOL    HW112749   1.461   6.176   0.687
 3950SOL    HW212750   1.318   6.228   0.747
 3951SOL     OW12751   5.583   6.170   1.692
 3951SOL    HW112752   5.509   6.189   1.757
 3951SOL    HW212753   5.544   6.152   1.602
 3952SOL     OW12754   6.219   1.552   6.304
 3952SOL    HW112755   6.183   1.639   6.339
 3952SOL    HW212756   6.153   1.479   6.322
 3953SOL     OW12757   3.460   4.108   2.751
 3953SOL    HW112758   3.469   4.207   2.760
 3953SOL    HW212759   3.368   4.080   2.779
 3954SOL     OW12760   3.944   4.754   5.588
 3954SOL    HW112761   3.988   4.712   5.667
 3954SOL    HW212762   3.915   4.847   5.611
 3955SOL     OW12763   3.887   1.320   4.895
 3955SOL    HW112764   3.878   1.308   4.796
 3955SOL    HW212765   3.816   1.267   4.941
 3956SOL     OW12766   2.096   1.519   1.366
 3956SOL    HW112767   2.027   1.571   1.416
 3956SOL    HW212768   2.052   1.450   1.310
 3957SOL     OW12769   3.827   1.165   4.009
 3957SOL    HW112770   3.820   1.222   4.091
 3957SOL    HW212771   3.763   1.198   3.939
 3958SOL     OW12772   5.542   6.542   5.671
 3958SOL    HW112773   5.599   6.624   5.664
 3958SOL    HW212774   5.575   6.473   5.607
 3959SOL     OW12775   5.495   5.275   6.718
 3959SOL    HW112776   5.438   5.235   6.647
 3959SOL    HW212777   5.462   5.367   6.740
 3960SOL     OW12778   6.115   2.319   4.937
 3960SOL    HW112779   6.044   2.252   4.957
 3960SOL    HW212780   6.109   2.347   4.841
 3961SOL     OW12781   5.273   6.987   4.482
 3961SOL    HW112782   5.240   6.894   4.466
 3961SOL    HW212783   5.351   7.005   4.421
 3962SOL     OW12784   6.449   5.300   5.254
 3962SOL    HW112785   6.406   5.264   5.171
 3962SOL    HW212786   6.395   5.273   5.334
 3963SOL     OW12787   4.642   0.123   2.308
 3963SOL    HW112788   4.639   0.084   2.216
 3963SOL    HW212789   4.735   0.116   2.345
 3964SOL     OW12790   5.056   2.880   3.454
 3964SOL    HW112791   5.001   2.962   3.435
 3964SOL    HW212792   5.074   2.832   3.369
 3965SOL     OW12793   4.772   4.131   4.264
 3965SOL    HW112794   4.710   4.208   4.254
 3965SOL    HW212795   4.741   4.055   4.207
 3966SOL     OW12796   2.285   6.902   6.348
 3966SOL    HW112797   2.285   6.814   6.395
 3966SOL    HW212798   2.191   6.925   6.321
 3967SOL     OW12799   1.630   4.125   3.871
 3967SOL    HW112800   1.661   4.182   3.796
 3967SOL    HW212801   1.708   4.074   3.909
 3968SOL     OW12802   3.945   0.223   0.293
 3968SOL    HW112803   3.900   0.266   0.371
 3968SOL    HW212804   3.900   0.136   0.273
 3969SOL     OW12805   0.139   5.077   3.265
 3969SOL    HW112806   0.113   5.170   3.289
 3969SOL    HW212807   0.128   5.018   3.345
 3970SOL     OW12808   4.827   5.544   1.720
 3970SOL    HW112809   4.845   5.474   1.650
 3970SOL    HW212810   4.898   5.539   1.791
 3971SOL     OW12811   1.489   6.260   3.506
 3971SOL    HW112812   1.482   6.282   3.603
 3971SOL    HW212813   1.564   6.195   3.492
 3972SOL     OW12814   1.431   3.806   6.924
 3972SOL    HW112815   1.507   3.748   6.896
 3972SOL    HW212816   1.466   3.895   6.955
 3973SOL     OW12817   1.817   4.466   0.612
 3973SOL    HW112818   1.864   4.517   0.684
 3973SOL    HW212819   1.818   4.518   0.527
 3974SOL     OW12820   2.868   1.106   5.486
 3974SOL    HW112821   2.863   1.145   5.394
 3974SOL    HW212822   2.820   1.167   5.550
 3975SOL     OW12823   6.074   3.152   6.455
 3975SOL    HW112824   6.136   3.119   6.384
 3975SOL    HW212825   6.107   3.125   6.545
 3976SOL     OW12826   1.934   4.326   2.557
 3976SOL    HW112827   1.886   4.382   2.624
 3976SOL    HW212828   2.014   4.375   2.524
 3977SOL     OW12829   0.681   3.136   6.825
 3977SOL    HW112830   0.751   3.065   6.820
 3977SOL    HW212831   0.662   3.156   6.921
 3978SOL     OW12832   6.526   4.673   4.171
 3978SOL    HW112833   6.548   4.753   4.116
 3978SOL    HW212834   6.567   4.682   4.262
 3979SOL     OW12835   4.720   5.724   6.432
 3979SOL    HW112836   4.665   5.759   6.356
 3979SOL    HW212837   4.753   5.801   6.487
 3980SOL     OW12838   5.591   5.099   6.083
 3980SOL    HW112839   5.589   5.003   6.056
 3980SOL    HW212840   5.499   5.128   6.111
 3981SOL     OW12841   4.441   5.513   6.795
 3981SOL    HW112842   4.401   5.578   6.860
 3981SOL    HW212843   4.400   5.528   6.705
 3982SOL     OW12844   2.864   6.275   3.370
 3982SOL    HW112845   2.877   6.253   3.467
 3982SOL    HW212846   2.940   6.238   3.317
 3983SOL     OW12847   3.490   5.726   4.382
 3983SOL    HW112848   3.401   5.681   4.370
 3983SOL    HW212849   3.551   5.700   4.307
 3984SOL     OW12850   6.610   3.011   3.125
 3984SOL    HW112851   6.544   3.051   3.189
 3984SOL    HW212852   6.642   3.082   3.063
 3985SOL     OW12853   3.933   5.119   6.457
 3985SOL    HW112854   3.998   5.047   6.481
 3985SOL    HW212855   3.982   5.193   6.411
 3986SOL     OW12856   5.374   0.523   2.760
 3986SOL    HW112857   5.322   0.536   2.845
 3986SOL    HW212858   5.359   0.601   2.700
 3987SOL     OW12859   3.943   5.603   5.090
 3987SOL    HW112860   3.849   5.608   5.125
 3987SOL    HW212861   4.001   5.560   5.159
 3988SOL     OW12862   4.569   5.577   0.714
 3988SOL    HW112863   4.549   5.674   0.703
 3988SOL    HW212864   4.484   5.527   0.731
 3989SOL     OW12865   6.276   3.158   1.266
 3989SOL    HW112866   6.238   3.066   1.277
 3989SOL    HW212867   6.253   3.193   1.175
 3990SOL     OW12868   6.920   1.438   1.897
 3990SOL    HW112869   6.963   1.352   1.869
 3990SOL    HW212870   6.976   1.515   1.865
 3991SOL     OW12871   5.408   1.045   3.011
 3991SOL    HW112872   5.450   0.958   3.036
 3991SOL    HW212873   5.461   1.087   2.937
 3992SOL     OW12874   4.006   1.956   1.405
 3992SOL    HW112875   3.952   2.040   1.399
 3992SOL    HW212876   4.034   1.942   1.500
 3993SOL     OW12877   0.924   3.352   1.548
 3993SOL    HW112878   0.858   3.404   1.493
 3993SOL    HW212879   1.010   3.403   1.553
 3994SOL     OW12880   2.512   6.106   4.153
 3994SOL    HW112881   2.460   6.134   4.233
 3994SOL    HW212882   2.452   6.058   4.089
 3995SOL     OW12883   1.756   2.085   4.501
 3995SOL    HW112884   1.694   2.031   4.559
 3995SOL    HW212885   1.702   2.147   4.445
 3996SOL     OW12886   0.017   5.870   4.383
 3996SOL    HW112887   6.982   5.904   4.307
 3996SOL    HW212888   0.112   5.894   4.368
 3997SOL     OW12889   2.986   1.152   3.342
 3997SOL    HW112890   3.006   1.124   3.436
 3997SOL    HW212891   2.937   1.239   3.343
 3998SOL     OW12892   4.392   2.389   2.917
 3998SOL    HW112893   4.448   2.335   2.980
 3998SOL    HW212894   4.330   2.328   2.868
 3999SOL     OW12895   4.807   1.830   4.050
 3999SOL    HW112896   4.738   1.884   4.001
 3999SOL    HW212897   4.826   1.872   4.139
 4000SOL     OW12898   4.024   5.802   4.206
 4000SOL    HW112899   4.076   5.726   4.244
 4000SOL    HW212900   4.046   5.886   4.255
 4001SOL     OW12901   0.858   1.562   4.166
 4001SOL    HW112902   0.873   1.632   4.097
 4001SOL    HW212903   0.824   1.478   4.122
 4002SOL     OW12904   1.874   4.593   1.189
 4002SOL    HW112905   1.862   4.579   1.287
 4002SOL    HW212906   1.932   4.520   1.152
 4003SOL     OW12907   4.025   2.213   4.795
 4003SOL    HW112908   4.003   2.286   4.860
 4003SOL    HW212909   3.941   2.178   4.755
 4004SOL     OW12910   6.600   2.005   6.067
 4004SOL    HW112911   6.545   1.923   6.055
 4004SOL    HW212912   6.598   2.033   6.163
 4005SOL     OW12913   6.097   4.400   5.136
 4005SOL    HW112914   6.035   4.461   5.186
 4005SOL    HW212915   6.092   4.420   5.039
 4006SOL     OW12916   3.404   6.264   3.078
 4006SOL    HW112917   3.350   6.216   3.009
 4006SOL    HW212918   3.368   6.243   3.169
 4007SOL     OW12919   0.493   1.491   5.902
 4007SOL    HW112920   0.446   1.572   5.936
 4007SOL    HW212921   0.590   1.497   5.924
 4008SOL     OW12922   3.136   1.473   5.350
 4008SOL    HW112923   3.184   1.415   5.284
 4008SOL    HW212924   3.053   1.509   5.307
 4009SOL     OW12925   3.831   3.559   3.051
 4009SOL    HW112926   3.815   3.629   3.120
 4009SOL    HW212927   3.818   3.598   2.960
 4010SOL     OW12928   1.150   3.407   0.050
 4010SOL    HW112929   1.140   3.381   6.975
 4010SOL    HW212930   1.191   3.498   0.056
 4011SOL     OW12931   0.524   2.666   0.901
 4011SOL    HW112932   0.518   2.692   0.805
 4011SOL    HW212933   0.584   2.587   0.911
 4012SOL     OW12934   5.487   3.379   3.637
 4012SOL    HW112935   5.390   3.364   3.658
 4012SOL    HW212936   5.513   3.323   3.559
 4013SOL     OW12937   5.317   2.856   3.001
 4013SOL    HW112938   5.339   2.829   2.908
 4013SOL    HW212939   5.249   2.929   3.000
 4014SOL     OW12940   5.320   5.543   1.977
 4014SOL    HW112941   5.367   5.624   1.945
 4014SOL    HW212942   5.300   5.553   2.075
 4015SOL     OW12943   4.570   3.655   6.983
 4015SOL    HW112944   4.577   3.650   0.062
 4015SOL    HW212945   4.546   3.565   6.947
 4016SOL     OW12946   3.279   5.962   4.566
 4016SOL    HW112947   3.324   5.882   4.606
 4016SOL    HW212948   3.257   5.943   4.471
 4017SOL     OW12949   6.379   6.993   5.993
 4017SOL    HW112950   6.322   6.955   5.920
 4017SOL    HW212951   6.461   6.935   6.004
 4018SOL     OW12952   1.879   0.262   6.950
 4018SOL    HW112953   1.783   0.240   6.968
 4018SOL    HW212954   1.936   0.185   6.976
 4019SOL     OW12955   4.916   5.878   3.736
 4019SOL    HW112956   4.995   5.933   3.709
 4019SOL    HW212957   4.944   5.813   3.806
 4020SOL     OW12958   5.467   1.976   4.987
 4020SOL    HW112959   5.456   2.073   5.006
 4020SOL    HW212960   5.548   1.962   4.929
 4021SOL     OW12961   4.905   3.504   6.934
 4021SOL    HW112962   4.991   3.539   6.971
 4021SOL    HW212963   4.847   3.580   6.907
 4022SOL     OW12964   5.577   0.634   0.597
 4022SOL    HW112965   5.654   0.650   0.659
 4022SOL    HW212966   5.517   0.713   0.597
 4023SOL     OW12967   6.398   6.426   5.716
 4023SOL    HW112968   6.310   6.387   5.689
 4023SOL    HW212969   6.387   6.523   5.738
 4024SOL     OW12970   4.607   4.541   4.973
 4024SOL    HW112971   4.645   4.457   5.012
 4024SOL    HW212972   4.513   4.553   5.004
 4025SOL     OW12973   0.812   3.784   4.290
 4025SOL    HW112974   0.728   3.778   4.237
 4025SOL    HW212975   0.891   3.770   4.230
 4026SOL     OW12976   5.242   0.493   5.650
 4026SOL    HW112977   5.181   0.518   5.726
 4026SOL    HW212978   5.187   0.469   5.570
 4027SOL     OW12979   3.487   5.193   2.307
 4027SOL    HW112980   3.530   5.118   2.356
 4027SOL    HW212981   3.490   5.174   2.209
 4028SOL     OW12982   2.208   5.576   3.174
 4028SOL    HW112983   2.214   5.639   3.097
 4028SOL    HW212984   2.299   5.563   3.213
 4029SOL     OW12985   2.019   4.284   3.464
 4029SOL    HW112986   1.976   4.315   3.379
 4029SOL    HW212987   2.051   4.363   3.516
 4030SOL     OW12988   1.900   1.563   6.656
 4030SOL    HW112989   1.870   1.552   6.561
 4030SOL    HW212990   1.970   1.634   6.661
 4031SOL     OW12991   6.369   5.844   4.356
 4031SOL    HW112992   6.348   5.755   4.315
 4031SOL    HW212993   6.286   5.883   4.395
 4032SOL     OW12994   3.789   0.289   4.984
 4032SOL    HW112995   3.716   0.357   4.992
 4032SOL    HW212996   3.775   0.218   5.053
 4033SOL     OW12997   3.892   3.502   6.073
 4033SOL    HW112998   3.950   3.562   6.128
 4033SOL    HW212999   3.798   3.536   6.074
 4034SOL     OW13000   5.851   3.392   4.696
 4034SOL    HW113001   5.918   3.430   4.759
 4034SOL    HW213002   5.829   3.298   4.724
 4035SOL     OW13003   0.197   6.350   2.001
 4035SOL    HW113004   0.264   6.289   2.044
 4035SOL    HW213005   0.240   6.438   1.981
 4036SOL     OW13006   6.132   5.872   1.600
 4036SOL    HW113007   6.175   5.792   1.558
 4036SOL    HW213008   6.052   5.898   1.547
 4037SOL     OW13009   0.513   3.790   6.068
 4037SOL    HW113010   0.588   3.733   6.103
 4037SOL    HW213011   0.434   3.732   6.048
 4038SOL     OW13012   6.050   5.211   3.168
 4038SOL    HW113013   5.968   5.203   3.224
 4038SOL    HW213014   6.026   5.240   3.076
 4039SOL     OW13015   2.475   5.372   1.080
 4039SOL    HW113016   2.491   5.395   0.984
 4039SOL    HW213017   2.562   5.345   1.122
 4040SOL     OW13018   3.598   6.847   0.083
 4040SOL    HW113019   3.520   6.830   0.023
 4040SOL    HW213020   3.632   6.761   0.119
 4041SOL     OW13021   0.661   5.673   3.070
 4041SOL    HW113022   0.732   5.607   3.093
 4041SOL    HW213023   0.672   5.755   3.125
 4042SOL     OW13024   5.922   6.151   1.977
 4042SOL    HW113025   5.859   6.090   1.929
 4042SOL    HW213026   5.874   6.196   2.052
 4043SOL     OW13027   6.378   3.705   0.891
 4043SOL    HW113028   6.393   3.618   0.939
 4043SOL    HW213029   6.444   3.714   0.817
 4044SOL     OW13030   5.865   5.201   2.138
 4044SOL    HW113031   5.803   5.128   2.167
 4044SOL    HW213032   5.960   5.169   2.147
 4045SOL     OW13033   2.934   4.684   5.915
 4045SOL    HW113034   3.020   4.650   5.875
 4045SOL    HW213035   2.886   4.740   5.848
 4046SOL     OW13036   0.450   3.401   0.543
 4046SOL    HW113037   0.442   3.362   0.452
 4046SOL    HW213038   0.512   3.480   0.540
 4047SOL     OW13039   2.923   3.506   3.035
 4047SOL    HW113040   2.858   3.461   2.974
 4047SOL    HW213041   2.875   3.540   3.115
 4048SOL     OW13042   4.689   2.368   0.474
 4048SOL    HW113043   4.604   2.397   0.518
 4048SOL    HW213044   4.693   2.405   0.381
 4049SOL     OW13045   6.908   6.970   0.221
 4049SOL    HW113046   6.826   7.015   0.256
 4049SOL    HW213047   6.955   0.009   0.157
 4050SOL     OW13048   2.576   0.614   2.670
 4050SOL    HW113049   2.489   0.659   2.649
 4050SOL    HW213050   2.607   0.643   2.760
 4051SOL     OW13051   2.291   3.941   0.855
 4051SOL    HW113052   2.208   3.886   0.865
 4051SOL    HW213053   2.336   3.918   0.769
 4052SOL     OW13054   1.374   0.156   1.167
 4052SOL    HW113055   1.344   0.168   1.261
 4052SOL    HW213056   1.457   0.101   1.165
 4053SOL     OW13057   2.919   5.321   2.748
 4053SOL    HW113058   2.836   5.376   2.741
 4053SOL    HW213059   2.906   5.234   2.700
 4054SOL     OW13060   5.663   1.347   6.710
 4054SOL    HW113061   5.601   1.399   6.768
 4054SOL    HW213062   5.652   1.250   6.728
 4055SOL     OW13063   4.511   3.432   0.514
 4055SOL    HW113064   4.500   3.526   0.547
 4055SOL    HW213065   4.451   3.417   0.436
 4056SOL     OW13066   4.536   2.732   6.965
 4056SOL    HW113067   4.560   2.827   6.981
 4056SOL    HW213068   4.612   2.685   6.920
 4057SOL     OW13069   6.074   2.528   0.573
 4057SOL    HW113070   6.147   2.596   0.572
 4057SOL    HW213071   6.114   2.436   0.572
 4058SOL     OW13072   0.975   2.898   3.906
 4058SOL    HW113073   1.029   2.938   3.980
 4058SOL    HW213074   1.032   2.835   3.853
 4059SOL     OW13075   0.196   1.938   5.053
 4059SOL    HW113076   0.246   2.016   5.092
 4059SOL    HW213077   0.113   1.971   5.008
 4060SOL     OW13078   2.792   6.659   5.649
 4060SOL    HW113079   2.867   6.684   5.711
 4060SOL    HW213080   2.783   6.560   5.645
 4061SOL     OW13081   2.093   2.903   1.224
 4061SOL    HW113082   2.144   2.914   1.140
 4061SOL    HW213083   2.012   2.847   1.207
 4062SOL     OW13084   2.914   0.078   2.862
 4062SOL    HW113085   2.888   7.003   2.869
 4062SOL    HW213086   3.014   0.084   2.854
 4063SOL     OW13087   3.008   5.715   6.216
 4063SOL    HW113088   2.967   5.647   6.155
 4063SOL    HW213089   3.036   5.794   6.162
 4064SOL     OW13090   6.345   6.799   4.168
 4064SOL    HW113091   6.438   6.836   4.163
 4064SOL    HW213092   6.347   6.702   4.144
 4065SOL     OW13093   1.426   4.452   5.664
 4065SOL    HW113094   1.449   4.538   5.618
 4065SOL    HW213095   1.347   4.466   5.724
 4066SOL     OW13096   4.492   5.203   1.572
 4066SOL    HW113097   4.527   5.283   1.621
 4066SOL    HW213098   4.538   5.121   1.606
 4067SOL     OW13099   5.646   0.798   1.051
 4067SOL    HW113100   5.579   0.724   1.058
 4067SOL    HW213101   5.726   0.776   1.107
 4068SOL     OW13102   5.033   0.690   4.678
 4068SOL    HW113103   5.022   0.709   4.580
 4068SOL    HW213104   5.053   0.775   4.726
 4069SOL     OW13105   6.382   5.981   0.781
 4069SOL    HW113106   6.408   5.979   0.684
 4069SOL    HW213107   6.318   5.906   0.800
 4070SOL     OW13108   6.418   3.774   3.000
 4070SOL    HW113109   6.509   3.812   3.017
 4070SOL    HW213110   6.363   3.842   2.951
 4071SOL     OW13111   2.535   0.708   4.852
 4071SOL    HW113112   2.447   0.673   4.819
 4071SOL    HW213113   2.593   0.731   4.774
 4072SOL     OW13114   0.723   0.296   4.409
 4072SOL    HW113115   0.718   0.196   4.408
 4072SOL    HW213116   0.818   0.325   4.400
 4073SOL     OW13117   2.350   4.721   2.238
 4073SOL    HW113118   2.281   4.671   2.185
 4073SOL    HW213119   2.407   4.775   2.175
 4074SOL     OW13120   0.079   3.148   0.946
 4074SOL    HW113121   0.167   3.188   0.922
 4074SOL    HW213122   0.091   3.077   1.014
 4075SOL     OW13123   6.196   0.192   3.319
 4075SOL    HW113124   6.146   0.276   3.297
 4075SOL    HW213125   6.131   0.119   3.339
 4076SOL     OW13126   1.638   3.119   3.487
 4076SOL    HW113127   1.547   3.154   3.509
 4076SOL    HW213128   1.640   3.088   3.392
 4077SOL     OW13129   3.504   0.689   1.353
 4077SOL    HW113130   3.492   0.746   1.434
 4077SOL    HW213131   3.485   0.594   1.376
 4078SOL     OW13132   4.925   4.381   3.313
 4078SOL    HW113133   4.927   4.330   3.226
 4078SOL    HW213134   4.854   4.343   3.372
 4079SOL     OW13135   4.960   1.016   3.957
 4079SOL    HW113136   4.995   0.990   3.867
 4079SOL    HW213137   4.878   1.073   3.946
 4080SOL     OW13138   3.542   4.124   4.716
 4080SOL    HW113139   3.628   4.079   4.694
 4080SOL    HW213140   3.522   4.114   4.813
 4081SOL     OW13141   2.605   0.553   0.084
 4081SOL    HW113142   2.580   0.649   0.090
 4081SOL    HW213143   2.641   0.521   0.172
 4082SOL     OW13144   1.399   1.275   5.761
 4082SOL    HW113145   1.481   1.219   5.770
 4082SOL    HW213146   1.425   1.369   5.738
 4083SOL     OW13147   6.377   5.352   2.114
 4083SOL    HW113148   6.404   5.415   2.188
 4083SOL    HW213149   6.457   5.301   2.083
 4084SOL     OW13150   4.318   6.733   2.271
 4084SOL    HW113151   4.316   6.654   2.332
 4084SOL    HW213152   4.318   6.818   2.325
 4085SOL     OW13153   2.259   4.272   2.947
 4085SOL    HW113154   2.234   4.234   3.037
 4085SOL    HW213155   2.182   4.324   2.911
 4086SOL     OW13156   5.499   5.031   4.984
 4086SOL    HW113157   5.553   4.986   4.913
 4086SOL    HW213158   5.513   5.129   4.981
 4087SOL     OW13159   1.855   1.029   1.759
 4087SOL    HW113160   1.853   0.931   1.744
 4087SOL    HW213161   1.950   1.061   1.760
 4088SOL     OW13162   0.021   2.197   5.571
 4088SOL    HW113163   0.015   2.103   5.605
 4088SOL    HW213164   0.036   2.197   5.473
 4089SOL     OW13165   0.244   0.127   2.581
 4089SOL    HW113166   0.189   0.208   2.559
 4089SOL    HW213167   0.284   0.090   2.497
 4090SOL     OW13168   3.376   2.325   5.324
 4090SOL    HW113169   3.400   2.409   5.275
 4090SOL    HW213170   3.276   2.314   5.323
 4091SOL     OW13171   3.576   6.587   2.444
 4091SOL    HW113172   3.585   6.526   2.365
 4091SOL    HW213173   3.665   6.596   2.489
 4092SOL     OW13174   5.400   1.418   6.340
 4092SOL    HW113175   5.335   1.347   6.365
 4092SOL    HW213176   5.492   1.391   6.369
 4093SOL     OW13177   5.754   4.157   2.482
 4093SOL    HW113178   5.735   4.242   2.530
 4093SOL    HW213179   5.853   4.139   2.485
 4094SOL     OW13180   6.908   6.345   0.280
 4094SOL    HW113181   6.921   6.438   0.245
 4094SOL    HW213182   6.881   6.285   0.205
 4095SOL     OW13183   1.288   5.080   0.651
 4095SOL    HW113184   1.355   5.005   0.656
 4095SOL    HW213185   1.330   5.165   0.682
 4096SOL     OW13186   0.693   6.759   6.042
 4096SOL    HW113187   0.624   6.807   6.095
 4096SOL    HW213188   0.685   6.784   5.946
 4097SOL     OW13189   1.225   3.922   5.149
 4097SOL    HW113190   1.276   3.967   5.223
 4097SOL    HW213191   1.176   3.842   5.185
 4098SOL     OW13192   1.489   5.857   1.969
 4098SOL    HW113193   1.493   5.867   1.869
 4098SOL    HW213194   1.505   5.761   1.993
 4099SOL     OW13195   6.801   2.695   5.892
 4099SOL    HW113196   6.865   2.648   5.951
 4099SOL    HW213197   6.721   2.637   5.876
 4100SOL     OW13198   2.662   0.799   3.912
 4100SOL    HW113199   2.723   0.747   3.852
 4100SOL    HW213200   2.601   0.736   3.959
 4101SOL     OW13201   6.490   6.355   6.054
 4101SOL    HW113202   6.536   6.358   5.965
 4101SOL    HW213203   6.430   6.434   6.064
 4102SOL     OW13204   2.327   5.268   0.471
 4102SOL    HW113205   2.382   5.342   0.431
 4102SOL    HW213206   2.254   5.307   0.526
 4103SOL     OW13207   2.614   5.052   3.110
 4103SOL    HW113208   2.567   5.136   3.084
 4103SOL    HW213209   2.545   4.982   3.134
 4104SOL     OW13210   2.212   5.798   5.894
 4104SOL    HW113211   2.162   5.732   5.950
 4104SOL    HW213212   2.270   5.854   5.952
 4105SOL     OW13213   3.515   6.930   1.370
 4105SOL    HW113214   3.445   6.861   1.388
 4105SOL    HW213215   3.579   6.895   1.301
 4106SOL     OW13216   1.310   6.737   2.807
 4106SOL    HW113217   1.266   6.819   2.844
 4106SOL    HW213218   1.354   6.760   2.720
 4107SOL     OW13219   1.986   1.830   0.772
 4107SOL    HW113220   2.048   1.828   0.694
 4107SOL    HW213221   1.969   1.736   0.804
 4108SOL     OW13222   0.994   5.925   4.907
 4108SOL    HW113223   0.972   6.007   4.854
 4108SOL    HW213224   1.091   5.929   4.934
 4109SOL     OW13225   4.923   6.934   5.096
 4109SOL    HW113226   4.857   6.960   5.025
 4109SOL    HW213227   4.994   7.004   5.102
 4110SOL     OW13228   4.379   2.417   0.362
 4110SOL    HW113229   4.392   2.454   0.454
 4110SOL    HW213230   4.385   2.490   0.295
 4111SOL     OW13231   6.292   4.854   3.661
 4111SOL    HW113232   6.313   4.776   3.720
 4111SOL    HW213233   6.305   4.827   3.565
 4112SOL     OW13234   4.117   5.677   5.672
 4112SOL    HW113235   4.026   5.641   5.652
 4112SOL    HW213236   4.187   5.611   5.645
 4113SOL     OW13237   4.805   5.402   5.621
 4113SOL    HW113238   4.896   5.362   5.613
 4113SOL    HW213239   4.801   5.486   5.567
 4114SOL     OW13240   6.698   1.523   3.044
 4114SOL    HW113241   6.648   1.523   3.131
 4114SOL    HW213242   6.770   1.592   3.047
 4115SOL     OW13243   4.130   6.438   4.912
 4115SOL    HW113244   4.179   6.364   4.867
 4115SOL    HW213245   4.034   6.438   4.881
 4116SOL     OW13246   6.519   3.967   3.803
 4116SOL    HW113247   6.545   4.057   3.767
 4116SOL    HW213248   6.451   3.925   3.743
 4117SOL     OW13249   0.249   2.378   2.650
 4117SOL    HW113250   0.158   2.347   2.619
 4117SOL    HW213251   0.279   2.322   2.726
 4118SOL     OW13252   1.333   0.266   1.959
 4118SOL    HW113253   1.287   0.190   2.006
 4118SOL    HW213254   1.273   0.346   1.958
 4119SOL     OW13255   6.746   0.980   4.848
 4119SOL    HW113256   6.715   0.978   4.943
 4119SOL    HW213257   6.834   0.932   4.840
 4120SOL     OW13258   1.563   0.733   6.379
 4120SOL    HW113259   1.500   0.669   6.423
 4120SOL    HW213260   1.520   0.771   6.298
 4121SOL     OW13261   6.746   0.834   1.017
 4121SOL    HW113262   6.822   0.841   1.080
 4121SOL    HW213263   6.662   0.815   1.068
 4122SOL     OW13264   0.973   4.521   3.513
 4122SOL    HW113265   0.901   4.492   3.450
 4122SOL    HW213266   0.935   4.529   3.605
 4123SOL     OW13267   5.932   4.210   1.833
 4123SOL    HW113268   5.838   4.245   1.828
 4123SOL    HW213269   5.931   4.117   1.869
 4124SOL     OW13270   6.217   6.573   0.056
 4124SOL    HW113271   6.301   6.613   0.091
 4124SOL    HW213272   6.150   6.567   0.130
 4125SOL     OW13273   0.227   3.078   0.050
 4125SOL    HW113274   0.257   3.019   0.125
 4125SOL    HW213275   0.140   3.120   0.075
 4126SOL     OW13276   1.172   4.338   3.637
 4126SOL    HW113277   1.236   4.381   3.700
 4126SOL    HW213278   1.118   4.408   3.591
 4127SOL     OW13279   4.543   2.590   3.642
 4127SOL    HW113280   4.564   2.684   3.614
 4127SOL    HW213281   4.625   2.546   3.678
 4128SOL     OW13282   6.137   2.345   6.318
 4128SOL    HW113283   6.065   2.396   6.270
 4128SOL    HW213284   6.106   2.323   6.410
 4129SOL     OW13285   3.415   0.157   1.897
 4129SOL    HW113286   3.504   0.180   1.859
 4129SOL    HW213287   3.351   0.137   1.823
 4130SOL     OW13288   5.376   1.650   0.523
 4130SOL    HW113289   5.415   1.692   0.441
 4130SOL    HW213290   5.417   1.692   0.604
 4131SOL     OW13291   4.787   6.659   3.397
 4131SOL    HW113292   4.747   6.744   3.364
 4131SOL    HW213293   4.717   6.606   3.446
 4132SOL     OW13294   6.243   3.800   2.781
 4132SOL    HW113295   6.175   3.738   2.742
 4132SOL    HW213296   6.197   3.878   2.823
 4133SOL     OW13297   5.631   6.492   3.459
 4133SOL    HW113298   5.707   6.491   3.393
 4133SOL    HW213299   5.578   6.408   3.450
 4134SOL     OW13300   1.384   3.090   1.271
 4134SOL    HW113301   1.359   3.123   1.180
 4134SOL    HW213302   1.434   3.003   1.262
 4135SOL     OW13303   6.127   1.501   0.549
 4135SOL    HW113304   6.062   1.510   0.624
 4135SOL    HW213305   6.103   1.423   0.492
 4136SOL     OW13306   0.891   4.649   0.503
 4136SOL    HW113307   0.990   4.633   0.508
 4136SOL    HW213308   0.869   4.738   0.543
 4137SOL     OW13309   0.221   2.588   5.447
 4137SOL    HW113310   0.197   2.567   5.542
 4137SOL    HW213311   0.137   2.598   5.393
 4138SOL     OW13312   6.158   6.818   5.843
 4138SOL    HW113313   6.073   6.863   5.872
 4138SOL    HW213314   6.146   6.719   5.844
 4139SOL     OW13315   1.644   3.827   2.265
 4139SOL    HW113316   1.727   3.839   2.211
 4139SOL    HW213317   1.631   3.907   2.324
 4140SOL     OW13318   2.463   6.583   6.995
 4140SOL    HW113319   2.382   6.622   6.953
 4140SOL    HW213320   2.489   6.636   0.055
 4141SOL     OW13321   5.189   0.373   6.029
 4141SOL    HW113322   5.134   0.377   5.945
 4141SOL    HW213323   5.169   0.453   6.086
 4142SOL     OW13324   6.793   6.795   1.823
 4142SOL    HW113325   6.781   6.703   1.859
 4142SOL    HW213326   6.719   6.854   1.855
 4143SOL     OW13327   6.815   3.633   6.606
 4143SOL    HW113328   6.869   3.559   6.567
 4143SOL    HW213329   6.735   3.596   6.653
 4144SOL     OW13330   4.288   0.651   1.692
 4144SOL    HW113331   4.234   0.569   1.710
 4144SOL    HW213332   4.343   0.672   1.773
 4145SOL     OW13333   5.265   1.135   1.437
 4145SOL    HW113334   5.343   1.101   1.383
 4145SOL    HW213335   5.220   1.057   1.482
 4146SOL     OW13336   3.568   0.490   2.694
 4146SOL    HW113337   3.556   0.434   2.776
 4146SOL    HW213338   3.608   0.434   2.622
 4147SOL     OW13339   4.729   3.820   6.588
 4147SOL    HW113340   4.647   3.824   6.532
 4147SOL    HW213341   4.787   3.898   6.568
 4148SOL     OW13342   3.241   0.874   5.928
 4148SOL    HW113343   3.171   0.902   5.994
 4148SOL    HW213344   3.284   0.955   5.889
 4149SOL     OW13345   1.533   3.202   6.821
 4149SOL    HW113346   1.439   3.226   6.843
 4149SOL    HW213347   1.551   3.220   6.724
 4150SOL     OW13348   6.590   1.325   0.474
 4150SOL    HW113349   6.591   1.272   0.389
 4150SOL    HW213350   6.498   1.328   0.511
 4151SOL     OW13351   2.811   5.819   4.465
 4151SOL    HW113352   2.812   5.788   4.560
 4151SOL    HW213353   2.809   5.919   4.463
 4152SOL     OW13354   2.459   3.957   1.299
 4152SOL    HW113355   2.557   3.972   1.305
 4152SOL    HW213356   2.435   3.872   1.346
 4153SOL     OW13357   6.655   5.999   0.830
 4153SOL    HW113358   6.558   6.009   0.849
 4153SOL    HW213359   6.696   6.090   0.819
 4154SOL     OW13360   0.112   6.593   4.061
 4154SOL    HW113361   0.042   6.599   3.990
 4154SOL    HW213362   0.076   6.542   4.139
 4155SOL     OW13363   5.769   1.369   1.966
 4155SOL    HW113364   5.805   1.459   1.988
 4155SOL    HW213365   5.716   1.374   1.882
 4156SOL     OW13366   0.929   5.068   5.782
 4156SOL    HW113367   1.010   5.012   5.798
 4156SOL    HW213368   0.952   5.142   5.719
 4157SOL     OW13369   5.105   5.942   1.012
 4157SOL    HW113370   5.053   6.011   0.962
 4157SOL    HW213371   5.047   5.862   1.028
 4158SOL     OW13372   6.378   1.541   6.697
 4158SOL    HW113373   6.470   1.562   6.662
 4158SOL    HW213374   6.357   1.445   6.677
 4159SOL     OW13375   2.936   0.569   4.868
 4159SOL    HW113376   2.958   0.472   4.858
 4159SOL    HW213377   2.978   0.621   4.794
 4160SOL     OW13378   1.599   0.238   5.859
 4160SOL    HW113379   1.609   0.331   5.825
 4160SOL    HW213380   1.653   0.227   5.942
 4161SOL     OW13381   3.363   2.890   4.745
 4161SOL    HW113382   3.284   2.947   4.767
 4161SOL    HW213383   3.371   2.881   4.645
 4162SOL     OW13384   4.659   5.896   1.453
 4162SOL    HW113385   4.738   5.897   1.392
 4162SOL    HW213386   4.645   5.803   1.487
 4163SOL     OW13387   3.607   5.454   0.924
 4163SOL    HW113388   3.604   5.486   0.829
 4163SOL    HW213389   3.647   5.362   0.927
 4164SOL     OW13390   5.569   1.315   0.026
 4164SOL    HW113391   5.475   1.294   7.020
 4164SOL    HW213392   5.568   1.373   0.108
 4165SOL     OW13393   3.233   2.130   4.151
 4165SOL    HW113394   3.319   2.140   4.199
 4165SOL    HW213395   3.241   2.168   4.059
 4166SOL     OW13396   6.030   2.246   2.742
 4166SOL    HW113397   5.988   2.170   2.693
 4166SOL    HW213398   5.999   2.247   2.837
 4167SOL     OW13399   3.858   6.487   4.839
 4167SOL    HW113400   3.828   6.395   4.817
 4167SOL    HW213401   3.828   6.550   4.767
 4168SOL     OW13402   4.889   3.674   6.389
 4168SOL    HW113403   4.837   3.746   6.435
 4168SOL    HW213404   4.825   3.613   6.341
 4169SOL     OW13405   4.831   3.999   6.353
 4169SOL    HW113406   4.890   4.035   6.426
 4169SOL    HW213407   4.778   4.074   6.314
 4170SOL     OW13408   1.537   3.026   5.186
 4170SOL    HW113409   1.634   3.041   5.203
 4170SOL    HW213410   1.497   3.109   5.147
 4171SOL     OW13411   0.420   0.858   6.203
 4171SOL    HW113412   0.419   0.950   6.165
 4171SOL    HW213413   0.512   0.819   6.193
 4172SOL     OW13414   2.952   2.921   6.887
 4172SOL    HW113415   2.854   2.907   6.872
 4172SOL    HW213416   2.966   3.010   6.931
 4173SOL     OW13417   5.253   1.091   5.592
 4173SOL    HW113418   5.269   1.085   5.494
 4173SOL    HW213419   5.287   1.008   5.637
 4174SOL     OW13420   2.974   6.600   3.606
 4174SOL    HW113421   2.930   6.658   3.537
 4174SOL    HW213422   3.032   6.533   3.560
 4175SOL     OW13423   1.091   4.733   6.359
 4175SOL    HW113424   1.092   4.833   6.372
 4175SOL    HW213425   1.080   4.713   6.262
 4176SOL     OW13426   4.299   6.799   5.273
 4176SOL    HW113427   4.224   6.854   5.237
 4176SOL    HW213428   4.353   6.762   5.197
 4177SOL     OW13429   4.336   6.365   3.626
 4177SOL    HW113430   4.253   6.422   3.622
 4177SOL    HW213431   4.392   6.384   3.545
 4178SOL     OW13432   4.059   6.723   0.956
 4178SOL    HW113433   4.015   6.781   1.025
 4178SOL    HW213434   4.030   6.752   0.865
 4179SOL     OW13435   4.289   1.920   6.857
 4179SOL    HW113436   4.194   1.952   6.850
 4179SOL    HW213437   4.296   1.851   6.929
 4180SOL     OW13438   3.899   4.165   0.036
 4180SOL    HW113439   3.896   4.110   0.119
 4180SOL    HW213440   3.967   4.127   6.994
 4181SOL     OW13441   5.455   6.001   5.572
 4181SOL    HW113442   5.357   6.005   5.553
 4181SOL    HW213443   5.484   6.084   5.619
 4182SOL     OW13444   6.880   5.049   5.395
 4182SOL    HW113445   6.864   5.095   5.482
 4182SOL    HW213446   6.819   5.087   5.326
 4183SOL     OW13447   5.122   2.453   6.858
 4183SOL    HW113448   5.168   2.438   6.945
 4183SOL    HW213449   5.023   2.452   6.871
 4184SOL     OW13450   3.656   5.854   3.349
 4184SOL    HW113451   3.696   5.940   3.381
 4184SOL    HW213452   3.581   5.874   3.285
 4185SOL     OW13453   4.603   4.313   3.096
 4185SOL    HW113454   4.574   4.400   3.136
 4185SOL    HW213455   4.702   4.315   3.082
 4186SOL     OW13456   1.656   5.007   0.117
 4186SOL    HW113457   1.747   5.020   0.157
 4186SOL    HW213458   1.587   5.048   0.175
 4187SOL     OW13459   2.156   4.316   6.644
 4187SOL    HW113460   2.251   4.300   6.620
 4187SOL    HW213461   2.104   4.232   6.633
 4188SOL     OW13462   5.190   0.668   6.655
 4188SOL    HW113463   5.224   0.705   6.569
 4188SOL    HW213464   5.192   0.568   6.652
 4189SOL     OW13465   4.449   5.958   3.332
 4189SOL    HW113466   4.447   6.009   3.418
 4189SOL    HW213467   4.486   6.016   3.260
 4190SOL     OW13468   6.534   5.801   1.577
 4190SOL    HW113469   6.530   5.827   1.481
 4190SOL    HW213470   6.503   5.706   1.588
 4191SOL     OW13471   4.815   2.414   6.084
 4191SOL    HW113472   4.790   2.498   6.037
 4191SOL    HW213473   4.886   2.432   6.152
 4192SOL     OW13474   1.594   3.819   6.317
 4192SOL    HW113475   1.538   3.776   6.247
 4192SOL    HW213476   1.691   3.808   6.294
 4193SOL     OW13477   5.682   6.664   1.228
 4193SOL    HW113478   5.698   6.625   1.319
 4193SOL    HW213479   5.718   6.757   1.224
 4194SOL     OW13480   5.298   0.344   0.024
 4194SOL    HW113481   5.364   0.283   7.001
 4194SOL    HW213482   5.265   0.410   6.979
 4195SOL     OW13483   2.305   6.194   0.736
 4195SOL    HW113484   2.220   6.144   0.717
 4195SOL    HW213485   2.329   6.250   0.657
 4196SOL     OW13486   6.827   3.017   3.828
 4196SOL    HW113487   6.756   2.947   3.834
 4196SOL    HW213488   6.908   2.986   3.878
 4197SOL     OW13489   4.426   0.691   0.137
 4197SOL    HW113490   4.494   0.763   0.154
 4197SOL    HW213491   4.387   0.660   0.224
 4198SOL     OW13492   6.802   2.543   1.453
 4198SOL    HW113493   6.900   2.523   1.457
 4198SOL    HW213494   6.755   2.499   1.530
 4199SOL     OW13495   1.005   4.043   6.662
 4199SOL    HW113496   1.060   4.046   6.578
 4199SOL    HW213497   0.958   4.131   6.673
 4200SOL     OW13498   5.646   1.600   2.426
 4200SOL    HW113499   5.549   1.614   2.408
 4200SOL    HW213500   5.657   1.532   2.499
 4201SOL     OW13501   5.047   0.054   4.750
 4201SOL    HW113502   5.037   6.977   4.732
 4201SOL    HW213503   5.057   0.103   4.664
 4202SOL     OW13504   4.516   4.004   1.704
 4202SOL    HW113505   4.489   4.068   1.777
 4202SOL    HW213506   4.445   3.936   1.692
 4203SOL     OW13507   5.958   4.264   4.651
 4203SOL    HW113508   6.002   4.240   4.737
 4203SOL    HW213509   5.859   4.276   4.666
 4204SOL     OW13510   2.203   4.297   5.846
 4204SOL    HW113511   2.266   4.257   5.912
 4204SOL    HW213512   2.254   4.338   5.771
 4205SOL     OW13513   5.778   5.856   5.732
 4205SOL    HW113514   5.833   5.801   5.669
 4205SOL    HW213515   5.818   5.852   5.823
 4206SOL     OW13516   2.330   2.704   5.012
 4206SOL    HW113517   2.422   2.684   4.977
 4206SOL    HW213518   2.327   2.797   5.048
 4207SOL     OW13519   2.071   2.569   1.132
 4207SOL    HW113520   2.069   2.544   1.229
 4207SOL    HW213521   1.979   2.593   1.102
 4208SOL     OW13522   2.218   2.205   3.176
 4208SOL    HW113523   2.121   2.181   3.175
 4208SOL    HW213524   2.236   2.274   3.106
 4209SOL     OW13525   6.282   5.960   2.487
 4209SOL    HW113526   6.185   5.938   2.477
 4209SOL    HW213527   6.337   5.882   2.459
 4210SOL     OW13528   3.176   5.055   5.567
 4210SOL    HW113529   3.155   4.970   5.518
 4210SOL    HW213530   3.100   5.077   5.629
 4211SOL     OW13531   4.594   2.314   5.787
 4211SOL    HW113532   4.566   2.300   5.882
 4211SOL    HW213533   4.597   2.412   5.768
 4212SOL     OW13534   1.211   2.775   2.989
 4212SOL    HW113535   1.197   2.789   3.087
 4212SOL    HW213536   1.123   2.775   2.942
 4213SOL     OW13537   3.390   0.745   3.553
 4213SOL    HW113538   3.401   0.792   3.466
 4213SOL    HW213539   3.442   0.659   3.551
 4214SOL     OW13540   6.352   6.536   4.114
 4214SOL    HW113541   6.452   6.541   4.112
 4214SOL    HW213542   6.320   6.491   4.031
 4215SOL     OW13543   5.921   0.262   5.285
 4215SOL    HW113544   5.942   0.255   5.382
 4215SOL    HW213545   5.873   0.180   5.255
 4216SOL     OW13546   2.153   5.428   2.472
 4216SOL    HW113547   2.064   5.398   2.507
 4216SOL    HW213548   2.172   5.521   2.505
 4217SOL     OW13549   0.678   0.234   2.769
 4217SOL    HW113550   0.778   0.231   2.780
 4217SOL    HW213551   0.645   0.147   2.734
 4218SOL     OW13552   3.078   0.361   1.701
 4218SOL    HW113553   3.018   0.424   1.652
 4218SOL    HW213554   3.117   0.296   1.636
 4219SOL     OW13555   3.193   5.319   2.705
 4219SOL    HW113556   3.259   5.265   2.757
 4219SOL    HW213557   3.101   5.299   2.739
 4220SOL     OW13558   5.986   1.991   1.345
 4220SOL    HW113559   5.917   2.043   1.394
 4220SOL    HW213560   5.959   1.980   1.249
 4221SOL     OW13561   0.663   6.662   1.157
 4221SOL    HW113562   0.581   6.613   1.127
 4221SOL    HW213563   0.717   6.602   1.216
 4222SOL     OW13564   4.882   3.550   4.286
 4222SOL    HW113565   4.840   3.486   4.350
 4222SOL    HW213566   4.932   3.621   4.337
 4223SOL     OW13567   3.610   4.165   3.195
 4223SOL    HW113568   3.656   4.123   3.273
 4223SOL    HW213569   3.521   4.123   3.182
 4224SOL     OW13570   4.729   4.137   4.778
 4224SOL    HW113571   4.773   4.123   4.689
 4224SOL    HW213572   4.671   4.218   4.774
 4225SOL     OW13573   0.641   1.810   6.430
 4225SOL    HW113574   0.627   1.787   6.333
 4225SOL    HW213575   0.738   1.823   6.447
 4226SOL     OW13576   5.292   4.786   4.459
 4226SOL    HW113577   5.291   4.880   4.492
 4226SOL    HW213578   5.381   4.766   4.419
 4227SOL     OW13579   5.689   5.468   1.223
 4227SOL    HW113580   5.591   5.457   1.208
 4227SOL    HW213581   5.704   5.520   1.307
 4228SOL     OW13582   1.604   3.895   3.719
 4228SOL    HW113583   1.605   3.989   3.753
 4228SOL    HW213584   1.605   3.832   3.797
 4229SOL     OW13585   6.122   6.480   5.698
 4229SOL    HW113586   6.136   6.498   5.601
 4229SOL    HW213587   6.094   6.384   5.710
 4230SOL     OW13588   0.629   1.182   2.451
 4230SOL    HW113589   0.551   1.145   2.502
 4230SOL    HW213590   0.713   1.139   2.484
 4231SOL     OW13591   0.666   0.554   6.260
 4231SOL    HW113592   0.570   0.532   6.246
 4231SOL    HW213593   0.723   0.489   6.209
 4232SOL     OW13594   1.657   4.333   3.023
 4232SOL    HW113595   1.719   4.395   3.072
 4232SOL    HW213596   1.704   4.297   2.942
 4233SOL     OW13597   4.061   5.276   2.624
 4233SOL    HW113598   4.104   5.351   2.674
 4233SOL    HW213599   4.111   5.259   2.539
 4234SOL     OW13600   3.514   5.026   6.015
 4234SOL    HW113601   3.452   5.034   5.937
 4234SOL    HW213602   3.471   4.971   6.086
 4235SOL     OW13603   6.872   6.188   6.916
 4235SOL    HW113604   6.894   6.282   6.943
 4235SOL    HW213605   6.799   6.152   6.975
 4236SOL     OW13606   0.108   5.348   3.257
 4236SOL    HW113607   0.117   5.447   3.252
 4236SOL    HW213608   0.036   5.318   3.194
 4237SOL     OW13609   6.612   4.568   3.749
 4237SOL    HW113610   6.642   4.476   3.723
 4237SOL    HW213611   6.684   4.614   3.799
 4238SOL     OW13612   2.614   5.839   2.793
 4238SOL    HW113613   2.655   5.920   2.834
 4238SOL    HW213614   2.596   5.856   2.696
 4239SOL     OW13615   4.089   1.025   2.865
 4239SOL    HW113616   4.072   0.927   2.857
 4239SOL    HW213617   4.167   1.050   2.808
 4240SOL     OW13618   5.494   0.370   1.884
 4240SOL    HW113619   5.397   0.351   1.902
 4240SOL    HW213620   5.550   0.295   1.920
 4241SOL     OW13621   0.265   4.601   0.214
 4241SOL    HW113622   0.313   4.618   0.300
 4241SOL    HW213623   0.207   4.520   0.224
 4242SOL     OW13624   3.595   2.021   2.856
 4242SOL    HW113625   3.572   1.924   2.850
 4242SOL    HW213626   3.631   2.052   2.768
 4243SOL     OW13627   3.408   2.067   2.642
 4243SOL    HW113628   3.449   1.976   2.637
 4243SOL    HW213629   3.399   2.105   2.550
 4244SOL     OW13630   3.090   3.415   4.995
 4244SOL    HW113631   3.069   3.427   5.092
 4244SOL    HW213632   3.189   3.412   4.982
 4245SOL     OW13633   6.829   0.792   5.632
 4245SOL    HW113634   6.837   0.889   5.609
 4245SOL    HW213635   6.864   0.737   5.556
 4246SOL     OW13636   0.851   4.757   6.148
 4246SOL    HW113637   0.830   4.854   6.133
 4246SOL    HW213638   0.785   4.719   6.213
 4247SOL     OW13639   0.104   5.207   5.061
 4247SOL    HW113640   0.137   5.297   5.090
 4247SOL    HW213641   0.157   5.135   5.107
 4248SOL     OW13642   2.096   3.371   6.760
 4248SOL    HW113643   2.158   3.306   6.803
 4248SOL    HW213644   2.126   3.464   6.780
 4249SOL     OW13645   5.091   2.867   6.127
 4249SOL    HW113646   5.073   2.772   6.100
 4249SOL    HW213647   5.141   2.868   6.214
 4250SOL     OW13648   6.833   4.352   3.722
 4250SOL    HW113649   6.894   4.356   3.801
 4250SOL    HW213650   6.886   4.362   3.638
 4251SOL     OW13651   6.371   4.930   6.024
 4251SOL    HW113652   6.297   4.884   5.975
 4251SOL    HW213653   6.425   4.862   6.073
 4252SOL     OW13654   0.046   4.904   5.255
 4252SOL    HW113655   0.135   4.941   5.226
 4252SOL    HW213656   7.008   4.979   5.284
 4253SOL     OW13657   3.131   6.590   2.939
 4253SOL    HW113658   3.153   6.551   3.028
 4253SOL    HW213659   3.121   6.517   2.872
 4254SOL     OW13660   3.025   3.043   2.204
 4254SOL    HW113661   3.090   2.987   2.255
 4254SOL    HW213662   3.023   3.013   2.109
 4255SOL     OW13663   0.435   2.369   3.629
 4255SOL    HW113664   0.444   2.302   3.556
 4255SOL    HW213665   0.512   2.362   3.691
 4256SOL     OW13666   1.480   1.400   2.151
 4256SOL    HW113667   1.528   1.460   2.087
 4256SOL    HW213668   1.388   1.436   2.168
 4257SOL     OW13669   4.195   2.095   5.301
 4257SOL    HW113670   4.174   2.018   5.239
 4257SOL    HW213671   4.209   2.060   5.393
 4258SOL     OW13672   5.310   5.999   2.318
 4258SOL    HW113673   5.302   5.940   2.238
 4258SOL    HW213674   5.219   6.027   2.349
 4259SOL     OW13675   2.784   3.436   1.419
 4259SOL    HW113676   2.716   3.494   1.374
 4259SOL    HW213677   2.753   3.341   1.420
 4260SOL     OW13678   4.212   6.200   4.812
 4260SOL    HW113679   4.169   6.188   4.723
 4260SOL    HW213680   4.155   6.158   4.883
 4261SOL     OW13681   1.455   1.408   3.163
 4261SOL    HW113682   1.391   1.386   3.237
 4261SOL    HW213683   1.545   1.371   3.185
 4262SOL     OW13684   0.818   6.284   5.883
 4262SOL    HW113685   0.815   6.215   5.811
 4262SOL    HW213686   0.873   6.362   5.852
 4263SOL     OW13687   4.638   5.178   6.547
 4263SOL    HW113688   4.544   5.194   6.576
 4263SOL    HW213689   4.661   5.240   6.472
 4264SOL     OW13690   0.945   0.220   1.523
 4264SOL    HW113691   1.007   0.178   1.458
 4264SOL    HW213692   0.852   0.187   1.508
 4265SOL     OW13693   1.704   1.338   0.501
 4265SOL    HW113694   1.758   1.285   0.435
 4265SOL    HW213695   1.609   1.306   0.497
 4266SOL     OW13696   3.122   4.671   0.560
 4266SOL    HW113697   3.095   4.624   0.476
 4266SOL    HW213698   3.198   4.733   0.541
 4267SOL     OW13699   1.684   3.916   5.752
 4267SOL    HW113700   1.776   3.881   5.731
 4267SOL    HW213701   1.674   4.007   5.714
 4268SOL     OW13702   1.223   1.426   1.589
 4268SOL    HW113703   1.129   1.414   1.620
 4268SOL    HW213704   1.235   1.517   1.551
 4269SOL     OW13705   2.823   3.447   0.703
 4269SOL    HW113706   2.807   3.375   0.636
 4269SOL    HW213707   2.824   3.408   0.795
 4270SOL     OW13708   3.813   2.979   6.665
 4270SOL    HW113709   3.878   3.039   6.711
 4270SOL    HW213710   3.861   2.922   6.598
 4271SOL     OW13711   1.653   0.291   1.253
 4271SOL    HW113712   1.622   0.230   1.180
 4271SOL    HW213713   1.593   0.371   1.257
 4272SOL     OW13714   0.649   3.892   3.709
 4272SOL    HW113715   0.578   3.930   3.767
 4272SOL    HW213716   0.614   3.878   3.617
 4273SOL     OW13717   5.854   6.866   3.742
 4273SOL    HW113718   5.756   6.860   3.724
 4273SOL    HW213719   5.887   6.958   3.718
 4274SOL     OW13720   2.362   0.388   3.900
 4274SOL    HW113721   2.268   0.415   3.918
 4274SOL    HW213722   2.371   0.361   3.804
 4275SOL     OW13723   0.630   0.234   5.286
 4275SOL    HW113724   0.621   0.264   5.191
 4275SOL    HW213725   0.666   0.309   5.342
 4276SOL     OW13726   2.161   3.899   3.115
 4276SOL    HW113727   2.229   3.915   3.044
 4276SOL    HW213728   2.161   3.975   3.180
 4277SOL     OW13729   0.991   5.496   5.450
 4277SOL    HW113730   1.040   5.582   5.448
 4277SOL    HW213731   0.984   5.459   5.357
 4278SOL     OW13732   1.070   6.107   6.580
 4278SOL    HW113733   1.110   6.102   6.672
 4278SOL    HW213734   1.144   6.117   6.513
 4279SOL     OW13735   3.030   5.882   3.544
 4279SOL    HW113736   2.981   5.842   3.466
 4279SOL    HW213737   3.005   5.834   3.627
 4280SOL     OW13738   5.239   2.416   3.266
 4280SOL    HW113739   5.271   2.510   3.251
 4280SOL    HW213740   5.140   2.416   3.280
 4281SOL     OW13741   1.649   4.096   5.300
 4281SOL    HW113742   1.656   4.116   5.202
 4281SOL    HW213743   1.740   4.085   5.339
 4282SOL     OW13744   0.561   1.973   0.569
 4282SOL    HW113745   0.542   1.884   0.609
 4282SOL    HW213746   0.493   1.994   0.498
 4283SOL     OW13747   2.752   1.269   4.220
 4283SOL    HW113748   2.828   1.211   4.250
 4283SOL    HW213749   2.677   1.212   4.187
 4284SOL     OW13750   6.631   1.987   3.263
 4284SOL    HW113751   6.597   1.933   3.339
 4284SOL    HW213752   6.555   2.036   3.219
 4285SOL     OW13753   0.951   6.139   4.409
 4285SOL    HW113754   1.003   6.207   4.358
 4285SOL    HW213755   0.973   6.146   4.506
 4286SOL     OW13756   4.307   5.587   6.564
 4286SOL    HW113757   4.396   5.592   6.520
 4286SOL    HW213758   4.262   5.676   6.560
 4287SOL     OW13759   3.706   5.520   5.432
 4287SOL    HW113760   3.651   5.556   5.508
 4287SOL    HW213761   3.658   5.538   5.346
 4288SOL     OW13762   1.104   6.058   3.743
 4288SOL    HW113763   1.076   5.976   3.794
 4288SOL    HW213764   1.040   6.132   3.763
 4289SOL     OW13765   0.387   4.031   6.661
 4289SOL    HW113766   0.292   4.006   6.679
 4289SOL    HW213767   0.390   4.098   6.587
 4290SOL     OW13768   2.119   1.514   3.014
 4290SOL    HW113769   2.124   1.603   3.059
 4290SOL    HW213770   2.104   1.443   3.082
 4291SOL     OW13771   0.410   3.978   1.255
 4291SOL    HW113772   0.339   3.982   1.326
 4291SOL    HW213773   0.437   4.071   1.230
 4292SOL     OW13774   5.793   5.421   5.118
 4292SOL    HW113775   5.833   5.350   5.058
 4292SOL    HW213776   5.694   5.409   5.122
 4293SOL     OW13777   0.556   1.811   0.170
 4293SOL    HW113778   0.474   1.841   0.219
 4293SOL    HW213779   0.537   1.805   0.072
 4294SOL     OW13780   5.161   1.275   6.367
 4294SOL    HW113781   5.074   1.311   6.402
 4294SOL    HW213782   5.148   1.242   6.274
 4295SOL     OW13783   3.826   5.787   5.743
 4295SOL    HW113784   3.842   5.695   5.706
 4295SOL    HW213785   3.771   5.780   5.825
 4296SOL     OW13786   2.405   1.193   2.821
 4296SOL    HW113787   2.503   1.191   2.843
 4296SOL    HW213788   2.386   1.270   2.760
 4297SOL     OW13789   6.134   0.518   0.434
 4297SOL    HW113790   6.202   0.584   0.403
 4297SOL    HW213791   6.173   0.426   0.432
 4298SOL     OW13792   1.676   4.705   1.831
 4298SOL    HW113793   1.619   4.782   1.862
 4298SOL    HW213794   1.627   4.619   1.848
 4299SOL     OW13795   1.349   5.684   5.070
 4299SOL    HW113796   1.405   5.612   5.112
 4299SOL    HW213797   1.274   5.708   5.132
 4300SOL     OW13798   6.190   6.982   5.511
 4300SOL    HW113799   6.096   6.954   5.531
 4300SOL    HW213800   6.214   6.957   5.417
 4301SOL     OW13801   3.234   0.873   0.792
 4301SOL    HW113802   3.260   0.781   0.764
 4301SOL    HW213803   3.206   0.872   0.888
 4302SOL     OW13804   0.527   0.431   6.743
 4302SOL    HW113805   0.474   0.505   6.703
 4302SOL    HW213806   0.577   0.465   6.823
 4303SOL     OW13807   0.447   4.165   1.552
 4303SOL    HW113808   0.360   4.130   1.518
 4303SOL    HW213809   0.473   4.246   1.500
 4304SOL     OW13810   2.979   3.620   5.346
 4304SOL    HW113811   2.886   3.653   5.358
 4304SOL    HW213812   3.007   3.630   5.250
 4305SOL     OW13813   0.069   1.566   5.164
 4305SOL    HW113814   0.003   1.495   5.187
 4305SOL    HW213815   0.117   1.542   5.079
 4306SOL     OW13816   6.187   5.602   5.589
 4306SOL    HW113817   6.248   5.659   5.643
 4306SOL    HW213818   6.239   5.532   5.541
 4307SOL     OW13819   5.671   3.582   0.121
 4307SOL    HW113820   5.689   3.675   0.092
 4307SOL    HW213821   5.756   3.539   0.151
 4308SOL     OW13822   3.458   0.143   5.086
 4308SOL    HW113823   3.418   0.201   5.157
 4308SOL    HW213824   3.461   0.049   5.118
 4309SOL     OW13825   1.243   0.228   1.710
 4309SOL    HW113826   1.276   0.224   1.805
 4309SOL    HW213827   1.208   0.319   1.691
 4310SOL     OW13828   1.767   6.960   2.779
 4310SOL    HW113829   1.728   6.931   2.866
 4310SOL    HW213830   1.759   0.039   2.771
 4311SOL     OW13831   1.350   5.465   4.324
 4311SOL    HW113832   1.319   5.487   4.231
 4311SOL    HW213833   1.361   5.366   4.333
 4312SOL     OW13834   1.436   5.587   1.817
 4312SOL    HW113835   1.390   5.499   1.824
 4312SOL    HW213836   1.448   5.612   1.721
 4313SOL     OW13837   5.120   0.896   1.531
 4313SOL    HW113838   5.052   0.947   1.584
 4313SOL    HW213839   5.074   0.836   1.466
 4314SOL     OW13840   5.847   3.354   0.846
 4314SOL    HW113841   5.775   3.381   0.781
 4314SOL    HW213842   5.849   3.418   0.922
 4315SOL     OW13843   2.244   1.021   2.666
 4315SOL    HW113844   2.230   1.084   2.590
 4315SOL    HW213845   2.303   1.064   2.734
 4316SOL     OW13846   0.566   1.519   2.626
 4316SOL    HW113847   0.530   1.434   2.666
 4316SOL    HW213848   0.502   1.552   2.557
 4317SOL     OW13849   4.108   0.643   3.179
 4317SOL    HW113850   4.140   0.737   3.168
 4317SOL    HW213851   4.147   0.586   3.106
 4318SOL     OW13852   6.723   2.469   5.304
 4318SOL    HW113853   6.661   2.534   5.261
 4318SOL    HW213854   6.789   2.435   5.236
 4319SOL     OW13855   3.799   2.421   6.273
 4319SOL    HW113856   3.866   2.490   6.243
 4319SOL    HW213857   3.837   2.369   6.350
 4320SOL     OW13858   0.061   6.417   2.890
 4320SOL    HW113859   6.982   6.415   2.892
 4320SOL    HW213860   0.092   6.450   2.801
 4321SOL     OW13861   0.780   0.447   4.769
 4321SOL    HW113862   0.810   0.373   4.828
 4321SOL    HW213863   0.798   0.424   4.674
 4322SOL     OW13864   6.407   1.403   1.230
 4322SOL    HW113865   6.431   1.354   1.147
 4322SOL    HW213866   6.419   1.501   1.215
 4323SOL     OW13867   6.845   1.986   3.634
 4323SOL    HW113868   6.760   1.941   3.606
 4323SOL    HW213869   6.884   1.938   3.712
 4324SOL     OW13870   5.637   2.608   5.590
 4324SOL    HW113871   5.633   2.702   5.623
 4324SOL    HW213872   5.576   2.550   5.644
 4325SOL     OW13873   1.834   2.524   6.646
 4325SOL    HW113874   1.847   2.481   6.556
 4325SOL    HW213875   1.882   2.470   6.716
 4326SOL     OW13876   6.513   2.599   5.190
 4326SOL    HW113877   6.536   2.671   5.125
 4326SOL    HW213878   6.429   2.553   5.161
 4327SOL     OW13879   4.774   0.915   3.164
 4327SOL    HW113880   4.786   0.998   3.218
 4327SOL    HW213881   4.734   0.938   3.075
 4328SOL     OW13882   5.942   4.711   0.563
 4328SOL    HW113883   5.902   4.760   0.486
 4328SOL    HW213884   6.038   4.739   0.574
 4329SOL     OW13885   5.106   1.640   0.177
 4329SOL    HW113886   5.199   1.667   0.153
 4329SOL    HW213887   5.045   1.654   0.098
 4330SOL     OW13888   1.031   0.986   6.620
 4330SOL    HW113889   1.030   0.898   6.668
 4330SOL    HW213890   1.070   1.055   6.681
 4331SOL     OW13891   4.971   2.195   6.420
 4331SOL    HW113892   4.920   2.217   6.503
 4331SOL    HW213893   5.007   2.279   6.380
 4332SOL     OW13894   5.593   3.847   1.821
 4332SOL    HW113895   5.569   3.784   1.895
 4332SOL    HW213896   5.654   3.802   1.757
 4333SOL     OW13897   6.516   1.284   4.940
 4333SOL    HW113898   6.486   1.351   4.872
 4333SOL    HW213899   6.548   1.201   4.894
 4334SOL     OW13900   3.762   0.483   1.703
 4334SOL    HW113901   3.842   0.543   1.698
 4334SOL    HW213902   3.685   0.535   1.741
 4335SOL     OW13903   3.844   4.403   5.742
 4335SOL    HW113904   3.831   4.423   5.839
 4335SOL    HW213905   3.760   4.366   5.703
 4336SOL     OW13906   1.197   6.838   5.709
 4336SOL    HW113907   1.118   6.805   5.761
 4336SOL    HW213908   1.166   6.904   5.641
 4337SOL     OW13909   0.515   5.764   6.595
 4337SOL    HW113910   0.554   5.707   6.523
 4337SOL    HW213911   0.533   5.860   6.574
 4338SOL     OW13912   5.276   6.582   3.280
 4338SOL    HW113913   5.341   6.610   3.350
 4338SOL    HW213914   5.193   6.545   3.324
 4339SOL     OW13915   6.751   1.139   6.603
 4339SOL    HW113916   6.772   1.224   6.652
 4339SOL    HW213917   6.835   1.090   6.584
 4340SOL     OW13918   4.418   3.738   1.684
 4340SOL    HW113919   4.517   3.739   1.667
 4340SOL    HW213920   4.369   3.742   1.597
 4341SOL     OW13921   1.207   3.422   0.931
 4341SOL    HW113922   1.170   3.408   1.023
 4341SOL    HW213923   1.234   3.517   0.920
 4342SOL     OW13924   0.024   2.107   3.156
 4342SOL    HW113925   6.980   2.180   3.178
 4342SOL    HW213926   0.117   2.143   3.156
 4343SOL     OW13927   2.890   2.065   0.774
 4343SOL    HW113928   2.911   1.994   0.707
 4343SOL    HW213929   2.852   2.023   0.856
 4344SOL     OW13930   2.097   3.296   1.740
 4344SOL    HW113931   2.039   3.294   1.658
 4344SOL    HW213932   2.126   3.203   1.762
 4345SOL     OW13933   2.911   1.325   5.786
 4345SOL    HW113934   2.826   1.357   5.744
 4345SOL    HW213935   2.988   1.357   5.731
 4346SOL     OW13936   6.510   3.988   1.443
 4346SOL    HW113937   6.567   4.052   1.495
 4346SOL    HW213938   6.438   4.038   1.395
 4347SOL     OW13939   4.583   5.568   2.635
 4347SOL    HW113940   4.605   5.664   2.615
 4347SOL    HW213941   4.541   5.526   2.555
 4348SOL     OW13942   1.344   3.734   0.541
 4348SOL    HW113943   1.323   3.679   0.461
 4348SOL    HW213944   1.320   3.829   0.524
 4349SOL     OW13945   6.680   1.070   1.257
 4349SOL    HW113946   6.761   1.020   1.228
 4349SOL    HW213947   6.598   1.017   1.234
 4350SOL     OW13948   4.045   0.764   2.780
 4350SOL    HW113949   3.955   0.727   2.804
 4350SOL    HW213950   4.089   0.705   2.713
 4351SOL     OW13951   3.131   6.733   6.841
 4351SOL    HW113952   3.195   6.787   6.895
 4351SOL    HW213953   3.174   6.646   6.816
 4352SOL     OW13954   6.559   1.967   2.237
 4352SOL    HW113955   6.513   2.050   2.204
 4352SOL    HW213956   6.511   1.932   2.317
 4353SOL     OW13957   3.342   5.308   1.223
 4353SOL    HW113958   3.325   5.383   1.287
 4353SOL    HW213959   3.257   5.285   1.175
 4354SOL     OW13960   2.950   0.610   1.238
 4354SOL    HW113961   2.979   0.665   1.161
 4354SOL    HW213962   2.874   0.655   1.285
 4355SOL     OW13963   4.878   0.048   0.142
 4355SOL    HW113964   4.908   6.984   0.100
 4355SOL    HW213965   4.937   0.123   0.109
 4356SOL     OW13966   3.454   3.822   1.029
 4356SOL    HW113967   3.421   3.730   1.005
 4356SOL    HW213968   3.510   3.817   1.111
 4357SOL     OW13969   5.925   0.594   0.223
 4357SOL    HW113970   5.831   0.560   0.229
 4357SOL    HW213971   5.985   0.536   0.278
 4358SOL     OW13972   6.026   0.732   1.032
 4358SOL    HW113973   6.021   0.657   0.967
 4358SOL    HW213974   6.056   0.815   0.986
 4359SOL     OW13975   0.448   4.148   4.622
 4359SOL    HW113976   0.419   4.218   4.687
 4359SOL    HW213977   0.413   4.059   4.651
 4360SOL     OW13978   2.405   3.625   0.781
 4360SOL    HW113979   2.364   3.557   0.721
 4360SOL    HW213980   2.375   3.608   0.875
 4361SOL     OW13981   5.850   2.445   2.582
 4361SOL    HW113982   5.912   2.414   2.510
 4361SOL    HW213983   5.759   2.407   2.568
 4362SOL     OW13984   5.184   4.095   2.577
 4362SOL    HW113985   5.133   4.011   2.594
 4362SOL    HW213986   5.263   4.076   2.519
 4363SOL     OW13987   4.936   0.723   6.755
 4363SOL    HW113988   4.945   0.749   6.851
 4363SOL    HW213989   5.026   0.705   6.717
 4364SOL     OW13990   3.755   3.962   4.630
 4364SOL    HW113991   3.748   3.876   4.680
 4364SOL    HW213992   3.813   3.949   4.549
 4365SOL     OW13993   4.358   2.159   0.309
 4365SOL    HW113994   4.370   2.254   0.339
 4365SOL    HW213995   4.272   2.151   0.258
 4366SOL     OW13996   4.878   4.761   0.354
 4366SOL    HW113997   4.951   4.695   0.339
 4366SOL    HW213998   4.903   4.848   0.313
 4367SOL     OW13999   6.573   6.835   0.867
 4367SOL    HW114000   6.503   6.800   0.928
 4367SOL    HW214001   6.630   6.760   0.835
 4368SOL     OW14002   4.291   4.913   1.944
 4368SOL    HW114003   4.357   4.906   2.019
 4368SOL    HW214004   4.242   5.001   1.950
 4369SOL     OW14005   3.346   5.325   1.523
 4369SOL    HW114006   3.278   5.378   1.472
 4369SOL    HW214007   3.354   5.360   1.616
 4370SOL     OW14008   5.412   4.513   1.833
 4370SOL    HW114009   5.325   4.498   1.786
 4370SOL    HW214010   5.484   4.528   1.766
 4371SOL     OW14011   1.352   1.870   2.620
 4371SOL    HW114012   1.426   1.871   2.552
 4371SOL    HW214013   1.385   1.911   2.706
 4372SOL     OW14014   4.640   6.980   3.943
 4372SOL    HW114015   4.671   0.021   4.015
 4372SOL    HW214016   4.540   6.983   3.938
 4373SOL     OW14017   0.081   1.707   5.847
 4373SOL    HW114018   0.067   1.629   5.908
 4373SOL    HW214019   0.135   1.777   5.894
 4374SOL     OW14020   3.315   1.511   0.114
 4374SOL    HW114021   3.337   1.461   0.197
 4374SOL    HW214022   3.275   1.600   0.137
 4375SOL     OW14023   3.646   5.622   4.184
 4375SOL    HW114024   3.698   5.673   4.116
 4375SOL    HW214025   3.704   5.550   4.223
 4376SOL     OW14026   0.005   2.533   3.652
 4376SOL    HW114027   0.100   2.517   3.624
 4376SOL    HW214028   6.976   2.571   3.575
 4377SOL     OW14029   6.872   4.645   6.086
 4377SOL    HW114030   6.882   4.745   6.094
 4377SOL    HW214031   6.866   4.620   5.990
 4378SOL     OW14032   3.360   1.828   3.847
 4378SOL    HW114033   3.301   1.823   3.766
 4378SOL    HW214034   3.304   1.850   3.927
 4379SOL     OW14035   3.579   1.691   5.895
 4379SOL    HW114036   3.549   1.612   5.949
 4379SOL    HW214037   3.655   1.664   5.837
 4380SOL     OW14038   0.456   2.472   3.032
 4380SOL    HW114039   0.442   2.516   3.121
 4380SOL    HW214040   0.370   2.468   2.982
 4381SOL     OW14041   1.533   5.456   6.857
 4381SOL    HW114042   1.456   5.435   6.797
 4381SOL    HW214043   1.500   5.500   6.940
 4382SOL     OW14044   1.077   5.287   4.312
 4382SOL    HW114045   1.086   5.383   4.288
 4382SOL    HW214046   1.164   5.241   4.297
 4383SOL     OW14047   7.004   4.375   0.502
 4383SOL    HW114048   0.007   4.472   0.492
 4383SOL    HW214049   0.058   4.326   0.546
 4384SOL     OW14050   4.943   6.919   3.729
 4384SOL    HW114051   4.952   6.821   3.748
 4384SOL    HW214052   4.861   6.954   3.775
 4385SOL     OW14053   4.396   0.716   5.475
 4385SOL    HW114054   4.373   0.743   5.381
 4385SOL    HW214055   4.474   0.770   5.507
 4386SOL     OW14056   2.177   3.372   4.353
 4386SOL    HW114057   2.101   3.320   4.313
 4386SOL    HW214058   2.262   3.321   4.339
 4387SOL     OW14059   5.402   2.242   1.190
 4387SOL    HW114060   5.490   2.268   1.228
 4387SOL    HW214061   5.346   2.198   1.260
 4388SOL     OW14062   5.471   3.494   0.296
 4388SOL    HW114063   5.555   3.515   0.247
 4388SOL    HW214064   5.455   3.395   0.294
 4389SOL     OW14065   2.622   1.112   0.112
 4389SOL    HW114066   2.599   1.116   0.210
 4389SOL    HW214067   2.646   1.204   0.081
 4390SOL     OW14068   0.156   2.004   0.880
 4390SOL    HW114069   0.104   2.049   0.808
 4390SOL    HW214070   0.109   2.017   0.968
 4391SOL     OW14071   0.318   6.307   1.640
 4391SOL    HW114072   0.361   6.322   1.550
 4391SOL    HW214073   0.248   6.376   1.655
 4392SOL     OW14074   1.281   2.883   6.008
 4392SOL    HW114075   1.298   2.981   5.996
 4392SOL    HW214076   1.363   2.840   6.047
 4393SOL     OW14077   6.435   0.482   2.153
 4393SOL    HW114078   6.438   0.382   2.157
 4393SOL    HW214079   6.339   0.512   2.155
 4394SOL     OW14080   6.816   0.174   2.713
 4394SOL    HW114081   6.818   0.271   2.737
 4394SOL    HW214082   6.739   0.156   2.652
 4395SOL     OW14083   1.422   3.671   1.947
 4395SOL    HW114084   1.487   3.613   1.995
 4395SOL    HW214085   1.396   3.748   2.006
 4396SOL     OW14086   2.680   1.195   2.881
 4396SOL    HW114087   2.694   1.278   2.934
 4396SOL    HW214088   2.717   1.207   2.789
 4397SOL     OW14089   3.705   0.805   5.311
 4397SOL    HW114090   3.613   0.807   5.270
 4397SOL    HW214091   3.772   0.837   5.243
 4398SOL     OW14092   2.316   3.330   5.677
 4398SOL    HW114093   2.404   3.281   5.685
 4398SOL    HW214094   2.333   3.428   5.666
 4399SOL     OW14095   3.284   6.084   1.248
 4399SOL    HW114096   3.269   5.986   1.260
 4399SOL    HW214097   3.355   6.116   1.310
 4400SOL     OW14098   1.669   6.027   4.921
 4400SOL    HW114099   1.700   6.019   5.016
 4400SOL    HW214100   1.633   5.938   4.891
 4401SOL     OW14101   2.727   6.760   6.612
 4401SOL    HW114102   2.826   6.771   6.620
 4401SOL    HW214103   2.683   6.850   6.611
 4402SOL     OW14104   1.261   0.953   2.673
 4402SOL    HW114105   1.188   0.885   2.668
 4402SOL    HW214106   1.342   0.918   2.625
 4403SOL     OW14107   6.280   5.995   3.118
 4403SOL    HW114108   6.195   6.035   3.084
 4403SOL    HW214109   6.353   6.064   3.115
 4404SOL     OW14110   0.588   6.641   5.475
 4404SOL    HW114111   0.586   6.607   5.381
 4404SOL    HW214112   0.554   6.570   5.536
 4405SOL     OW14113   1.439   5.208   2.614
 4405SOL    HW114114   1.445   5.260   2.699
 4405SOL    HW214115   1.530   5.185   2.582
 4406SOL     OW14116   6.077   4.736   2.310
 4406SOL    HW114117   6.123   4.761   2.225
 4406SOL    HW214118   6.014   4.809   2.336
 4407SOL     OW14119   5.926   6.633   1.059
 4407SOL    HW114120   5.980   6.712   1.031
 4407SOL    HW214121   5.832   6.642   1.024
 4408SOL     OW14122   4.616   0.949   1.007
 4408SOL    HW114123   4.554   1.007   0.954
 4408SOL    HW214124   4.565   0.902   1.079
 4409SOL     OW14125   3.455   0.873   4.057
 4409SOL    HW114126   3.442   0.895   3.960
 4409SOL    HW214127   3.547   0.835   4.070
 4410SOL     OW14128   0.725   0.295   1.160
 4410SOL    HW114129   0.708   0.201   1.131
 4410SOL    HW214130   0.727   0.355   1.079
 4411SOL     OW14131   4.433   4.818   5.203
 4411SOL    HW114132   4.512   4.827   5.143
 4411SOL    HW214133   4.411   4.908   5.242
 4412SOL     OW14134   4.358   5.930   1.836
 4412SOL    HW114135   4.366   5.950   1.738
 4412SOL    HW214136   4.407   6.000   1.888
 4413SOL     OW14137   4.926   6.317   4.369
 4413SOL    HW114138   4.971   6.228   4.369
 4413SOL    HW214139   4.844   6.313   4.313
 4414SOL     OW14140   5.774   4.006   1.184
 4414SOL    HW114141   5.859   4.059   1.181
 4414SOL    HW214142   5.696   4.067   1.176
 4415SOL     OW14143   1.742   3.979   1.298
 4415SOL    HW114144   1.785   4.038   1.367
 4415SOL    HW214145   1.799   3.899   1.281
 4416SOL     OW14146   4.856   3.070   4.157
 4416SOL    HW114147   4.825   3.064   4.251
 4416SOL    HW214148   4.945   3.117   4.154
 4417SOL     OW14149   0.478   4.237   2.034
 4417SOL    HW114150   0.441   4.239   2.127
 4417SOL    HW214151   0.454   4.150   1.991
 4418SOL     OW14152   6.449   1.736   5.182
 4418SOL    HW114153   6.369   1.796   5.190
 4418SOL    HW214154   6.430   1.664   5.115
 4419SOL     OW14155   6.585   6.574   6.294
 4419SOL    HW114156   6.554   6.504   6.228
 4419SOL    HW214157   6.522   6.651   6.292
 4420SOL     OW14158   3.853   1.376   1.060
 4420SOL    HW114159   3.845   1.338   0.968
 4420SOL    HW214160   3.822   1.471   1.060
 4421SOL     OW14161   2.629   2.914   0.003
 4421SOL    HW114162   2.536   2.948   7.012
 4421SOL    HW214163   2.632   2.855   0.084
 4422SOL     OW14164   0.645   3.049   6.179
 4422SOL    HW114165   0.696   3.135   6.183
 4422SOL    HW214166   0.703   2.974   6.212
 4423SOL     OW14167   5.744   4.600   4.432
 4423SOL    HW114168   5.834   4.626   4.397
 4423SOL    HW214169   5.728   4.645   4.520
 4424SOL     OW14170   4.132   5.847   3.019
 4424SOL    HW114171   4.145   5.918   3.088
 4424SOL    HW214172   4.217   5.834   2.968
 4425SOL     OW14173   0.157   6.543   1.755
 4425SOL    HW114174   0.066   6.530   1.794
 4425SOL    HW214175   0.163   6.633   1.713
 4426SOL     OW14176   0.312   0.479   4.632
 4426SOL    HW114177   0.357   0.401   4.588
 4426SOL    HW214178   0.213   0.471   4.618
 4427SOL     OW14179   3.356   5.696   2.058
 4427SOL    HW114180   3.384   5.746   1.976
 4427SOL    HW214181   3.281   5.745   2.102
 4428SOL     OW14182   6.169   6.035   3.667
 4428SOL    HW114183   6.256   5.995   3.695
 4428SOL    HW214184   6.109   6.044   3.747
 4429SOL     OW14185   2.590   6.286   3.158
 4429SOL    HW114186   2.632   6.377   3.157
 4429SOL    HW214187   2.633   6.230   3.228
 4430SOL     OW14188   6.297   3.798   4.731
 4430SOL    HW114189   6.362   3.873   4.719
 4430SOL    HW214190   6.206   3.829   4.705
 4431SOL     OW14191   4.293   6.684   4.811
 4431SOL    HW114192   4.292   6.623   4.890
 4431SOL    HW214193   4.270   6.633   4.728
 4432SOL     OW14194   1.520   3.703   6.600
 4432SOL    HW114195   1.424   3.685   6.581
 4432SOL    HW214196   1.556   3.768   6.533
 4433SOL     OW14197   0.984   0.434   4.295
 4433SOL    HW114198   1.053   0.421   4.366
 4433SOL    HW214199   0.968   0.532   4.281
 4434SOL     OW14200   6.637   1.145   1.838
 4434SOL    HW114201   6.709   1.081   1.866
 4434SOL    HW214202   6.667   1.239   1.858
 4435SOL     OW14203   2.646   4.632   1.037
 4435SOL    HW114204   2.703   4.594   1.110
 4435SOL    HW214205   2.577   4.564   1.011
 4436SOL     OW14206   4.613   2.026   1.758
 4436SOL    HW114207   4.555   2.048   1.836
 4436SOL    HW214208   4.556   1.999   1.681
 4437SOL     OW14209   6.549   4.924   6.980
 4437SOL    HW114210   6.643   4.937   6.950
 4437SOL    HW214211   6.508   4.847   6.931
 4438SOL     OW14212   4.412   1.459   4.599
 4438SOL    HW114213   4.429   1.557   4.608
 4438SOL    HW214214   4.388   1.438   4.504
 4439SOL     OW14215   2.581   4.843   2.131
 4439SOL    HW114216   2.674   4.809   2.112
 4439SOL    HW214217   2.584   4.942   2.141
 4440SOL     OW14218   2.061   5.619   5.703
 4440SOL    HW114219   2.003   5.564   5.763
 4440SOL    HW214220   2.154   5.582   5.704
 4441SOL     OW14221   6.846   1.445   1.212
 4441SOL    HW114222   6.910   1.520   1.194
 4441SOL    HW214223   6.855   1.415   1.307
 4442SOL     OW14224   1.638   4.995   1.110
 4442SOL    HW114225   1.731   4.983   1.145
 4442SOL    HW214226   1.619   4.925   1.041
 4443SOL     OW14227   1.129   5.729   5.502
 4443SOL    HW114228   1.196   5.694   5.567
 4443SOL    HW214229   1.049   5.763   5.552
 4444SOL     OW14230   5.151   6.024   6.985
 4444SOL    HW114231   5.240   5.983   7.001
 4444SOL    HW214232   5.080   5.954   6.995
 4445SOL     OW14233   2.053   3.729   0.398
 4445SOL    HW114234   1.995   3.768   0.470
 4445SOL    HW214235   2.039   3.630   0.394
 4446SOL     OW14236   5.023   2.000   2.109
 4446SOL    HW114237   4.975   2.009   2.197
 4446SOL    HW214238   5.058   2.090   2.081
 4447SOL     OW14239   4.840   5.640   5.468
 4447SOL    HW114240   4.745   5.671   5.465
 4447SOL    HW214241   4.899   5.717   5.490
 4448SOL     OW14242   2.882   6.375   2.300
 4448SOL    HW114243   2.789   6.399   2.274
 4448SOL    HW214244   2.883   6.283   2.338
 4449SOL     OW14245   4.204   1.663   5.550
 4449SOL    HW114246   4.171   1.637   5.641
 4449SOL    HW214247   4.137   1.633   5.481
 4450SOL     OW14248   2.102   6.024   0.624
 4450SOL    HW114249   2.128   5.929   0.606
 4450SOL    HW214250   2.003   6.029   0.639
 4451SOL     OW14251   4.767   6.102   3.892
 4451SOL    HW114252   4.674   6.097   3.856
 4451SOL    HW214253   4.818   6.021   3.864
 4452SOL     OW14254   5.046   4.188   3.702
 4452SOL    HW114255   5.094   4.245   3.770
 4452SOL    HW214256   5.075   4.216   3.610
 4453SOL     OW14257   0.345   5.294   1.721
 4453SOL    HW114258   0.290   5.351   1.781
 4453SOL    HW214259   0.303   5.291   1.630
 4454SOL     OW14260   0.816   1.628   0.445
 4454SOL    HW114261   0.718   1.613   0.432
 4454SOL    HW214262   0.851   1.685   0.370
 4455SOL     OW14263   1.135   0.439   3.927
 4455SOL    HW114264   1.073   0.361   3.935
 4455SOL    HW214265   1.172   0.461   4.018
 4456SOL     OW14266   1.538   5.855   4.235
 4456SOL    HW114267   1.465   5.866   4.168
 4456SOL    HW214268   1.529   5.924   4.306
 4457SOL     OW14269   1.508   1.890   4.526
 4457SOL    HW114270   1.531   1.912   4.431
 4457SOL    HW214271   1.411   1.867   4.532
 4458SOL     OW14272   1.983   2.198   6.050
 4458SOL    HW114273   2.071   2.242   6.067
 4458SOL    HW214274   1.909   2.254   6.087
 4459SOL     OW14275   0.623   4.166   2.808
 4459SOL    HW114276   0.588   4.145   2.899
 4459SOL    HW214277   0.720   4.190   2.815
 4460SOL     OW14278   6.639   3.126   5.083
 4460SOL    HW114279   6.723   3.170   5.051
 4460SOL    HW214280   6.638   3.125   5.183
 4461SOL     OW14281   1.824   0.046   0.661
 4461SOL    HW114282   1.913   0.083   0.635
 4461SOL    HW214283   1.752   0.109   0.633
 4462SOL     OW14284   6.609   4.289   2.063
 4462SOL    HW114285   6.509   4.287   2.053
 4462SOL    HW214286   6.648   4.350   1.995
 4463SOL     OW14287   5.951   2.138   6.910
 4463SOL    HW114288   5.994   2.056   6.871
 4463SOL    HW214289   6.003   2.219   6.883
 4464SOL     OW14290   0.426   3.545   1.195
 4464SOL    HW114291   0.506   3.502   1.237
 4464SOL    HW214292   0.356   3.475   1.177
 4465SOL     OW14293   4.533   4.972   1.739
 4465SOL    HW114294   4.550   4.905   1.811
 4465SOL    HW214295   4.499   4.926   1.657
 4466SOL     OW14296   0.551   3.107   2.595
 4466SOL    HW114297   0.643   3.142   2.617
 4466SOL    HW214298   0.485   3.182   2.603
 4467SOL     OW14299   5.298   4.722   1.385
 4467SOL    HW114300   5.210   4.685   1.413
 4467SOL    HW214301   5.284   4.808   1.335
 4468SOL     OW14302   1.754   2.984   0.379
 4468SOL    HW114303   1.768   3.074   0.337
 4468SOL    HW214304   1.657   2.967   0.388
 4469SOL     OW14305   1.944   6.091   1.728
 4469SOL    HW114306   2.037   6.063   1.704
 4469SOL    HW214307   1.901   6.020   1.785
 4470SOL     OW14308   1.083   0.000   2.802
 4470SOL    HW114309   1.027   6.939   2.795
 4470SOL    HW214310   1.139   0.010   2.719
 4471SOL     OW14311   1.001   0.750   6.711
 4471SOL    HW114312   0.966   0.692   6.638
 4471SOL    HW214313   0.930   0.762   6.781
 4472SOL     OW14314   1.557   2.649   0.601
 4472SOL    HW114315   1.607   2.714   0.544
 4472SOL    HW214316   1.607   2.562   0.603
 4473SOL     OW14317   0.411   2.415   5.082
 4473SOL    HW114318   0.444   2.399   4.989
 4473SOL    HW214319   0.389   2.512   5.093
 4474SOL     OW14320   2.463   6.250   0.966
 4474SOL    HW114321   2.408   6.236   0.884
 4474SOL    HW214322   2.403   6.270   1.044
 4475SOL     OW14323   0.698   3.510   0.522
 4475SOL    HW114324   0.784   3.476   0.561
 4475SOL    HW214325   0.717   3.558   0.437
 4476SOL     OW14326   5.065   0.493   3.618
 4476SOL    HW114327   4.986   0.440   3.648
 4476SOL    HW214328   5.098   0.550   3.693
 4477SOL     OW14329   0.201   1.464   4.177
 4477SOL    HW114330   0.111   1.506   4.188
 4477SOL    HW214331   0.262   1.526   4.129
 4478SOL     OW14332   1.189   0.828   2.274
 4478SOL    HW114333   1.236   0.853   2.359
 4478SOL    HW214334   1.174   0.729   2.272
 4479SOL     OW14335   2.375   2.738   0.217
 4479SOL    HW114336   2.342   2.818   0.167
 4479SOL    HW214337   2.297   2.684   0.251
 4480SOL     OW14338   6.853   6.796   2.939
 4480SOL    HW114339   6.850   6.817   2.841
 4480SOL    HW214340   6.920   6.724   2.955
 4481SOL     OW14341   2.356   3.932   5.861
 4481SOL    HW114342   2.358   3.839   5.824
 4481SOL    HW214343   2.322   3.994   5.791
 4482SOL     OW14344   2.909   0.016   1.408
 4482SOL    HW114345   2.880   6.966   1.473
 4482SOL    HW214346   2.960   0.087   1.457
 4483SOL     OW14347   0.750   3.281   1.145
 4483SOL    HW114348   0.722   3.365   1.191
 4483SOL    HW214349   0.777   3.301   1.051
 4484SOL     OW14350   3.738   0.844   0.670
 4484SOL    HW114351   3.786   0.908   0.730
 4484SOL    HW214352   3.649   0.822   0.710
 4485SOL     OW14353   0.354   2.979   5.256
 4485SOL    HW114354   0.358   3.025   5.344
 4485SOL    HW214355   0.447   2.957   5.226
 4486SOL     OW14356   5.348   4.584   3.590
 4486SOL    HW114357   5.265   4.565   3.538
 4486SOL    HW214358   5.384   4.498   3.626
 4487SOL     OW14359   0.495   2.606   6.469
 4487SOL    HW114360   0.502   2.704   6.482
 4487SOL    HW214361   0.573   2.573   6.417
 4488SOL     OW14362   5.707   4.499   4.007
 4488SOL    HW114363   5.704   4.598   3.997
 4488SOL    HW214364   5.686   4.474   4.102
 4489SOL     OW14365   3.747   6.023   6.294
 4489SOL    HW114366   3.737   6.122   6.311
 4489SOL    HW214367   3.692   5.998   6.214
 4490SOL     OW14368   5.558   1.677   2.146
 4490SOL    HW114369   5.614   1.692   2.065
 4490SOL    HW214370   5.461   1.679   2.121
 4491SOL     OW14371   0.256   4.085   2.962
 4491SOL    HW114372   0.306   4.170   2.947
 4491SOL    HW214373   0.248   4.068   3.061
 4492SOL     OW14374   6.646   1.291   2.109
 4492SOL    HW114375   6.737   1.324   2.135
 4492SOL    HW214376   6.619   1.333   2.022
 4493SOL     OW14377   5.455   1.017   6.253
 4493SOL    HW114378   5.552   0.991   6.251
 4493SOL    HW214379   5.418   1.016   6.160
 4494SOL     OW14380   1.595   1.489   2.591
 4494SOL    HW114381   1.501   1.515   2.614
 4494SOL    HW214382   1.655   1.568   2.603
 4495SOL     OW14383   4.258   5.971   1.139
 4495SOL    HW114384   4.321   6.025   1.196
 4495SOL    HW214385   4.264   5.875   1.165
 4496SOL     OW14386   2.314   5.480   5.667
 4496SOL    HW114387   2.316   5.398   5.611
 4496SOL    HW214388   2.383   5.545   5.633
 4497SOL     OW14389   4.333   6.727   5.941
 4497SOL    HW114390   4.392   6.770   5.872
 4497SOL    HW214391   4.364   6.755   6.032
 4498SOL     OW14392   1.491   4.619   4.296
 4498SOL    HW114393   1.531   4.587   4.210
 4498SOL    HW214394   1.392   4.602   4.295
 4499SOL     OW14395   5.559   2.094   2.129
 4499SOL    HW114396   5.617   2.046   2.063
 4499SOL    HW214397   5.592   2.076   2.221
 4500SOL     OW14398   3.568   6.460   6.704
 4500SOL    HW114399   3.570   6.422   6.796
 4500SOL    HW214400   3.515   6.401   6.643
 4501SOL     OW14401   6.440   6.907   3.013
 4501SOL    HW114402   6.396   6.995   3.033
 4501SOL    HW214403   6.534   6.908   3.046
 4502SOL     OW14404   1.164   4.133   0.125
 4502SOL    HW114405   1.205   4.195   0.057
 4502SOL    HW214406   1.092   4.079   0.082
 4503SOL     OW14407   3.811   1.234   2.556
 4503SOL    HW114408   3.787   1.195   2.468
 4503SOL    HW214409   3.811   1.334   2.550
 4504SOL     OW14410   1.474   2.644   3.941
 4504SOL    HW114411   1.541   2.592   3.995
 4504SOL    HW214412   1.420   2.582   3.885
 4505SOL     OW14413   6.932   3.098   3.471
 4505SOL    HW114414   6.959   3.153   3.550
 4505SOL    HW214415   6.922   3.003   3.498
 4506SOL     OW14416   4.070   3.848   0.255
 4506SOL    HW114417   3.986   3.887   0.291
 4506SOL    HW214418   4.053   3.805   0.167
 4507SOL     OW14419   6.162   2.414   3.168
 4507SOL    HW114420   6.080   2.468   3.146
 4507SOL    HW214421   6.220   2.466   3.230
 4508SOL     OW14422   5.930   5.102   0.102
 4508SOL    HW114423   5.988   5.184   0.104
 4508SOL    HW214424   5.987   5.022   0.082
 4509SOL     OW14425   4.752   2.360   2.537
 4509SOL    HW114426   4.653   2.362   2.552
 4509SOL    HW214427   4.780   2.443   2.489
 4510SOL     OW14428   4.789   1.836   3.740
 4510SOL    HW114429   4.752   1.751   3.702
 4510SOL    HW214430   4.827   1.817   3.831
 4511SOL     OW14431   0.906   4.533   6.736
 4511SOL    HW114432   0.893   4.540   6.637
 4511SOL    HW214433   0.950   4.616   6.770
 4512SOL     OW14434   2.884   3.471   5.585
 4512SOL    HW114435   2.795   3.493   5.626
 4512SOL    HW214436   2.929   3.554   5.555
 4513SOL     OW14437   0.561   1.387   1.386
 4513SOL    HW114438   0.567   1.347   1.478
 4513SOL    HW214439   0.544   1.314   1.320
 4514SOL     OW14440   4.615   4.628   6.654
 4514SOL    HW114441   4.538   4.666   6.704
 4514SOL    HW214442   4.679   4.585   6.718
 4515SOL     OW14443   4.328   0.044   5.874
 4515SOL    HW114444   4.423   0.020   5.857
 4515SOL    HW214445   4.301   0.121   5.817
 4516SOL     OW14446   3.044   1.637   5.074
 4516SOL    HW114447   2.990   1.667   5.153
 4516SOL    HW214448   3.098   1.714   5.040
 4517SOL     OW14449   3.691   0.657   4.151
 4517SOL    HW114450   3.755   0.609   4.211
 4517SOL    HW214451   3.742   0.713   4.086
 4518SOL     OW14452   0.157   0.043   0.994
 4518SOL    HW114453   0.093   0.090   1.054
 4518SOL    HW214454   0.107   7.002   0.933
 4519SOL     OW14455   5.177   0.398   6.610
 4519SOL    HW114456   5.249   0.354   6.664
 4519SOL    HW214457   5.158   0.343   6.528
 4520SOL     OW14458   4.652   5.123   5.147
 4520SOL    HW114459   4.632   5.066   5.067
 4520SOL    HW214460   4.693   5.209   5.117
 4521SOL     OW14461   4.576   2.549   4.287
 4521SOL    HW114462   4.476   2.556   4.288
 4521SOL    HW214463   4.613   2.612   4.219
 4522SOL     OW14464   5.558   3.907   3.313
 4522SOL    HW114465   5.653   3.888   3.340
 4522SOL    HW214466   5.530   3.842   3.242
 4523SOL     OW14467   0.281   2.801   6.615
 4523SOL    HW114468   0.371   2.819   6.575
 4523SOL    HW214469   0.232   2.888   6.627
 4524SOL     OW14470   2.067   3.921   1.872
 4524SOL    HW114471   2.037   4.014   1.856
 4524SOL    HW214472   2.166   3.914   1.856
 4525SOL     OW14473   3.622   1.464   6.081
 4525SOL    HW114474   3.703   1.408   6.066
 4525SOL    HW214475   3.624   1.500   6.175
 4526SOL     OW14476   1.131   0.004   5.483
 4526SOL    HW114477   1.132   6.948   5.420
 4526SOL    HW214478   1.040   0.014   5.524
 4527SOL     OW14479   0.813   2.522   2.496
 4527SOL    HW114480   0.789   2.531   2.399
 4527SOL    HW214481   0.912   2.527   2.506
 4528SOL     OW14482   5.575   2.068   4.647
 4528SOL    HW114483   5.570   2.098   4.552
 4528SOL    HW214484   5.510   2.122   4.702
 4529SOL     OW14485   1.644   2.427   4.026
 4529SOL    HW114486   1.600   2.371   3.956
 4529SOL    HW214487   1.740   2.440   4.003
 4530SOL     OW14488   4.110   4.813   5.827
 4530SOL    HW114489   4.201   4.833   5.862
 4530SOL    HW214490   4.079   4.890   5.770
 4531SOL     OW14491   1.515   6.731   5.241
 4531SOL    HW114492   1.605   6.703   5.208
 4531SOL    HW214493   1.521   6.752   5.339
 4532SOL     OW14494   5.498   1.214   2.020
 4532SOL    HW114495   5.540   1.301   2.046
 4532SOL    HW214496   5.420   1.195   2.079
 4533SOL     OW14497   3.159   5.816   1.297
 4533SOL    HW114498   3.062   5.832   1.276
 4533SOL    HW214499   3.190   5.733   1.251
 4534SOL     OW14500   5.731   1.407   4.607
 4534SOL    HW114501   5.692   1.323   4.572
 4534SOL    HW214502   5.749   1.397   4.705
 4535SOL     OW14503   1.467   0.450   0.387
 4535SOL    HW114504   1.524   0.531   0.404
 4535SOL    HW214505   1.520   0.382   0.336
 4536SOL     OW14506   3.710   0.811   5.580
 4536SOL    HW114507   3.713   0.905   5.612
 4536SOL    HW214508   3.700   0.810   5.480
 4537SOL     OW14509   3.307   3.839   3.653
 4537SOL    HW114510   3.309   3.937   3.669
 4537SOL    HW214511   3.215   3.811   3.625
 4538SOL     OW14512   1.207   3.106   0.435
 4538SOL    HW114513   1.262   3.168   0.380
 4538SOL    HW214514   1.131   3.158   0.477
 4539SOL     OW14515   1.006   4.626   4.604
 4539SOL    HW114516   0.932   4.625   4.537
 4539SOL    HW214517   1.047   4.717   4.607
 4540SOL     OW14518   2.045   1.825   0.426
 4540SOL    HW114519   2.143   1.848   0.432
 4540SOL    HW214520   2.005   1.870   0.347
 4541SOL     OW14521   3.804   2.998   0.053
 4541SOL    HW114522   3.716   3.027   0.015
 4541SOL    HW214523   3.867   2.978   6.999
 4542SOL     OW14524   6.854   1.650   0.624
 4542SOL    HW114525   6.817   1.677   0.535
 4542SOL    HW214526   6.802   1.572   0.658
 4543SOL     OW14527   4.308   1.145   1.162
 4543SOL    HW114528   4.226   1.201   1.159
 4543SOL    HW214529   4.302   1.072   1.094
 4544SOL     OW14530   5.114   5.959   0.350
 4544SOL    HW114531   5.030   5.958   0.296
 4544SOL    HW214532   5.163   6.045   0.334
 4545SOL     OW14533   3.287   3.264   5.297
 4545SOL    HW114534   3.327   3.355   5.304
 4545SOL    HW214535   3.196   3.265   5.339
 4546SOL     OW14536   4.564   6.951   5.821
 4546SOL    HW114537   4.644   6.959   5.761
 4546SOL    HW214538   4.585   6.886   5.894
 4547SOL     OW14539   6.867   1.226   0.099
 4547SOL    HW114540   6.889   1.305   0.157
 4547SOL    HW214541   6.800   1.253   0.030
 4548SOL     OW14542   3.121   1.354   1.923
 4548SOL    HW114543   3.168   1.437   1.892
 4548SOL    HW214544   3.093   1.365   2.019
 4549SOL     OW14545   6.490   4.881   3.960
 4549SOL    HW114546   6.541   4.924   3.885
 4549SOL    HW214547   6.490   4.943   4.039
 4550SOL     OW14548   2.602   5.315   6.840
 4550SOL    HW114549   2.507   5.288   6.856
 4550SOL    HW214550   2.663   5.253   6.890
 4551SOL     OW14551   3.593   3.071   5.950
 4551SOL    HW114552   3.678   3.018   5.956
 4551SOL    HW214553   3.517   3.016   5.983
 4552SOL     OW14554   4.938   0.565   0.066
 4552SOL    HW114555   4.960   0.617   0.148
 4552SOL    HW214556   4.839   0.559   0.056
 4553SOL     OW14557   0.311   6.860   0.649
 4553SOL    HW114558   0.321   6.807   0.564
 4553SOL    HW214559   0.309   6.797   0.727
 4554SOL     OW14560   5.411   6.398   2.779
 4554SOL    HW114561   5.436   6.319   2.723
 4554SOL    HW214562   5.328   6.377   2.831
 4555SOL     OW14563   0.647   0.265   3.023
 4555SOL    HW114564   0.715   0.327   3.063
 4555SOL    HW214565   0.656   0.267   2.924
 4556SOL     OW14566   5.117   4.585   4.529
 4556SOL    HW114567   5.089   4.580   4.625
 4556SOL    HW214568   5.153   4.676   4.510
 4557SOL     OW14569   6.922   5.583   5.057
 4557SOL    HW114570   6.919   5.507   5.123
 4557SOL    HW214571   6.889   5.666   5.101
 4558SOL     OW14572   0.878   4.471   3.768
 4558SOL    HW114573   0.885   4.544   3.836
 4558SOL    HW214574   0.892   4.383   3.814
 4559SOL     OW14575   0.252   3.716   4.251
 4559SOL    HW114576   0.337   3.689   4.205
 4559SOL    HW214577   0.273   3.771   4.331
 4560SOL     OW14578   6.627   4.361   3.387
 4560SOL    HW114579   6.700   4.301   3.353
 4560SOL    HW214580   6.556   4.306   3.431
 4561SOL     OW14581   4.959   3.006   3.852
 4561SOL    HW114582   5.023   3.060   3.907
 4561SOL    HW214583   4.930   2.926   3.903
 4562SOL     OW14584   4.908   1.196   1.356
 4562SOL    HW114585   4.951   1.201   1.445
 4562SOL    HW214586   4.947   1.265   1.296
 4563SOL     OW14587   0.761   4.051   1.819
 4563SOL    HW114588   0.833   4.094   1.874
 4563SOL    HW214589   0.781   4.063   1.722
 4564SOL     OW14590   2.104   3.706   2.133
 4564SOL    HW114591   2.156   3.637   2.081
 4564SOL    HW214592   2.007   3.681   2.133
 4565SOL     OW14593   2.323   6.680   4.834
 4565SOL    HW114594   2.383   6.650   4.908
 4565SOL    HW214595   2.295   6.775   4.850
 4566SOL     OW14596   6.835   5.168   3.279
 4566SOL    HW114597   6.823   5.258   3.321
 4566SOL    HW214598   6.874   5.179   3.188
 4567SOL     OW14599   1.124   0.039   0.650
 4567SOL    HW114600   1.048   0.020   0.712
 4567SOL    HW214601   1.199   6.996   0.668
 4568SOL     OW14602   0.227   4.662   3.796
 4568SOL    HW114603   0.271   4.722   3.864
 4568SOL    HW214604   0.185   4.584   3.843
 4569SOL     OW14605   0.756   2.732   3.934
 4569SOL    HW114606   0.703   2.740   3.850
 4569SOL    HW214607   0.810   2.815   3.948
 4570SOL     OW14608   4.848   6.125   1.270
 4570SOL    HW114609   4.898   6.163   1.192
 4570SOL    HW214610   4.753   6.156   1.268
 4571SOL     OW14611   1.933   2.602   5.213
 4571SOL    HW114612   1.949   2.509   5.178
 4571SOL    HW214613   1.865   2.599   5.286
 4572SOL     OW14614   4.353   3.201   1.627
 4572SOL    HW114615   4.410   3.281   1.646
 4572SOL    HW214616   4.383   3.124   1.683
 4573SOL     OW14617   2.247   5.191   0.867
 4573SOL    HW114618   2.334   5.151   0.896
 4573SOL    HW214619   2.184   5.117   0.841
 4574SOL     OW14620   5.338   0.479   1.645
 4574SOL    HW114621   5.367   0.573   1.627
 4574SOL    HW214622   5.278   0.478   1.725
 4575SOL     OW14623   0.246   1.792   5.263
 4575SOL    HW114624   0.207   1.857   5.197
 4575SOL    HW214625   0.209   1.701   5.245
 4576SOL     OW14626   3.037   3.732   6.886
 4576SOL    HW114627   3.077   3.778   6.807
 4576SOL    HW214628   3.076   3.640   6.894
 4577SOL     OW14629   0.783   1.937   1.880
 4577SOL    HW114630   0.697   1.959   1.925
 4577SOL    HW214631   0.859   1.967   1.937
 4578SOL     OW14632   1.613   0.671   3.176
 4578SOL    HW114633   1.554   0.675   3.096
 4578SOL    HW214634   1.660   0.583   3.178
 4579SOL     OW14635   4.654   1.021   2.803
 4579SOL    HW114636   4.657   0.921   2.805
 4579SOL    HW214637   4.565   1.052   2.838
 4580SOL     OW14638   0.720   0.532   1.765
 4580SOL    HW114639   0.625   0.517   1.737
 4580SOL    HW214640   0.782   0.506   1.692
 4581SOL     OW14641   2.883   0.871   1.476
 4581SOL    HW114642   2.838   0.784   1.455
 4581SOL    HW214643   2.831   0.919   1.547
 4582SOL     OW14644   5.964   0.544   4.445
 4582SOL    HW114645   5.951   0.446   4.435
 4582SOL    HW214646   6.061   0.567   4.431
 4583SOL     OW14647   2.156   6.414   6.847
 4583SOL    HW114648   2.205   6.329   6.830
 4583SOL    HW214649   2.061   6.405   6.816
 4584SOL     OW14650   0.158   1.201   4.581
 4584SOL    HW114651   0.210   1.129   4.627
 4584SOL    HW214652   0.221   1.259   4.529
 4585SOL     OW14653   0.925   2.771   2.896
 4585SOL    HW114654   0.972   2.751   2.810
 4585SOL    HW214655   0.848   2.708   2.908
 4586SOL     OW14656   7.010   5.198   5.793
 4586SOL    HW114657   7.014   5.264   5.867
 4586SOL    HW214658   7.007   5.105   5.831
 4587SOL     OW14659   4.400   3.350   5.891
 4587SOL    HW114660   4.303   3.370   5.906
 4587SOL    HW214661   4.455   3.426   5.925
 4588SOL     OW14662   2.421   4.327   6.610
 4588SOL    HW114663   2.439   4.229   6.601
 4588SOL    HW214664   2.468   4.361   6.692
 4589SOL     OW14665   4.976   6.193   2.100
 4589SOL    HW114666   4.890   6.172   2.146
 4589SOL    HW214667   4.985   6.139   2.017
 4590SOL     OW14668   2.140   4.897   1.885
 4590SOL    HW114669   2.169   4.976   1.939
 4590SOL    HW214670   2.133   4.816   1.944
 4591SOL     OW14671   2.117   1.466   4.709
 4591SOL    HW114672   2.049   1.436   4.642
 4591SOL    HW214673   2.187   1.520   4.663
 4592SOL     OW14674   2.600   2.421   3.200
 4592SOL    HW114675   2.563   2.337   3.239
 4592SOL    HW214676   2.687   2.443   3.244
 4593SOL     OW14677   1.847   5.960   4.566
 4593SOL    HW114678   1.939   5.927   4.584
 4593SOL    HW214679   1.781   5.886   4.581
 4594SOL     OW14680   0.997   6.256   4.069
 4594SOL    HW114681   0.949   6.320   4.129
 4594SOL    HW214682   0.944   6.242   3.985
 4595SOL     OW14683   5.912   1.989   6.589
 4595SOL    HW114684   5.818   2.001   6.622
 4595SOL    HW214685   5.917   2.016   6.493
 4596SOL     OW14686   0.707   1.750   2.924
 4596SOL    HW114687   0.650   1.762   2.843
 4596SOL    HW214688   0.655   1.776   3.005
 4597SOL     OW14689   2.270   5.435   0.788
 4597SOL    HW114690   2.207   5.451   0.712
 4597SOL    HW214691   2.263   5.339   0.818
 4598SOL     OW14692   0.113   2.719   0.185
 4598SOL    HW114693   0.211   2.730   0.170
 4598SOL    HW214694   0.090   2.622   0.182
 4599SOL     OW14695   3.090   6.458   3.196
 4599SOL    HW114696   3.132   6.470   3.287
 4599SOL    HW214697   2.991   6.457   3.205
 4600SOL     OW14698   0.566   6.397   5.955
 4600SOL    HW114699   0.660   6.369   5.935
 4600SOL    HW214700   0.559   6.422   6.052
 4601SOL     OW14701   1.236   0.858   5.128
 4601SOL    HW114702   1.267   0.943   5.085
 4601SOL    HW214703   1.294   0.837   5.207
 4602SOL     OW14704   3.978   0.451   6.404
 4602SOL    HW114705   4.073   0.476   6.423
 4602SOL    HW214706   3.962   0.356   6.428
 4603SOL     OW14707   4.350   6.858   0.956
 4603SOL    HW114708   4.347   6.927   1.028
 4603SOL    HW214709   4.273   6.795   0.967
 4604SOL     OW14710   0.651   6.271   3.372
 4604SOL    HW114711   0.636   6.250   3.275
 4604SOL    HW214712   0.650   6.371   3.384
 4605SOL     OW14713   4.498   1.379   2.084
 4605SOL    HW114714   4.411   1.367   2.037
 4605SOL    HW214715   4.567   1.318   2.045
 4606SOL     OW14716   6.707   6.956   4.383
 4606SOL    HW114717   6.787   6.903   4.411
 4606SOL    HW214718   6.733   0.004   4.316
 4607SOL     OW14719   2.902   2.005   1.182
 4607SOL    HW114720   2.877   1.915   1.147
 4607SOL    HW214721   2.823   2.065   1.180
 4608SOL     OW14722   0.576   2.168   5.446
 4608SOL    HW114723   0.664   2.125   5.465
 4608SOL    HW214724   0.564   2.248   5.505
 4609SOL     OW14725   6.358   5.212   6.086
 4609SOL    HW114726   6.351   5.196   6.184
 4609SOL    HW214727   6.415   5.140   6.045
 4610SOL     OW14728   5.274   4.379   6.291
 4610SOL    HW114729   5.282   4.297   6.235
 4610SOL    HW214730   5.365   4.408   6.320
 4611SOL     OW14731   0.142   0.459   6.612
 4611SOL    HW114732   0.091   0.437   6.529
 4611SOL    HW214733   0.122   0.392   6.682
 4612SOL     OW14734   2.013   0.651   2.686
 4612SOL    HW114735   1.998   0.747   2.663
 4612SOL    HW214736   2.102   0.641   2.731
 4613SOL     OW14737   1.421   4.941   3.396
 4613SOL    HW114738   1.453   4.968   3.487
 4613SOL    HW214739   1.325   4.966   3.386
 4614SOL     OW14740   7.017   4.726   2.761
 4614SOL    HW114741   0.069   4.657   2.753
 4614SOL    HW214742   6.938   4.696   2.707
 4615SOL     OW14743   1.107   4.726   6.914
 4615SOL    HW114744   1.167   4.677   6.978
 4615SOL    HW214745   1.159   4.799   6.869
 4616SOL     OW14746   1.698   4.219   6.256
 4616SOL    HW114747   1.711   4.160   6.177
 4616SOL    HW214748   1.749   4.304   6.243
 4617SOL     OW14749   0.480   4.301   4.060
 4617SOL    HW114750   0.423   4.360   4.003
 4617SOL    HW214751   0.562   4.274   4.009
 4618SOL     OW14752   1.938   4.339   5.268
 4618SOL    HW114753   1.959   4.246   5.298
 4618SOL    HW214754   2.006   4.369   5.200
 4619SOL     OW14755   4.047   5.699   6.651
 4619SOL    HW114756   4.002   5.725   6.736
 4619SOL    HW214757   4.077   5.604   6.656
 4620SOL     OW14758   1.535   4.187   1.541
 4620SOL    HW114759   1.516   4.284   1.560
 4620SOL    HW214760   1.630   4.167   1.565
 4621SOL     OW14761   2.755   0.288   3.092
 4621SOL    HW114762   2.777   0.297   2.995
 4621SOL    HW214763   2.716   0.374   3.125
 4622SOL     OW14764   6.064   0.175   0.216
 4622SOL    HW114765   6.119   0.218   0.287
 4622SOL    HW214766   6.079   0.223   0.129
 4623SOL     OW14767   2.921   4.848   2.882
 4623SOL    HW114768   2.870   4.891   2.808
 4623SOL    HW214769   2.874   4.765   2.911
 4624SOL     OW14770   5.404   1.910   0.736
 4624SOL    HW114771   5.501   1.902   0.713
 4624SOL    HW214772   5.393   1.911   0.835
 4625SOL     OW14773   0.450   6.325   2.121
 4625SOL    HW114774   0.492   6.314   2.031
 4625SOL    HW214775   0.519   6.316   2.192
 4626SOL     OW14776   3.980   3.727   2.080
 4626SOL    HW114777   4.004   3.668   2.156
 4626SOL    HW214778   3.951   3.816   2.114
 4627SOL     OW14779   5.981   6.884   4.358
 4627SOL    HW114780   5.889   6.923   4.351
 4627SOL    HW214781   6.012   6.887   4.453
 4628SOL     OW14782   6.760   4.524   2.891
 4628SOL    HW114783   6.788   4.430   2.870
 4628SOL    HW214784   6.761   4.579   2.808
 4629SOL     OW14785   1.253   5.106   1.007
 4629SOL    HW114786   1.286   5.058   0.926
 4629SOL    HW214787   1.274   5.053   1.089
 4630SOL     OW14788   1.916   3.774   1.236
 4630SOL    HW114789   2.006   3.812   1.217
 4630SOL    HW214790   1.924   3.703   1.307
 4631SOL     OW14791   6.387   1.892   2.447
 4631SOL    HW114792   6.314   1.899   2.514
 4631SOL    HW214793   6.417   1.797   2.439
 4632SOL     OW14794   2.981   4.895   3.707
 4632SOL    HW114795   2.926   4.938   3.779
 4632SOL    HW214796   2.948   4.926   3.618
 4633SOL     OW14797   5.404   3.104   4.255
 4633SOL    HW114798   5.329   3.037   4.251
 4633SOL    HW214799   5.418   3.145   4.165
 4634SOL     OW14800   3.822   3.043   5.066
 4634SOL    HW114801   3.784   2.961   5.109
 4634SOL    HW214802   3.758   3.119   5.078
 4635SOL     OW14803   4.186   0.177   2.627
 4635SOL    HW114804   4.276   0.174   2.582
 4635SOL    HW214805   4.115   0.188   2.557
 4636SOL     OW14806   1.851   5.589   6.700
 4636SOL    HW114807   1.765   5.614   6.744
 4636SOL    HW214808   1.835   5.572   6.603
 4637SOL     OW14809   1.917   2.500   3.308
 4637SOL    HW114810   2.010   2.485   3.344
 4637SOL    HW214811   1.910   2.459   3.217
 4638SOL     OW14812   4.294   4.270   6.863
 4638SOL    HW114813   4.212   4.212   6.870
 4638SOL    HW214814   4.324   4.295   6.955
 4639SOL     OW14815   4.464   2.024   1.526
 4639SOL    HW114816   4.423   2.111   1.498
 4639SOL    HW214817   4.416   1.949   1.480
 4640SOL     OW14818   0.166   2.686   0.653
 4640SOL    HW114819   0.176   2.686   0.752
 4640SOL    HW214820   0.249   2.651   0.610
 4641SOL     OW14821   1.418   6.074   4.656
 4641SOL    HW114822   1.412   6.044   4.751
 4641SOL    HW214823   1.344   6.032   4.604
 4642SOL     OW14824   6.021   1.349   6.351
 4642SOL    HW114825   5.968   1.334   6.435
 4642SOL    HW214826   6.103   1.292   6.353
 4643SOL     OW14827   0.435   2.026   6.732
 4643SOL    HW114828   0.479   2.103   6.779
 4643SOL    HW214829   0.468   1.940   6.771
 4644SOL     OW14830   1.029   1.518   1.194
 4644SOL    HW114831   1.090   1.548   1.267
 4644SOL    HW214832   0.948   1.474   1.234
 4645SOL     OW14833   5.819   2.345   5.862
 4645SOL    HW114834   5.892   2.294   5.907
 4645SOL    HW214835   5.749   2.370   5.929
 4646SOL     OW14836   1.549   4.249   2.313
 4646SOL    HW114837   1.550   4.158   2.355
 4646SOL    HW214838   1.457   4.287   2.317
 4647SOL     OW14839   1.936   5.894   2.569
 4647SOL    HW114840   1.881   5.814   2.546
 4647SOL    HW214841   2.013   5.867   2.627
 4648SOL     OW14842   2.255   0.801   4.097
 4648SOL    HW114843   2.215   0.866   4.032
 4648SOL    HW214844   2.225   0.823   4.190
 4649SOL     OW14845   4.865   2.833   0.540
 4649SOL    HW114846   4.948   2.780   0.555
 4649SOL    HW214847   4.888   2.930   0.533
 4650SOL     OW14848   3.437   5.293   0.467
 4650SOL    HW114849   3.378   5.311   0.389
 4650SOL    HW214850   3.468   5.198   0.464
 4651SOL     OW14851   1.263   3.673   0.074
 4651SOL    HW114852   1.292   3.676   0.169
 4651SOL    HW214853   1.336   3.709   0.016
 4652SOL     OW14854   0.501   0.190   5.565
 4652SOL    HW114855   0.500   0.120   5.493
 4652SOL    HW214856   0.560   0.159   5.640
 4653SOL     OW14857   0.460   6.467   1.011
 4653SOL    HW114858   0.413   6.395   0.960
 4653SOL    HW214859   0.462   6.551   0.956
 4654SOL     OW14860   0.733   1.356   5.334
 4654SOL    HW114861   0.685   1.434   5.294
 4654SOL    HW214862   0.742   1.370   5.433
 4655SOL     OW14863   5.589   5.108   3.091
 4655SOL    HW114864   5.671   5.063   3.058
 4655SOL    HW214865   5.613   5.175   3.161
 4656SOL     OW14866   5.728   0.774   1.868
 4656SOL    HW114867   5.735   0.829   1.785
 4656SOL    HW214868   5.797   0.702   1.867
 4657SOL     OW14869   3.761   1.795   2.609
 4657SOL    HW114870   3.681   1.735   2.603
 4657SOL    HW214871   3.730   1.889   2.623
 4658SOL     OW14872   1.508   1.752   0.318
 4658SOL    HW114873   1.557   1.699   0.388
 4658SOL    HW214874   1.497   1.846   0.350
 4659SOL     OW14875   2.047   4.900   0.588
 4659SOL    HW114876   2.078   4.973   0.526
 4659SOL    HW214877   2.058   4.930   0.683
 4660SOL     OW14878   0.112   4.946   4.317
 4660SOL    HW114879   0.194   4.994   4.286
 4660SOL    HW214880   0.130   4.901   4.404
 4661SOL     OW14881   1.022   0.665   5.765
 4661SOL    HW114882   1.056   0.759   5.758
 4661SOL    HW214883   1.087   0.610   5.818
 4662SOL     OW14884   2.936   0.702   6.177
 4662SOL    HW114885   2.947   0.799   6.156
 4662SOL    HW214886   3.021   0.654   6.159
 4663SOL     OW14887   0.698   1.076   1.429
 4663SOL    HW114888   0.728   1.069   1.334
 4663SOL    HW214889   0.762   1.025   1.488
 4664SOL     OW14890   5.817   6.414   4.713
 4664SOL    HW114891   5.801   6.322   4.749
 4664SOL    HW214892   5.907   6.446   4.740
 4665SOL     OW14893   0.219   0.914   2.851
 4665SOL    HW114894   0.290   0.950   2.912
 4665SOL    HW214895   0.186   0.826   2.886
 4666SOL     OW14896   1.588   2.349   6.208
 4666SOL    HW114897   1.674   2.383   6.171
 4666SOL    HW214898   1.562   2.265   6.161
 4667SOL     OW14899   6.633   2.878   1.282
 4667SOL    HW114900   6.593   2.842   1.198
 4667SOL    HW214901   6.571   2.945   1.323
 4668SOL     OW14902   4.862   1.286   5.789
 4668SOL    HW114903   4.872   1.366   5.849
 4668SOL    HW214904   4.939   1.282   5.726
 4669SOL     OW14905   5.378   6.960   6.097
 4669SOL    HW114906   5.402   7.010   6.180
 4669SOL    HW214907   5.308   7.011   6.047
 4670SOL     OW14908   0.678   3.195   0.114
 4670SOL    HW114909   0.754   3.166   0.171
 4670SOL    HW214910   0.701   3.281   0.069
 4671SOL     OW14911   6.656   2.094   1.824
 4671SOL    HW114912   6.694   2.019   1.879
 4671SOL    HW214913   6.629   2.169   1.884
 4672SOL     OW14914   3.582   3.113   0.816
 4672SOL    HW114915   3.526   3.067   0.885
 4672SOL    HW214916   3.534   3.110   0.728
 4673SOL     OW14917   5.304   0.752   1.113
 4673SOL    HW114918   5.369   0.676   1.116
 4673SOL    HW214919   5.212   0.717   1.128
 4674SOL     OW14920   0.990   3.478   0.485
 4674SOL    HW114921   1.028   3.401   0.536
 4674SOL    HW214922   0.962   3.448   0.394
 4675SOL     OW14923   1.809   6.000   0.676
 4675SOL    HW114924   1.816   6.070   0.606
 4675SOL    HW214925   1.717   5.960   0.675
 4676SOL     OW14926   1.186   5.866   4.629
 4676SOL    HW114927   1.163   5.792   4.566
 4676SOL    HW214928   1.208   5.827   4.719
 4677SOL     OW14929   4.458   6.684   6.878
 4677SOL    HW114930   4.488   6.779   6.889
 4677SOL    HW214931   4.500   6.628   6.948
 4678SOL     OW14932   2.621   4.613   0.377
 4678SOL    HW114933   2.584   4.669   0.451
 4678SOL    HW214934   2.637   4.520   0.411
 4679SOL     OW14935   2.187   6.747   5.269
 4679SOL    HW114936   2.285   6.732   5.274
 4679SOL    HW214937   2.141   6.660   5.251
 4680SOL     OW14938   1.012   5.415   6.091
 4680SOL    HW114939   0.984   5.509   6.113
 4680SOL    HW214940   1.107   5.415   6.060
 4681SOL     OW14941   0.055   5.915   5.169
 4681SOL    HW114942   0.076   5.992   5.228
 4681SOL    HW214943   0.049   5.831   5.224
 4682SOL     OW14944   3.257   0.508   0.919
 4682SOL    HW114945   3.253   0.472   0.825
 4682SOL    HW214946   3.168   0.546   0.944
 4683SOL     OW14947   0.425   4.970   3.508
 4683SOL    HW114948   0.350   4.998   3.568
 4683SOL    HW214949   0.461   4.882   3.538
 4684SOL     OW14950   1.725   1.313   4.846
 4684SOL    HW114951   1.749   1.292   4.940
 4684SOL    HW214952   1.627   1.334   4.840
 4685SOL     OW14953   5.532   4.085   4.147
 4685SOL    HW114954   5.614   4.076   4.091
 4685SOL    HW214955   5.469   4.150   4.103
 4686SOL     OW14956   5.254   5.436   6.388
 4686SOL    HW114957   5.207   5.510   6.437
 4686SOL    HW214958   5.202   5.411   6.306
 4687SOL     OW14959   4.648   0.452   4.733
 4687SOL    HW114960   4.747   0.436   4.739
 4687SOL    HW214961   4.616   0.424   4.643
 4688SOL     OW14962   6.862   1.040   0.858
 4688SOL    HW114963   6.955   1.032   0.891
 4688SOL    HW214964   6.807   0.964   0.892
 4689SOL     OW14965   1.927   5.743   3.992
 4689SOL    HW114966   1.955   5.652   4.021
 4689SOL    HW214967   1.911   5.800   4.073
 4690SOL     OW14968   2.239   1.603   0.668
 4690SOL    HW114969   2.217   1.535   0.737
 4690SOL    HW214970   2.183   1.586   0.586
 4691SOL     OW14971   3.210   4.290   0.159
 4691SOL    HW114972   3.144   4.353   0.201
 4691SOL    HW214973   3.301   4.332   0.159
 4692SOL     OW14974   1.278   5.019   3.855
 4692SOL    HW114975   1.279   4.919   3.854
 4692SOL    HW214976   1.187   5.051   3.880
 4693SOL     OW14977   0.733   1.818   2.351
 4693SOL    HW114978   0.753   1.728   2.390
 4693SOL    HW214979   0.817   1.870   2.343
 4694SOL     OW14980   1.309   1.088   5.000
 4694SOL    HW114981   1.409   1.095   4.995
 4694SOL    HW214982   1.272   1.169   5.044
 4695SOL     OW14983   3.519   3.852   3.232
 4695SOL    HW114984   3.483   3.945   3.240
 4695SOL    HW214985   3.476   3.807   3.154
 4696SOL     OW14986   6.760   3.154   0.755
 4696SOL    HW114987   6.751   3.106   0.842
 4696SOL    HW214988   6.801   3.244   0.770
 4697SOL     OW14989   0.901   5.857   6.562
 4697SOL    HW114990   0.845   5.873   6.481
 4697SOL    HW214991   0.947   5.942   6.589
 4698SOL     OW14992   6.056   2.973   2.019
 4698SOL    HW114993   6.144   3.012   1.992
 4698SOL    HW214994   6.067   2.916   2.101
 4699SOL     OW14995   6.894   0.027   3.423
 4699SOL    HW114996   6.872   0.039   3.520
 4699SOL    HW214997   6.860   6.959   3.393
 4700SOL     OW14998   4.918   0.040   6.160
 4700SOL    HW114999   4.911   7.013   6.247
 4700SOL    HW215000   4.826   0.062   6.127
 4701SOL     OW15001   2.123   0.417   6.610
 4701SOL    HW115002   2.118   0.513   6.636
 4701SOL    HW215003   2.030   0.381   6.599
 4702SOL     OW15004   3.394   2.998   0.978
 4702SOL    HW115005   3.341   2.969   0.899
 4702SOL    HW215006   3.461   2.927   1.002
 4703SOL     OW15007   0.730   6.724   2.639
 4703SOL    HW115008   0.697   6.644   2.587
 4703SOL    HW215009   0.749   6.799   2.575
 4704SOL     OW15010   4.782   6.701   6.432
 4704SOL    HW115011   4.730   6.648   6.499
 4704SOL    HW215012   4.753   6.797   6.436
 4705SOL     OW15013   3.864   3.012   4.798
 4705SOL    HW115014   3.850   3.016   4.897
 4705SOL    HW215015   3.962   3.005   4.779
 4706SOL     OW15016   5.653   3.879   0.036
 4706SOL    HW115017   5.739   3.888   7.007
 4706SOL    HW215018   5.581   3.932   7.011
 4707SOL     OW15019   2.731   5.071   0.401
 4707SOL    HW115020   2.747   5.164   0.366
 4707SOL    HW215021   2.634   5.048   0.391
 4708SOL     OW15022   1.492   3.119   2.628
 4708SOL    HW115023   1.410   3.086   2.581
 4708SOL    HW215024   1.565   3.135   2.562
 4709SOL     OW15025   2.759   3.953   0.734
 4709SOL    HW115026   2.731   3.863   0.769
 4709SOL    HW215027   2.803   3.941   0.645
 4710SOL     OW15028   4.761   3.255   1.365
 4710SOL    HW115029   4.843   3.206   1.395
 4710SOL    HW215030   4.727   3.215   1.280
 4711SOL     OW15031   2.746   0.119   3.708
 4711SOL    HW115032   2.717   0.072   3.791
 4711SOL    HW215033   2.831   0.077   3.674
 4712SOL     OW15034   1.653   3.652   6.890
 4712SOL    HW115035   1.683   3.573   6.836
 4712SOL    HW215036   1.734   3.703   6.922
 4713SOL     OW15037   0.796   5.338   0.861
 4713SOL    HW115038   0.732   5.412   0.882
 4713SOL    HW215039   0.793   5.270   0.934
 4714SOL     OW15040   4.345   2.744   1.381
 4714SOL    HW115041   4.339   2.669   1.316
 4714SOL    HW215042   4.411   2.721   1.452
 4715SOL     OW15043   4.919   3.793   4.778
 4715SOL    HW115044   4.867   3.877   4.790
 4715SOL    HW215045   4.880   3.720   4.835
 4716SOL     OW15046   2.410   5.479   6.517
 4716SOL    HW115047   2.428   5.552   6.451
 4716SOL    HW215048   2.319   5.490   6.555
 4717SOL     OW15049   2.145   5.469   4.728
 4717SOL    HW115050   2.204   5.389   4.717
 4717SOL    HW215051   2.118   5.476   4.824
 4718SOL     OW15052   4.984   6.848   0.072
 4718SOL    HW115053   5.070   6.882   0.111
 4718SOL    HW215054   4.987   6.748   0.069
 4719SOL     OW15055   4.462   3.428   1.710
 4719SOL    HW115056   4.379   3.451   1.761
 4719SOL    HW215057   4.505   3.512   1.678
 4720SOL     OW15058   2.684   1.514   2.852
 4720SOL    HW115059   2.758   1.581   2.863
 4720SOL    HW215060   2.654   1.483   2.942
 4721SOL     OW15061   1.719   1.201   1.584
 4721SOL    HW115062   1.764   1.286   1.613
 4721SOL    HW215063   1.754   1.125   1.638
 4722SOL     OW15064   2.809   0.476   2.629
 4722SOL    HW115065   2.716   0.507   2.649
 4722SOL    HW215066   2.855   0.543   2.569
 4723SOL     OW15067   3.189   0.236   5.422
 4723SOL    HW115068   3.164   0.302   5.492
 4723SOL    HW215069   3.107   0.196   5.382
 4724SOL     OW15070   4.682   5.248   0.893
 4724SOL    HW115071   4.626   5.331   0.900
 4724SOL    HW215072   4.664   5.189   0.971
 4725SOL     OW15073   5.946   5.352   2.957
 4725SOL    HW115074   5.887   5.282   2.917
 4725SOL    HW215075   6.029   5.361   2.902
 4726SOL     OW15076   0.211   6.335   4.644
 4726SOL    HW115077   0.154   6.255   4.663
 4726SOL    HW215078   0.153   6.416   4.636
 4727SOL     OW15079   5.394   6.781   2.068
 4727SOL    HW115080   5.392   6.698   2.123
 4727SOL    HW215081   5.308   6.789   2.017
 4728SOL     OW15082   6.814   0.125   6.827
 4728SOL    HW115083   6.842   0.137   6.732
 4728SOL    HW215084   6.716   0.144   6.835
 4729SOL     OW15085   3.439   0.782   1.104
 4729SOL    HW115086   3.473   0.733   1.184
 4729SOL    HW215087   3.442   0.721   1.024
 4730SOL     OW15088   1.955   0.436   6.094
 4730SOL    HW115089   2.044   0.416   6.052
 4730SOL    HW215090   1.916   0.518   6.053
 4731SOL     OW15091   4.659   1.181   5.948
 4731SOL    HW115092   4.724   1.225   5.887
 4731SOL    HW215093   4.591   1.130   5.894
 4732SOL     OW15094   0.700   6.974   0.361
 4732SOL    HW115095   0.747   0.023   0.307
 4732SOL    HW215096   0.688   6.892   0.306
 4733SOL     OW15097   6.277   3.645   3.672
 4733SOL    HW115098   6.320   3.577   3.731
 4733SOL    HW215099   6.347   3.702   3.629
 4734SOL     OW15100   6.384   3.914   5.647
 4734SOL    HW115101   6.323   3.919   5.568
 4734SOL    HW215102   6.372   3.995   5.704
 4735SOL     OW15103   0.651   4.164   3.363
 4735SOL    HW115104   0.636   4.065   3.360
 4735SOL    HW215105   0.688   4.190   3.452
 4736SOL     OW15106   2.036   6.897   2.554
 4736SOL    HW115107   2.125   6.853   2.542
 4736SOL    HW215108   1.980   6.883   2.472
 4737SOL     OW15109   3.418   4.914   1.978
 4737SOL    HW115110   3.490   4.850   1.948
 4737SOL    HW215111   3.336   4.863   2.000
 4738SOL     OW15112   1.221   6.997   2.566
 4738SOL    HW115113   1.294   0.043   2.554
 4738SOL    HW215114   1.164   6.995   2.484
 4739SOL     OW15115   3.785   0.059   1.306
 4739SOL    HW115116   3.724   0.083   1.382
 4739SOL    HW215117   3.815   6.986   1.316
 4740SOL     OW15118   0.930   1.779   3.975
 4740SOL    HW115119   1.024   1.769   3.945
 4740SOL    HW215120   0.913   1.874   4.000
 4741SOL     OW15121   4.052   3.465   2.793
 4741SOL    HW115122   4.041   3.528   2.870
 4741SOL    HW215123   3.969   3.410   2.784
 4742SOL     OW15124   5.100   1.185   2.003
 4742SOL    HW115125   5.024   1.251   1.995
 4742SOL    HW215126   5.179   1.219   1.952
 4743SOL     OW15127   1.037   5.085   1.177
 4743SOL    HW115128   1.092   5.083   1.261
 4743SOL    HW215129   1.097   5.103   1.098
 4744SOL     OW15130   1.596   5.856   1.378
 4744SOL    HW115131   1.663   5.888   1.445
 4744SOL    HW215132   1.516   5.917   1.381
 4745SOL     OW15133   1.813   3.239   0.263
 4745SOL    HW115134   1.841   3.327   0.301
 4745SOL    HW215135   1.881   3.209   0.196
 4746SOL     OW15136   5.243   5.267   4.402
 4746SOL    HW115137   5.231   5.291   4.499
 4746SOL    HW215138   5.154   5.257   4.358
 4747SOL     OW15139   4.289   0.734   0.637
 4747SOL    HW115140   4.308   0.639   0.661
 4747SOL    HW215141   4.204   0.764   0.682
 4748SOL     OW15142   2.024   6.936   3.250
 4748SOL    HW115143   1.971   6.854   3.230
 4748SOL    HW215144   2.092   6.914   3.320
 4749SOL     OW15145   2.185   1.189   1.051
 4749SOL    HW115146   2.218   1.143   0.969
 4749SOL    HW215147   2.206   1.133   1.131
 4750SOL     OW15148   4.973   3.279   6.542
 4750SOL    HW115149   5.029   3.358   6.515
 4750SOL    HW215150   4.913   3.253   6.466
 4751SOL     OW15151   4.587   1.722   2.541
 4751SOL    HW115152   4.495   1.706   2.506
 4751SOL    HW215153   4.624   1.636   2.577
 4752SOL     OW15154   5.864   0.916   6.834
 4752SOL    HW115155   5.956   0.884   6.857
 4752SOL    HW215156   5.798   0.843   6.852
 4753SOL     OW15157   2.707   6.054   5.082
 4753SOL    HW115158   2.767   5.983   5.044
 4753SOL    HW215159   2.643   6.084   5.011
 4754SOL     OW15160   5.216   4.595   6.842
 4754SOL    HW115161   5.211   4.587   6.743
 4754SOL    HW215162   5.283   4.665   6.866
 4755SOL     OW15163   0.269   1.069   1.442
 4755SOL    HW115164   0.258   1.044   1.538
 4755SOL    HW215165   0.309   1.160   1.436
 4756SOL     OW15166   0.113   3.557   5.388
 4756SOL    HW115167   0.196   3.610   5.403
 4756SOL    HW215168   0.134   3.477   5.332
 4757SOL     OW15169   2.133   2.917   0.551
 4757SOL    HW115170   2.152   2.868   0.636
 4757SOL    HW215171   2.083   3.002   0.572
 4758SOL     OW15172   2.118   4.902   2.390
 4758SOL    HW115173   2.179   4.956   2.448
 4758SOL    HW215174   2.172   4.853   2.321
 4759SOL     OW15175   0.528   6.703   2.805
 4759SOL    HW115176   0.598   6.740   2.744
 4759SOL    HW215177   0.566   6.691   2.897
 4760SOL     OW15178   1.160   6.812   2.016
 4760SOL    HW115179   1.223   6.775   2.084
 4760SOL    HW215180   1.207   6.826   1.929
 4761SOL     OW15181   4.590   6.337   1.787
 4761SOL    HW115182   4.564   6.395   1.863
 4761SOL    HW215183   4.686   6.352   1.763
 4762SOL     OW15184   1.006   1.441   2.569
 4762SOL    HW115185   1.033   1.346   2.587
 4762SOL    HW215186   1.014   1.495   2.653
 4763SOL     OW15187   5.487   5.364   1.635
 4763SOL    HW115188   5.502   5.328   1.727
 4763SOL    HW215189   5.485   5.289   1.569
 4764SOL     OW15190   4.705   2.778   6.556
 4764SOL    HW115191   4.783   2.809   6.609
 4764SOL    HW215192   4.646   2.720   6.614
 4765SOL     OW15193   3.768   1.229   6.047
 4765SOL    HW115194   3.793   1.224   6.143
 4765SOL    HW215195   3.688   1.172   6.029
 4766SOL     OW15196   0.985   1.194   4.371
 4766SOL    HW115197   1.036   1.165   4.453
 4766SOL    HW215198   1.023   1.280   4.338
 4767SOL     OW15199   2.418   4.778   3.566
 4767SOL    HW115200   2.510   4.815   3.553
 4767SOL    HW215201   2.416   4.682   3.539
 4768SOL     OW15202   4.553   1.570   6.428
 4768SOL    HW115203   4.532   1.506   6.502
 4768SOL    HW215204   4.606   1.523   6.358
 4769SOL     OW15205   2.524   3.199   0.392
 4769SOL    HW115206   2.427   3.221   0.391
 4769SOL    HW215207   2.558   3.195   0.298
 4770SOL     OW15208   6.654   1.463   3.672
 4770SOL    HW115209   6.574   1.463   3.732
 4770SOL    HW215210   6.737   1.456   3.726
 4771SOL     OW15211   3.048   0.867   4.271
 4771SOL    HW115212   3.031   0.824   4.182
 4771SOL    HW215213   3.144   0.892   4.278
 4772SOL     OW15214   2.721   4.677   3.012
 4772SOL    HW115215   2.743   4.654   2.917
 4772SOL    HW215216   2.652   4.750   3.013
 4773SOL     OW15217   3.081   5.336   4.259
 4773SOL    HW115218   3.170   5.326   4.303
 4773SOL    HW215219   3.011   5.354   4.328
 4774SOL     OW15220   1.181   4.683   0.631
 4774SOL    HW115221   1.218   4.712   0.543
 4774SOL    HW215222   1.160   4.765   0.686
 4775SOL     OW15223   5.823   4.956   4.404
 4775SOL    HW115224   5.796   4.861   4.386
 4775SOL    HW215225   5.922   4.961   4.416
 4776SOL     OW15226   6.723   1.897   5.118
 4776SOL    HW115227   6.702   1.985   5.076
 4776SOL    HW215228   6.643   1.837   5.111
 4777SOL     OW15229   1.222   6.667   3.636
 4777SOL    HW115230   1.291   6.730   3.599
 4777SOL    HW215231   1.137   6.677   3.584
 4778SOL     OW15232   1.678   0.243   0.566
 4778SOL    HW115233   1.582   0.224   0.588
 4778SOL    HW215234   1.687   0.265   0.469
 4779SOL     OW15235   4.830   1.387   4.607
 4779SOL    HW115236   4.790   1.478   4.599
 4779SOL    HW215237   4.848   1.367   4.704
 4780SOL     OW15238   4.843   2.707   4.741
 4780SOL    HW115239   4.895   2.792   4.756
 4780SOL    HW215240   4.775   2.696   4.814
 4781SOL     OW15241   1.953   5.042   2.211
 4781SOL    HW115242   1.987   5.135   2.207
 4781SOL    HW215243   2.012   4.987   2.271
 4782SOL     OW15244   0.953   5.920   3.188
 4782SOL    HW115245   0.948   6.009   3.142
 4782SOL    HW215246   1.046   5.885   3.182
 4783SOL     OW15247   0.957   3.684   6.727
 4783SOL    HW115248   1.049   3.723   6.740
 4783SOL    HW215249   0.901   3.702   6.808
 4784SOL     OW15250   5.804   2.945   0.202
 4784SOL    HW115251   5.858   2.932   0.285
 4784SOL    HW215252   5.760   3.035   0.204
 4785SOL     OW15253   6.920   0.904   3.966
 4785SOL    HW115254   6.927   0.905   3.866
 4785SOL    HW215255   6.920   0.809   3.998
 4786SOL     OW15256   1.597   5.628   0.352
 4786SOL    HW115257   1.600   5.577   0.266
 4786SOL    HW215258   1.611   5.725   0.334
 4787SOL     OW15259   5.218   1.027   5.008
 4787SOL    HW115260   5.266   0.945   5.038
 4787SOL    HW215261   5.162   1.006   4.927
 4788SOL     OW15262   6.639   5.946   1.216
 4788SOL    HW115263   6.574   6.019   1.237
 4788SOL    HW215264   6.657   5.944   1.118
 4789SOL     OW15265   6.184   1.291   2.633
 4789SOL    HW115266   6.092   1.253   2.626
 4789SOL    HW215267   6.240   1.258   2.558
 4790SOL     OW15268   6.841   2.412   5.633
 4790SOL    HW115269   6.819   2.454   5.545
 4790SOL    HW215270   6.908   2.339   5.619
 4791SOL     OW15271   0.343   0.663   6.927
 4791SOL    HW115272   0.341   0.668   6.827
 4791SOL    HW215273   0.281   0.590   6.957
 4792SOL     OW15274   0.254   3.670   1.447
 4792SOL    HW115275   0.235   3.678   1.349
 4792SOL    HW215276   0.170   3.688   1.498
 4793SOL     OW15277   0.897   2.966   5.203
 4793SOL    HW115278   0.916   2.954   5.105
 4793SOL    HW215279   0.979   3.003   5.249
 4794SOL     OW15280   5.369   1.275   6.743
 4794SOL    HW115281   5.399   1.192   6.694
 4794SOL    HW215282   5.285   1.255   6.793
 4795SOL     OW15283   0.037   0.715   6.639
 4795SOL    HW115284   0.115   0.776   6.652
 4795SOL    HW215285   0.069   0.621   6.627
 4796SOL     OW15286   5.710   1.028   5.459
 4796SOL    HW115287   5.776   1.049   5.530
 4796SOL    HW215288   5.757   0.984   5.382
 4797SOL     OW15289   2.838   4.876   5.402
 4797SOL    HW115290   2.916   4.856   5.342
 4797SOL    HW215291   2.831   4.975   5.414
 4798SOL     OW15292   3.011   6.120   0.064
 4798SOL    HW115293   3.034   6.030   0.101
 4798SOL    HW215294   3.019   6.119   6.986
 4799SOL     OW15295   4.155   3.657   1.045
 4799SOL    HW115296   4.150   3.643   0.946
 4799SOL    HW215297   4.200   3.578   1.088
 4800SOL     OW15298   0.822   4.911   0.611
 4800SOL    HW115299   0.763   4.942   0.536
 4800SOL    HW215300   0.864   4.990   0.655
 4801SOL     OW15301   4.748   2.803   3.511
 4801SOL    HW115302   4.707   2.806   3.420
 4801SOL    HW215303   4.815   2.729   3.514
 4802SOL     OW15304   0.042   1.040   5.467
 4802SOL    HW115305   6.986   1.065   5.526
 4802SOL    HW215306   0.068   1.119   5.412
 4803SOL     OW15307   5.300   2.998   5.401
 4803SOL    HW115308   5.324   2.922   5.340
 4803SOL    HW215309   5.358   2.995   5.483
 4804SOL     OW15310   5.410   3.047   0.764
 4804SOL    HW115311   5.373   3.127   0.810
 4804SOL    HW215312   5.471   3.076   0.690
 4805SOL     OW15313   5.476   0.876   6.692
 4805SOL    HW115314   5.467   0.906   6.786
 4805SOL    HW215315   5.395   0.823   6.666
 4806SOL     OW15316   1.332   2.790   3.557
 4806SOL    HW115317   1.414   2.832   3.596
 4806SOL    HW215318   1.255   2.807   3.618
 4807SOL     OW15319   0.998   3.705   0.144
 4807SOL    HW115320   0.978   3.803   0.150
 4807SOL    HW215321   1.086   3.691   0.100
 4808SOL     OW15322   3.363   6.415   2.475
 4808SOL    HW115323   3.273   6.451   2.450
 4808SOL    HW215324   3.428   6.490   2.485
 4809SOL     OW15325   2.690   3.891   0.269
 4809SOL    HW115326   2.727   3.827   0.202
 4809SOL    HW215327   2.613   3.941   0.229
 4810SOL     OW15328   1.710   4.902   4.549
 4810SOL    HW115329   1.780   4.937   4.610
 4810SOL    HW215330   1.744   4.821   4.501
 4811SOL     OW15331   3.041   3.413   4.605
 4811SOL    HW115332   2.975   3.387   4.675
 4811SOL    HW215333   3.076   3.504   4.624
 4812SOL     OW15334   2.605   6.629   1.425
 4812SOL    HW115335   2.512   6.640   1.459
 4812SOL    HW215336   2.602   6.585   1.335
 4813SOL     OW15337   1.181   2.390   4.578
 4813SOL    HW115338   1.173   2.484   4.612
 4813SOL    HW215339   1.090   2.353   4.563
 4814SOL     OW15340   5.333   1.028   1.056
 4814SOL    HW115341   5.260   1.062   0.997
 4814SOL    HW215342   5.312   0.935   1.085
 4815SOL     OW15343   6.487   4.469   2.970
 4815SOL    HW115344   6.542   4.481   2.888
 4815SOL    HW215345   6.445   4.378   2.970
 4816SOL     OW15346   2.284   0.317   2.667
 4816SOL    HW115347   2.213   0.249   2.679
 4816SOL    HW215348   2.362   0.294   2.725
 4817SOL     OW15349   3.364   2.653   0.207
 4817SOL    HW115350   3.308   2.603   0.273
 4817SOL    HW215351   3.433   2.707   0.256
 4818SOL     OW15352   4.783   6.635   5.045
 4818SOL    HW115353   4.684   6.647   5.035
 4818SOL    HW215354   4.812   6.673   5.132
 4819SOL     OW15355   3.643   0.942   0.124
 4819SOL    HW115356   3.661   0.918   0.220
 4819SOL    HW215357   3.624   1.040   0.118
 4820SOL     OW15358   0.226   4.646   1.810
 4820SOL    HW115359   0.206   4.560   1.856
 4820SOL    HW215360   0.240   4.719   1.878
 4821SOL     OW15361   6.985   6.308   1.219
 4821SOL    HW115362   6.925   6.262   1.284
 4821SOL    HW215363   0.059   6.298   1.248
 4822SOL     OW15364   0.221   4.017   1.504
 4822SOL    HW115365   0.128   4.024   1.543
 4822SOL    HW215366   0.269   3.940   1.547
 4823SOL     OW15367   0.047   2.018   2.868
 4823SOL    HW115368   0.001   2.069   2.795
 4823SOL    HW215369   0.125   2.071   2.902
 4824SOL     OW15370   5.169   2.375   2.351
 4824SOL    HW115371   5.215   2.463   2.359
 4824SOL    HW215372   5.232   2.307   2.314
 4825SOL     OW15373   1.372   3.192   4.369
 4825SOL    HW115374   1.453   3.248   4.388
 4825SOL    HW215375   1.330   3.222   4.283
 4826SOL     OW15376   0.472   6.422   0.398
 4826SOL    HW115377   0.560   6.374   0.403
 4826SOL    HW215378   0.488   6.521   0.406
 4827SOL     OW15379   5.109   1.323   0.252
 4827SOL    HW115380   5.013   1.318   0.228
 4827SOL    HW215381   5.120   1.369   0.340
 4828SOL     OW15382   5.871   3.347   6.715
 4828SOL    HW115383   5.774   3.365   6.728
 4828SOL    HW215384   5.883   3.255   6.678
 4829SOL     OW15385   2.464   6.948   5.591
 4829SOL    HW115386   2.391   6.898   5.638
 4829SOL    HW215387   2.439   0.024   5.585
 4830SOL     OW15388   5.001   4.576   4.813
 4830SOL    HW115389   5.019   4.671   4.840
 4830SOL    HW215390   4.919   4.572   4.756
 4831SOL     OW15391   6.399   2.357   6.310
 4831SOL    HW115392   6.444   2.378   6.397
 4831SOL    HW215393   6.301   2.346   6.325
 4832SOL     OW15394   1.455   2.740   6.574
 4832SOL    HW115395   1.472   2.661   6.516
 4832SOL    HW215396   1.356   2.755   6.583
 4833SOL     OW15397   6.317   2.645   2.959
 4833SOL    HW115398   6.412   2.657   2.931
 4833SOL    HW215399   6.275   2.572   2.905
 4834SOL     OW15400   5.449   0.794   3.105
 4834SOL    HW115401   5.367   0.750   3.143
 4834SOL    HW215402   5.527   0.732   3.113
 4835SOL     OW15403   2.220   1.639   6.322
 4835SOL    HW115404   2.168   1.722   6.341
 4835SOL    HW215405   2.313   1.663   6.294
 4836SOL     OW15406   5.876   4.067   2.990
 4836SOL    HW115407   5.942   4.068   3.064
 4836SOL    HW215408   5.839   3.975   2.979
 4837SOL     OW15409   0.291   4.816   2.086
 4837SOL    HW115410   0.268   4.870   2.005
 4837SOL    HW215411   0.210   4.764   2.115
 4838SOL     OW15412   2.568   5.727   2.522
 4838SOL    HW115413   2.662   5.701   2.505
 4838SOL    HW215414   2.506   5.661   2.478
 4839SOL     OW15415   0.972   0.205   6.489
 4839SOL    HW115416   0.903   0.275   6.507
 4839SOL    HW215417   1.063   0.245   6.502
 4840SOL     OW15418   6.658   5.852   6.315
 4840SOL    HW115419   6.607   5.933   6.345
 4840SOL    HW215420   6.745   5.848   6.365
 4841SOL     OW15421   1.736   5.999   1.551
 4841SOL    HW115422   1.701   6.059   1.479
 4841SOL    HW215423   1.819   6.039   1.590
 4842SOL     OW15424   3.466   6.437   0.475
 4842SOL    HW115425   3.404   6.514   0.485
 4842SOL    HW215426   3.555   6.469   0.443
 4843SOL     OW15427   1.641   3.933   0.359
 4843SOL    HW115428   1.655   4.030   0.340
 4843SOL    HW215429   1.546   3.908   0.339
 4844SOL     OW15430   0.561   1.581   5.251
 4844SOL    HW115431   0.623   1.613   5.179
 4844SOL    HW215432   0.525   1.659   5.301
 4845SOL     OW15433   5.043   6.519   3.435
 4845SOL    HW115434   5.072   6.529   3.530
 4845SOL    HW215435   4.951   6.557   3.425
 4846SOL     OW15436   6.743   4.769   6.377
 4846SOL    HW115437   6.804   4.700   6.416
 4846SOL    HW215438   6.765   4.783   6.281
 4847SOL     OW15439   4.679   2.706   4.514
 4847SOL    HW115440   4.743   2.691   4.590
 4847SOL    HW215441   4.713   2.659   4.433
 4848SOL     OW15442   2.829   2.922   1.427
 4848SOL    HW115443   2.863   2.969   1.509
 4848SOL    HW215444   2.847   2.978   1.347
 4849SOL     OW15445   2.182   6.034   6.520
 4849SOL    HW115446   2.100   6.014   6.574
 4849SOL    HW215447   2.239   6.099   6.570
 4850SOL     OW15448   3.279   6.947   2.564
 4850SOL    HW115449   3.375   6.931   2.541
 4850SOL    HW215450   3.223   6.874   2.525
 4851SOL     OW15451   4.990   1.030   5.571
 4851SOL    HW115452   5.083   1.063   5.585
 4851SOL    HW215453   4.955   0.992   5.657
 4852SOL     OW15454   1.702   1.842   1.527
 4852SOL    HW115455   1.625   1.826   1.465
 4852SOL    HW215456   1.715   1.940   1.539
 4853SOL     OW15457   3.935   1.580   1.451
 4853SOL    HW115458   3.844   1.607   1.420
 4853SOL    HW215459   3.955   1.624   1.538
 4854SOL     OW15460   3.756   0.011   5.851
 4854SOL    HW115461   3.740   0.103   5.816
 4854SOL    HW215462   3.806   6.979   5.783
 4855SOL     OW15463   0.397   2.800   2.524
 4855SOL    HW115464   0.342   2.878   2.553
 4855SOL    HW215465   0.476   2.790   2.585
 4856SOL     OW15466   0.281   4.411   2.356
 4856SOL    HW115467   0.189   4.373   2.347
 4856SOL    HW215468   0.275   4.511   2.359
 4857SOL     OW15469   0.261   0.882   5.396
 4857SOL    HW115470   0.330   0.916   5.332
 4857SOL    HW215471   0.201   0.957   5.423
 4858SOL     OW15472   1.576   0.758   4.035
 4858SOL    HW115473   1.613   0.667   4.016
 4858SOL    HW215474   1.477   0.752   4.044
 4859SOL     OW15475   3.727   6.100   5.976
 4859SOL    HW115476   3.807   6.052   5.940
 4859SOL    HW215477   3.647   6.040   5.970
 4860SOL     OW15478   3.174   5.108   0.120
 4860SOL    HW115479   3.137   5.188   0.073
 4860SOL    HW215480   3.107   5.034   0.118
 4861SOL     OW15481   4.084   4.150   6.515
 4861SOL    HW115482   4.080   4.197   6.426
 4861SOL    HW215483   4.008   4.179   6.572
 4862SOL     OW15484   2.046   0.156   0.533
 4862SOL    HW115485   2.025   0.241   0.485
 4862SOL    HW215486   2.133   0.119   0.501
 4863SOL     OW15487   5.287   3.911   5.860
 4863SOL    HW115488   5.203   3.965   5.857
 4863SOL    HW215489   5.360   3.960   5.813
 4864SOL     OW15490   3.366   1.290   4.316
 4864SOL    HW115491   3.358   1.387   4.338
 4864SOL    HW215492   3.366   1.278   4.216
 4865SOL     OW15493   1.569   6.196   5.640
 4865SOL    HW115494   1.532   6.278   5.683
 4865SOL    HW215495   1.661   6.179   5.675
 4866SOL     OW15496   0.157   4.568   5.870
 4866SOL    HW115497   0.088   4.546   5.802
 4866SOL    HW215498   0.135   4.523   5.956
 4867SOL     OW15499   3.716   1.126   3.211
 4867SOL    HW115500   3.686   1.035   3.180
 4867SOL    HW215501   3.812   1.121   3.240
 4868SOL     OW15502   0.239   5.179   0.756
 4868SOL    HW115503   0.249   5.174   0.855
 4868SOL    HW215504   0.328   5.163   0.712
 4869SOL     OW15505   0.365   1.470   0.825
 4869SOL    HW115506   0.298   1.535   0.863
 4869SOL    HW215507   0.456   1.510   0.829
 4870SOL     OW15508   6.803   6.866   1.215
 4870SOL    HW115509   6.777   6.910   1.129
 4870SOL    HW215510   6.863   6.926   1.267
 4871SOL     OW15511   0.619   1.862   3.395
 4871SOL    HW115512   0.584   1.792   3.457
 4871SOL    HW215513   0.714   1.883   3.419
 4872SOL     OW15514   5.403   0.217   3.192
 4872SOL    HW115515   5.447   0.243   3.106
 4872SOL    HW215516   5.472   0.212   3.264
 4873SOL     OW15517   6.826   5.809   3.357
 4873SOL    HW115518   6.727   5.821   3.365
 4873SOL    HW215519   6.845   5.740   3.287
 4874SOL     OW15520   5.627   4.456   2.122
 4874SOL    HW115521   5.543   4.509   2.107
 4874SOL    HW215522   5.695   4.515   2.165
 4875SOL     OW15523   5.708   0.104   4.650
 4875SOL    HW115524   5.720   0.059   4.562
 4875SOL    HW215525   5.720   0.038   4.724
 4876SOL     OW15526   6.708   1.562   2.473
 4876SOL    HW115527   6.726   1.531   2.380
 4876SOL    HW215528   6.779   1.527   2.535
 4877SOL     OW15529   0.269   1.360   6.708
 4877SOL    HW115530   0.287   1.445   6.658
 4877SOL    HW215531   0.175   1.359   6.740
 4878SOL     OW15532   6.279   4.427   3.673
 4878SOL    HW115533   6.321   4.338   3.689
 4878SOL    HW215534   6.342   4.499   3.702
 4879SOL     OW15535   5.257   0.448   3.243
 4879SOL    HW115536   5.305   0.365   3.271
 4879SOL    HW215537   5.289   0.525   3.299
 4880SOL     OW15538   0.093   2.997   6.597
 4880SOL    HW115539   0.018   2.938   6.567
 4880SOL    HW215540   0.066   3.045   6.681
 4881SOL     OW15541   0.034   3.523   1.911
 4881SOL    HW115542   0.065   3.453   1.975
 4881SOL    HW215543   6.978   3.489   1.858
 4882SOL     OW15544   5.377   2.202   4.464
 4882SOL    HW115545   5.341   2.243   4.380
 4882SOL    HW215546   5.401   2.107   4.448
 4883SOL     OW15547   6.816   4.271   6.790
 4883SOL    HW115548   6.835   4.358   6.836
 4883SOL    HW215549   6.877   4.201   6.827
 4884SOL     OW15550   2.101   1.972   2.188
 4884SOL    HW115551   2.099   1.873   2.172
 4884SOL    HW215552   2.081   2.020   2.103
 4885SOL     OW15553   1.099   5.075   6.686
 4885SOL    HW115554   1.109   5.040   6.779
 4885SOL    HW215555   1.189   5.095   6.648
 4886SOL     OW15556   2.777   0.765   2.258
 4886SOL    HW115557   2.848   0.711   2.304
 4886SOL    HW215558   2.703   0.784   2.322
 4887SOL     OW15559   4.655   5.379   0.492
 4887SOL    HW115560   4.661   5.463   0.546
 4887SOL    HW215561   4.691   5.396   0.400
 4888SOL     OW15562   4.687   0.728   2.827
 4888SOL    HW115563   4.590   0.739   2.849
 4888SOL    HW215564   4.722   0.645   2.871
 4889SOL     OW15565   5.592   3.561   3.809
 4889SOL    HW115566   5.544   3.649   3.805
 4889SOL    HW215567   5.571   3.508   3.727
 4890SOL     OW15568   6.355   2.148   4.739
 4890SOL    HW115569   6.301   2.231   4.729
 4890SOL    HW215570   6.341   2.109   4.830
 4891SOL     OW15571   2.368   6.228   0.188
 4891SOL    HW115572   2.433   6.290   0.232
 4891SOL    HW215573   2.287   6.218   0.247
 4892SOL     OW15574   5.306   5.213   2.115
 4892SOL    HW115575   5.279   5.179   2.025
 4892SOL    HW215576   5.361   5.145   2.162
 4893SOL     OW15577   1.824   2.588   1.740
 4893SOL    HW115578   1.904   2.528   1.737
 4893SOL    HW215579   1.740   2.532   1.739
 4894SOL     OW15580   4.883   6.277   0.568
 4894SOL    HW115581   4.829   6.259   0.485
 4894SOL    HW215582   4.824   6.266   0.648
 4895SOL     OW15583   6.218   3.663   4.976
 4895SOL    HW115584   6.223   3.715   4.891
 4895SOL    HW215585   6.278   3.583   4.970
 4896SOL     OW15586   2.596   5.309   4.736
 4896SOL    HW115587   2.533   5.235   4.760
 4896SOL    HW215588   2.667   5.274   4.676
 4897SOL     OW15589   1.913   1.837   5.328
 4897SOL    HW115590   1.956   1.880   5.407
 4897SOL    HW215591   1.984   1.809   5.263
 4898SOL     OW15592   4.201   2.054   3.644
 4898SOL    HW115593   4.179   2.127   3.707
 4898SOL    HW215594   4.207   1.967   3.693
 4899SOL     OW15595   6.461   6.527   1.520
 4899SOL    HW115596   6.533   6.584   1.481
 4899SOL    HW215597   6.438   6.560   1.611
 4900SOL     OW15598   3.523   5.905   6.115
 4900SOL    HW115599   3.447   5.854   6.076
 4900SOL    HW215600   3.597   5.841   6.138
 4901SOL     OW15601   1.929   0.643   0.277
 4901SOL    HW115602   1.911   0.702   0.199
 4901SOL    HW215603   2.004   0.682   0.332
 4902SOL     OW15604   2.063   0.250   5.528
 4902SOL    HW115605   1.991   0.240   5.596
 4902SOL    HW215606   2.123   0.170   5.530
 4903SOL     OW15607   4.882   4.060   2.379
 4903SOL    HW115608   4.795   4.109   2.370
 4903SOL    HW215609   4.926   4.055   2.289
 4904SOL     OW15610   1.851   0.801   2.229
 4904SOL    HW115611   1.775   0.789   2.166
 4904SOL    HW215612   1.871   0.898   2.240
 4905SOL     OW15613   2.614   1.123   2.176
 4905SOL    HW115614   2.617   1.087   2.269
 4905SOL    HW215615   2.674   1.203   2.170
 4906SOL     OW15616   5.216   3.151   4.460
 4906SOL    HW115617   5.206   3.251   4.468
 4906SOL    HW215618   5.298   3.131   4.407
 4907SOL     OW15619   3.499   2.489   0.531
 4907SOL    HW115620   3.542   2.519   0.616
 4907SOL    HW215621   3.567   2.492   0.457
 4908SOL     OW15622   2.696   6.470   6.170
 4908SOL    HW115623   2.678   6.467   6.269
 4908SOL    HW215624   2.787   6.434   6.152
 4909SOL     OW15625   4.907   5.614   4.576
 4909SOL    HW115626   4.862   5.601   4.664
 4909SOL    HW215627   5.005   5.598   4.586
 4910SOL     OW15628   4.486   1.690   6.820
 4910SOL    HW115629   4.416   1.761   6.815
 4910SOL    HW215630   4.569   1.729   6.861
 4911SOL     OW15631   6.693   4.616   3.349
 4911SOL    HW115632   6.659   4.522   3.346
 4911SOL    HW215633   6.757   4.631   3.273
 4912SOL     OW15634   5.599   2.748   4.373
 4912SOL    HW115635   5.621   2.840   4.342
 4912SOL    HW215636   5.540   2.703   4.306
 4913SOL     OW15637   1.099   3.749   5.489
 4913SOL    HW115638   1.010   3.794   5.480
 4913SOL    HW215639   1.099   3.690   5.569
 4914SOL     OW15640   3.347   6.895   3.965
 4914SOL    HW115641   3.263   6.879   4.017
 4914SOL    HW215642   3.403   6.813   3.965
 4915SOL     OW15643   4.156   5.927   5.546
 4915SOL    HW115644   4.153   5.849   5.608
 4915SOL    HW215645   4.065   5.942   5.506
 4916SOL     OW15646   5.594   2.442   3.465
 4916SOL    HW115647   5.512   2.407   3.419
 4916SOL    HW215648   5.601   2.540   3.451
 4917SOL     OW15649   4.614   6.498   6.555
 4917SOL    HW115650   4.579   6.451   6.636
 4917SOL    HW215651   4.689   6.445   6.516
 4918SOL     OW15652   5.282   6.155   3.922
 4918SOL    HW115653   5.359   6.207   3.887
 4918SOL    HW215654   5.315   6.074   3.971
 4919SOL     OW15655   3.899   3.963   2.201
 4919SOL    HW115656   3.966   4.025   2.160
 4919SOL    HW215657   3.818   4.015   2.228
 4920SOL     OW15658   6.486   0.968   5.915
 4920SOL    HW115659   6.468   0.883   5.865
 4920SOL    HW215660   6.529   1.034   5.854
 4921SOL     OW15661   6.601   0.184   2.239
 4921SOL    HW115662   6.605   0.190   2.139
 4921SOL    HW215663   6.670   0.120   2.272
 4922SOL     OW15664   3.810   0.830   6.187
 4922SOL    HW115665   3.783   0.737   6.214
 4922SOL    HW215666   3.859   0.873   6.262
 4923SOL     OW15667   4.022   1.331   1.718
 4923SOL    HW115668   4.121   1.333   1.708
 4923SOL    HW215669   3.987   1.425   1.716
 4924SOL     OW15670   3.087   1.469   4.867
 4924SOL    HW115671   3.064   1.519   4.952
 4924SOL    HW215672   3.146   1.392   4.889
 4925SOL     OW15673   4.854   0.152   4.449
 4925SOL    HW115674   4.909   0.196   4.520
 4925SOL    HW215675   4.793   0.085   4.490
 4926SOL     OW15676   4.674   2.365   1.812
 4926SOL    HW115677   4.707   2.317   1.731
 4926SOL    HW215678   4.656   2.298   1.885
 4927SOL     OW15679   2.309   0.914   0.132
 4927SOL    HW115680   2.331   0.989   0.070
 4927SOL    HW215681   2.246   0.851   0.087
 4928SOL     OW15682   0.357   1.575   1.427
 4928SOL    HW115683   0.393   1.668   1.438
 4928SOL    HW215684   0.419   1.522   1.369
 4929SOL     OW15685   6.438   0.001   4.715
 4929SOL    HW115686   6.494   6.954   4.667
 4929SOL    HW215687   6.386   0.055   4.649
 4930SOL     OW15688   4.227   6.076   3.153
 4930SOL    HW115689   4.204   6.111   3.244
 4930SOL    HW215690   4.326   6.081   3.140
 4931SOL     OW15691   5.562   0.114   1.445
 4931SOL    HW115692   5.629   0.141   1.514
 4931SOL    HW215693   5.474   0.098   1.490
 4932SOL     OW15694   3.765   4.070   2.998
 4932SOL    HW115695   3.717   4.116   3.072
 4932SOL    HW215696   3.699   4.032   2.934
 4933SOL     OW15697   1.766   6.681   5.104
 4933SOL    HW115698   1.842   6.655   5.164
 4933SOL    HW215699   1.775   6.634   5.016
 4934SOL     OW15700   2.352   0.164   3.204
 4934SOL    HW115701   2.309   0.081   3.170
 4934SOL    HW215702   2.337   0.239   3.140
 4935SOL     OW15703   5.912   0.077   5.001
 4935SOL    HW115704   5.983   0.060   4.933
 4935SOL    HW215705   5.952   0.124   5.080
 4936SOL     OW15706   4.353   3.224   0.257
 4936SOL    HW115707   4.253   3.215   0.253
 4936SOL    HW215708   4.380   3.304   0.203
 4937SOL     OW15709   3.750   2.753   5.371
 4937SOL    HW115710   3.717   2.825   5.432
 4937SOL    HW215711   3.724   2.774   5.277
 4938SOL     OW15712   3.104   4.541   0.305
 4938SOL    HW115713   3.164   4.608   0.262
 4938SOL    HW215714   3.009   4.566   0.288
 4939SOL     OW15715   4.656   3.477   6.367
 4939SOL    HW115716   4.687   3.386   6.340
 4939SOL    HW215717   4.572   3.500   6.317
 4940SOL     OW15718   1.357   5.835   3.991
 4940SOL    HW115719   1.401   5.800   3.908
 4940SOL    HW215720   1.273   5.884   3.966
 4941SOL     OW15721   5.918   1.133   1.197
 4941SOL    HW115722   5.984   1.157   1.268
 4941SOL    HW215723   5.961   1.075   1.128
 4942SOL     OW15724   5.368   2.258   5.440
 4942SOL    HW115725   5.289   2.199   5.425
 4942SOL    HW215726   5.446   2.224   5.388
 4943SOL     OW15727   5.949   3.063   1.272
 4943SOL    HW115728   5.872   3.075   1.209
 4943SOL    HW215729   5.984   2.970   1.264
 4944SOL     OW15730   1.840   3.276   1.915
 4944SOL    HW115731   1.811   3.337   1.842
 4944SOL    HW215732   1.939   3.283   1.927
 4945SOL     OW15733   6.812   6.118   4.298
 4945SOL    HW115734   6.854   6.096   4.210
 4945SOL    HW215735   6.720   6.080   4.301
 4946SOL     OW15736   0.350   4.308   1.774
 4946SOL    HW115737   0.418   4.323   1.846
 4946SOL    HW215738   0.393   4.260   1.697
 4947SOL     OW15739   6.135   0.596   0.693
 4947SOL    HW115740   6.153   0.568   0.599
 4947SOL    HW215741   6.119   0.695   0.695
 4948SOL     OW15742   2.367   1.366   1.998
 4948SOL    HW115743   2.322   1.424   1.929
 4948SOL    HW215744   2.298   1.311   2.045
 4949SOL     OW15745   5.993   2.078   5.548
 4949SOL    HW115746   6.065   2.018   5.515
 4949SOL    HW215747   5.922   2.088   5.478
 4950SOL     OW15748   3.446   5.413   4.154
 4950SOL    HW115749   3.435   5.373   4.245
 4950SOL    HW215750   3.519   5.482   4.157
 4951SOL     OW15751   4.444   2.426   3.432
 4951SOL    HW115752   4.381   2.348   3.431
 4951SOL    HW215753   4.439   2.473   3.520
 4952SOL     OW15754   6.612   4.666   4.442
 4952SOL    HW115755   6.690   4.727   4.458
 4952SOL    HW215756   6.597   4.609   4.522
 4953SOL     OW15757   1.187   4.617   2.114
 4953SOL    HW115758   1.218   4.698   2.064
 4953SOL    HW215759   1.172   4.542   2.050
 4954SOL     OW15760   6.622   6.160   6.206
 4954SOL    HW115761   6.565   6.225   6.155
 4954SOL    HW215762   6.714   6.158   6.165
 4955SOL     OW15763   1.654   0.214   1.752
 4955SOL    HW115764   1.726   0.282   1.741
 4955SOL    HW215765   1.635   0.171   1.663
 4956SOL     OW15766   6.050   6.458   3.501
 4956SOL    HW115767   6.142   6.485   3.475
 4956SOL    HW215768   5.984   6.503   3.442
 4957SOL     OW15769   1.029   5.551   4.235
 4957SOL    HW115770   1.081   5.580   4.154
 4957SOL    HW215771   0.963   5.622   4.259
 4958SOL     OW15772   6.804   6.738   0.108
 4958SOL    HW115773   6.858   6.787   0.040
 4958SOL    HW215774   6.803   6.789   0.194
 4959SOL     OW15775   0.708   2.097   0.270
 4959SOL    HW115776   0.716   2.156   0.350
 4959SOL    HW215777   0.738   2.005   0.293
 4960SOL     OW15778   3.276   0.008   5.573
 4960SOL    HW115779   3.190   7.003   5.618
 4960SOL    HW215780   3.261   0.092   5.520
 4961SOL     OW15781   4.931   0.346   5.259
 4961SOL    HW115782   4.943   0.425   5.199
 4961SOL    HW215783   4.837   0.313   5.253
 4962SOL     OW15784   6.415   2.192   2.167
 4962SOL    HW115785   6.355   2.180   2.088
 4962SOL    HW215786   6.504   2.225   2.138
 4963SOL     OW15787   0.722   4.073   1.159
 4963SOL    HW115788   0.650   4.132   1.196
 4963SOL    HW215789   0.762   4.117   1.078
 4964SOL     OW15790   2.990   6.825   2.920
 4964SOL    HW115791   3.057   6.888   2.881
 4964SOL    HW215792   3.027   6.732   2.919
 4965SOL     OW15793   0.109   5.882   5.454
 4965SOL    HW115794   0.035   5.845   5.509
 4965SOL    HW215795   0.115   5.981   5.467
 4966SOL     OW15796   5.136   5.647   5.657
 4966SOL    HW115797   5.230   5.648   5.690
 4966SOL    HW215798   5.099   5.555   5.665
 4967SOL     OW15799   5.696   1.058   6.703
 4967SOL    HW115800   5.763   0.998   6.749
 4967SOL    HW215801   5.617   1.004   6.675
 4968SOL     OW15802   5.260   3.943   6.553
 4968SOL    HW115803   5.298   3.864   6.601
 4968SOL    HW215804   5.310   4.026   6.579
 4969SOL     OW15805   1.579   1.162   1.312
 4969SOL    HW115806   1.591   1.181   1.410
 4969SOL    HW215807   1.563   1.064   1.298
 4970SOL     OW15808   1.754   2.151   6.696
 4970SOL    HW115809   1.729   2.191   6.607
 4970SOL    HW215810   1.845   2.112   6.691
 4971SOL     OW15811   6.261   5.458   3.877
 4971SOL    HW115812   6.228   5.467   3.971
 4971SOL    HW215813   6.189   5.488   3.814
 4972SOL     OW15814   1.497   2.182   4.966
 4972SOL    HW115815   1.538   2.272   4.979
 4972SOL    HW215816   1.417   2.173   5.027
 4973SOL     OW15817   4.875   5.847   3.342
 4973SOL    HW115818   4.877   5.916   3.270
 4973SOL    HW215819   4.966   5.839   3.383
 4974SOL     OW15820   3.814   6.448   6.223
 4974SOL    HW115821   3.909   6.443   6.195
 4974SOL    HW215822   3.808   6.480   6.318
 4975SOL     OW15823   4.248   6.189   0.314
 4975SOL    HW115824   4.303   6.244   0.252
 4975SOL    HW215825   4.204   6.114   0.262
 4976SOL     OW15826   2.487   1.125   4.673
 4976SOL    HW115827   2.501   1.087   4.765
 4976SOL    HW215828   2.443   1.057   4.615
 4977SOL     OW15829   3.904   3.541   1.804
 4977SOL    HW115830   3.963   3.600   1.859
 4977SOL    HW215831   3.958   3.466   1.765
 4978SOL     OW15832   6.345   3.839   6.226
 4978SOL    HW115833   6.360   3.766   6.293
 4978SOL    HW215834   6.402   3.824   6.146
 4979SOL     OW15835   2.098   2.221   3.513
 4979SOL    HW115836   2.101   2.135   3.460
 4979SOL    HW215837   2.135   2.295   3.457
 4980SOL     OW15838   2.185   4.561   3.249
 4980SOL    HW115839   2.231   4.641   3.211
 4980SOL    HW215840   2.093   4.586   3.279
 4981SOL     OW15841   5.543   5.906   5.318
 4981SOL    HW115842   5.530   5.933   5.413
 4981SOL    HW215843   5.594   5.977   5.270
 4982SOL     OW15844   2.625   0.974   6.869
 4982SOL    HW115845   2.598   1.024   6.951
 4982SOL    HW215846   2.568   1.003   6.792
 4983SOL     OW15847   6.844   2.433   4.088
 4983SOL    HW115848   6.761   2.382   4.067
 4983SOL    HW215849   6.851   2.445   4.187
 4984SOL     OW15850   5.334   5.224   3.525
 4984SOL    HW115851   5.283   5.139   3.513
 4984SOL    HW215852   5.290   5.279   3.597
 4985SOL     OW15853   5.673   3.420   2.268
 4985SOL    HW115854   5.688   3.500   2.326
 4985SOL    HW215855   5.578   3.420   2.236
 4986SOL     OW15856   4.488   4.892   3.588
 4986SOL    HW115857   4.509   4.854   3.498
 4986SOL    HW215858   4.452   4.985   3.577
 4987SOL     OW15859   1.134   2.887   0.249
 4987SOL    HW115860   1.209   2.824   0.228
 4987SOL    HW215861   1.164   2.952   0.319
 4988SOL     OW15862   2.317   2.029   4.934
 4988SOL    HW115863   2.289   2.124   4.949
 4988SOL    HW215864   2.328   1.984   5.023
 4989SOL     OW15865   0.137   0.719   0.711
 4989SOL    HW115866   0.160   0.627   0.742
 4989SOL    HW215867   0.219   0.776   0.710
 4990SOL     OW15868   1.904   2.048   6.997
 4990SOL    HW115869   1.933   2.013   0.065
 4990SOL    HW215870   1.805   2.050   6.992
 4991SOL     OW15871   2.605   1.694   5.670
 4991SOL    HW115872   2.654   1.643   5.740
 4991SOL    HW215873   2.559   1.773   5.712
 4992SOL     OW15874   4.174   0.123   4.837
 4992SOL    HW115875   4.190   0.034   4.880
 4992SOL    HW215876   4.243   0.188   4.868
 4993SOL     OW15877   1.800   6.664   4.792
 4993SOL    HW115878   1.890   6.704   4.772
 4993SOL    HW215879   1.753   6.645   4.706
 4994SOL     OW15880   0.389   5.565   3.062
 4994SOL    HW115881   0.487   5.580   3.071
 4994SOL    HW215882   0.349   5.640   3.008
 4995SOL     OW15883   5.448   2.793   5.263
 4995SOL    HW115884   5.365   2.804   5.208
 4995SOL    HW215885   5.455   2.699   5.296
 4996SOL     OW15886   0.443   1.917   3.760
 4996SOL    HW115887   0.369   1.930   3.694
 4996SOL    HW215888   0.406   1.922   3.853
 4997SOL     OW15889   6.916   2.619   3.880
 4997SOL    HW115890   6.894   2.559   3.957
 4997SOL    HW215891   6.965   2.568   3.810
 4998SOL     OW15892   1.147   5.775   5.937
 4998SOL    HW115893   1.127   5.868   5.904
 4998SOL    HW215894   1.245   5.759   5.933
 4999SOL     OW15895   5.872   4.768   1.107
 4999SOL    HW115896   5.782   4.807   1.127
 4999SOL    HW215897   5.943   4.824   1.149
 5000SOL     OW15898   6.375   5.291   4.234
 5000SOL    HW115899   6.418   5.277   4.323
 5000SOL    HW215900   6.424   5.362   4.184
 5001SOL     OW15901   4.918   3.431   5.273
 5001SOL    HW115902   4.994   3.371   5.300
 5001SOL    HW215903   4.839   3.412   5.332
 5002SOL     OW15904   1.720   2.153   1.578
 5002SOL    HW115905   1.766   2.132   1.664
 5002SOL    HW215906   1.622   2.138   1.587
 5003SOL     OW15907   6.535   5.262   4.467
 5003SOL    HW115908   6.606   5.331   4.479
 5003SOL    HW215909   6.476   5.260   4.548
 5004SOL     OW15910   1.997   4.094   5.863
 5004SOL    HW115911   1.914   4.128   5.908
 5004SOL    HW215912   2.072   4.158   5.880
 5005SOL     OW15913   4.984   2.588   0.265
 5005SOL    HW115914   5.040   2.601   0.347
 5005SOL    HW215915   4.976   2.491   0.245
 5006SOL     OW15916   4.878   4.932   2.448
 5006SOL    HW115917   4.796   4.983   2.472
 5006SOL    HW215918   4.864   4.835   2.464
 5007SOL     OW15919   4.380   1.096   4.730
 5007SOL    HW115920   4.283   1.115   4.714
 5007SOL    HW215921   4.392   0.998   4.750
 5008SOL     OW15922   6.221   1.772   4.138
 5008SOL    HW115923   6.193   1.771   4.042
 5008SOL    HW215924   6.262   1.684   4.162
 5009SOL     OW15925   2.764   6.457   1.615
 5009SOL    HW115926   2.747   6.530   1.550
 5009SOL    HW215927   2.862   6.454   1.638
 5010SOL     OW15928   3.316   3.241   6.235
 5010SOL    HW115929   3.402   3.253   6.184
 5010SOL    HW215930   3.331   3.181   6.313
 5011SOL     OW15931   1.406   1.570   4.262
 5011SOL    HW115932   1.503   1.594   4.267
 5011SOL    HW215933   1.353   1.652   4.241
 5012SOL     OW15934   6.322   2.455   0.030
 5012SOL    HW115935   6.288   2.495   0.115
 5012SOL    HW215936   6.244   2.428   6.994
 5013SOL     OW15937   4.840   1.625   5.194
 5013SOL    HW115938   4.743   1.623   5.171
 5013SOL    HW215939   4.857   1.697   5.262
 5014SOL     OW15940   6.952   4.761   6.779
 5014SOL    HW115941   0.028   4.782   6.774
 5014SOL    HW215942   6.926   4.702   6.703
 5015SOL     OW15943   5.112   1.776   4.090
 5015SOL    HW115944   5.155   1.687   4.075
 5015SOL    HW215945   5.025   1.781   4.041
 5016SOL     OW15946   2.720   5.567   1.906
 5016SOL    HW115947   2.675   5.530   1.825
 5016SOL    HW215948   2.802   5.617   1.879
 5017SOL     OW15949   0.405   2.334   1.631
 5017SOL    HW115950   0.336   2.317   1.562
 5017SOL    HW215951   0.459   2.251   1.646
 5018SOL     OW15952   6.410   5.017   4.194
 5018SOL    HW115953   6.399   5.113   4.222
 5018SOL    HW215954   6.322   4.981   4.165
 5019SOL     OW15955   3.087   5.593   4.843
 5019SOL    HW115956   3.001   5.590   4.893
 5019SOL    HW215957   3.115   5.499   4.819
 5020SOL     OW15958   4.557   4.896   0.034
 5020SOL    HW115959   4.621   4.930   0.102
 5020SOL    HW215960   4.604   4.882   6.968
 5021SOL     OW15961   2.384   5.152   5.815
 5021SOL    HW115962   2.422   5.225   5.758
 5021SOL    HW215963   2.413   5.164   5.909
 5022SOL     OW15964   1.818   3.423   6.814
 5022SOL    HW115965   1.756   3.345   6.822
 5022SOL    HW215966   1.910   3.389   6.791
 5023SOL     OW15967   6.970   3.133   4.438
 5023SOL    HW115968   6.882   3.091   4.417
 5023SOL    HW215969   6.969   3.169   4.531
 5024SOL     OW15970   4.998   3.883   5.121
 5024SOL    HW115971   5.034   3.953   5.184
 5024SOL    HW215972   4.963   3.928   5.039
 5025SOL     OW15973   5.847   0.611   4.680
 5025SOL    HW115974   5.893   0.592   4.593
 5025SOL    HW215975   5.912   0.599   4.755
 5026SOL     OW15976   1.133   5.692   2.801
 5026SOL    HW115977   1.224   5.733   2.800
 5026SOL    HW215978   1.127   5.626   2.877
 5027SOL     OW15979   1.205   5.587   3.604
 5027SOL    HW115980   1.282   5.650   3.616
 5027SOL    HW215981   1.231   5.496   3.635
 5028SOL     OW15982   0.828   6.146   3.019
 5028SOL    HW115983   0.865   6.230   3.059
 5028SOL    HW215984   0.730   6.141   3.039
 5029SOL     OW15985   5.789   0.701   4.340
 5029SOL    HW115986   5.697   0.670   4.364
 5029SOL    HW215987   5.856   0.635   4.375
 5030SOL     OW15988   1.423   5.997   0.465
 5030SOL    HW115989   1.345   5.985   0.405
 5030SOL    HW215990   1.407   6.074   0.527
 5031SOL     OW15991   5.424   0.109   0.156
 5031SOL    HW115992   5.456   0.116   0.250
 5031SOL    HW215993   5.496   0.138   0.093
 5032SOL     OW15994   1.737   5.432   2.352
 5032SOL    HW115995   1.639   5.415   2.343
 5032SOL    HW215996   1.786   5.391   2.274
 5033SOL     OW15997   0.676   4.535   4.673
 5033SOL    HW115998   0.686   4.450   4.621
 5033SOL    HW215999   0.608   4.522   4.745
 5034SOL     OW16000   0.603   3.005   5.920
 5034SOL    HW116001   0.612   3.032   6.016
 5034SOL    HW216002   0.693   3.002   5.877
 5035SOL     OW16003   6.496   4.458   1.271
 5035SOL    HW116004   6.571   4.404   1.309
 5035SOL    HW216005   6.461   4.413   1.189
 5036SOL     OW16006   1.383   2.027   2.859
 5036SOL    HW116007   1.382   2.006   2.957
 5036SOL    HW216008   1.410   2.123   2.846
 5037SOL     OW16009   5.068   4.588   1.450
 5037SOL    HW116010   4.994   4.525   1.424
 5037SOL    HW216011   5.081   4.584   1.549
 5038SOL     OW16012   3.255   5.752   5.793
 5038SOL    HW116013   3.274   5.789   5.702
 5038SOL    HW216014   3.273   5.654   5.794
 5039SOL     OW16015   1.163   2.547   3.560
 5039SOL    HW116016   1.085   2.603   3.533
 5039SOL    HW216017   1.214   2.595   3.631
 5040SOL     OW16018   2.393   3.613   5.783
 5040SOL    HW116019   2.484   3.623   5.742
 5040SOL    HW216020   2.393   3.535   5.845
 5041SOL     OW16021   0.605   5.706   0.578
 5041SOL    HW116022   0.590   5.790   0.630
 5041SOL    HW216023   0.519   5.655   0.571
 5042SOL     OW16024   6.239   1.171   6.219
 5042SOL    HW116025   6.176   1.097   6.243
 5042SOL    HW216026   6.330   1.133   6.202
 5043SOL     OW16027   5.614   5.754   3.875
 5043SOL    HW116028   5.535   5.699   3.848
 5043SOL    HW216029   5.640   5.814   3.800
 5044SOL     OW16030   6.324   3.982   1.847
 5044SOL    HW116031   6.242   3.988   1.904
 5044SOL    HW216032   6.299   3.945   1.757
 5045SOL     OW16033   4.734   2.918   5.575
 5045SOL    HW116034   4.648   2.943   5.530
 5045SOL    HW216035   4.783   3.001   5.601
 5046SOL     OW16036   4.141   2.752   5.797
 5046SOL    HW116037   4.193   2.726   5.879
 5046SOL    HW216038   4.197   2.735   5.716
 5047SOL     OW16039   0.633   2.291   2.350
 5047SOL    HW116040   0.692   2.286   2.431
 5047SOL    HW216041   0.559   2.355   2.367
 5048SOL     OW16042   5.984   3.972   0.765
 5048SOL    HW116043   5.994   3.996   0.669
 5048SOL    HW216044   5.903   3.913   0.777
 5049SOL     OW16045   0.837   1.330   1.330
 5049SOL    HW116046   0.848   1.276   1.247
 5049SOL    HW216047   0.740   1.353   1.341
 5050SOL     OW16048   1.688   4.187   0.353
 5050SOL    HW116049   1.788   4.186   0.360
 5050SOL    HW216050   1.649   4.233   0.433
 5051SOL     OW16051   2.493   3.832   6.370
 5051SOL    HW116052   2.421   3.832   6.302
 5051SOL    HW216053   2.582   3.836   6.325
 5052SOL     OW16054   5.916   2.706   1.078
 5052SOL    HW116055   6.003   2.720   1.031
 5052SOL    HW216056   5.926   2.735   1.174
 5053SOL     OW16057   1.044   3.856   1.356
 5053SOL    HW116058   1.067   3.765   1.391
 5053SOL    HW216059   1.046   3.922   1.431
 5054SOL     OW16060   3.720   6.118   5.179
 5054SOL    HW116061   3.816   6.089   5.183
 5054SOL    HW216062   3.684   6.103   5.087
 5055SOL     OW16063   0.488   0.662   3.895
 5055SOL    HW116064   0.579   0.630   3.919
 5055SOL    HW216065   0.445   0.596   3.833
 5056SOL     OW16066   3.047   1.616   6.043
 5056SOL    HW116067   3.131   1.562   6.041
 5056SOL    HW216068   3.069   1.712   6.026
 5057SOL     OW16069   0.030   4.279   2.315
 5057SOL    HW116070   0.085   4.278   2.231
 5057SOL    HW216071   6.989   4.201   2.315
 5058SOL     OW16072   4.228   1.711   0.014
 5058SOL    HW116073   4.139   1.666   0.016
 5058SOL    HW216074   4.292   1.662   0.074
 5059SOL     OW16075   5.862   2.829   2.386
 5059SOL    HW116076   5.819   2.886   2.456
 5059SOL    HW216077   5.791   2.783   2.332
 5060SOL     OW16078   6.078   2.947   5.298
 5060SOL    HW116079   6.076   2.993   5.209
 5060SOL    HW216080   6.144   2.994   5.358
 5061SOL     OW16081   3.953   2.590   5.584
 5061SOL    HW116082   3.858   2.620   5.592
 5061SOL    HW216083   4.013   2.654   5.633
 5062SOL     OW16084   5.961   0.972   3.140
 5062SOL    HW116085   5.961   0.944   3.236
 5062SOL    HW216086   5.879   0.937   3.095
 5063SOL     OW16087   0.815   1.383   0.663
 5063SOL    HW116088   0.884   1.451   0.636
 5063SOL    HW216089   0.839   1.345   0.752
 5064SOL     OW16090   6.459   5.057   0.769
 5064SOL    HW116091   6.505   4.980   0.726
 5064SOL    HW216092   6.363   5.058   0.742
 5065SOL     OW16093   1.949   1.957   2.554
 5065SOL    HW116094   1.923   1.876   2.607
 5065SOL    HW216095   2.047   1.953   2.533
 5066SOL     OW16096   1.183   4.575   4.249
 5066SOL    HW116097   1.120   4.499   4.235
 5066SOL    HW216098   1.150   4.633   4.324
 5067SOL     OW16099   5.125   2.790   0.625
 5067SOL    HW116100   5.188   2.749   0.691
 5067SOL    HW216101   5.071   2.861   0.670
 5068SOL     OW16102   1.637   0.031   1.147
 5068SOL    HW116103   1.604   6.961   1.173
 5068SOL    HW216104   1.731   0.043   1.178
 5069SOL     OW16105   4.197   4.506   6.109
 5069SOL    HW116106   4.155   4.425   6.150
 5069SOL    HW216107   4.133   4.583   6.114
 5070SOL     OW16108   0.235   3.420   6.471
 5070SOL    HW116109   0.263   3.368   6.551
 5070SOL    HW216110   0.199   3.358   6.401
 5071SOL     OW16111   2.122   6.607   2.649
 5071SOL    HW116112   2.061   6.669   2.600
 5071SOL    HW216113   2.082   6.584   2.738
 5072SOL     OW16114   0.811   2.208   2.553
 5072SOL    HW116115   0.761   2.147   2.615
 5072SOL    HW216116   0.896   2.238   2.598
 5073SOL     OW16117   1.579   1.431   3.667
 5073SOL    HW116118   1.482   1.448   3.684
 5073SOL    HW216119   1.590   1.349   3.611
 5074SOL     OW16120   3.776   1.898   1.232
 5074SOL    HW116121   3.853   1.944   1.276
 5074SOL    HW216122   3.740   1.827   1.292
 5075SOL     OW16123   6.529   2.298   6.912
 5075SOL    HW116124   6.446   2.353   6.921
 5075SOL    HW216125   6.524   2.220   6.974
 5076SOL     OW16126   0.287   1.295   5.887
 5076SOL    HW116127   0.347   1.375   5.879
 5076SOL    HW216128   0.228   1.290   5.806
 5077SOL     OW16129   0.384   4.522   4.593
 5077SOL    HW116130   0.385   4.489   4.498
 5077SOL    HW216131   0.323   4.465   4.648
 5078SOL     OW16132   6.380   1.912   2.988
 5078SOL    HW116133   6.392   1.901   3.086
 5078SOL    HW216134   6.464   1.950   2.948
 5079SOL     OW16135   1.430   3.768   5.584
 5079SOL    HW116136   1.430   3.861   5.620
 5079SOL    HW216137   1.419   3.770   5.484
 5080SOL     OW16138   6.269   5.719   6.859
 5080SOL    HW116139   6.217   5.723   6.773
 5080SOL    HW216140   6.290   5.812   6.889
 5081SOL     OW16141   3.142   4.837   5.436
 5081SOL    HW116142   3.194   4.753   5.445
 5081SOL    HW216143   3.126   4.857   5.339
 5082SOL     OW16144   5.707   0.451   2.814
 5082SOL    HW116145   5.721   0.523   2.882
 5082SOL    HW216146   5.695   0.492   2.724
 5083SOL     OW16147   0.750   0.438   3.507
 5083SOL    HW116148   0.767   0.427   3.604
 5083SOL    HW216149   0.652   0.429   3.488
 5084SOL     OW16150   3.311   5.700   5.539
 5084SOL    HW116151   3.238   5.666   5.480
 5084SOL    HW216152   3.360   5.774   5.492
 5085SOL     OW16153   0.319   3.857   6.404
 5085SOL    HW116154   0.280   3.942   6.440
 5085SOL    HW216155   0.411   3.845   6.441
 5086SOL     OW16156   1.344   4.450   2.237
 5086SOL    HW116157   1.293   4.378   2.283
 5086SOL    HW216158   1.280   4.518   2.201
 5087SOL     OW16159   6.629   5.582   1.715
 5087SOL    HW116160   6.677   5.572   1.802
 5087SOL    HW216161   6.669   5.656   1.662
 5088SOL     OW16162   4.647   4.747   1.880
 5088SOL    HW116163   4.577   4.676   1.895
 5088SOL    HW216164   4.730   4.722   1.930
 5089SOL     OW16165   5.161   6.050   5.633
 5089SOL    HW116166   5.194   6.135   5.592
 5089SOL    HW216167   5.167   6.056   5.732
 5090SOL     OW16168   2.257   6.944   4.043
 5090SOL    HW116169   2.231   0.019   4.042
 5090SOL    HW216170   2.274   6.914   4.137
 5091SOL     OW16171   6.221   5.879   5.780
 5091SOL    HW116172   6.301   5.867   5.721
 5091SOL    HW216173   6.251   5.895   5.874
 5092SOL     OW16174   3.817   2.914   4.419
 5092SOL    HW116175   3.779   2.882   4.506
 5092SOL    HW216176   3.912   2.887   4.412
 5093SOL     OW16177   3.314   2.058   3.556
 5093SOL    HW116178   3.298   2.001   3.475
 5093SOL    HW216179   3.317   2.154   3.529
 5094SOL     OW16180   2.349   5.673   4.724
 5094SOL    HW116181   2.291   5.599   4.691
 5094SOL    HW216182   2.346   5.749   4.659
 5095SOL     OW16183   5.947   2.028   3.592
 5095SOL    HW116184   5.886   2.044   3.669
 5095SOL    HW216185   5.992   2.114   3.567
 5096SOL     OW16186   5.637   2.379   6.071
 5096SOL    HW116187   5.650   2.475   6.045
 5096SOL    HW216188   5.540   2.355   6.059
 5097SOL     OW16189   0.844   0.819   5.523
 5097SOL    HW116190   0.885   0.789   5.437
 5097SOL    HW216191   0.882   0.766   5.599
 5098SOL     OW16192   3.092   2.069   1.342
 5098SOL    HW116193   3.027   2.041   1.271
 5098SOL    HW216194   3.184   2.072   1.303
 5099SOL     OW16195   2.253   5.302   2.216
 5099SOL    HW116196   2.231   5.302   2.314
 5099SOL    HW216197   2.283   5.394   2.189
 5100SOL     OW16198   5.917   3.776   1.201
 5100SOL    HW116199   5.845   3.845   1.206
 5100SOL    HW216200   5.991   3.808   1.143
 5101SOL     OW16201   3.525   1.807   5.239
 5101SOL    HW116202   3.461   1.882   5.253
 5101SOL    HW216203   3.560   1.776   5.327
 5102SOL     OW16204   5.507   4.696   5.121
 5102SOL    HW116205   5.438   4.624   5.118
 5102SOL    HW216206   5.469   4.781   5.082
 5103SOL     OW16207   0.655   0.086   5.758
 5103SOL    HW116208   0.586   0.069   5.829
 5103SOL    HW216209   0.735   0.130   5.799
 5104SOL     OW16210   4.118   3.399   3.737
 5104SOL    HW116211   4.018   3.399   3.727
 5104SOL    HW216212   4.144   3.334   3.809
 5105SOL     OW16213   4.254   3.062   0.047
 5105SOL    HW116214   4.290   3.011   0.125
 5105SOL    HW216215   4.329   3.106   7.019
 5106SOL     OW16216   4.009   1.095   1.570
 5106SOL    HW116217   4.022   1.012   1.624
 5106SOL    HW216218   4.030   1.175   1.626
 5107SOL     OW16219   6.038   4.829   6.581
 5107SOL    HW116220   6.127   4.807   6.542
 5107SOL    HW216221   5.966   4.811   6.514
 5108SOL     OW16222   3.775   4.203   0.774
 5108SOL    HW116223   3.859   4.184   0.824
 5108SOL    HW216224   3.726   4.278   0.819
 5109SOL     OW16225   2.143   2.341   2.095
 5109SOL    HW116226   2.110   2.291   2.175
 5109SOL    HW216227   2.203   2.415   2.125
 5110SOL     OW16228   3.501   6.511   4.776
 5110SOL    HW116229   3.590   6.537   4.738
 5110SOL    HW216230   3.429   6.539   4.713
 5111SOL     OW16231   2.283   5.429   5.924
 5111SOL    HW116232   2.306   5.444   5.827
 5111SOL    HW216233   2.245   5.337   5.935
 5112SOL     OW16234   1.118   4.483   2.507
 5112SOL    HW116235   1.157   4.575   2.497
 5112SOL    HW216236   1.083   4.472   2.599
 5113SOL     OW16237   2.613   4.274   1.081
 5113SOL    HW116238   2.663   4.188   1.070
 5113SOL    HW216239   2.553   4.287   1.002
 5114SOL     OW16240   4.777   4.869   1.547
 5114SOL    HW116241   4.832   4.796   1.587
 5114SOL    HW216242   4.685   4.867   1.586
 5115SOL     OW16243   1.308   4.607   0.090
 5115SOL    HW116244   1.384   4.669   0.068
 5115SOL    HW216245   1.309   4.585   0.187
 5116SOL     OW16246   0.306   6.644   5.780
 5116SOL    HW116247   0.243   6.597   5.719
 5116SOL    HW216248   0.320   6.738   5.748
 5117SOL     OW16249   6.903   3.886   3.805
 5117SOL    HW116250   6.871   3.975   3.837
 5117SOL    HW216251   6.950   3.838   3.879
 5118SOL     OW16252   4.356   4.810   0.350
 5118SOL    HW116253   4.356   4.814   0.450
 5118SOL    HW216254   4.438   4.763   0.318
 5119SOL     OW16255   5.051   1.685   0.694
 5119SOL    HW116256   5.116   1.689   0.770
 5119SOL    HW216257   5.081   1.748   0.622
 5120SOL     OW16258   5.955   6.702   6.134
 5120SOL    HW116259   5.983   6.634   6.067
 5120SOL    HW216260   6.036   6.741   6.178
 5121SOL     OW16261   1.596   3.164   0.115
 5121SOL    HW116262   1.617   3.136   0.021
 5121SOL    HW216263   1.680   3.191   0.161
 5122SOL     OW16264   5.190   4.984   3.476
 5122SOL    HW116265   5.172   4.928   3.396
 5122SOL    HW216266   5.104   5.014   3.517
 5123SOL     OW16267   5.098   2.268   1.490
 5123SOL    HW116268   5.111   2.297   1.585
 5123SOL    HW216269   5.132   2.175   1.479
 5124SOL     OW16270   0.348   5.502   4.428
 5124SOL    HW116271   0.271   5.441   4.446
 5124SOL    HW216272   0.425   5.449   4.390
 5125SOL     OW16273   5.563   2.355   4.071
 5125SOL    HW116274   5.629   2.330   4.000
 5125SOL    HW216275   5.578   2.298   4.152
 5126SOL     OW16276   2.145   1.002   1.615
 5126SOL    HW116277   2.149   1.100   1.634
 5126SOL    HW216278   2.199   0.952   1.682
 5127SOL     OW16279   1.917   6.795   0.316
 5127SOL    HW116280   1.942   6.776   0.411
 5127SOL    HW216281   1.900   6.710   0.268
 5128SOL     OW16282   4.480   0.037   1.883
 5128SOL    HW116283   4.564   0.001   1.842
 5128SOL    HW216284   4.503   0.104   1.953
 5129SOL     OW16285   6.022   5.653   0.317
 5129SOL    HW116286   5.990   5.606   0.399
 5129SOL    HW216287   5.983   5.608   0.236
 5130SOL     OW16288   6.005   5.099   1.889
 5130SOL    HW116289   6.046   5.189   1.905
 5130SOL    HW216290   5.907   5.110   1.870
 5131SOL     OW16291   2.653   2.255   2.171
 5131SOL    HW116292   2.739   2.276   2.124
 5131SOL    HW216293   2.577   2.294   2.119
 5132SOL     OW16294   2.484   6.274   5.532
 5132SOL    HW116295   2.413   6.207   5.555
 5132SOL    HW216296   2.443   6.365   5.529
 5133SOL     OW16297   3.397   6.601   5.024
 5133SOL    HW116298   3.461   6.624   5.097
 5133SOL    HW216299   3.447   6.580   4.940
 5134SOL     OW16300   0.769   3.035   6.471
 5134SOL    HW116301   0.711   3.116   6.466
 5134SOL    HW216302   0.760   2.993   6.562
 5135SOL     OW16303   6.648   1.882   3.989
 5135SOL    HW116304   6.630   1.938   4.070
 5135SOL    HW216305   6.573   1.894   3.924
 5136SOL     OW16306   3.482   1.927   5.782
 5136SOL    HW116307   3.515   1.842   5.821
 5136SOL    HW216308   3.547   1.961   5.714
 5137SOL     OW16309   3.985   3.371   6.905
 5137SOL    HW116310   3.936   3.339   6.986
 5137SOL    HW216311   3.985   3.471   6.904
 5138SOL     OW16312   2.233   3.158   5.977
 5138SOL    HW116313   2.212   3.102   6.057
 5138SOL    HW216314   2.157   3.152   5.912
 5139SOL     OW16315   0.411   6.925   3.695
 5139SOL    HW116316   0.385   7.003   3.752
 5139SOL    HW216317   0.450   6.853   3.752
 5140SOL     OW16318   3.122   3.264   1.599
 5140SOL    HW116319   3.204   3.212   1.576
 5140SOL    HW216320   3.045   3.201   1.614
 5141SOL     OW16321   1.092   3.618   5.717
 5141SOL    HW116322   1.024   3.657   5.780
 5141SOL    HW216323   1.137   3.540   5.760
 5142SOL     OW16324   5.464   3.452   1.760
 5142SOL    HW116325   5.470   3.355   1.783
 5142SOL    HW216326   5.375   3.472   1.719
 5143SOL     OW16327   6.882   4.950   6.136
 5143SOL    HW116328   6.788   4.978   6.120
 5143SOL    HW216329   6.933   5.025   6.179
 5144SOL     OW16330   1.822   1.604   5.045
 5144SOL    HW116331   1.906   1.629   4.996
 5144SOL    HW216332   1.845   1.576   5.138
 5145SOL     OW16333   3.806   5.328   6.143
 5145SOL    HW116334   3.713   5.313   6.109
 5145SOL    HW216335   3.872   5.289   6.079
 5146SOL     OW16336   3.436   5.069   1.108
 5146SOL    HW116337   3.387   5.057   1.022
 5146SOL    HW216338   3.438   5.166   1.133
 5147SOL     OW16339   0.457   5.072   6.461
 5147SOL    HW116340   0.458   5.086   6.560
 5147SOL    HW216341   0.530   5.126   6.419
 5148SOL     OW16342   0.190   0.664   1.469
 5148SOL    HW116343   0.245   0.585   1.498
 5148SOL    HW216344   0.153   0.709   1.550
 5149SOL     OW16345   0.085   0.683   5.678
 5149SOL    HW116346   0.045   0.593   5.698
 5149SOL    HW216347   0.177   0.670   5.641
 5150SOL     OW16348   2.671   5.718   5.343
 5150SOL    HW116349   2.764   5.726   5.377
 5150SOL    HW216350   2.624   5.806   5.351
 5151SOL     OW16351   4.573   0.315   5.846
 5151SOL    HW116352   4.600   0.240   5.907
 5151SOL    HW216353   4.479   0.342   5.866
 5152SOL     OW16354   6.491   4.721   6.791
 5152SOL    HW116355   6.418   4.655   6.810
 5152SOL    HW216356   6.543   4.690   6.711
 5153SOL     OW16357   2.148   2.633   0.718
 5153SOL    HW116358   2.150   2.662   0.814
 5153SOL    HW216359   2.241   2.626   0.683
 5154SOL     OW16360   1.253   4.610   4.921
 5154SOL    HW116361   1.237   4.528   4.976
 5154SOL    HW216362   1.212   4.689   4.966
 5155SOL     OW16363   4.142   0.513   1.905
 5155SOL    HW116364   4.118   0.569   1.984
 5155SOL    HW216365   4.069   0.448   1.886
 5156SOL     OW16366   5.258   3.121   6.249
 5156SOL    HW116367   5.316   3.110   6.168
 5156SOL    HW216368   5.184   3.185   6.228
 5157SOL     OW16369   6.176   2.315   3.655
 5157SOL    HW116370   6.114   2.290   3.581
 5157SOL    HW216371   6.261   2.264   3.646
 5158SOL     OW16372   3.671   0.334   1.495
 5158SOL    HW116373   3.724   0.400   1.548
 5158SOL    HW216374   3.596   0.381   1.448
 5159SOL     OW16375   2.133   3.236   4.967
 5159SOL    HW116376   2.171   3.328   4.974
 5159SOL    HW216377   2.192   3.171   5.016
 5160SOL     OW16378   2.682   2.416   3.805
 5160SOL    HW116379   2.676   2.501   3.752
 5160SOL    HW216380   2.681   2.338   3.742
 5161SOL     OW16381   2.114   3.400   0.047
 5161SOL    HW116382   2.091   3.303   0.045
 5161SOL    HW216383   2.051   3.450   7.009
 5162SOL     OW16384   6.491   5.751   4.733
 5162SOL    HW116385   6.528   5.742   4.641
 5162SOL    HW216386   6.515   5.671   4.787
 5163SOL     OW16387   5.691   3.833   0.455
 5163SOL    HW116388   5.672   3.879   0.542
 5163SOL    HW216389   5.605   3.815   0.407
 5164SOL     OW16390   6.701   6.224   4.835
 5164SOL    HW116391   6.762   6.231   4.913
 5164SOL    HW216392   6.702   6.311   4.785
 5165SOL     OW16393   5.693   3.865   5.237
 5165SOL    HW116394   5.707   3.776   5.194
 5165SOL    HW216395   5.775   3.921   5.225
 5166SOL     OW16396   0.560   0.050   3.237
 5166SOL    HW116397   0.508   0.047   3.152
 5166SOL    HW216398   0.658   0.053   3.217
 5167SOL     OW16399   1.752   0.369   5.286
 5167SOL    HW116400   1.762   0.270   5.277
 5167SOL    HW216401   1.832   0.407   5.333
 5168SOL     OW16402   3.411   2.079   2.359
 5168SOL    HW116403   3.498   2.114   2.324
 5168SOL    HW216404   3.340   2.090   2.290
 5169SOL     OW16405   3.732   4.946   6.423
 5169SOL    HW116406   3.662   4.966   6.492
 5169SOL    HW216407   3.806   5.012   6.431
 5170SOL     OW16408   4.060   5.406   4.446
 5170SOL    HW116409   4.089   5.385   4.353
 5170SOL    HW216410   4.137   5.396   4.508
 5171SOL     OW16411   2.713   4.814   5.138
 5171SOL    HW116412   2.763   4.813   5.225
 5171SOL    HW216413   2.753   4.747   5.076
 5172SOL     OW16414   2.127   4.017   6.286
 5172SOL    HW116415   2.137   4.114   6.309
 5172SOL    HW216416   2.111   4.008   6.188
 5173SOL     OW16417   0.125   2.626   4.562
 5173SOL    HW116418   0.139   2.596   4.656
 5173SOL    HW216419   0.059   2.566   4.517
 5174SOL     OW16420   3.107   5.169   6.761
 5174SOL    HW116421   3.150   5.091   6.807
 5174SOL    HW216422   3.071   5.232   6.830
 5175SOL     OW16423   0.049   5.099   6.681
 5175SOL    HW116424   6.976   5.132   6.669
 5175SOL    HW216425   0.096   5.100   6.593
 5176SOL     OW16426   5.404   3.416   6.234
 5176SOL    HW116427   5.410   3.473   6.316
 5176SOL    HW216428   5.313   3.423   6.195
 5177SOL     OW16429   5.008   4.913   6.095
 5177SOL    HW116430   4.998   4.847   6.169
 5177SOL    HW216431   5.019   5.005   6.133
 5178SOL     OW16432   3.580   4.124   0.362
 5178SOL    HW116433   3.527   4.153   0.441
 5178SOL    HW216434   3.518   4.100   0.287
 5179SOL     OW16435   3.280   6.644   5.368
 5179SOL    HW116436   3.351   6.673   5.431
 5179SOL    HW216437   3.214   6.718   5.355
 5180SOL     OW16438   4.580   1.501   0.070
 5180SOL    HW116439   4.640   1.581   0.073
 5180SOL    HW216440   4.584   1.460   7.000
 5181SOL     OW16441   2.877   6.032   2.372
 5181SOL    HW116442   2.785   5.998   2.355
 5181SOL    HW216443   2.908   6.005   2.463
 5182SOL     OW16444   4.637   4.069   1.067
 5182SOL    HW116445   4.538   4.056   1.064
 5182SOL    HW216446   4.680   4.015   0.995
 5183SOL     OW16447   3.547   0.537   3.808
 5183SOL    HW116448   3.642   0.538   3.841
 5183SOL    HW216449   3.486   0.513   3.884
 5184SOL     OW16450   0.892   2.537   3.154
 5184SOL    HW116451   0.873   2.626   3.197
 5184SOL    HW216452   0.834   2.527   3.073
 5185SOL     OW16453   3.648   0.126   1.689
 5185SOL    HW116454   3.740   0.129   1.728
 5185SOL    HW216455   3.638   0.197   1.620
 5186SOL     OW16456   5.670   4.137   6.955
 5186SOL    HW116457   5.645   4.224   6.996
 5186SOL    HW216458   5.769   4.124   6.961
 5187SOL     OW16459   4.976   3.413   4.076
 5187SOL    HW116460   4.940   3.472   4.149
 5187SOL    HW216461   4.973   3.317   4.107
 5188SOL     OW16462   6.924   1.005   3.292
 5188SOL    HW116463   6.968   0.922   3.258
 5188SOL    HW216464   6.962   1.085   3.245
 5189SOL     OW16465   4.877   5.284   5.873
 5189SOL    HW116466   4.840   5.323   5.789
 5189SOL    HW216467   4.801   5.264   5.937
 5190SOL     OW16468   2.341   2.251   2.357
 5190SOL    HW116469   2.374   2.339   2.322
 5190SOL    HW216470   2.370   2.178   2.295
 5191SOL     OW16471   5.064   0.879   2.171
 5191SOL    HW116472   4.983   0.840   2.125
 5191SOL    HW216473   5.098   0.956   2.117
 5192SOL     OW16474   6.276   4.231   1.392
 5192SOL    HW116475   6.317   4.300   1.452
 5192SOL    HW216476   6.228   4.277   1.317
 5193SOL     OW16477   3.998   4.804   2.588
 5193SOL    HW116478   4.085   4.838   2.621
 5193SOL    HW216479   4.014   4.731   2.521
 5194SOL     OW16480   4.888   1.066   0.291
 5194SOL    HW116481   4.983   1.051   0.315
 5194SOL    HW216482   4.855   0.991   0.234
 5195SOL     OW16483   0.542   5.707   5.202
 5195SOL    HW116484   0.476   5.646   5.245
 5195SOL    HW216485   0.496   5.792   5.174
 5196SOL     OW16486   0.770   3.537   3.939
 5196SOL    HW116487   0.758   3.468   4.011
 5196SOL    HW216488   0.686   3.592   3.932
 5197SOL     OW16489   4.000   6.131   5.238
 5197SOL    HW116490   4.071   6.066   5.263
 5197SOL    HW216491   4.001   6.208   5.301
 5198SOL     OW16492   4.198   1.241   5.742
 5198SOL    HW116493   4.244   1.292   5.670
 5198SOL    HW216494   4.148   1.164   5.702
 5199SOL     OW16495   0.663   6.016   2.188
 5199SOL    HW116496   0.706   6.106   2.194
 5199SOL    HW216497   0.679   5.977   2.097
 5200SOL     OW16498   5.880   6.634   5.218
 5200SOL    HW116499   5.906   6.727   5.192
 5200SOL    HW216500   5.852   6.633   5.314
 5201SOL     OW16501   6.969   4.021   5.335
 5201SOL    HW116502   6.997   3.937   5.288
 5201SOL    HW216503   6.870   4.019   5.349
 5202SOL     OW16504   3.965   2.047   5.959
 5202SOL    HW116505   3.895   2.097   5.909
 5202SOL    HW216506   3.942   1.950   5.961
 5203SOL     OW16507   0.781   0.405   6.517
 5203SOL    HW116508   0.711   0.399   6.446
 5203SOL    HW216509   0.848   0.475   6.492
 5204SOL     OW16510   2.379   0.362   2.183
 5204SOL    HW116511   2.408   0.455   2.205
 5204SOL    HW216512   2.301   0.365   2.121
 5205SOL     OW16513   6.626   0.052   1.754
 5205SOL    HW116514   6.725   0.044   1.745
 5205SOL    HW216515   6.593   0.127   1.696
 5206SOL     OW16516   1.123   5.137   5.135
 5206SOL    HW116517   1.108   5.091   5.047
 5206SOL    HW216518   1.221   5.138   5.156
 5207SOL     OW16519   4.515   1.066   4.970
 5207SOL    HW116520   4.444   1.091   4.904
 5207SOL    HW216521   4.473   1.034   5.055
 5208SOL     OW16522   6.541   1.677   0.307
 5208SOL    HW116523   6.626   1.629   0.288
 5208SOL    HW216524   6.556   1.776   0.300
 5209SOL     OW16525   4.898   6.354   2.343
 5209SOL    HW116526   4.957   6.350   2.262
 5209SOL    HW216527   4.819   6.294   2.330
 5210SOL     OW16528   5.967   4.177   1.427
 5210SOL    HW116529   5.996   4.174   1.331
 5210SOL    HW216530   5.915   4.260   1.444
 5211SOL     OW16531   4.971   2.931   4.767
 5211SOL    HW116532   5.066   2.939   4.739
 5211SOL    HW216533   4.933   3.023   4.781
 5212SOL     OW16534   6.393   3.613   6.940
 5212SOL    HW116535   6.419   3.706   6.915
 5212SOL    HW216536   6.451   3.582   7.016
 5213SOL     OW16537   3.399   3.332   3.802
 5213SOL    HW116538   3.349   3.306   3.719
 5213SOL    HW216539   3.393   3.431   3.814
 5214SOL     OW16540   5.410   3.007   6.019
 5214SOL    HW116541   5.425   2.917   6.061
 5214SOL    HW216542   5.359   2.996   5.934
 5215SOL     OW16543   0.339   4.904   4.882
 5215SOL    HW116544   0.416   4.954   4.843
 5215SOL    HW216545   0.368   4.813   4.910
 5216SOL     OW16546   6.349   4.449   0.547
 5216SOL    HW116547   6.420   4.395   0.502
 5216SOL    HW216548   6.383   4.482   0.636
 5217SOL     OW16549   3.668   0.136   2.764
 5217SOL    HW116550   3.633   0.044   2.779
 5217SOL    HW216551   3.634   0.196   2.836
 5218SOL     OW16552   6.180   0.269   0.709
 5218SOL    HW116553   6.110   0.200   0.688
 5218SOL    HW216554   6.144   0.335   0.775
 5219SOL     OW16555   4.473   1.925   5.044
 5219SOL    HW116556   4.519   1.988   5.106
 5219SOL    HW216557   4.530   1.909   4.964
 5220SOL     OW16558   1.900   4.199   4.178
 5220SOL    HW116559   1.901   4.299   4.171
 5220SOL    HW216560   1.945   4.171   4.263
 5221SOL     OW16561   4.576   5.960   1.025
 5221SOL    HW116562   4.609   5.866   1.032
 5221SOL    HW216563   4.512   5.979   1.099
 5222SOL     OW16564   6.217   3.036   2.420
 5222SOL    HW116565   6.277   3.091   2.361
 5222SOL    HW216566   6.200   2.947   2.377
 5223SOL     OW16567   0.193   2.407   0.866
 5223SOL    HW116568   0.219   2.501   0.890
 5223SOL    HW216569   0.148   2.364   0.944
 5224SOL     OW16570   1.616   1.478   4.499
 5224SOL    HW116571   1.674   1.558   4.517
 5224SOL    HW216572   1.523   1.508   4.477
 5225SOL     OW16573   6.960   2.506   6.040
 5225SOL    HW116574   6.930   2.422   6.085
 5225SOL    HW216575   0.022   2.486   5.986
 5226SOL     OW16576   0.241   6.819   4.131
 5226SOL    HW116577   0.185   6.848   4.209
 5226SOL    HW216578   0.206   6.732   4.095
 5227SOL     OW16579   2.021   2.676   6.259
 5227SOL    HW116580   2.072   2.692   6.175
 5227SOL    HW216581   2.085   2.661   6.335
 5228SOL     OW16582   0.999   2.313   5.333
 5228SOL    HW116583   0.909   2.318   5.376
 5228SOL    HW216584   1.054   2.391   5.363
 5229SOL     OW16585   3.997   1.602   0.062
 5229SOL    HW116586   3.958   1.575   0.150
 5229SOL    HW216587   3.924   1.603   7.014
 5230SOL     OW16588   6.603   0.218   1.974
 5230SOL    HW116589   6.627   0.299   1.920
 5230SOL    HW216590   6.582   0.143   1.912
 5231SOL     OW16591   6.501   3.780   1.944
 5231SOL    HW116592   6.448   3.852   1.899
 5231SOL    HW216593   6.506   3.799   2.042
 5232SOL     OW16594   1.534   1.714   6.057
 5232SOL    HW116595   1.448   1.729   6.010
 5232SOL    HW216596   1.610   1.722   5.993
 5233SOL     OW16597   2.486   0.040   3.628
 5233SOL    HW116598   2.579   0.062   3.658
 5233SOL    HW216599   2.448   6.989   3.686
 5234SOL     OW16600   3.185   1.998   6.340
 5234SOL    HW116601   3.137   2.030   6.258
 5234SOL    HW216602   3.131   2.018   6.421
 5235SOL     OW16603   2.026   3.007   1.504
 5235SOL    HW116604   2.073   3.021   1.417
 5235SOL    HW216605   1.930   2.984   1.488
 5236SOL     OW16606   2.841   5.073   2.200
 5236SOL    HW116607   2.854   5.115   2.110
 5236SOL    HW216608   2.850   4.974   2.192
 5237SOL     OW16609   1.611   1.450   1.501
 5237SOL    HW116610   1.643   1.356   1.486
 5237SOL    HW216611   1.557   1.480   1.422
 5238SOL     OW16612   6.024   0.549   2.951
 5238SOL    HW116613   5.947   0.529   3.011
 5238SOL    HW216614   6.104   0.574   3.006
 5239SOL     OW16615   2.525   3.856   6.973
 5239SOL    HW116616   2.595   3.794   7.007
 5239SOL    HW216617   2.434   3.816   6.988
 5240SOL     OW16618   1.668   4.166   5.654
 5240SOL    HW116619   1.702   4.230   5.585
 5240SOL    HW216620   1.649   4.216   5.738
 5241SOL     OW16621   2.247   5.684   3.526
 5241SOL    HW116622   2.180   5.737   3.576
 5241SOL    HW216623   2.257   5.594   3.568
 5242SOL     OW16624   4.189   6.091   5.811
 5242SOL    HW116625   4.182   5.994   5.834
 5242SOL    HW216626   4.257   6.104   5.739
 5243SOL     OW16627   1.737   5.813   3.674
 5243SOL    HW116628   1.701   5.898   3.635
 5243SOL    HW216629   1.675   5.780   3.745
 5244SOL     OW16630   5.561   0.736   6.379
 5244SOL    HW116631   5.591   0.830   6.359
 5244SOL    HW216632   5.462   0.732   6.377
 5245SOL     OW16633   3.161   3.804   1.831
 5245SOL    HW116634   3.064   3.782   1.848
 5245SOL    HW216635   3.193   3.755   1.750
 5246SOL     OW16636   6.148   2.864   5.792
 5246SOL    HW116637   6.186   2.790   5.847
 5246SOL    HW216638   6.220   2.904   5.735
 5247SOL     OW16639   4.585   0.866   5.634
 5247SOL    HW116640   4.652   0.878   5.561
 5247SOL    HW216641   4.555   0.956   5.667
 5248SOL     OW16642   4.374   1.276   2.600
 5248SOL    HW116643   4.390   1.301   2.505
 5248SOL    HW216644   4.289   1.317   2.632
 5249SOL     OW16645   0.014   5.882   1.834
 5249SOL    HW116646   0.075   5.944   1.786
 5249SOL    HW216647   0.048   5.866   1.927
 5250SOL     OW16648   1.565   4.777   0.625
 5250SOL    HW116649   1.540   4.818   0.537
 5250SOL    HW216650   1.659   4.803   0.648
 5251SOL     OW16651   1.350   4.732   6.508
 5251SOL    HW116652   1.252   4.745   6.496
 5251SOL    HW216653   1.399   4.810   6.470
 5252SOL     OW16654   3.980   6.411   3.029
 5252SOL    HW116655   3.929   6.439   3.111
 5252SOL    HW216656   4.072   6.448   3.034
 5253SOL     OW16657   0.152   5.849   4.757
 5253SOL    HW116658   0.121   5.888   4.670
 5253SOL    HW216659   0.207   5.768   4.740
 5254SOL     OW16660   4.486   6.148   1.947
 5254SOL    HW116661   4.526   6.203   1.873
 5254SOL    HW216662   4.557   6.127   2.014
 5255SOL     OW16663   0.733   1.420   6.153
 5255SOL    HW116664   0.707   1.514   6.174
 5255SOL    HW216665   0.688   1.357   6.217
 5256SOL     OW16666   4.190   2.077   2.536
 5256SOL    HW116667   4.287   2.091   2.518
 5256SOL    HW216668   4.136   2.118   2.463
 5257SOL     OW16669   5.629   1.037   0.287
 5257SOL    HW116670   5.669   1.041   0.196
 5257SOL    HW216671   5.585   0.948   0.300
 5258SOL     OW16672   5.794   1.677   5.598
 5258SOL    HW116673   5.866   1.675   5.668
 5258SOL    HW216674   5.740   1.594   5.604
 5259SOL     OW16675   4.657   6.052   4.495
 5259SOL    HW116676   4.715   6.035   4.416
 5259SOL    HW216677   4.645   6.151   4.507
 5260SOL     OW16678   1.624   6.660   1.894
 5260SOL    HW116679   1.620   6.587   1.827
 5260SOL    HW216680   1.541   6.716   1.887
 5261SOL     OW16681   6.193   4.817   0.307
 5261SOL    HW116682   6.210   4.790   0.402
 5261SOL    HW216683   6.096   4.803   0.286
 5262SOL     OW16684   2.346   1.909   1.798
 5262SOL    HW116685   2.412   1.954   1.857
 5262SOL    HW216686   2.380   1.818   1.774
 5263SOL     OW16687   0.511   6.036   2.617
 5263SOL    HW116688   0.451   5.974   2.566
 5263SOL    HW216689   0.606   6.020   2.590
 5264SOL     OW16690   6.742   2.401   2.308
 5264SOL    HW116691   6.718   2.369   2.216
 5264SOL    HW216692   6.841   2.403   2.318
 5265SOL     OW16693   0.815   5.565   5.794
 5265SOL    HW116694   0.742   5.526   5.738
 5265SOL    HW216695   0.777   5.595   5.881
 5266SOL     OW16696   1.250   0.211   6.483
 5266SOL    HW116697   1.299   0.128   6.508
 5266SOL    HW216698   1.286   0.246   6.396
 5267SOL     OW16699   6.097   0.911   4.834
 5267SOL    HW116700   6.114   0.945   4.741
 5267SOL    HW216701   6.143   0.970   4.900
 5268SOL     OW16702   5.961   0.461   5.913
 5268SOL    HW116703   5.884   0.404   5.938
 5268SOL    HW216704   5.946   0.499   5.821
 5269SOL     OW16705   1.181   0.436   4.496
 5269SOL    HW116706   1.189   0.491   4.579
 5269SOL    HW216707   1.269   0.435   4.448
 5270SOL     OW16708   1.343   1.397   7.004
 5270SOL    HW116709   1.254   1.440   0.002
 5270SOL    HW216710   1.416   1.450   0.026
 5271SOL     OW16711   1.333   5.978   6.217
 5271SOL    HW116712   1.411   5.999   6.157
 5271SOL    HW216713   1.330   5.880   6.235
 5272SOL     OW16714   4.202   0.388   6.034
 5272SOL    HW116715   4.184   0.309   6.094
 5272SOL    HW216716   4.123   0.449   6.037
 5273SOL     OW16717   2.334   1.493   3.211
 5273SOL    HW116718   2.248   1.521   3.253
 5273SOL    HW216719   2.320   1.411   3.156
 5274SOL     OW16720   6.023   4.151   1.172
 5274SOL    HW116721   6.087   4.075   1.176
 5274SOL    HW216722   6.047   4.212   1.096
 5275SOL     OW16723   6.009   0.709   6.347
 5275SOL    HW116724   6.073   0.646   6.304
 5275SOL    HW216725   5.938   0.657   6.395
 5276SOL     OW16726   3.342   6.414   1.731
 5276SOL    HW116727   3.382   6.403   1.640
 5276SOL    HW216728   3.323   6.324   1.771
 5277SOL     OW16729   1.691   3.476   1.745
 5277SOL    HW116730   1.681   3.531   1.662
 5277SOL    HW216731   1.658   3.384   1.728
 5278SOL     OW16732   4.076   3.696   2.993
 5278SOL    HW116733   4.109   3.717   2.901
 5278SOL    HW216734   4.047   3.781   3.038
 5279SOL     OW16735   1.392   6.320   3.085
 5279SOL    HW116736   1.481   6.279   3.105
 5279SOL    HW216737   1.405   6.412   3.049
 5280SOL     OW16738   3.857   0.530   3.823
 5280SOL    HW116739   3.909   0.579   3.892
 5280SOL    HW216740   3.877   0.432   3.830
 5281SOL     OW16741   6.723   2.777   3.749
 5281SOL    HW116742   6.634   2.736   3.732
 5281SOL    HW216743   6.785   2.708   3.786
 5282SOL     OW16744   5.127   2.626   0.969
 5282SOL    HW116745   5.154   2.531   0.990
 5282SOL    HW216746   5.202   2.671   0.920
 5283SOL     OW16747   4.933   5.141   5.325
 5283SOL    HW116748   4.899   5.088   5.403
 5283SOL    HW216749   4.968   5.078   5.256
 5284SOL     OW16750   5.056   2.790   4.370
 5284SOL    HW116751   4.994   2.719   4.338
 5284SOL    HW216752   5.004   2.860   4.419
 5285SOL     OW16753   4.278   5.960   2.577
 5285SOL    HW116754   4.228   6.046   2.576
 5285SOL    HW216755   4.376   5.978   2.589
 5286SOL     OW16756   1.899   4.647   2.195
 5286SOL    HW116757   1.963   4.573   2.210
 5286SOL    HW216758   1.949   4.731   2.172
 5287SOL     OW16759   0.759   0.503   2.588
 5287SOL    HW116760   0.703   0.435   2.541
 5287SOL    HW216761   0.856   0.481   2.576
 5288SOL     OW16762   3.721   0.349   0.937
 5288SOL    HW116763   3.818   0.373   0.943
 5288SOL    HW216764   3.699   0.284   1.010
 5289SOL     OW16765   1.764   6.883   1.782
 5289SOL    HW116766   1.728   6.910   1.693
 5289SOL    HW216767   1.693   6.835   1.834
 5290SOL     OW16768   6.009   6.735   6.487
 5290SOL    HW116769   5.911   6.727   6.506
 5290SOL    HW216770   6.032   6.679   6.407
 5291SOL     OW16771   1.268   5.703   6.748
 5291SOL    HW116772   1.286   5.604   6.746
 5291SOL    HW216773   1.193   5.722   6.811
 5292SOL     OW16774   5.602   1.732   1.407
 5292SOL    HW116775   5.530   1.687   1.459
 5292SOL    HW216776   5.678   1.668   1.391
 5293SOL     OW16777   1.716   1.396   3.883
 5293SOL    HW116778   1.671   1.426   3.799
 5293SOL    HW216779   1.767   1.472   3.923
 5294SOL     OW16780   3.569   1.829   6.594
 5294SOL    HW116781   3.641   1.796   6.533
 5294SOL    HW216782   3.606   1.899   6.655
 5295SOL     OW16783   6.982   1.675   3.333
 5295SOL    HW116784   0.026   1.744   3.365
 5295SOL    HW216785   6.908   1.665   3.399
 5296SOL     OW16786   0.509   2.877   6.455
 5296SOL    HW116787   0.479   2.961   6.410
 5296SOL    HW216788   0.590   2.897   6.511
 5297SOL     OW16789   0.809   2.123   1.531
 5297SOL    HW116790   0.867   2.139   1.611
 5297SOL    HW216791   0.799   2.208   1.480
 5298SOL     OW16792   1.053   4.065   1.834
 5298SOL    HW116793   1.137   4.120   1.828
 5298SOL    HW216794   1.006   4.086   1.920
 5299SOL     OW16795   3.970   0.139   6.991
 5299SOL    HW116796   3.941   0.203   6.919
 5299SOL    HW216797   4.069   0.124   6.984
 5300SOL     OW16798   6.394   4.897   4.698
 5300SOL    HW116799   6.394   4.904   4.598
 5300SOL    HW216800   6.488   4.907   4.731
 5301SOL     OW16801   5.343   0.247   6.771
 5301SOL    HW116802   5.305   0.156   6.760
 5301SOL    HW216803   5.426   0.256   6.716
 5302SOL     OW16804   6.767   4.198   3.184
 5302SOL    HW116805   6.819   4.113   3.178
 5302SOL    HW216806   6.674   4.183   3.150
 5303SOL     OW16807   2.184   4.574   2.577
 5303SOL    HW116808   2.250   4.645   2.601
 5303SOL    HW216809   2.093   4.614   2.570
 5304SOL     OW16810   4.739   1.652   5.770
 5304SOL    HW116811   4.661   1.592   5.787
 5304SOL    HW216812   4.724   1.739   5.817
 5305SOL     OW16813   4.008   1.608   4.597
 5305SOL    HW116814   3.915   1.593   4.632
 5305SOL    HW216815   4.074   1.567   4.659
 5306SOL     OW16816   2.407   6.738   2.850
 5306SOL    HW116817   2.504   6.715   2.842
 5306SOL    HW216818   2.353   6.654   2.856
 5307SOL     OW16819   4.981   6.358   6.579
 5307SOL    HW116820   4.932   6.293   6.638
 5307SOL    HW216821   4.927   6.373   6.496
 5308SOL     OW16822   0.037   1.358   1.559
 5308SOL    HW116823   0.060   1.429   1.493
 5308SOL    HW216824   0.119   1.330   1.609
 5309SOL     OW16825   3.711   3.662   5.720
 5309SOL    HW116826   3.690   3.566   5.702
 5309SOL    HW216827   3.644   3.721   5.675
 5310SOL     OW16828   4.899   2.846   0.163
 5310SOL    HW116829   4.820   2.875   0.217
 5310SOL    HW216830   4.937   2.762   0.203
 5311SOL     OW16831   6.897   5.874   0.365
 5311SOL    HW116832   6.910   5.967   0.399
 5311SOL    HW216833   6.799   5.858   0.350
 5312SOL     OW16834   0.184   3.979   1.899
 5312SOL    HW116835   0.270   4.012   1.860
 5312SOL    HW216836   0.193   3.882   1.921
 5313SOL     OW16837   0.102   6.198   6.668
 5313SOL    HW116838   0.126   6.101   6.675
 5313SOL    HW216839   0.003   6.208   6.678
 5314SOL     OW16840   3.742   4.782   0.557
 5314SOL    HW116841   3.661   4.829   0.593
 5314SOL    HW216842   3.719   4.686   0.540
 5315SOL     OW16843   5.429   1.250   2.628
 5315SOL    HW116844   5.429   1.319   2.556
 5315SOL    HW216845   5.334   1.228   2.653
 5316SOL     OW16846   5.423   4.994   4.631
 5316SOL    HW116847   5.324   4.994   4.641
 5316SOL    HW216848   5.463   4.933   4.700
 5317SOL     OW16849   6.836   4.728   1.746
 5317SOL    HW116850   6.916   4.783   1.722
 5317SOL    HW216851   6.841   4.701   1.842
 5318SOL     OW16852   6.477   2.662   3.711
 5318SOL    HW116853   6.450   2.594   3.642
 5318SOL    HW216854   6.401   2.676   3.775
 5319SOL     OW16855   3.161   6.359   2.712
 5319SOL    HW116856   3.064   6.380   2.720
 5319SOL    HW216857   3.200   6.409   2.634
 5320SOL     OW16858   6.506   2.013   7.008
 5320SOL    HW116859   6.428   1.950   7.007
 5320SOL    HW216860   6.587   1.966   6.973
 5321SOL     OW16861   2.778   4.591   6.912
 5321SOL    HW116862   2.702   4.653   6.928
 5321SOL    HW216863   2.763   4.506   6.962
 5322SOL     OW16864   2.858   6.443   0.653
 5322SOL    HW116865   2.830   6.494   0.572
 5322SOL    HW216866   2.947   6.477   0.685
 5323SOL     OW16867   6.567   3.115   0.502
 5323SOL    HW116868   6.489   3.074   0.548
 5323SOL    HW216869   6.615   3.176   0.565
 5324SOL     OW16870   4.150   3.434   2.069
 5324SOL    HW116871   4.091   3.460   2.146
 5324SOL    HW216872   4.159   3.511   2.006
 5325SOL     OW16873   3.056   6.753   5.692
 5325SOL    HW116874   3.069   6.822   5.763
 5325SOL    HW216875   3.128   6.684   5.698
 5326SOL     OW16876   5.931   0.921   3.409
 5326SOL    HW116877   5.880   0.940   3.494
 5326SOL    HW216878   6.029   0.921   3.429
 5327SOL     OW16879   6.159   0.122   4.024
 5327SOL    HW116880   6.168   0.099   4.121
 5327SOL    HW216881   6.131   0.040   3.973
 5328SOL     OW16882   2.299   4.625   6.425
 5328SOL    HW116883   2.242   4.669   6.356
 5328SOL    HW216884   2.358   4.557   6.381
 5329SOL     OW16885   0.210   6.670   6.342
 5329SOL    HW116886   0.169   6.758   6.319
 5329SOL    HW216887   0.265   6.638   6.266
 5330SOL     OW16888   4.600   4.562   0.935
 5330SOL    HW116889   4.511   4.523   0.915
 5330SOL    HW216890   4.601   4.595   1.030
 5331SOL     OW16891   6.062   1.320   6.857
 5331SOL    HW116892   6.089   1.313   6.953
 5331SOL    HW216893   5.994   1.393   6.847
 5332SOL     OW16894   6.720   3.301   0.043
 5332SOL    HW116895   6.792   3.251   0.092
 5332SOL    HW216896   6.664   3.237   7.011
 5333SOL     OW16897   0.406   6.516   4.114
 5333SOL    HW116898   0.307   6.525   4.102
 5333SOL    HW216899   0.451   6.601   4.087
 5334SOL     OW16900   3.372   5.810   1.027
 5334SOL    HW116901   3.442   5.837   1.093
 5334SOL    HW216902   3.355   5.712   1.035
 5335SOL     OW16903   0.261   5.502   1.997
 5335SOL    HW116904   0.328   5.440   2.037
 5335SOL    HW216905   0.305   5.588   1.972
 5336SOL     OW16906   1.053   3.178   5.327
 5336SOL    HW116907   0.992   3.246   5.369
 5336SOL    HW216908   1.089   3.215   5.241
 5337SOL     OW16909   6.276   1.822   0.838
 5337SOL    HW116910   6.209   1.846   0.768
 5337SOL    HW216911   6.265   1.883   0.917
 5338SOL     OW16912   7.006   3.181   1.762
 5338SOL    HW116913   6.983   3.278   1.765
 5338SOL    HW216914   6.990   3.139   1.851
 5339SOL     OW16915   5.004   3.741   3.046
 5339SOL    HW116916   5.085   3.796   3.067
 5339SOL    HW216917   4.944   3.738   3.126
 5340SOL     OW16918   5.371   3.800   1.581
 5340SOL    HW116919   5.468   3.798   1.608
 5340SOL    HW216920   5.349   3.889   1.541
 5341SOL     OW16921   4.979   5.132   3.567
 5341SOL    HW116922   4.895   5.150   3.619
 5341SOL    HW216923   4.989   5.202   3.496
 5342SOL     OW16924   6.191   4.979   4.963
 5342SOL    HW116925   6.121   5.001   5.031
 5342SOL    HW216926   6.156   4.908   4.902
 5343SOL     OW16927   3.473   3.660   6.952
 5343SOL    HW116928   3.434   3.597   6.885
 5343SOL    HW216929   3.500   3.610   0.013
 5344SOL     OW16930   5.945   1.671   6.875
 5344SOL    HW116931   5.898   1.627   6.952
 5344SOL    HW216932   5.971   1.764   6.900
 5345SOL     OW16933   3.562   1.237   0.050
 5345SOL    HW116934   3.603   1.244   6.980
 5345SOL    HW216935   3.540   1.328   0.084
 5346SOL     OW16936   2.112   5.944   2.861
 5346SOL    HW116937   2.191   5.884   2.875
 5346SOL    HW216938   2.141   6.039   2.873
 5347SOL     OW16939   5.922   2.461   5.387
 5347SOL    HW116940   5.891   2.396   5.457
 5347SOL    HW216941   5.847   2.478   5.322
 5348SOL     OW16942   4.879   2.579   5.234
 5348SOL    HW116943   4.899   2.650   5.301
 5348SOL    HW216944   4.801   2.525   5.266
 5349SOL     OW16945   0.841   4.108   0.372
 5349SOL    HW116946   0.851   4.097   0.471
 5349SOL    HW216947   0.764   4.169   0.353
 5350SOL     OW16948   1.138   0.234   6.770
 5350SOL    HW116949   1.187   0.210   6.687
 5350SOL    HW216950   1.186   0.307   6.818
 5351SOL     OW16951   0.640   5.512   3.965
 5351SOL    HW116952   0.655   5.501   4.063
 5351SOL    HW216953   0.649   5.608   3.940
 5352SOL     OW16954   0.550   2.740   5.799
 5352SOL    HW116955   0.592   2.803   5.864
 5352SOL    HW216956   0.469   2.699   5.840
 5353SOL     OW16957   2.326   6.955   3.044
 5353SOL    HW116958   2.365   6.875   2.998
 5353SOL    HW216959   2.247   6.988   2.993
 5354SOL     OW16960   3.536   6.093   2.013
 5354SOL    HW116961   3.525   6.087   2.113
 5354SOL    HW216962   3.496   6.012   1.971
 5355SOL     OW16963   5.219   4.579   5.404
 5355SOL    HW116964   5.307   4.593   5.449
 5355SOL    HW216965   5.169   4.505   5.449
 5356SOL     OW16966   6.943   6.997   1.718
 5356SOL    HW116967   6.886   0.028   1.654
 5356SOL    HW216968   6.897   6.912   1.742
 5357SOL     OW16969   6.272   3.464   2.473
 5357SOL    HW116970   6.236   3.500   2.559
 5357SOL    HW216971   6.196   3.450   2.409
 5358SOL     OW16972   5.758   0.096   6.629
 5358SOL    HW116973   5.822   0.064   6.559
 5358SOL    HW216974   5.807   0.153   6.695
 5359SOL     OW16975   3.489   2.150   6.811
 5359SOL    HW116976   3.453   2.171   6.720
 5359SOL    HW216977   3.503   2.235   6.862
 5360SOL     OW16978   5.141   5.817   3.438
 5360SOL    HW116979   5.205   5.747   3.406
 5360SOL    HW216980   5.105   5.791   3.527
 5361SOL     OW16981   1.344   3.975   2.596
 5361SOL    HW116982   1.439   4.002   2.576
 5361SOL    HW216983   1.345   3.886   2.643
 5362SOL     OW16984   5.993   1.619   3.838
 5362SOL    HW116985   6.034   1.529   3.822
 5362SOL    HW216986   5.922   1.612   3.907
 5363SOL     OW16987   6.682   4.893   5.584
 5363SOL    HW116988   6.711   4.982   5.550
 5363SOL    HW216989   6.763   4.839   5.608
 5364SOL     OW16990   4.943   2.459   1.322
 5364SOL    HW116991   5.009   2.399   1.368
 5364SOL    HW216992   4.939   2.436   1.225
 5365SOL     OW16993   3.537   3.277   6.098
 5365SOL    HW116994   3.552   3.204   6.031
 5365SOL    HW216995   3.618   3.287   6.156
 5366SOL     OW16996   0.154   4.298   3.967
 5366SOL    HW116997   0.202   4.243   4.035
 5366SOL    HW216998   0.164   4.256   3.877
 5367SOL     OW16999   6.132   6.191   1.219
 5367SOL    HW117000   6.181   6.261   1.270
 5367SOL    HW217001   6.181   6.170   1.135
 5368SOL     OW17002   0.220   5.682   5.300
 5368SOL    HW117003   0.180   5.746   5.367
 5368SOL    HW217004   0.290   5.627   5.345
 5369SOL     OW17005   3.411   0.083   2.354
 5369SOL    HW117006   3.361   0.102   2.439
 5369SOL    HW217007   3.489   0.024   2.373
 5370SOL     OW17008   2.506   1.823   0.254
 5370SOL    HW117009   2.574   1.816   0.181
 5370SOL    HW217010   2.551   1.813   0.343
 5371SOL     OW17011   6.335   5.151   3.666
 5371SOL    HW117012   6.307   5.056   3.652
 5371SOL    HW217013   6.276   5.193   3.735
 5372SOL     OW17014   0.227   0.569   4.269
 5372SOL    HW117015   0.186   0.646   4.318
 5372SOL    HW217016   0.326   0.583   4.260
 5373SOL     OW17017   4.109   6.948   0.470
 5373SOL    HW117018   4.123   0.025   0.458
 5373SOL    HW217019   4.164   6.916   0.547
 5374SOL     OW17020   1.397   3.739   1.166
 5374SOL    HW117021   1.371   3.807   1.099
 5374SOL    HW217022   1.456   3.781   1.235
 5375SOL     OW17023   2.599   5.591   4.723
 5375SOL    HW117024   2.507   5.620   4.749
 5375SOL    HW217025   2.606   5.492   4.731
 5376SOL     OW17026   0.196   6.741   2.389
 5376SOL    HW117027   0.211   6.642   2.388
 5376SOL    HW217028   0.247   6.784   2.314
 5377SOL     OW17029   1.155   2.922   2.123
 5377SOL    HW117030   1.070   2.975   2.115
 5377SOL    HW217031   1.168   2.869   2.039
 5378SOL     OW17032   4.658   0.046   3.659
 5378SOL    HW117033   4.585   7.016   3.613
 5378SOL    HW217034   4.668   0.013   3.753
 5379SOL     OW17035   3.022   2.204   4.333
 5379SOL    HW117036   3.074   2.205   4.418
 5379SOL    HW217037   3.084   2.184   4.256
 5380SOL     OW17038   4.546   6.793   1.648
 5380SOL    HW117039   4.599   6.798   1.563
 5380SOL    HW217040   4.583   6.720   1.706
 5381SOL     OW17041   2.837   1.993   2.532
 5381SOL    HW117042   2.762   2.001   2.468
 5381SOL    HW217043   2.890   2.078   2.533
 5382SOL     OW17044   4.845   0.447   2.722
 5382SOL    HW117045   4.786   0.500   2.662
 5382SOL    HW217046   4.940   0.475   2.708
 5383SOL     OW17047   2.326   4.243   5.290
 5383SOL    HW117048   2.360   4.166   5.237
 5383SOL    HW217049   2.402   4.305   5.311
 5384SOL     OW17050   5.299   6.307   5.604
 5384SOL    HW117051   5.396   6.305   5.629
 5384SOL    HW217052   5.252   6.376   5.659
 5385SOL     OW17053   3.436   3.824   0.610
 5385SOL    HW117054   3.448   3.885   0.688
 5385SOL    HW217055   3.525   3.794   0.577
 5386SOL     OW17056   4.680   4.945   3.129
 5386SOL    HW117057   4.662   4.859   3.081
 5386SOL    HW217058   4.618   5.015   3.096
 5387SOL     OW17059   0.767   2.439   5.388
 5387SOL    HW117060   0.822   2.479   5.315
 5387SOL    HW217061   0.673   2.426   5.357
 5388SOL     OW17062   6.575   6.888   3.314
 5388SOL    HW117063   6.553   6.808   3.371
 5388SOL    HW217064   6.530   6.969   3.351
 5389SOL     OW17065   6.241   1.396   4.785
 5389SOL    HW117066   6.161   1.418   4.730
 5389SOL    HW217067   6.318   1.452   4.756
 5390SOL     OW17068   5.689   3.132   3.190
 5390SOL    HW117069   5.740   3.070   3.130
 5390SOL    HW217070   5.597   3.147   3.153
 5391SOL     OW17071   4.721   3.270   0.615
 5391SOL    HW117072   4.726   3.292   0.713
 5391SOL    HW217073   4.649   3.324   0.573
 5392SOL     OW17074   5.495   0.921   3.978
 5392SOL    HW117075   5.494   0.908   4.077
 5392SOL    HW217076   5.450   1.008   3.956
 5393SOL     OW17077   5.075   3.266   2.862
 5393SOL    HW117078   5.103   3.340   2.801
 5393SOL    HW217079   5.051   3.185   2.809
 5394SOL     OW17080   0.226   3.148   3.149
 5394SOL    HW117081   0.130   3.126   3.167
 5394SOL    HW217082   0.231   3.209   3.070
 5395SOL     OW17083   0.107   0.791   1.699
 5395SOL    HW117084   0.021   0.803   1.649
 5395SOL    HW217085   0.159   0.876   1.698
 5396SOL     OW17086   3.989   2.345   0.411
 5396SOL    HW117087   4.073   2.375   0.456
 5396SOL    HW217088   3.971   2.404   0.332
 5397SOL     OW17089   0.630   6.738   3.079
 5397SOL    HW117090   0.670   6.660   3.125
 5397SOL    HW217091   0.702   6.806   3.059
 5398SOL     OW17092   5.448   2.374   2.980
 5398SOL    HW117093   5.435   2.366   3.079
 5398SOL    HW217094   5.359   2.382   2.935
 5399SOL     OW17095   2.789   2.649   0.527
 5399SOL    HW117096   2.747   2.739   0.527
 5399SOL    HW217097   2.771   2.603   0.440
 5400SOL     OW17098   5.282   3.020   0.490
 5400SOL    HW117099   5.231   2.947   0.534
 5400SOL    HW217100   5.232   3.106   0.498
 5401SOL     OW17101   5.275   4.400   1.213
 5401SOL    HW117102   5.175   4.395   1.219
 5401SOL    HW217103   5.308   4.474   1.271
 5402SOL     OW17104   2.330   5.632   1.871
 5402SOL    HW117105   2.397   5.602   1.803
 5402SOL    HW217106   2.243   5.653   1.825
 5403SOL     OW17107   6.039   2.705   5.587
 5403SOL    HW117108   6.007   2.618   5.623
 5403SOL    HW217109   6.074   2.761   5.662
 5404SOL     OW17110   4.670   6.351   0.314
 5404SOL    HW117111   4.716   6.438   0.328
 5404SOL    HW217112   4.573   6.361   0.336
 5405SOL     OW17113   6.620   5.100   6.189
 5405SOL    HW117114   6.613   5.092   6.090
 5405SOL    HW217115   6.637   5.195   6.214
 5406SOL     OW17116   1.521   1.128   5.375
 5406SOL    HW117117   1.521   1.110   5.473
 5406SOL    HW217118   1.453   1.199   5.355
 5407SOL     OW17119   1.985   1.442   2.626
 5407SOL    HW117120   1.924   1.437   2.547
 5407SOL    HW217121   1.932   1.432   2.710
 5408SOL     OW17122   2.220   2.429   4.833
 5408SOL    HW117123   2.266   2.371   4.766
 5408SOL    HW217124   2.188   2.513   4.787
 5409SOL     OW17125   6.885   4.727   3.567
 5409SOL    HW117126   6.818   4.679   3.511
 5409SOL    HW217127   6.912   4.670   3.645
 5410SOL     OW17128   5.837   1.493   0.063
 5410SOL    HW117129   5.918   1.459   0.111
 5410SOL    HW217130   5.769   1.420   0.056
 5411SOL     OW17131   3.178   6.184   2.070
 5411SOL    HW117132   3.106   6.116   2.085
 5411SOL    HW217133   3.234   6.191   2.153
 5412SOL     OW17134   2.057   1.920   6.090
 5412SOL    HW117135   2.022   2.013   6.091
 5412SOL    HW217136   2.153   1.920   6.115
 5413SOL     OW17137   0.035   5.355   5.582
 5413SOL    HW117138   7.020   5.296   5.654
 5413SOL    HW217139   0.124   5.391   5.610
 5414SOL     OW17140   5.959   5.901   5.955
 5414SOL    HW117141   5.985   5.900   6.051
 5414SOL    HW217142   6.040   5.911   5.898
 5415SOL     OW17143   1.778   1.105   0.378
 5415SOL    HW117144   1.726   1.029   0.339
 5415SOL    HW217145   1.777   1.099   0.477
 5416SOL     OW17146   3.856   4.988   6.164
 5416SOL    HW117147   3.793   4.966   6.238
 5416SOL    HW217148   3.931   5.043   6.199
 5417SOL     OW17149   5.485   0.459   1.360
 5417SOL    HW117150   5.454   0.491   1.450
 5417SOL    HW217151   5.417   0.397   1.322
 5418SOL     OW17152   0.336   2.657   5.202
 5418SOL    HW117153   0.352   2.755   5.212
 5418SOL    HW217154   0.286   2.623   5.282
 5419SOL     OW17155   3.641   2.199   6.138
 5419SOL    HW117156   3.606   2.245   6.057
 5419SOL    HW217157   3.709   2.257   6.183
 5420SOL     OW17158   2.024   1.776   1.081
 5420SOL    HW117159   2.025   1.818   0.991
 5420SOL    HW217160   2.003   1.679   1.073
 5421SOL     OW17161   3.932   5.631   0.936
 5421SOL    HW117162   3.842   5.652   0.896
 5421SOL    HW217163   3.935   5.666   1.030
 5422SOL     OW17164   2.374   6.613   3.265
 5422SOL    HW117165   2.468   6.647   3.265
 5422SOL    HW217166   2.311   6.691   3.257
 5423SOL     OW17167   4.380   6.745   2.668
 5423SOL    HW117168   4.393   6.658   2.622
 5423SOL    HW217169   4.336   6.730   2.756
 5424SOL     OW17170   3.615   3.444   5.407
 5424SOL    HW117171   3.646   3.374   5.342
 5424SOL    HW217172   3.627   3.411   5.500
 5425SOL     OW17173   2.040   5.418   5.178
 5425SOL    HW117174   2.058   5.488   5.108
 5425SOL    HW217175   2.077   5.449   5.265
 5426SOL     OW17176   1.693   4.173   6.895
 5426SOL    HW117177   1.749   4.216   6.966
 5426SOL    HW217178   1.709   4.219   6.808
 5427SOL     OW17179   4.839   1.952   0.509
 5427SOL    HW117180   4.763   1.923   0.567
 5427SOL    HW217181   4.886   1.871   0.473
 5428SOL     OW17182   4.360   5.790   2.888
 5428SOL    HW117183   4.441   5.755   2.937
 5428SOL    HW217184   4.350   5.741   2.802
 5429SOL     OW17185   2.790   6.392   3.644
 5429SOL    HW117186   2.811   6.483   3.680
 5429SOL    HW217187   2.830   6.322   3.703
 5430SOL     OW17188   1.034   4.093   5.397
 5430SOL    HW117189   1.131   4.071   5.408
 5430SOL    HW217190   0.981   4.042   5.465
 5431SOL     OW17191   5.572   4.239   1.150
 5431SOL    HW117192   5.502   4.192   1.204
 5431SOL    HW217193   5.553   4.225   1.053
 5432SOL     OW17194   1.884   5.433   5.801
 5432SOL    HW117195   1.811   5.394   5.745
 5432SOL    HW217196   1.954   5.364   5.818
 5433SOL     OW17197   2.016   6.729   1.209
 5433SOL    HW117198   2.115   6.719   1.200
 5433SOL    HW217199   1.989   6.709   1.303
 5434SOL     OW17200   5.191   5.622   4.555
 5434SOL    HW117201   5.241   5.541   4.588
 5434SOL    HW217202   5.239   5.705   4.584
 5435SOL     OW17203   0.456   3.359   0.262
 5435SOL    HW117204   0.363   3.323   0.265
 5435SOL    HW217205   0.514   3.296   0.211
 5436SOL     OW17206   1.051   4.476   0.975
 5436SOL    HW117207   1.081   4.474   0.880
 5436SOL    HW217208   1.059   4.385   1.015
 5437SOL     OW17209   3.088   6.212   6.346
 5437SOL    HW117210   3.176   6.217   6.299
 5437SOL    HW217211   3.026   6.152   6.295
 5438SOL     OW17212   5.056   6.256   2.709
 5438SOL    HW117213   5.122   6.259   2.783
 5438SOL    HW217214   5.021   6.348   2.691
 5439SOL     OW17215   1.014   3.793   1.815
 5439SOL    HW117216   0.924   3.769   1.849
 5439SOL    HW217217   1.032   3.890   1.834
 5440SOL     OW17218   5.635   6.261   3.244
 5440SOL    HW117219   5.697   6.339   3.244
 5440SOL    HW217220   5.579   6.262   3.327
 5441SOL     OW17221   5.097   0.401   4.997
 5441SOL    HW117222   5.148   0.316   4.999
 5441SOL    HW217223   4.999   0.381   5.000
 5442SOL     OW17224   2.810   6.805   0.281
 5442SOL    HW117225   2.818   6.900   0.253
 5442SOL    HW217226   2.855   6.746   0.213
 5443SOL     OW17227   6.034   1.241   3.236
 5443SOL    HW117228   5.978   1.171   3.192
 5443SOL    HW217229   6.131   1.219   3.224
 5444SOL     OW17230   1.457   1.749   6.467
 5444SOL    HW117231   1.515   1.831   6.465
 5444SOL    HW217232   1.498   1.678   6.409
 5445SOL     OW17233   6.064   6.234   4.995
 5445SOL    HW117234   6.058   6.318   4.942
 5445SOL    HW217235   6.098   6.160   4.937
 5446SOL     OW17236   2.233   4.127   0.076
 5446SOL    HW117237   2.254   4.218   0.041
 5446SOL    HW217238   2.184   4.075   0.006
 5447SOL     OW17239   5.741   2.434   1.594
 5447SOL    HW117240   5.762   2.408   1.500
 5447SOL    HW217241   5.776   2.364   1.657
 5448SOL     OW17242   5.837   5.253   1.527
 5448SOL    HW117243   5.842   5.337   1.580
 5448SOL    HW217244   5.742   5.224   1.518
 5449SOL     OW17245   2.045   0.172   2.589
 5449SOL    HW117246   2.052   0.080   2.551
 5449SOL    HW217247   1.950   0.203   2.584
 5450SOL     OW17248   4.404   4.736   1.609
 5450SOL    HW117249   4.496   4.704   1.589
 5450SOL    HW217250   4.358   4.672   1.670
 5451SOL     OW17251   0.829   5.458   3.538
 5451SOL    HW117252   0.859   5.517   3.613
 5451SOL    HW217253   0.729   5.466   3.527
 5452SOL     OW17254   2.149   3.627   3.255
 5452SOL    HW117255   2.148   3.723   3.226
 5452SOL    HW217256   2.187   3.571   3.181
 5453SOL     OW17257   5.901   5.525   4.104
 5453SOL    HW117258   5.812   5.508   4.147
 5453SOL    HW217259   5.888   5.550   4.009
 5454SOL     OW17260   6.316   3.507   2.117
 5454SOL    HW117261   6.358   3.493   2.028
 5454SOL    HW217262   6.388   3.528   2.184
 5455SOL     OW17263   2.257   2.937   2.704
 5455SOL    HW117264   2.211   2.853   2.731
 5455SOL    HW217265   2.224   2.967   2.615
 5456SOL     OW17266   5.289   2.633   0.162
 5456SOL    HW117267   5.229   2.632   0.242
 5456SOL    HW217268   5.300   2.540   0.127
 5457SOL     OW17269   5.881   1.371   0.372
 5457SOL    HW117270   5.911   1.320   0.453
 5457SOL    HW217271   5.918   1.328   0.290
 5458SOL     OW17272   6.370   4.511   5.862
 5458SOL    HW117273   6.279   4.530   5.899
 5458SOL    HW217274   6.410   4.433   5.911
 5459SOL     OW17275   2.423   3.643   5.411
 5459SOL    HW117276   2.371   3.729   5.402
 5459SOL    HW217277   2.362   3.566   5.397
 5460SOL     OW17278   7.014   1.103   1.467
 5460SOL    HW117279   0.087   1.074   1.449
 5460SOL    HW217280   7.016   1.193   1.512
 5461SOL     OW17281   5.819   0.545   6.474
 5461SOL    HW117282   5.897   0.549   6.538
 5461SOL    HW217283   5.734   0.544   6.526
 5462SOL     OW17284   5.416   4.841   6.839
 5462SOL    HW117285   5.448   4.829   6.745
 5462SOL    HW217286   5.424   4.937   6.865
 5463SOL     OW17287   2.538   4.733   6.966
 5463SOL    HW117288   2.489   4.668   6.908
 5463SOL    HW217289   2.474   4.777   0.007
 5464SOL     OW17290   2.243   5.916   3.890
 5464SOL    HW117291   2.230   5.963   3.803
 5464SOL    HW217292   2.159   5.866   3.913
 5465SOL     OW17293   0.832   1.221   4.759
 5465SOL    HW117294   0.772   1.195   4.835
 5465SOL    HW217295   0.921   1.178   4.770
 5466SOL     OW17296   5.359   2.470   4.998
 5466SOL    HW117297   5.321   2.560   5.018
 5466SOL    HW217298   5.419   2.475   4.918
 5467SOL     OW17299   5.340   4.203   4.005
 5467SOL    HW117300   5.324   4.212   3.907
 5467SOL    HW217301   5.307   4.114   4.036
 5468SOL     OW17302   0.359   2.850   1.093
 5468SOL    HW117303   0.422   2.790   1.143
 5468SOL    HW217304   0.411   2.917   1.040
 5469SOL     OW17305   4.498   1.273   3.267
 5469SOL    HW117306   4.479   1.349   3.329
 5469SOL    HW217307   4.422   1.263   3.203
 5470SOL     OW17308   2.802   4.789   4.081
 5470SOL    HW117309   2.721   4.750   4.126
 5470SOL    HW217310   2.789   4.786   3.982
 5471SOL     OW17311   5.065   0.565   4.214
 5471SOL    HW117312   5.024   0.602   4.131
 5471SOL    HW217313   5.135   0.498   4.190
 5472SOL     OW17314   2.903   3.975   6.921
 5472SOL    HW117315   2.962   3.899   6.949
 5472SOL    HW217316   2.958   4.042   6.871
 5473SOL     OW17317   2.891   4.798   2.201
 5473SOL    HW117318   2.868   4.726   2.136
 5473SOL    HW217319   2.988   4.821   2.192
 5474SOL     OW17320   0.882   4.886   1.915
 5474SOL    HW117321   0.875   4.937   1.829
 5474SOL    HW217322   0.848   4.942   1.990
 5475SOL     OW17323   1.019   1.028   5.425
 5475SOL    HW117324   1.001   0.940   5.468
 5475SOL    HW217325   1.085   1.080   5.481
 5476SOL     OW17326   2.770   1.125   4.720
 5476SOL    HW117327   2.679   1.155   4.749
 5476SOL    HW217328   2.833   1.127   4.797
 5477SOL     OW17329   2.202   3.997   3.503
 5477SOL    HW117330   2.186   3.929   3.575
 5477SOL    HW217331   2.290   4.042   3.518
 5478SOL     OW17332   6.433   3.587   5.861
 5478SOL    HW117333   6.455   3.575   5.764
 5478SOL    HW217334   6.385   3.507   5.895
 5479SOL     OW17335   5.346   4.014   4.375
 5479SOL    HW117336   5.293   4.099   4.374
 5479SOL    HW217337   5.422   4.021   4.311
 5480SOL     OW17338   1.427   2.968   6.332
 5480SOL    HW117339   1.512   3.002   6.292
 5480SOL    HW217340   1.446   2.929   6.422
 5481SOL     OW17341   4.319   1.515   0.453
 5481SOL    HW117342   4.400   1.474   0.494
 5481SOL    HW217343   4.260   1.444   0.416
 5482SOL     OW17344   5.248   4.621   2.242
 5482SOL    HW117345   5.237   4.702   2.299
 5482SOL    HW217346   5.330   4.630   2.185
 5483SOL     OW17347   5.629   1.846   0.602
 5483SOL    HW117348   5.628   1.901   0.519
 5483SOL    HW217349   5.700   1.776   0.595
 5484SOL     OW17350   6.310   0.577   6.177
 5484SOL    HW117351   6.334   0.673   6.163
 5484SOL    HW217352   6.304   0.531   6.089
 5485SOL     OW17353   2.869   0.673   4.409
 5485SOL    HW117354   2.849   0.712   4.498
 5485SOL    HW217355   2.922   0.738   4.354
 5486SOL     OW17356   0.085   0.475   3.979
 5486SOL    HW117357   0.163   0.508   3.926
 5486SOL    HW217358   0.087   0.517   4.070
 5487SOL     OW17359   4.269   5.216   1.137
 5487SOL    HW117360   4.303   5.306   1.163
 5487SOL    HW217361   4.293   5.198   1.041
 5488SOL     OW17362   4.808   0.523   6.355
 5488SOL    HW117363   4.800   0.597   6.288
 5488SOL    HW217364   4.822   0.436   6.308
 5489SOL     OW17365   6.462   3.947   2.683
 5489SOL    HW117366   6.473   4.046   2.683
 5489SOL    HW217367   6.383   3.923   2.741
 5490SOL     OW17368   2.947   0.963   6.502
 5490SOL    HW117369   2.885   0.915   6.564
 5490SOL    HW217370   2.925   1.061   6.501
 5491SOL     OW17371   6.257   6.409   1.388
 5491SOL    HW117372   6.181   6.471   1.407
 5491SOL    HW217373   6.341   6.447   1.426
 5492SOL     OW17374   1.041   1.507   4.942
 5492SOL    HW117375   0.968   1.496   4.874
 5492SOL    HW217376   1.130   1.494   4.898
 5493SOL     OW17377   4.269   1.401   7.011
 5493SOL    HW117378   4.287   1.448   0.076
 5493SOL    HW217379   4.188   1.343   0.001
 5494SOL     OW17380   5.223   3.093   2.494
 5494SOL    HW117381   5.294   3.030   2.526
 5494SOL    HW217382   5.265   3.164   2.437
 5495SOL     OW17383   3.182   3.043   4.292
 5495SOL    HW117384   3.179   3.109   4.367
 5495SOL    HW217385   3.143   3.085   4.209
 5496SOL     OW17386   4.619   4.944   2.269
 5496SOL    HW117387   4.549   4.873   2.262
 5496SOL    HW217388   4.612   4.989   2.359
 5497SOL     OW17389   5.043   0.222   0.033
 5497SOL    HW117390   5.131   0.268   0.047
 5497SOL    HW217391   4.995   0.265   6.977
 5498SOL     OW17392   4.506   1.451   4.332
 5498SOL    HW117393   4.556   1.367   4.354
 5498SOL    HW217394   4.438   1.432   4.261
 5499SOL     OW17395   0.124   0.635   5.355
 5499SOL    HW117396   0.164   0.555   5.400
 5499SOL    HW217397   0.164   0.719   5.393
 5500SOL     OW17398   1.995   6.186   0.963
 5500SOL    HW117399   1.985   6.268   0.908
 5500SOL    HW217400   2.000   6.106   0.904
 5501SOL     OW17401   2.550   0.720   1.771
 5501SOL    HW117402   2.589   0.803   1.732
 5501SOL    HW217403   2.601   0.695   1.853
 5502SOL     OW17404   4.960   4.355   0.535
 5502SOL    HW117405   5.009   4.398   0.610
 5502SOL    HW217406   4.924   4.267   0.564
 5503SOL     OW17407   6.747   0.250   3.955
 5503SOL    HW117408   6.676   0.320   3.949
 5503SOL    HW217409   6.807   0.257   3.875
 5504SOL     OW17410   2.745   2.299   4.624
 5504SOL    HW117411   2.812   2.247   4.677
 5504SOL    HW217412   2.756   2.278   4.527
 5505SOL     OW17413   3.401   5.006   0.482
 5505SOL    HW117414   3.307   5.042   0.481
 5505SOL    HW217415   3.400   4.910   0.454
 5506SOL     OW17416   0.944   6.609   5.193
 5506SOL    HW117417   0.993   6.642   5.112
 5506SOL    HW217418   0.846   6.620   5.179
 5507SOL     OW17419   2.387   5.623   4.984
 5507SOL    HW117420   2.382   5.692   5.056
 5507SOL    HW217421   2.367   5.665   4.896
 5508SOL     OW17422   1.869   1.041   4.964
 5508SOL    HW117423   1.899   1.129   5.003
 5508SOL    HW217424   1.941   0.973   4.979
 5509SOL     OW17425   0.177   0.159   6.007
 5509SOL    HW117426   0.178   0.086   5.938
 5509SOL    HW217427   0.272   0.184   6.029
 5510SOL     OW17428   0.784   6.832   4.940
 5510SOL    HW117429   0.805   6.882   4.856
 5510SOL    HW217430   0.724   6.887   4.998
 5511SOL     OW17431   0.419   2.550   1.140
 5511SOL    HW117432   0.325   2.542   1.175
 5511SOL    HW217433   0.422   2.622   1.071
 5512SOL     OW17434   6.229   0.262   0.431
 5512SOL    HW117435   6.232   0.240   0.528
 5512SOL    HW217436   6.320   0.248   0.390
 5513SOL     OW17437   3.167   5.902   4.291
 5513SOL    HW117438   3.073   5.909   4.257
 5513SOL    HW217439   3.195   5.806   4.290
 5514SOL     OW17440   5.864   6.101   3.264
 5514SOL    HW117441   5.789   6.161   3.234
 5514SOL    HW217442   5.921   6.149   3.331
 5515SOL     OW17443   0.232   3.688   3.200
 5515SOL    HW117444   0.180   3.770   3.224
 5515SOL    HW217445   0.326   3.714   3.177
 5516SOL     OW17446   1.723   2.688   0.244
 5516SOL    HW117447   1.655   2.762   0.238
 5516SOL    HW217448   1.811   2.727   0.269
 5517SOL     OW17449   3.120   1.050   1.921
 5517SOL    HW117450   3.021   1.046   1.915
 5517SOL    HW217451   3.152   1.140   1.892
 5518SOL     OW17452   5.466   3.589   5.757
 5518SOL    HW117453   5.437   3.604   5.851
 5518SOL    HW217454   5.394   3.619   5.694
 5519SOL     OW17455   5.542   5.189   2.545
 5519SOL    HW117456   5.635   5.210   2.575
 5519SOL    HW217457   5.477   5.249   2.592
 5520SOL     OW17458   1.400   2.968   0.903
 5520SOL    HW117459   1.395   2.993   0.807
 5520SOL    HW217460   1.333   3.022   0.955
 5521SOL     OW17461   5.532   4.477   6.005
 5521SOL    HW117462   5.476   4.481   5.922
 5521SOL    HW217463   5.525   4.386   6.045
 5522SOL     OW17464   1.563   2.468   1.715
 5522SOL    HW117465   1.527   2.538   1.778
 5522SOL    HW217466   1.569   2.380   1.763
 5523SOL     OW17467   3.140   6.405   1.401
 5523SOL    HW117468   3.112   6.457   1.321
 5523SOL    HW217469   3.237   6.381   1.394
 5524SOL     OW17470   6.377   6.713   5.725
 5524SOL    HW117471   6.377   6.706   5.625
 5524SOL    HW217472   6.302   6.772   5.754
 5525SOL     OW17473   6.290   6.509   3.345
 5525SOL    HW117474   6.362   6.566   3.384
 5525SOL    HW217475   6.330   6.441   3.284
 5526SOL     OW17476   5.700   3.155   4.524
 5526SOL    HW117477   5.771   3.120   4.585
 5526SOL    HW217478   5.732   3.238   4.479
 5527SOL     OW17479   2.592   3.522   6.910
 5527SOL    HW117480   2.594   3.578   6.827
 5527SOL    HW217481   2.560   3.430   6.888
 5528SOL     OW17482   6.799   2.931   2.455
 5528SOL    HW117483   6.731   2.936   2.528
 5528SOL    HW217484   6.776   2.855   2.394
 5529SOL     OW17485   1.267   0.855   4.004
 5529SOL    HW117486   1.262   0.926   4.075
 5529SOL    HW217487   1.327   0.885   3.930
 5530SOL     OW17488   6.936   3.119   6.814
 5530SOL    HW117489   6.885   3.037   6.840
 5530SOL    HW217490   6.872   3.191   6.788
 5531SOL     OW17491   2.836   3.243   0.249
 5531SOL    HW117492   2.761   3.224   0.186
 5531SOL    HW217493   2.874   3.334   0.230
 5532SOL     OW17494   2.932   2.626   1.393
 5532SOL    HW117495   2.894   2.545   1.347
 5532SOL    HW217496   2.881   2.645   1.476
 5533SOL     OW17497   3.217   0.335   1.145
 5533SOL    HW117498   3.271   0.398   1.091
 5533SOL    HW217499   3.189   0.257   1.089
 5534SOL     OW17500   0.652   3.257   5.244
 5534SOL    HW117501   0.726   3.239   5.309
 5534SOL    HW217502   0.682   3.235   5.152
 5535SOL     OW17503   4.901   4.554   3.852
 5535SOL    HW117504   4.997   4.575   3.839
 5535SOL    HW217505   4.884   4.530   3.948
 5536SOL     OW17506   2.358   1.106   4.240
 5536SOL    HW117507   2.391   1.064   4.155
 5536SOL    HW217508   2.277   1.162   4.221
 5537SOL     OW17509   3.736   0.956   3.735
 5537SOL    HW117510   3.657   1.007   3.703
 5537SOL    HW217511   3.794   0.931   3.657
 5538SOL     OW17512   5.126   2.238   2.077
 5538SOL    HW117513   5.069   2.311   2.115
 5538SOL    HW217514   5.182   2.198   2.149
 5539SOL     OW17515   1.796   0.638   6.464
 5539SOL    HW117516   1.720   0.687   6.421
 5539SOL    HW217517   1.786   0.642   6.564
 5540SOL     OW17518   5.164   0.026   5.456
 5540SOL    HW117519   5.134   0.040   5.362
 5540SOL    HW217520   5.207   6.957   5.464
 5541SOL     OW17521   4.382   2.618   5.786
 5541SOL    HW117522   4.293   2.582   5.758
 5541SOL    HW217523   4.454   2.577   5.730
 5542SOL     OW17524   4.936   4.275   6.128
 5542SOL    HW117525   4.845   4.237   6.147
 5542SOL    HW217526   4.980   4.300   6.214
 5543SOL     OW17527   0.673   0.024   6.378
 5543SOL    HW117528   0.757   6.993   6.365
 5543SOL    HW217529   0.661   0.089   6.303
 5544SOL     OW17530   3.441   5.124   0.050
 5544SOL    HW117531   3.512   5.175   0.099
 5544SOL    HW217532   3.365   5.104   0.112
 5545SOL     OW17533   5.751   1.708   2.779
 5545SOL    HW117534   5.850   1.694   2.785
 5545SOL    HW217535   5.709   1.693   2.869
 5546SOL     OW17536   0.452   5.771   4.379
 5546SOL    HW117537   0.399   5.689   4.402
 5546SOL    HW217538   0.391   5.841   4.343
 5547SOL     OW17539   5.389   1.501   5.093
 5547SOL    HW117540   5.366   1.544   5.181
 5547SOL    HW217541   5.319   1.435   5.068
 5548SOL     OW17542   0.963   3.472   5.132
 5548SOL    HW117543   0.896   3.459   5.058
 5548SOL    HW217544   0.922   3.444   5.219
 5549SOL     OW17545   3.797   2.757   0.856
 5549SOL    HW117546   3.816   2.838   0.801
 5549SOL    HW217547   3.874   2.738   0.916
 5550SOL     OW17548   2.582   3.715   1.609
 5550SOL    HW117549   2.643   3.792   1.625
 5550SOL    HW217550   2.595   3.681   1.516
 5551SOL     OW17551   1.732   4.693   2.405
 5551SOL    HW117552   1.773   4.649   2.325
 5551SOL    HW217553   1.643   4.651   2.423
 5552SOL     OW17554   0.954   0.680   0.321
 5552SOL    HW117555   1.048   0.715   0.318
 5552SOL    HW217556   0.945   0.602   0.259
 5553SOL     OW17557   5.284   6.724   0.170
 5553SOL    HW117558   5.271   6.681   0.081
 5553SOL    HW217559   5.376   6.764   0.175
 5554SOL     OW17560   6.654   2.372   1.635
 5554SOL    HW117561   6.565   2.387   1.592
 5554SOL    HW217562   6.658   2.418   1.723
 5555SOL     OW17563   1.699   4.975   2.345
 5555SOL    HW117564   1.776   4.970   2.282
 5555SOL    HW217565   1.678   4.883   2.379
 5556SOL     OW17566   6.955   1.358   4.701
 5556SOL    HW117567   6.998   1.355   4.610
 5556SOL    HW217568   6.873   1.414   4.696
 5557SOL     OW17569   3.388   6.723   2.779
 5557SOL    HW117570   3.343   6.662   2.844
 5557SOL    HW217571   3.345   6.714   2.690
 5558SOL     OW17572   4.206   3.365   6.212
 5558SOL    HW117573   4.147   3.353   6.292
 5558SOL    HW217574   4.150   3.383   6.132
 5559SOL     OW17575   3.400   0.416   3.162
 5559SOL    HW117576   3.334   0.340   3.157
 5559SOL    HW217577   3.478   0.388   3.218
 5560SOL     OW17578   0.064   5.948   3.328
 5560SOL    HW117579   0.122   5.952   3.410
 5560SOL    HW217580   6.992   5.922   3.353
 5561SOL     OW17581   3.572   0.527   3.549
 5561SOL    HW117582   3.650   0.467   3.533
 5561SOL    HW217583   3.558   0.538   3.647
 5562SOL     OW17584   4.436   3.205   0.694
 5562SOL    HW117585   4.463   3.300   0.707
 5562SOL    HW217586   4.513   3.153   0.657
 5563SOL     OW17587   2.182   4.667   2.027
 5563SOL    HW117588   2.221   4.669   1.935
 5563SOL    HW217589   2.155   4.574   2.050
 5564SOL     OW17590   4.655   0.078   6.059
 5564SOL    HW117591   4.616   7.007   6.065
 5564SOL    HW217592   4.590   0.145   6.095
 5565SOL     OW17593   3.663   1.285   6.502
 5565SOL    HW117594   3.710   1.264   6.417
 5565SOL    HW217595   3.610   1.205   6.531
 5566SOL     OW17596   1.683   5.334   5.634
 5566SOL    HW117597   1.657   5.411   5.575
 5566SOL    HW217598   1.630   5.253   5.608
 5567SOL     OW17599   0.905   5.019   6.959
 5567SOL    HW117600   0.835   4.971   7.011
 5567SOL    HW217601   0.864   5.066   6.881
 5568SOL     OW17602   5.106   5.433   1.859
 5568SOL    HW117603   5.121   5.475   1.769
 5568SOL    HW217604   5.176   5.466   1.923
 5569SOL     OW17605   2.207   1.971   2.470
 5569SOL    HW117606   2.196   1.998   2.374
 5569SOL    HW217607   2.260   2.040   2.518
 5570SOL     OW17608   6.383   3.753   1.486
 5570SOL    HW117609   6.295   3.786   1.521
 5570SOL    HW217610   6.449   3.828   1.488
 5571SOL     OW17611   6.622   4.537   0.466
 5571SOL    HW117612   6.627   4.581   0.376
 5571SOL    HW217613   6.680   4.587   0.530
 5572SOL     OW17614   1.183   4.387   5.071
 5572SOL    HW117615   1.126   4.330   5.012
 5572SOL    HW217616   1.239   4.329   5.130
 5573SOL     OW17617   3.478   5.023   3.745
 5573SOL    HW117618   3.405   4.957   3.760
 5573SOL    HW217619   3.566   4.976   3.740
 5574SOL     OW17620   1.187   1.252   6.257
 5574SOL    HW117621   1.101   1.210   6.285
 5574SOL    HW217622   1.203   1.234   6.160
 5575SOL     OW17623   7.018   0.834   2.015
 5575SOL    HW117624   0.092   0.861   1.999
 5575SOL    HW217625   7.013   0.735   2.027
 5576SOL     OW17626   1.745   4.744   3.760
 5576SOL    HW117627   1.666   4.762   3.819
 5576SOL    HW217628   1.725   4.668   3.699
 5577SOL     OW17629   2.518   2.606   6.455
 5577SOL    HW117630   2.557   2.679   6.512
 5577SOL    HW217631   2.586   2.575   6.389
 5578SOL     OW17632   3.861   4.005   4.164
 5578SOL    HW117633   3.766   3.983   4.146
 5578SOL    HW217634   3.908   4.022   4.077
 5579SOL     OW17635   5.864   3.340   1.575
 5579SOL    HW117636   5.854   3.331   1.476
 5579SOL    HW217637   5.945   3.289   1.605
 5580SOL     OW17638   5.496   1.984   5.436
 5580SOL    HW117639   5.582   2.015   5.398
 5580SOL    HW217640   5.513   1.913   5.504
 5581SOL     OW17641   1.352   1.284   6.717
 5581SOL    HW117642   1.339   1.340   6.636
 5581SOL    HW217643   1.393   1.339   6.790
 5582SOL     OW17644   3.021   2.234   6.174
 5582SOL    HW117645   3.104   2.251   6.122
 5582SOL    HW217646   3.026   2.282   6.262
 5583SOL     OW17647   6.242   6.833   0.706
 5583SOL    HW117648   6.276   6.749   0.747
 5583SOL    HW217649   6.296   6.854   0.624
 5584SOL     OW17650   1.528   2.921   4.657
 5584SOL    HW117651   1.627   2.915   4.644
 5584SOL    HW217652   1.503   3.012   4.689
 5585SOL     OW17653   5.942   4.718   1.418
 5585SOL    HW117654   5.895   4.660   1.351
 5585SOL    HW217655   5.949   4.811   1.383
 5586SOL     OW17656   0.880   5.352   1.521
 5586SOL    HW117657   0.902   5.254   1.527
 5586SOL    HW217658   0.932   5.403   1.589
 5587SOL     OW17659   6.429   0.717   5.800
 5587SOL    HW117660   6.337   0.708   5.763
 5587SOL    HW217661   6.493   0.663   5.745
 5588SOL     OW17662   3.514   6.900   0.581
 5588SOL    HW117663   3.464   6.875   0.498
 5588SOL    HW217664   3.450   6.939   0.647
 5589SOL     OW17665   6.816   4.247   5.866
 5589SOL    HW117666   6.745   4.178   5.884
 5589SOL    HW217667   6.897   4.226   5.920
 5590SOL     OW17668   6.009   5.255   3.582
 5590SOL    HW117669   6.036   5.350   3.593
 5590SOL    HW217670   6.013   5.230   3.485
 5591SOL     OW17671   5.110   1.468   2.152
 5591SOL    HW117672   5.061   1.405   2.092
 5591SOL    HW217673   5.077   1.458   2.246
 5592SOL     OW17674   0.223   5.359   3.830
 5592SOL    HW117675   0.139   5.360   3.884
 5592SOL    HW217676   0.201   5.342   3.734
 5593SOL     OW17677   1.121   4.179   0.572
 5593SOL    HW117678   1.032   4.133   0.577
 5593SOL    HW217679   1.188   4.126   0.624
 5594SOL     OW17680   6.104   1.271   5.655
 5594SOL    HW117681   6.028   1.334   5.663
 5594SOL    HW217682   6.151   1.263   5.743
 5595SOL     OW17683   0.657   2.140   0.747
 5595SOL    HW117684   0.629   2.079   0.673
 5595SOL    HW217685   0.606   2.117   0.830
 5596SOL     OW17686   3.768   6.126   3.233
 5596SOL    HW117687   3.857   6.080   3.229
 5596SOL    HW217688   3.731   6.133   3.140
 5597SOL     OW17689   5.227   3.184   1.673
 5597SOL    HW117690   5.194   3.147   1.587
 5597SOL    HW217691   5.204   3.121   1.748
 5598SOL     OW17692   4.089   0.773   4.292
 5598SOL    HW117693   4.087   0.715   4.373
 5598SOL    HW217694   4.161   0.742   4.229
 5599SOL     OW17695   0.790   1.307   3.596
 5599SOL    HW117696   0.752   1.398   3.614
 5599SOL    HW217697   0.724   1.237   3.622
 5600SOL     OW17698   2.703   2.806   5.354
 5600SOL    HW117699   2.634   2.838   5.289
 5600SOL    HW217700   2.776   2.874   5.361
 5601SOL     OW17701   2.423   0.760   6.518
 5601SOL    HW117702   2.384   0.852   6.518
 5601SOL    HW217703   2.385   0.707   6.442
 5602SOL     OW17704   2.186   0.734   6.978
 5602SOL    HW117705   2.107   0.674   6.970
 5602SOL    HW217706   2.253   0.712   6.907
 5603SOL     OW17707   6.236   4.024   5.430
 5603SOL    HW117708   6.272   3.992   5.342
 5603SOL    HW217709   6.145   4.064   5.416
 5604SOL     OW17710   5.092   0.575   6.206
 5604SOL    HW117711   5.087   0.659   6.151
 5604SOL    HW217712   5.002   0.555   6.245
 5605SOL     OW17713   0.537   1.730   6.676
 5605SOL    HW117714   0.570   1.767   6.589
 5605SOL    HW217715   0.603   1.665   6.713
 5606SOL     OW17716   5.652   0.600   3.064
 5606SOL    HW117717   5.576   0.547   3.026
 5606SOL    HW217718   5.708   0.542   3.122
 5607SOL     OW17719   5.041   0.502   1.170
 5607SOL    HW117720   5.033   0.535   1.076
 5607SOL    HW217721   5.000   0.411   1.177
 5608SOL     OW17722   3.873   6.588   5.123
 5608SOL    HW117723   3.936   6.572   5.198
 5608SOL    HW217724   3.911   6.549   5.039
 5609SOL     OW17725   1.424   5.676   5.585
 5609SOL    HW117726   1.498   5.718   5.532
 5609SOL    HW217727   1.421   5.717   5.676
 5610SOL     OW17728   4.413   0.160   6.726
 5610SOL    HW117729   4.418   0.124   6.633
 5610SOL    HW217730   4.346   0.235   6.730
 5611SOL     OW17731   1.907   3.970   4.361
 5611SOL    HW117732   1.904   4.016   4.450
 5611SOL    HW217733   1.990   3.916   4.354
 5612SOL     OW17734   3.386   6.274   4.883
 5612SOL    HW117735   3.358   6.293   4.977
 5612SOL    HW217736   3.400   6.360   4.835
 5613SOL     OW17737   3.275   5.381   1.768
 5613SOL    HW117738   3.267   5.420   1.860
 5613SOL    HW217739   3.193   5.403   1.716
 5614SOL     OW17740   5.139   1.833   4.446
 5614SOL    HW117741   5.145   1.922   4.402
 5614SOL    HW217742   5.221   1.818   4.502
 5615SOL     OW17743   1.192   1.681   1.728
 5615SOL    HW117744   1.152   1.593   1.754
 5615SOL    HW217745   1.290   1.671   1.715
 5616SOL     OW17746   2.176   6.412   5.407
 5616SOL    HW117747   2.246   6.446   5.470
 5616SOL    HW217748   2.220   6.362   5.332
 5617SOL     OW17749   0.635   0.945   5.801
 5617SOL    HW117750   0.699   0.870   5.817
 5617SOL    HW217751   0.544   0.908   5.781
 5618SOL     OW17752   6.335   5.177   2.677
 5618SOL    HW117753   6.258   5.235   2.704
 5618SOL    HW217754   6.403   5.232   2.628
 5619SOL     OW17755   2.122   3.896   5.193
 5619SOL    HW117756   2.194   3.951   5.151
 5619SOL    HW217757   2.117   3.807   5.147
 5620SOL     OW17758   5.037   1.798   6.898
 5620SOL    HW117759   5.018   1.885   6.943
 5620SOL    HW217760   5.118   1.807   6.840
 5621SOL     OW17761   2.493   1.929   6.938
 5621SOL    HW117762   2.471   2.025   6.953
 5621SOL    HW217763   2.571   1.923   6.875
 5622SOL     OW17764   5.717   0.067   5.257
 5622SOL    HW117765   5.650   0.070   5.331
 5622SOL    HW217766   5.681   0.012   5.182
 5623SOL     OW17767   6.969   5.930   6.848
 5623SOL    HW117768   6.938   6.023   6.830
 5623SOL    HW217769   6.963   5.910   6.946
 5624SOL     OW17770   0.500   4.019   1.894
 5624SOL    HW117771   0.494   3.942   1.957
 5624SOL    HW217772   0.595   4.031   1.866
 5625SOL     OW17773   6.293   1.843   5.818
 5625SOL    HW117774   6.304   1.913   5.747
 5625SOL    HW217775   6.200   1.848   5.855
 5626SOL     OW17776   5.431   6.897   5.152
 5626SOL    HW117777   5.420   6.992   5.125
 5626SOL    HW217778   5.352   6.844   5.121
 5627SOL     OW17779   1.141   0.557   1.131
 5627SOL    HW117780   1.181   0.646   1.109
 5627SOL    HW217781   1.154   0.494   1.054
 5628SOL     OW17782   1.666   1.650   4.209
 5628SOL    HW117783   1.678   1.736   4.258
 5628SOL    HW217784   1.755   1.608   4.195
 5629SOL     OW17785   3.363   2.901   3.578
 5629SOL    HW117786   3.363   2.814   3.530
 5629SOL    HW217787   3.394   2.974   3.517
 5630SOL     OW17788   6.503   3.752   0.585
 5630SOL    HW117789   6.451   3.830   0.551
 5630SOL    HW217790   6.579   3.784   0.641
 5631SOL     OW17791   5.710   0.957   6.285
 5631SOL    HW117792   5.776   0.921   6.351
 5631SOL    HW217793   5.757   1.017   6.220
 5632SOL     OW17794   3.233   2.167   0.360
 5632SOL    HW117795   3.176   2.245   0.388
 5632SOL    HW217796   3.239   2.102   0.435
 5633SOL     OW17797   6.727   3.094   5.583
 5633SOL    HW117798   6.762   3.014   5.534
 5633SOL    HW217799   6.731   3.077   5.681
 5634SOL     OW17800   4.595   6.414   4.850
 5634SOL    HW117801   4.631   6.326   4.878
 5634SOL    HW217802   4.516   6.401   4.791
 5635SOL     OW17803   3.272   1.487   6.039
 5635SOL    HW117804   3.352   1.510   6.094
 5635SOL    HW217805   3.302   1.448   5.952
 5636SOL     OW17806   4.414   6.756   4.369
 5636SOL    HW117807   4.451   6.668   4.338
 5636SOL    HW217808   4.489   6.815   4.399
 5637SOL     OW17809   5.772   0.042   3.320
 5637SOL    HW117810   5.747   0.068   3.413
 5637SOL    HW217811   5.713   6.987   3.290
 5638SOL     OW17812   0.047   3.876   0.147
 5638SOL    HW117813   0.109   3.955   0.139
 5638SOL    HW217814   0.100   3.792   0.139
 5639SOL     OW17815   4.469   6.679   0.237
 5639SOL    HW117816   4.406   6.602   0.228
 5639SOL    HW217817   4.536   6.676   0.164
 5640SOL     OW17818   1.212   0.103   3.201
 5640SOL    HW117819   1.250   0.080   3.291
 5640SOL    HW217820   1.259   0.183   3.164
 5641SOL     OW17821   6.972   5.093   4.862
 5641SOL    HW117822   7.020   5.148   4.930
 5641SOL    HW217823   6.888   5.056   4.902
 5642SOL     OW17824   1.591   0.962   0.201
 5642SOL    HW117825   1.529   0.887   0.219
 5642SOL    HW217826   1.540   1.048   0.198
 5643SOL     OW17827   5.578   1.649   6.024
 5643SOL    HW117828   5.649   1.597   5.976
 5643SOL    HW217829   5.584   1.746   5.998
 5644SOL     OW17830   2.654   0.493   6.049
 5644SOL    HW117831   2.564   0.537   6.046
 5644SOL    HW217832   2.643   0.394   6.057
 5645SOL     OW17833   5.868   3.900   4.106
 5645SOL    HW117834   5.792   3.927   4.047
 5645SOL    HW217835   5.928   3.836   4.057
 5646SOL     OW17836   0.477   4.390   2.723
 5646SOL    HW117837   0.537   4.433   2.656
 5646SOL    HW217838   0.529   4.324   2.777
 5647SOL     OW17839   5.010   5.943   2.786
 5647SOL    HW117840   5.044   5.987   2.870
 5647SOL    HW217841   4.953   6.008   2.736
 5648SOL     OW17842   5.110   6.233   3.482
 5648SOL    HW117843   5.125   6.331   3.466
 5648SOL    HW217844   5.158   6.181   3.412
 5649SOL     OW17845   0.513   0.272   4.589
 5649SOL    HW117846   0.597   0.268   4.535
 5649SOL    HW217847   0.536   0.268   4.686
 5650SOL     OW17848   6.985   3.635   6.175
 5650SOL    HW117849   7.001   3.712   6.113
 5650SOL    HW217850   0.022   3.646   6.256
 5651SOL     OW17851   2.796   1.164   0.881
 5651SOL    HW117852   2.809   1.110   0.964
 5651SOL    HW217853   2.708   1.142   0.840
 5652SOL     OW17854   0.527   5.633   2.714
 5652SOL    HW117855   0.548   5.536   2.718
 5652SOL    HW217856   0.476   5.660   2.796
 5653SOL     OW17857   6.777   0.642   2.827
 5653SOL    HW117858   6.723   0.559   2.838
 5653SOL    HW217859   6.755   0.707   2.900
 5654SOL     OW17860   3.362   6.017   5.690
 5654SOL    HW117861   3.389   6.021   5.786
 5654SOL    HW217862   3.410   6.087   5.638
 5655SOL     OW17863   5.659   3.013   4.308
 5655SOL    HW117864   5.576   3.052   4.268
 5655SOL    HW217865   5.677   3.057   4.396
 5656SOL     OW17866   0.226   3.859   0.750
 5656SOL    HW117867   0.258   3.810   0.669
 5656SOL    HW217868   0.128   3.874   0.744
 5657SOL     OW17869   5.898   5.965   4.971
 5657SOL    HW117870   5.985   5.947   5.017
 5657SOL    HW217871   5.881   5.895   4.902
 5658SOL     OW17872   2.720   2.543   6.293
 5658SOL    HW117873   2.745   2.451   6.325
 5658SOL    HW217874   2.758   2.557   6.201
 5659SOL     OW17875   2.478   4.434   6.356
 5659SOL    HW117876   2.467   4.381   6.440
 5659SOL    HW217877   2.563   4.486   6.361
 5660SOL     OW17878   3.423   0.050   4.557
 5660SOL    HW117879   3.504   7.013   4.549
 5660SOL    HW217880   3.418   0.111   4.478
 5661SOL     OW17881   0.680   5.705   6.363
 5661SOL    HW117882   0.670   5.687   6.265
 5661SOL    HW217883   0.681   5.803   6.379
 5662SOL     OW17884   3.021   6.420   0.973
 5662SOL    HW117885   2.922   6.417   0.970
 5662SOL    HW217886   3.057   6.427   0.880
 5663SOL     OW17887   2.799   2.336   6.476
 5663SOL    HW117888   2.770   2.396   6.551
 5663SOL    HW217889   2.754   2.247   6.485
 5664SOL     OW17890   4.876   5.058   4.179
 5664SOL    HW117891   4.911   5.002   4.254
 5664SOL    HW217892   4.880   5.005   4.094
 5665SOL     OW17893   1.937   0.875   0.956
 5665SOL    HW117894   1.975   0.865   1.048
 5665SOL    HW217895   1.979   0.807   0.895
 5666SOL     OW17896   5.889   3.119   4.742
 5666SOL    HW117897   5.858   3.024   4.747
 5666SOL    HW217898   5.989   3.121   4.744
 5667SOL     OW17899   3.068   4.850   4.177
 5667SOL    HW117900   2.984   4.814   4.137
 5667SOL    HW217901   3.056   4.861   4.276
 5668SOL     OW17902   4.193   4.714   3.870
 5668SOL    HW117903   4.248   4.661   3.805
 5668SOL    HW217904   4.137   4.781   3.820
 5669SOL     OW17905   5.840   4.584   5.903
 5669SOL    HW117906   5.763   4.532   5.941
 5669SOL    HW217907   5.813   4.625   5.816
 5670SOL     OW17908   1.132   2.586   4.216
 5670SOL    HW117909   1.081   2.500   4.229
 5670SOL    HW217910   1.176   2.612   4.302
 5671SOL     OW17911   6.228   6.076   2.742
 5671SOL    HW117912   6.214   6.009   2.815
 5671SOL    HW217913   6.274   6.032   2.665
 5672SOL     OW17914   5.330   3.464   4.144
 5672SOL    HW117915   5.254   3.478   4.207
 5672SOL    HW217916   5.413   3.503   4.184
 5673SOL     OW17917   0.274   2.339   0.441
 5673SOL    HW117918   0.296   2.282   0.362
 5673SOL    HW217919   0.343   2.326   0.512
 5674SOL     OW17920   2.723   5.395   5.316
 5674SOL    HW117921   2.673   5.332   5.258
 5674SOL    HW217922   2.755   5.473   5.261
 5675SOL     OW17923   3.064   2.181   0.980
 5675SOL    HW117924   3.038   2.161   0.886
 5675SOL    HW217925   3.029   2.110   1.041
 5676SOL     OW17926   3.926   1.582   1.740
 5676SOL    HW117927   3.966   1.657   1.791
 5676SOL    HW217928   3.828   1.575   1.762
 5677SOL     OW17929   1.046   1.484   6.196
 5677SOL    HW117930   1.061   1.385   6.190
 5677SOL    HW217931   1.017   1.507   6.289
 5678SOL     OW17932   4.039   1.982   2.144
 5678SOL    HW117933   4.130   1.945   2.158
 5678SOL    HW217934   3.971   1.923   2.187
 5679SOL     OW17935   0.065   3.916   5.815
 5679SOL    HW117936   0.133   3.921   5.742
 5679SOL    HW217937   6.995   3.924   5.775
 5680SOL     OW17938   0.631   5.630   4.944
 5680SOL    HW117939   0.555   5.583   4.899
 5680SOL    HW217940   0.601   5.660   5.035
 5681SOL     OW17941   1.191   3.536   3.225
 5681SOL    HW117942   1.231   3.543   3.317
 5681SOL    HW217943   1.149   3.623   3.201
 5682SOL     OW17944   1.872   4.649   0.835
 5682SOL    HW117945   1.853   4.725   0.773
 5682SOL    HW217946   1.814   4.658   0.916
 5683SOL     OW17947   0.086   0.209   5.669
 5683SOL    HW117948   0.111   0.135   5.731
 5683SOL    HW217949   7.007   0.217   5.664
 5684SOL     OW17950   1.877   2.961   5.147
 5684SOL    HW117951   1.814   2.884   5.142
 5684SOL    HW217952   1.971   2.928   5.158
 5685SOL     OW17953   2.045   1.733   1.777
 5685SOL    HW117954   1.945   1.738   1.773
 5685SOL    HW217955   2.084   1.809   1.725
 5686SOL     OW17956   5.796   6.086   5.581
 5686SOL    HW117957   5.825   6.090   5.485
 5686SOL    HW217958   5.785   5.991   5.609
 5687SOL     OW17959   1.606   0.068   6.566
 5687SOL    HW117960   1.513   0.034   6.553
 5687SOL    HW217961   1.635   0.052   6.661
 5688SOL     OW17962   1.767   2.010   2.967
 5688SOL    HW117963   1.770   1.951   2.886
 5688SOL    HW217964   1.771   2.105   2.939
 5689SOL     OW17965   0.150   2.559   1.238
 5689SOL    HW117966   0.071   2.607   1.199
 5689SOL    HW217967   0.126   2.525   1.329
 5690SOL     OW17968   2.933   5.444   0.198
 5690SOL    HW117969   3.013   5.486   0.241
 5690SOL    HW217970   2.872   5.515   0.164
 5691SOL     OW17971   4.594   2.569   3.233
 5691SOL    HW117972   4.680   2.564   3.283
 5691SOL    HW217973   4.524   2.518   3.282
 5692SOL     OW17974   6.381   4.887   1.707
 5692SOL    HW117975   6.291   4.886   1.664
 5692SOL    HW217976   6.449   4.856   1.640
 5693SOL     OW17977   3.290   0.868   2.562
 5693SOL    HW117978   3.213   0.850   2.624
 5693SOL    HW217979   3.350   0.789   2.559
 5694SOL     OW17980   0.289   0.273   1.162
 5694SOL    HW117981   0.264   0.192   1.110
 5694SOL    HW217982   0.379   0.306   1.132
 5695SOL     OW17983   2.209   1.162   2.103
 5695SOL    HW117984   2.212   1.068   2.070
 5695SOL    HW217985   2.144   1.169   2.179
 5696SOL     OW17986   6.967   0.313   3.801
 5696SOL    HW117987   0.010   0.249   3.758
 5696SOL    HW217988   7.016   0.397   3.826
 5697SOL     OW17989   6.319   1.823   0.351
 5697SOL    HW117990   6.393   1.875   0.395
 5697SOL    HW217991   6.350   1.730   0.335
 5698SOL     OW17992   2.989   2.267   3.284
 5698SOL    HW117993   3.089   2.261   3.283
 5698SOL    HW217994   2.950   2.182   3.249
 5699SOL     OW17995   2.634   2.450   2.395
 5699SOL    HW117996   2.683   2.433   2.481
 5699SOL    HW217997   2.670   2.389   2.324
 5700SOL     OW17998   5.638   0.001   2.588
 5700SOL    HW117999   5.714   7.013   2.653
 5700SOL    HW218000   5.645   0.088   2.540
 5701SOL     OW18001   1.827   0.279   0.959
 5701SOL    HW118002   1.792   0.188   0.979
 5701SOL    HW218003   1.770   0.322   0.888
 5702SOL     OW18004   1.455   6.272   5.192
 5702SOL    HW118005   1.474   6.230   5.103
 5702SOL    HW218006   1.447   6.200   5.261
 5703SOL     OW18007   1.145   2.764   6.292
 5703SOL    HW118008   1.109   2.696   6.228
 5703SOL    HW218009   1.235   2.795   6.261
 5704SOL     OW18010   4.189   5.689   4.409
 5704SOL    HW118011   4.209   5.747   4.488
 5704SOL    HW218012   4.149   5.603   4.442
 5705SOL     OW18013   5.640   1.137   5.045
 5705SOL    HW118014   5.731   1.096   5.038
 5705SOL    HW218015   5.645   1.219   5.102
 5706SOL     OW18016   5.502   1.411   1.071
 5706SOL    HW118017   5.475   1.364   0.986
 5706SOL    HW218018   5.581   1.364   1.111
 5707SOL     OW18019   5.910   5.770   1.154
 5707SOL    HW118020   5.853   5.729   1.082
 5707SOL    HW218021   6.004   5.738   1.143
 5708SOL     OW18022   5.167   6.392   2.175
 5708SOL    HW118023   5.129   6.306   2.142
 5708SOL    HW218024   5.216   6.377   2.261
 5709SOL     OW18025   0.574   3.266   2.318
 5709SOL    HW118026   0.580   3.166   2.310
 5709SOL    HW218027   0.491   3.290   2.370
 5710SOL     OW18028   5.226   1.660   0.921
 5710SOL    HW118029   5.324   1.663   0.903
 5710SOL    HW218030   5.194   1.566   0.916
 5711SOL     OW18031   4.292   1.478   1.896
 5711SOL    HW118032   4.295   1.472   1.796
 5711SOL    HW218033   4.320   1.570   1.924
 5712SOL     OW18034   6.478   6.363   6.730
 5712SOL    HW118035   6.523   6.439   6.684
 5712SOL    HW218036   6.454   6.390   6.823
 5713SOL     OW18037   1.236   1.548   1.029
 5713SOL    HW118038   1.283   1.633   1.051
 5713SOL    HW218039   1.155   1.539   1.087
 5714SOL     OW18040   5.960   0.517   0.890
 5714SOL    HW118041   6.028   0.517   0.818
 5714SOL    HW218042   5.879   0.567   0.860
 5715SOL     OW18043   6.845   6.613   1.165
 5715SOL    HW118044   6.854   6.571   1.255
 5715SOL    HW218045   6.822   6.710   1.175
 5716SOL     OW18046   0.731   4.581   5.571
 5716SOL    HW118047   0.776   4.661   5.531
 5716SOL    HW218048   0.684   4.529   5.499
 5717SOL     OW18049   6.909   5.474   3.427
 5717SOL    HW118050   6.990   5.525   3.457
 5717SOL    HW218051   6.880   5.506   3.337
 5718SOL     OW18052   1.094   4.324   0.322
 5718SOL    HW118053   1.091   4.273   0.235
 5718SOL    HW218054   1.052   4.268   0.394
 5719SOL     OW18055   3.387   3.219   0.633
 5719SOL    HW118056   3.289   3.224   0.618
 5719SOL    HW218057   3.433   3.288   0.578
 5720SOL     OW18058   2.959   4.970   6.317
 5720SOL    HW118059   3.035   4.966   6.382
 5720SOL    HW218060   2.923   4.877   6.302
 5721SOL     OW18061   1.049   3.283   0.652
 5721SOL    HW118062   0.998   3.197   0.649
 5721SOL    HW218063   1.069   3.306   0.747
 5722SOL     OW18064   1.610   0.479   5.726
 5722SOL    HW118065   1.684   0.511   5.667
 5722SOL    HW218066   1.522   0.503   5.684
 5723SOL     OW18067   4.023   3.470   0.247
 5723SOL    HW118068   3.971   3.387   0.227
 5723SOL    HW218069   3.988   3.512   0.331
 5724SOL     OW18070   6.029   1.879   5.907
 5724SOL    HW118071   5.953   1.864   5.844
 5724SOL    HW218072   6.008   1.839   5.996
 5725SOL     OW18073   0.089   4.479   4.877
 5725SOL    HW118074   0.019   4.541   4.911
 5725SOL    HW218075   0.054   4.431   4.796
 5726SOL     OW18076   4.432   4.778   2.158
 5726SOL    HW118077   4.339   4.804   2.186
 5726SOL    HW218078   4.427   4.718   2.077
 5727SOL     OW18079   1.399   3.137   5.854
 5727SOL    HW118080   1.487   3.107   5.891
 5727SOL    HW218081   1.415   3.190   5.770
 5728SOL     OW18082   3.084   6.645   4.763
 5728SOL    HW118083   3.026   6.607   4.835
 5728SOL    HW218084   3.149   6.709   4.803
 5729SOL     OW18085   3.135   1.927   4.503
 5729SOL    HW118086   3.100   1.919   4.410
 5729SOL    HW218087   3.135   2.023   4.532
 5730SOL     OW18088   6.369   4.466   5.171
 5730SOL    HW118089   6.273   4.439   5.164
 5730SOL    HW218090   6.383   4.554   5.126
 5731SOL     OW18091   0.476   6.780   2.433
 5731SOL    HW118092   0.570   6.801   2.405
 5731SOL    HW218093   0.412   6.826   2.372
 5732SOL     OW18094   5.179   0.248   3.545
 5732SOL    HW118095   5.107   0.178   3.541
 5732SOL    HW218096   5.137   0.338   3.552
 5733SOL     OW18097   3.000   1.142   5.087
 5733SOL    HW118098   3.011   1.093   5.174
 5733SOL    HW218099   3.057   1.099   5.017
 5734SOL     OW18100   1.462   6.660   4.043
 5734SOL    HW118101   1.403   6.739   4.059
 5734SOL    HW218102   1.432   6.583   4.099
 5735SOL     OW18103   2.843   1.068   1.149
 5735SOL    HW118104   2.927   1.070   1.203
 5735SOL    HW218105   2.776   1.008   1.194
 5736SOL     OW18106   1.808   4.862   0.698
 5736SOL    HW118107   1.899   4.887   0.665
 5736SOL    HW218108   1.772   4.936   0.754
 5737SOL     OW18109   6.058   4.186   6.986
 5737SOL    HW118110   6.063   4.280   0.000
 5737SOL    HW218111   6.137   4.134   7.018
 5738SOL     OW18112   0.339   5.104   4.272
 5738SOL    HW118113   0.416   5.041   4.286
 5738SOL    HW218114   0.365   5.195   4.304
 5739SOL     OW18115   0.659   2.889   0.821
 5739SOL    HW118116   0.751   2.885   0.783
 5739SOL    HW218117   0.649   2.819   0.892
 5740SOL     OW18118   4.121   5.246   0.288
 5740SOL    HW118119   4.205   5.217   0.336
 5740SOL    HW218120   4.122   5.211   0.195
 5741SOL     OW18121   0.536   2.989   2.303
 5741SOL    HW118122   0.437   2.993   2.308
 5741SOL    HW218123   0.574   2.982   2.395
 5742SOL     OW18124   0.624   5.274   3.798
 5742SOL    HW118125   0.634   5.352   3.860
 5742SOL    HW218126   0.580   5.305   3.714
 5743SOL     OW18127   0.943   6.494   5.473
 5743SOL    HW118128   0.890   6.520   5.392
 5743SOL    HW218129   1.037   6.526   5.463
 5744SOL     OW18130   6.387   0.452   1.758
 5744SOL    HW118131   6.342   0.526   1.708
 5744SOL    HW218132   6.464   0.489   1.810
 5745SOL     OW18133   6.659   3.510   2.793
 5745SOL    HW118134   6.706   3.560   2.865
 5745SOL    HW218135   6.574   3.472   2.829
 5746SOL     OW18136   0.170   4.458   6.126
 5746SOL    HW118137   0.163   4.364   6.160
 5746SOL    HW218138   0.088   4.509   6.154
 5747SOL     OW18139   0.091   6.189   3.691
 5747SOL    HW118140   0.001   6.146   3.698
 5747SOL    HW218141   0.159   6.121   3.664
 5748SOL     OW18142   1.230   0.600   4.122
 5748SOL    HW118143   1.161   0.620   4.191
 5748SOL    HW218144   1.253   0.683   4.072
 5749SOL     OW18145   0.501   0.762   3.297
 5749SOL    HW118146   0.590   0.719   3.314
 5749SOL    HW218147   0.496   0.849   3.345
 5750SOL     OW18148   5.695   6.971   2.274
 5750SOL    HW118149   5.751   0.027   2.302
 5750SOL    HW218150   5.678   6.912   2.353
 5751SOL     OW18151   0.890   2.346   6.482
 5751SOL    HW118152   0.984   2.376   6.494
 5751SOL    HW218153   0.854   2.313   6.570
 5752SOL     OW18154   1.775   1.234   6.872
 5752SOL    HW118155   1.756   1.324   6.835
 5752SOL    HW218156   1.840   1.242   6.947
 5753SOL     OW18157   4.438   1.227   6.880
 5753SOL    HW118158   4.384   1.300   6.922
 5753SOL    HW218159   4.382   1.178   6.814
 5754SOL     OW18160   6.248   5.747   0.903
 5754SOL    HW118161   6.196   5.684   0.845
 5754SOL    HW218162   6.225   5.730   0.999
 5755SOL     OW18163   3.279   3.650   1.641
 5755SOL    HW118164   3.293   3.594   1.559
 5755SOL    HW218165   3.362   3.648   1.697
 5756SOL     OW18166   6.185   0.038   4.276
 5756SOL    HW118167   6.279   0.039   4.308
 5756SOL    HW218168   6.138   6.977   4.308
 5757SOL     OW18169   6.355   6.185   1.544
 5757SOL    HW118170   6.322   6.146   1.630
 5757SOL    HW218171   6.300   6.265   1.520
 5758SOL     OW18172   2.964   0.671   5.676
 5758SOL    HW118173   3.043   0.657   5.736
 5758SOL    HW218174   2.883   0.630   5.717
 5759SOL     OW18175   0.794   0.742   5.888
 5759SOL    HW118176   0.717   0.677   5.890
 5759SOL    HW218177   0.869   0.702   5.835
 5760SOL     OW18178   0.018   5.913   1.149
 5760SOL    HW118179   6.995   5.992   1.191
 5760SOL    HW218180   6.987   5.885   1.068
 5761SOL     OW18181   4.371   0.968   3.868
 5761SOL    HW118182   4.350   0.985   3.964
 5761SOL    HW218183   4.310   0.897   3.833
 5762SOL     OW18184   5.050   6.556   1.464
 5762SOL    HW118185   4.996   6.478   1.434
 5762SOL    HW218186   5.147   6.532   1.464
 5763SOL     OW18187   3.411   1.047   0.444
 5763SOL    HW118188   3.364   1.061   0.531
 5763SOL    HW218189   3.420   0.948   0.427
 5764SOL     OW18190   3.585   2.820   6.607
 5764SOL    HW118191   3.634   2.896   6.651
 5764SOL    HW218192   3.620   2.807   6.514
 5765SOL     OW18193   0.019   5.567   7.019
 5765SOL    HW118194   6.940   5.554   7.018
 5765SOL    HW218195   0.050   5.579   0.092
 5766SOL     OW18196   2.179   1.628   2.751
 5766SOL    HW118197   2.129   1.563   2.695
 5766SOL    HW218198   2.219   1.581   2.829
 5767SOL     OW18199   5.030   6.377   0.365
 5767SOL    HW118200   4.986   6.357   0.452
 5767SOL    HW218201   5.123   6.339   0.364
 5768SOL     OW18202   6.081   6.618   1.747
 5768SOL    HW118203   6.009   6.562   1.788
 5768SOL    HW218204   6.170   6.586   1.780
 5769SOL     OW18205   0.308   4.536   3.131
 5769SOL    HW118206   0.244   4.607   3.100
 5769SOL    HW218207   0.401   4.562   3.106
 5770SOL     OW18208   5.194   2.490   1.701
 5770SOL    HW118209   5.158   2.568   1.753
 5770SOL    HW218210   5.226   2.420   1.765
 5771SOL     OW18211   1.005   0.889   1.961
 5771SOL    HW118212   1.011   0.904   1.862
 5771SOL    HW218213   1.090   0.920   2.005
 5772SOL     OW18214   6.499   5.759   5.801
 5772SOL    HW118215   6.547   5.703   5.733
 5772SOL    HW218216   6.464   5.701   5.874
 5773SOL     OW18217   5.271   6.259   4.565
 5773SOL    HW118218   5.282   6.312   4.481
 5773SOL    HW218219   5.207   6.184   4.549
 5774SOL     OW18220   1.850   4.978   1.975
 5774SOL    HW118221   1.903   4.929   1.906
 5774SOL    HW218222   1.908   4.998   2.054
 5775SOL     OW18223   1.006   0.840   0.904
 5775SOL    HW118224   1.092   0.833   0.953
 5775SOL    HW218225   0.933   0.867   0.967
 5776SOL     OW18226   4.966   1.052   6.061
 5776SOL    HW118227   4.993   1.147   6.074
 5776SOL    HW218228   4.883   1.033   6.114
 5777SOL     OW18229   5.938   6.458   4.454
 5777SOL    HW118230   5.884   6.497   4.380
 5777SOL    HW218231   5.878   6.442   4.533
 5778SOL     OW18232   2.616   0.023   3.941
 5778SOL    HW118233   2.579   0.108   3.978
 5778SOL    HW218234   2.541   6.984   3.913
 5779SOL     OW18235   4.042   0.245   2.169
 5779SOL    HW118236   4.101   0.192   2.108
 5779SOL    HW218237   4.047   0.342   2.143
 5780SOL     OW18238   6.847   4.547   0.126
 5780SOL    HW118239   6.816   4.452   0.120
 5780SOL    HW218240   6.784   4.598   0.185
 5781SOL     OW18241   4.061   3.953   5.563
 5781SOL    HW118242   4.058   4.053   5.566
 5781SOL    HW218243   3.986   3.915   5.616
 5782SOL     OW18244   4.980   2.008   2.885
 5782SOL    HW118245   4.881   2.018   2.894
 5782SOL    HW218246   5.016   2.086   2.834
 5783SOL     OW18247   3.307   6.204   3.363
 5783SOL    HW118248   3.243   6.256   3.420
 5783SOL    HW218249   3.344   6.128   3.416
 5784SOL     OW18250   1.077   6.216   1.773
 5784SOL    HW118251   1.171   6.191   1.798
 5784SOL    HW218252   1.069   6.316   1.772
 5785SOL     OW18253   2.563   1.741   6.317
 5785SOL    HW118254   2.640   1.801   6.295
 5785SOL    HW218255   2.489   1.795   6.357
 5786SOL     OW18256   2.087   1.775   6.671
 5786SOL    HW118257   2.087   1.792   6.572
 5786SOL    HW218258   2.181   1.770   6.704
 5787SOL     OW18259   0.925   2.144   5.769
 5787SOL    HW118260   0.951   2.059   5.814
 5787SOL    HW218261   0.995   2.214   5.787
 5788SOL     OW18262   0.666   2.604   1.770
 5788SOL    HW118263   0.753   2.583   1.727
 5788SOL    HW218264   0.592   2.588   1.705
 5789SOL     OW18265   3.080   0.123   0.642
 5789SOL    HW118266   3.050   0.093   0.551
 5789SOL    HW218267   3.042   0.063   0.712
 5790SOL     OW18268   6.325   6.472   2.521
 5790SOL    HW118269   6.327   6.381   2.481
 5790SOL    HW218270   6.232   6.492   2.553
 5791SOL     OW18271   4.167   0.642   1.186
 5791SOL    HW118272   4.076   0.678   1.165
 5791SOL    HW218273   4.163   0.583   1.266
 5792SOL     OW18274   4.364   2.358   2.579
 5792SOL    HW118275   4.413   2.443   2.600
 5792SOL    HW218276   4.343   2.309   2.664
 5793SOL     OW18277   4.474   2.452   0.633
 5793SOL    HW118278   4.413   2.383   0.671
 5793SOL    HW218279   4.504   2.514   0.705
 5794SOL     OW18280   3.257   6.487   6.870
 5794SOL    HW118281   3.166   6.480   6.910
 5794SOL    HW218282   3.298   6.396   6.866
 5795SOL     OW18283   1.173   1.255   1.827
 5795SOL    HW118284   1.097   1.314   1.854
 5795SOL    HW218285   1.222   1.297   1.751
 5796SOL     OW18286   4.676   0.569   5.985
 5796SOL    HW118287   4.584   0.548   5.952
 5796SOL    HW218288   4.743   0.538   5.918
 5797SOL     OW18289   6.265   1.840   0.021
 5797SOL    HW118290   6.293   1.862   0.115
 5797SOL    HW218291   6.283   1.744   0.003
 5798SOL     OW18292   1.835   2.630   4.854
 5798SOL    HW118293   1.844   2.600   4.759
 5798SOL    HW218294   1.915   2.685   4.879
 5799SOL     OW18295   3.016   0.392   4.251
 5799SOL    HW118296   2.969   0.377   4.164
 5799SOL    HW218297   2.953   0.432   4.318
 5800SOL     OW18298   1.784   6.274   1.839
 5800SOL    HW118299   1.865   6.218   1.821
 5800SOL    HW218300   1.719   6.221   1.894
 5801SOL     OW18301   1.736   2.433   3.073
 5801SOL    HW118302   1.704   2.526   3.055
 5801SOL    HW218303   1.658   2.372   3.086
 5802SOL     OW18304   0.034   0.133   3.026
 5802SOL    HW118305   0.107   0.157   2.961
 5802SOL    HW218306   0.026   0.033   3.030
 5803SOL     OW18307   0.174   6.216   4.359
 5803SOL    HW118308   0.149   6.219   4.456
 5803SOL    HW218309   0.141   6.298   4.313
 5804SOL     OW18310   6.044   2.260   3.409
 5804SOL    HW118311   6.100   2.302   3.337
 5804SOL    HW218312   5.947   2.277   3.390
 5805SOL     OW18313   0.777   2.633   1.220
 5805SOL    HW118314   0.701   2.595   1.272
 5805SOL    HW218315   0.747   2.715   1.172
 5806SOL     OW18316   6.412   4.226   1.717
 5806SOL    HW118317   6.388   4.317   1.749
 5806SOL    HW218318   6.331   4.167   1.723
 5807SOL     OW18319   0.893   0.788   2.861
 5807SOL    HW118320   0.821   0.857   2.856
 5807SOL    HW218321   0.852   0.697   2.859
 5808SOL     OW18322   6.595   5.966   5.942
 5808SOL    HW118323   6.603   5.941   6.038
 5808SOL    HW218324   6.567   5.886   5.889
 5809SOL     OW18325   6.754   3.385   4.745
 5809SOL    HW118326   6.773   3.381   4.647
 5809SOL    HW218327   6.655   3.383   4.759
 5810SOL     OW18328   1.126   6.395   5.134
 5810SOL    HW118329   1.209   6.448   5.154
 5810SOL    HW218330   1.046   6.441   5.172
 5811SOL     OW18331   3.230   4.739   0.166
 5811SOL    HW118332   3.144   4.783   0.141
 5811SOL    HW218333   3.274   4.702   0.084
 5812SOL     OW18334   6.445   2.553   6.114
 5812SOL    HW118335   6.428   2.474   6.173
 5812SOL    HW218336   6.480   2.629   6.168
 5813SOL     OW18337   6.493   5.648   1.305
 5813SOL    HW118338   6.531   5.582   1.241
 5813SOL    HW218339   6.523   5.740   1.281
 5814SOL     OW18340   5.063   1.967   2.466
 5814SOL    HW118341   5.006   2.027   2.410
 5814SOL    HW218342   5.023   1.875   2.467
 5815SOL     OW18343   6.577   4.257   5.173
 5815SOL    HW118344   6.513   4.334   5.166
 5815SOL    HW218345   6.549   4.185   5.110
 5816SOL     OW18346   0.127   4.399   1.244
 5816SOL    HW118347   0.072   4.330   1.197
 5816SOL    HW218348   0.159   4.467   1.177
 5817SOL     OW18349   6.185   2.834   4.058
 5817SOL    HW118350   6.098   2.877   4.083
 5817SOL    HW218351   6.253   2.852   4.129
 5818SOL     OW18352   2.556   0.485   4.570
 5818SOL    HW118353   2.498   0.567   4.574
 5818SOL    HW218354   2.502   0.408   4.536
 5819SOL     OW18355   3.935   4.009   1.301
 5819SOL    HW118356   4.001   3.968   1.237
 5819SOL    HW218357   3.959   3.984   1.394
 5820SOL     OW18358   0.854   6.586   2.341
 5820SOL    HW118359   0.914   6.638   2.402
 5820SOL    HW218360   0.768   6.566   2.389
 5821SOL     OW18361   5.276   5.924   2.038
 5821SOL    HW118362   5.263   5.858   1.963
 5821SOL    HW218363   5.343   5.992   2.011
 5822SOL     OW18364   0.872   3.943   3.350
 5822SOL    HW118365   0.912   4.016   3.295
 5822SOL    HW218366   0.942   3.907   3.413
 5823SOL     OW18367   2.734   6.522   5.278
 5823SOL    HW118368   2.691   6.449   5.224
 5823SOL    HW218369   2.757   6.487   5.368
 5824SOL     OW18370   2.435   5.533   2.420
 5824SOL    HW118371   2.492   5.480   2.357
 5824SOL    HW218372   2.339   5.522   2.395
 5825SOL     OW18373   3.745   2.108   4.144
 5825SOL    HW118374   3.783   2.066   4.061
 5825SOL    HW218375   3.804   2.088   4.222
 5826SOL     OW18376   1.292   6.014   5.234
 5826SOL    HW118377   1.231   6.067   5.293
 5826SOL    HW218378   1.253   5.922   5.220
 5827SOL     OW18379   1.899   3.981   4.013
 5827SOL    HW118380   1.813   3.938   3.987
 5827SOL    HW218381   1.883   4.049   4.084
 5828SOL     OW18382   4.508   0.295   5.416
 5828SOL    HW118383   4.462   0.345   5.490
 5828SOL    HW218384   4.452   0.217   5.390
 5829SOL     OW18385   1.869   1.386   2.872
 5829SOL    HW118386   1.786   1.373   2.926
 5829SOL    HW218387   1.946   1.408   2.933
 5830SOL     OW18388   5.146   5.022   4.658
 5830SOL    HW118389   5.072   4.991   4.597
 5830SOL    HW218390   5.156   5.121   4.650
 5831SOL     OW18391   2.607   1.995   4.542
 5831SOL    HW118392   2.630   2.084   4.502
 5831SOL    HW218393   2.678   1.928   4.517
 5832SOL     OW18394   2.471   4.818   3.202
 5832SOL    HW118395   2.547   4.789   3.261
 5832SOL    HW218396   2.415   4.885   3.250
 5833SOL     OW18397   2.414   4.593   1.283
 5833SOL    HW118398   2.451   4.684   1.262
 5833SOL    HW218399   2.320   4.602   1.317
 5834SOL     OW18400   5.781   1.509   5.873
 5834SOL    HW118401   5.844   1.470   5.939
 5834SOL    HW218402   5.771   1.448   5.795
 5835SOL     OW18403   3.785   0.891   4.046
 5835SOL    HW118404   3.794   0.940   3.959
 5835SOL    HW218405   3.818   0.949   4.121
 5836SOL     OW18406   5.373   4.926   1.080
 5836SOL    HW118407   5.364   4.999   1.012
 5836SOL    HW218408   5.295   4.928   1.142
 5837SOL     OW18409   1.936   4.261   0.051
 5837SOL    HW118410   1.992   4.323   0.105
 5837SOL    HW218411   1.942   4.286   6.975
 5838SOL     OW18412   2.871   3.246   0.528
 5838SOL    HW118413   2.839   3.153   0.545
 5838SOL    HW218414   2.846   3.273   0.435
 5839SOL     OW18415   2.469   1.463   0.977
 5839SOL    HW118416   2.568   1.471   0.992
 5839SOL    HW218417   2.439   1.536   0.916
 5840SOL     OW18418   6.129   3.988   2.168
 5840SOL    HW118419   6.142   3.889   2.164
 5840SOL    HW218420   6.122   4.017   2.263
 5841SOL     OW18421   5.184   2.148   0.829
 5841SOL    HW118422   5.211   2.066   0.777
 5841SOL    HW218423   5.086   2.164   0.816
 5842SOL     OW18424   3.686   2.113   2.300
 5842SOL    HW118425   3.751   2.037   2.307
 5842SOL    HW218426   3.676   2.139   2.204
 5843SOL     OW18427   2.956   2.419   0.918
 5843SOL    HW118428   2.877   2.455   0.967
 5843SOL    HW218429   2.983   2.332   0.958
 5844SOL     OW18430   6.843   5.517   5.512
 5844SOL    HW118431   6.801   5.468   5.436
 5844SOL    HW218432   6.917   5.461   5.550
 5845SOL     OW18433   1.904   6.240   3.024
 5845SOL    HW118434   1.886   6.319   2.964
 5845SOL    HW218435   2.001   6.238   3.048
 5846SOL     OW18436   0.831   4.242   4.789
 5846SOL    HW118437   0.852   4.337   4.812
 5846SOL    HW218438   0.757   4.240   4.722
 5847SOL     OW18439   2.270   4.157   5.558
 5847SOL    HW118440   2.294   4.142   5.462
 5847SOL    HW218441   2.211   4.084   5.590
 5848SOL     OW18442   3.133   6.549   1.173
 5848SOL    HW118443   3.088   6.519   1.089
 5848SOL    HW218444   3.232   6.552   1.159
 5849SOL     OW18445   2.853   5.921   6.456
 5849SOL    HW118446   2.816   5.830   6.473
 5849SOL    HW218447   2.941   5.931   6.502
 5850SOL     OW18448   4.956   2.111   1.254
 5850SOL    HW118449   4.879   2.105   1.317
 5850SOL    HW218450   4.949   2.195   1.200
 5851SOL     OW18451   1.517   2.831   5.566
 5851SOL    HW118452   1.592   2.855   5.627
 5851SOL    HW218453   1.444   2.789   5.619
 5852SOL     OW18454   4.358   5.043   3.228
 5852SOL    HW118455   4.331   4.947   3.224
 5852SOL    HW218456   4.341   5.079   3.320
 5853SOL     OW18457   4.471   4.580   0.107
 5853SOL    HW118458   4.467   4.480   0.106
 5853SOL    HW218459   4.537   4.610   0.176
 5854SOL     OW18460   2.755   4.614   5.369
 5854SOL    HW118461   2.772   4.707   5.403
 5854SOL    HW218462   2.817   4.595   5.293
 5855SOL     OW18463   1.608   2.052   4.745
 5855SOL    HW118464   1.566   2.120   4.805
 5855SOL    HW218465   1.536   2.003   4.695
 5856SOL     OW18466   0.454   0.935   1.823
 5856SOL    HW118467   0.532   0.990   1.793
 5856SOL    HW218468   0.475   0.838   1.812
 5857SOL     OW18469   6.201   5.437   6.827
 5857SOL    HW118470   6.219   5.536   6.830
 5857SOL    HW218471   6.142   5.417   6.748
 5858SOL     OW18472   3.249   1.647   1.899
 5858SOL    HW118473   3.167   1.701   1.878
 5858SOL    HW218474   3.275   1.594   1.818
 5859SOL     OW18475   6.093   5.149   1.550
 5859SOL    HW118476   5.998   5.158   1.521
 5859SOL    HW218477   6.102   5.068   1.608
 5860SOL     OW18478   1.739   2.966   1.809
 5860SOL    HW118479   1.836   2.950   1.822
 5860SOL    HW218480   1.696   2.988   1.897
 5861SOL     OW18481   5.205   0.157   4.949
 5861SOL    HW118482   5.300   0.128   4.937
 5861SOL    HW218483   5.148   0.112   4.880
 5862SOL     OW18484   0.061   4.809   1.663
 5862SOL    HW118485   0.107   4.727   1.696
 5862SOL    HW218486   0.127   4.884   1.656
 5863SOL     OW18487   4.196   6.640   6.305
 5863SOL    HW118488   4.117   6.648   6.366
 5863SOL    HW218489   4.280   6.642   6.360
 5864SOL     OW18490   3.641   3.217   3.713
 5864SOL    HW118491   3.717   3.282   3.715
 5864SOL    HW218492   3.565   3.253   3.767
 5865SOL     OW18493   6.569   6.225   1.270
 5865SOL    HW118494   6.483   6.268   1.245
 5865SOL    HW218495   6.594   6.251   1.363
 5866SOL     OW18496   3.342   3.563   4.474
 5866SOL    HW118497   3.385   3.653   4.477
 5866SOL    HW218498   3.381   3.509   4.399
 5867SOL     OW18499   4.761   0.729   0.940
 5867SOL    HW118500   4.777   0.751   0.844
 5867SOL    HW218501   4.700   0.797   0.981
 5868SOL     OW18502   1.605   0.872   1.302
 5868SOL    HW118503   1.545   0.831   1.370
 5868SOL    HW218504   1.687   0.815   1.292
 5869SOL     OW18505   1.908   5.221   3.726
 5869SOL    HW118506   1.860   5.265   3.651
 5869SOL    HW218507   2.000   5.194   3.697
 5870SOL     OW18508   3.872   6.400   3.702
 5870SOL    HW118509   3.823   6.452   3.773
 5870SOL    HW218510   3.808   6.372   3.631
 5871SOL     OW18511   3.504   3.060   3.194
 5871SOL    HW118512   3.480   3.077   3.289
 5871SOL    HW218513   3.587   3.111   3.171
 5872SOL     OW18514   3.758   5.086   1.309
 5872SOL    HW118515   3.710   5.000   1.289
 5872SOL    HW218516   3.836   5.095   1.248
 5873SOL     OW18517   4.247   6.901   2.471
 5873SOL    HW118518   4.288   6.992   2.470
 5873SOL    HW218519   4.280   6.850   2.551
 5874SOL     OW18520   0.185   4.099   4.968
 5874SOL    HW118521   0.213   4.026   4.906
 5874SOL    HW218522   0.095   4.079   5.006
 5875SOL     OW18523   4.353   3.077   0.928
 5875SOL    HW118524   4.261   3.114   0.938
 5875SOL    HW218525   4.401   3.125   0.854
 5876SOL     OW18526   3.289   3.386   2.938
 5876SOL    HW118527   3.202   3.346   2.911
 5876SOL    HW218528   3.278   3.438   3.023
 5877SOL     OW18529   4.934   4.238   1.716
 5877SOL    HW118530   4.898   4.212   1.806
 5877SOL    HW218531   4.917   4.163   1.651
 5878SOL     OW18532   0.565   3.546   1.540
 5878SOL    HW118533   0.604   3.501   1.620
 5878SOL    HW218534   0.504   3.620   1.569
 5879SOL     OW18535   1.573   4.497   4.913
 5879SOL    HW118536   1.486   4.448   4.904
 5879SOL    HW218537   1.575   4.544   5.002
 5880SOL     OW18538   2.363   5.186   0.029
 5880SOL    HW118539   2.388   5.236   0.112
 5880SOL    HW218540   2.339   5.250   6.977
 5881SOL     OW18541   1.585   6.576   3.818
 5881SOL    HW118542   1.544   6.486   3.805
 5881SOL    HW218543   1.547   6.618   3.900
 5882SOL     OW18544   4.594   0.709   3.166
 5882SOL    HW118545   4.656   0.780   3.199
 5882SOL    HW218546   4.535   0.677   3.240
 5883SOL     OW18547   1.366   3.019   5.438
 5883SOL    HW118548   1.415   3.015   5.351
 5883SOL    HW218549   1.409   2.958   5.504
 5884SOL     OW18550   6.960   0.745   3.152
 5884SOL    HW118551   6.970   0.679   3.227
 5884SOL    HW218552   7.001   0.708   3.069
 5885SOL     OW18553   5.597   6.434   0.360
 5885SOL    HW118554   5.512   6.451   0.411
 5885SOL    HW218555   5.578   6.437   0.262
 5886SOL     OW18556   5.656   1.309   5.466
 5886SOL    HW118557   5.559   1.331   5.465
 5886SOL    HW218558   5.669   1.213   5.444
 5887SOL     OW18559   2.801   6.669   2.475
 5887SOL    HW118560   2.826   6.641   2.382
 5887SOL    HW218561   2.739   6.747   2.471
 5888SOL     OW18562   6.617   6.032   1.715
 5888SOL    HW118563   6.592   5.949   1.665
 5888SOL    HW218564   6.689   6.080   1.664
 5889SOL     OW18565   3.156   6.782   0.679
 5889SOL    HW118566   3.222   6.852   0.710
 5889SOL    HW218567   3.071   6.792   0.730
 5890SOL     OW18568   3.928   5.024   5.692
 5890SOL    HW118569   3.983   5.105   5.676
 5890SOL    HW218570   3.863   5.041   5.767
 5891SOL     OW18571   1.757   2.737   6.299
 5891SOL    HW118572   1.855   2.716   6.290
 5891SOL    HW218573   1.745   2.811   6.364
 5892SOL     OW18574   3.416   5.894   1.871
 5892SOL    HW118575   3.321   5.877   1.846
 5892SOL    HW218576   3.464   5.934   1.793
 5893SOL     OW18577   1.144   3.067   2.673
 5893SOL    HW118578   1.218   3.036   2.732
 5893SOL    HW218579   1.147   3.166   2.663
 5894SOL     OW18580   1.242   3.871   3.709
 5894SOL    HW118581   1.301   3.796   3.740
 5894SOL    HW218582   1.232   3.938   3.783
 5895SOL     OW18583   5.148   5.055   2.916
 5895SOL    HW118584   5.163   4.984   2.847
 5895SOL    HW218585   5.094   5.019   2.991
 5896SOL     OW18586   4.975   1.482   5.529
 5896SOL    HW118587   5.027   1.506   5.447
 5896SOL    HW218588   4.922   1.399   5.512
 5897SOL     OW18589   4.350   4.055   0.845
 5897SOL    HW118590   4.312   4.020   0.759
 5897SOL    HW218591   4.307   4.143   0.868
 5898SOL     OW18592   1.501   5.958   2.942
 5898SOL    HW118593   1.410   5.999   2.954
 5898SOL    HW218594   1.553   5.966   3.027
 5899SOL     OW18595   5.068   0.677   3.402
 5899SOL    HW118596   5.066   0.611   3.478
 5899SOL    HW218597   5.163   0.694   3.376
 5900SOL     OW18598   3.886   4.859   1.696
 5900SOL    HW118599   3.863   4.940   1.751
 5900SOL    HW218600   3.985   4.851   1.688
 5901SOL     OW18601   3.115   6.216   3.805
 5901SOL    HW118602   3.133   6.283   3.877
 5901SOL    HW218603   3.018   6.191   3.806
 5902SOL     OW18604   5.874   2.479   0.178
 5902SOL    HW118605   5.861   2.509   0.272
 5902SOL    HW218606   5.809   2.526   0.118
 5903SOL     OW18607   0.206   2.181   6.754
 5903SOL    HW118608   0.122   2.136   6.724
 5903SOL    HW218609   0.284   2.122   6.735
 5904SOL     OW18610   1.282   3.402   2.070
 5904SOL    HW118611   1.196   3.451   2.088
 5904SOL    HW218612   1.341   3.460   2.014
 5905SOL     OW18613   6.857   3.509   2.169
 5905SOL    HW118614   6.827   3.556   2.252
 5905SOL    HW218615   6.823   3.558   2.089
 5906SOL     OW18616   6.537   1.116   3.128
 5906SOL    HW118617   6.534   1.192   3.062
 5906SOL    HW218618   6.580   1.147   3.212
 5907SOL     OW18619   1.576   1.085   2.782
 5907SOL    HW118620   1.510   1.147   2.739
 5907SOL    HW218621   1.528   1.017   2.836
 5908SOL     OW18622   1.005   2.841   5.626
 5908SOL    HW118623   0.991   2.742   5.625
 5908SOL    HW218624   1.026   2.870   5.719
 5909SOL     OW18625   6.468   4.558   6.455
 5909SOL    HW118626   6.490   4.463   6.478
 5909SOL    HW218627   6.538   4.593   6.392
 5910SOL     OW18628   1.730   1.370   3.209
 5910SOL    HW118629   1.752   1.409   3.298
 5910SOL    HW218630   1.738   1.270   3.214
 5911SOL     OW18631   6.116   5.700   6.642
 5911SOL    HW118632   6.017   5.692   6.627
 5911SOL    HW218633   6.149   5.786   6.604
 5912SOL     OW18634   0.795   1.474   2.789
 5912SOL    HW118635   0.722   1.499   2.725
 5912SOL    HW218636   0.755   1.429   2.869
 5913SOL     OW18637   6.627   3.352   1.413
 5913SOL    HW118638   6.599   3.406   1.334
 5913SOL    HW218639   6.726   3.342   1.413
 5914SOL     OW18640   1.588   6.812   0.480
 5914SOL    HW118641   1.628   6.867   0.407
 5914SOL    HW218642   1.653   6.804   0.556
 5915SOL     OW18643   4.115   0.390   5.524
 5915SOL    HW118644   4.061   0.456   5.471
 5915SOL    HW218645   4.211   0.418   5.524
 5916SOL     OW18646   0.993   0.361   2.543
 5916SOL    HW118647   1.025   0.285   2.487
 5916SOL    HW218648   0.990   0.334   2.639
 5917SOL     OW18649   3.418   3.556   0.706
 5917SOL    HW118650   3.417   3.585   0.801
 5917SOL    HW218651   3.421   3.636   0.646
 5918SOL     OW18652   3.592   6.844   4.807
 5918SOL    HW118653   3.658   6.813   4.875
 5918SOL    HW218654   3.591   6.781   4.730
 5919SOL     OW18655   3.229   3.992   4.948
 5919SOL    HW118656   3.300   4.063   4.951
 5919SOL    HW218657   3.236   3.934   5.028
 5920SOL     OW18658   1.023   0.370   5.586
 5920SOL    HW118659   1.013   0.443   5.654
 5920SOL    HW218660   1.119   0.362   5.559
 5921SOL     OW18661   2.468   4.804   0.589
 5921SOL    HW118662   2.477   4.792   0.688
 5921SOL    HW218663   2.386   4.757   0.557
 5922SOL     OW18664   4.680   2.766   2.267
 5922SOL    HW118665   4.729   2.746   2.182
 5922SOL    HW218666   4.605   2.829   2.248
 5923SOL     OW18667   5.956   1.113   2.584
 5923SOL    HW118668   5.888   1.184   2.565
 5923SOL    HW218669   5.975   1.062   2.500
 5924SOL     OW18670   6.729   6.360   3.079
 5924SOL    HW118671   6.734   6.365   2.979
 5924SOL    HW218672   6.733   6.452   3.117
 5925SOL     OW18673   4.942   0.678   1.381
 5925SOL    HW118674   4.961   0.610   1.309
 5925SOL    HW218675   4.856   0.654   1.427
 5926SOL     OW18676   5.329   3.114   3.523
 5926SOL    HW118677   5.354   3.023   3.557
 5926SOL    HW218678   5.237   3.138   3.554
 5927SOL     OW18679   1.104   0.073   1.353
 5927SOL    HW118680   1.100   0.079   1.253
 5927SOL    HW218681   1.101   6.998   1.381
 5928SOL     OW18682   3.020   6.988   0.433
 5928SOL    HW118683   3.002   6.891   0.420
 5928SOL    HW218684   3.038   0.010   0.344
 5929SOL     OW18685   1.079   1.017   1.661
 5929SOL    HW118686   1.092   1.020   1.562
 5929SOL    HW218687   1.129   1.092   1.704
 5930SOL     OW18688   1.177   4.369   1.971
 5930SOL    HW118689   1.219   4.338   1.886
 5930SOL    HW218690   1.215   4.318   2.048
 5931SOL     OW18691   5.175   6.677   4.409
 5931SOL    HW118692   5.256   6.639   4.453
 5931SOL    HW218693   5.182   6.666   4.310
 5932SOL     OW18694   3.152   5.785   0.401
 5932SOL    HW118695   3.148   5.847   0.479
 5932SOL    HW218696   3.102   5.825   0.324
 5933SOL     OW18697   6.717   5.451   4.205
 5933SOL    HW118698   6.637   5.495   4.164
 5933SOL    HW218699   6.712   5.353   4.190
 5934SOL     OW18700   3.675   4.215   6.780
 5934SOL    HW118701   3.702   4.124   6.812
 5934SOL    HW218702   3.584   4.210   6.739
 5935SOL     OW18703   1.558   0.664   5.423
 5935SOL    HW118704   1.526   0.740   5.368
 5935SOL    HW218705   1.658   0.662   5.423
 5936SOL     OW18706   3.777   2.907   2.282
 5936SOL    HW118707   3.721   2.960   2.217
 5936SOL    HW218708   3.797   2.817   2.242
 5937SOL     OW18709   0.914   3.021   0.155
 5937SOL    HW118710   1.001   2.985   0.188
 5937SOL    HW218711   0.869   2.952   0.098
 5938SOL     OW18712   1.183   2.988   4.635
 5938SOL    HW118713   1.262   2.932   4.612
 5938SOL    HW218714   1.211   3.083   4.649
 5939SOL     OW18715   4.816   0.736   6.149
 5939SOL    HW118716   4.764   0.819   6.169
 5939SOL    HW218717   4.764   0.678   6.086
 5940SOL     OW18718   5.034   5.129   0.943
 5940SOL    HW118719   4.935   5.132   0.951
 5940SOL    HW218720   5.065   5.034   0.936
 5941SOL     OW18721   1.303   1.340   3.439
 5941SOL    HW118722   1.239   1.398   3.388
 5941SOL    HW218723   1.294   1.360   3.537
 5942SOL     OW18724   4.752   1.938   6.297
 5942SOL    HW118725   4.847   1.963   6.312
 5942SOL    HW218726   4.716   1.891   6.378
 5943SOL     OW18727   2.073   4.435   2.147
 5943SOL    HW118728   2.119   4.351   2.172
 5943SOL    HW218729   1.974   4.418   2.140
 5944SOL     OW18730   6.666   4.052   5.973
 5944SOL    HW118731   6.605   3.973   5.983
 5944SOL    HW218732   6.758   4.026   6.004
 5945SOL     OW18733   6.982   6.418   3.870
 5945SOL    HW118734   6.929   6.334   3.883
 5945SOL    HW218735   6.977   6.445   3.774
 5946SOL     OW18736   3.408   2.987   6.387
 5946SOL    HW118737   3.490   2.971   6.441
 5946SOL    HW218738   3.359   2.901   6.373
 5947SOL     OW18739   3.570   3.596   5.098
 5947SOL    HW118740   3.495   3.603   5.163
 5947SOL    HW218741   3.617   3.684   5.091
 5948SOL     OW18742   4.769   3.863   1.833
 5948SOL    HW118743   4.833   3.892   1.762
 5948SOL    HW218744   4.675   3.881   1.803
 5949SOL     OW18745   1.269   4.066   3.922
 5949SOL    HW118746   1.291   4.162   3.942
 5949SOL    HW218747   1.327   4.006   3.978
 5950SOL     OW18748   2.265   0.139   4.908
 5950SOL    HW118749   2.353   0.143   4.956
 5950SOL    HW218750   2.246   0.044   4.882
 5951SOL     OW18751   0.408   2.700   6.205
 5951SOL    HW118752   0.424   2.613   6.253
 5951SOL    HW218753   0.425   2.776   6.268
 5952SOL     OW18754   3.747   4.106   1.930
 5952SOL    HW118755   3.803   4.167   1.874
 5952SOL    HW218756   3.663   4.083   1.882
 5953SOL     OW18757   6.799   2.866   6.918
 5953SOL    HW118758   6.776   2.890   7.012
 5953SOL    HW218759   6.752   2.781   6.892
 5954SOL     OW18760   2.168   4.887   3.520
 5954SOL    HW118761   2.092   4.824   3.533
 5954SOL    HW218762   2.254   4.841   3.542
 5955SOL     OW18763   3.909   2.832   0.414
 5955SOL    HW118764   3.900   2.924   0.452
 5955SOL    HW218765   3.916   2.766   0.489
 5956SOL     OW18766   4.162   2.519   0.025
 5956SOL    HW118767   4.177   2.591   6.979
 5956SOL    HW218768   4.246   2.504   0.077
 5957SOL     OW18769   6.693   2.426   3.423
 5957SOL    HW118770   6.663   2.361   3.493
 5957SOL    HW218771   6.651   2.515   3.440
 5958SOL     OW18772   2.723   6.214   2.605
 5958SOL    HW118773   2.679   6.223   2.516
 5958SOL    HW218774   2.811   6.167   2.595
 5959SOL     OW18775   4.918   4.345   2.743
 5959SOL    HW118776   4.876   4.257   2.723
 5959SOL    HW218777   5.012   4.345   2.711
 5960SOL     OW18778   5.979   0.170   6.215
 5960SOL    HW118779   6.073   0.158   6.184
 5960SOL    HW218780   5.975   0.246   6.281
 5961SOL     OW18781   2.213   2.024   3.993
 5961SOL    HW118782   2.254   1.948   3.942
 5961SOL    HW218783   2.114   2.012   3.996
 5962SOL     OW18784   5.334   4.847   0.118
 5962SOL    HW118785   5.346   4.758   0.162
 5962SOL    HW218786   5.354   4.838   0.020
 5963SOL     OW18787   2.071   3.882   0.646
 5963SOL    HW118788   2.086   3.838   0.735
 5963SOL    HW218789   1.976   3.911   0.638
 5964SOL     OW18790   1.442   6.761   3.217
 5964SOL    HW118791   1.511   6.731   3.283
 5964SOL    HW218792   1.351   6.737   3.251
 5965SOL     OW18793   2.367   0.289   1.207
 5965SOL    HW118794   2.274   0.290   1.244
 5965SOL    HW218795   2.407   0.381   1.215
 5966SOL     OW18796   2.883   1.687   5.299
 5966SOL    HW118797   2.878   1.751   5.376
 5966SOL    HW218798   2.841   1.600   5.325
 5967SOL     OW18799   4.746   2.251   5.554
 5967SOL    HW118800   4.684   2.288   5.485
 5967SOL    HW218801   4.710   2.270   5.645
 5968SOL     OW18802   6.114   1.975   3.378
 5968SOL    HW118803   6.031   1.973   3.433
 5968SOL    HW218804   6.099   1.926   3.292
 5969SOL     OW18805   5.336   6.485   1.429
 5969SOL    HW118806   5.383   6.545   1.494
 5969SOL    HW218807   5.331   6.529   1.340
 5970SOL     OW18808   5.826   2.086   0.429
 5970SOL    HW118809   5.921   2.064   0.409
 5970SOL    HW218810   5.813   2.094   0.528
 5971SOL     OW18811   6.471   5.292   3.884
 5971SOL    HW118812   6.569   5.311   3.893
 5971SOL    HW218813   6.420   5.378   3.884
 5972SOL     OW18814   6.058   5.188   0.650
 5972SOL    HW118815   6.120   5.110   0.656
 5972SOL    HW218816   6.053   5.233   0.739
 5973SOL     OW18817   3.464   1.033   2.377
 5973SOL    HW118818   3.418   1.032   2.288
 5973SOL    HW218819   3.413   0.975   2.441
 5974SOL     OW18820   5.472   1.254   4.223
 5974SOL    HW118821   5.422   1.337   4.247
 5974SOL    HW218822   5.524   1.223   4.303
 5975SOL     OW18823   3.714   4.913   0.297
 5975SOL    HW118824   3.780   4.934   0.370
 5975SOL    HW218825   3.658   4.835   0.324
 5976SOL     OW18826   1.178   2.400   6.392
 5976SOL    HW118827   1.211   2.329   6.455
 5976SOL    HW218828   1.252   2.465   6.374
 5977SOL     OW18829   0.686   5.629   1.898
 5977SOL    HW118830   0.686   5.532   1.873
 5977SOL    HW218831   0.779   5.665   1.895
 5978SOL     OW18832   3.055   3.646   6.154
 5978SOL    HW118833   3.094   3.564   6.111
 5978SOL    HW218834   3.041   3.628   6.251
 5979SOL     OW18835   5.815   0.323   1.014
 5979SOL    HW118836   5.878   0.399   1.002
 5979SOL    HW218837   5.824   0.288   1.108
 5980SOL     OW18838   3.189   2.581   0.511
 5980SOL    HW118839   3.121   2.531   0.564
 5980SOL    HW218840   3.275   2.530   0.512
 5981SOL     OW18841   3.898   2.593   0.570
 5981SOL    HW118842   3.955   2.581   0.652
 5981SOL    HW218843   3.878   2.504   0.530
 5982SOL     OW18844   5.481   2.700   1.285
 5982SOL    HW118845   5.525   2.777   1.332
 5982SOL    HW218846   5.430   2.646   1.352
 5983SOL     OW18847   6.516   1.262   3.528
 5983SOL    HW118848   6.576   1.207   3.469
 5983SOL    HW218849   6.569   1.337   3.569
 5984SOL     OW18850   5.658   6.468   2.036
 5984SOL    HW118851   5.591   6.505   2.100
 5984SOL    HW218852   5.699   6.385   2.074
 5985SOL     OW18853   6.506   4.821   2.642
 5985SOL    HW118854   6.508   4.889   2.716
 5985SOL    HW218855   6.445   4.854   2.570
 5986SOL     OW18856   3.765   3.125   3.493
 5986SOL    HW118857   3.735   3.149   3.586
 5986SOL    HW218858   3.864   3.138   3.486
 5987SOL     OW18859   0.055   6.487   4.308
 5987SOL    HW118860   0.116   6.543   4.365
 5987SOL    HW218861   7.005   6.446   4.365
 5988SOL     OW18862   1.927   2.248   0.316
 5988SOL    HW118863   1.838   2.281   0.284
 5988SOL    HW218864   1.915   2.191   0.397
 5989SOL     OW18865   2.417   6.528   5.542
 5989SOL    HW118866   2.423   6.581   5.457
 5989SOL    HW218867   2.478   6.568   5.610
 5990SOL     OW18868   2.271   3.704   1.691
 5990SOL    HW118869   2.296   3.789   1.737
 5990SOL    HW218870   2.323   3.694   1.607
 5991SOL     OW18871   5.504   1.296   0.825
 5991SOL    HW118872   5.453   1.327   0.744
 5991SOL    HW218873   5.492   1.198   0.836
 5992SOL     OW18874   2.688   4.828   3.499
 5992SOL    HW118875   2.682   4.750   3.436
 5992SOL    HW218876   2.763   4.888   3.469
 5993SOL     OW18877   5.720   1.907   0.215
 5993SOL    HW118878   5.716   1.961   0.130
 5993SOL    HW218879   5.731   1.969   0.293
 5994SOL     OW18880   0.211   4.555   1.026
 5994SOL    HW118881   0.264   4.631   0.989
 5994SOL    HW218882   0.256   4.469   1.002
 5995SOL     OW18883   5.440   3.578   0.803
 5995SOL    HW118884   5.349   3.536   0.801
 5995SOL    HW218885   5.467   3.603   0.710
 5996SOL     OW18886   1.961   0.342   1.785
 5996SOL    HW118887   2.057   0.370   1.797
 5996SOL    HW218888   1.916   0.403   1.720
 5997SOL     OW18889   6.447   0.488   4.654
 5997SOL    HW118890   6.539   0.451   4.640
 5997SOL    HW218891   6.390   0.419   4.699
 5998SOL     OW18892   6.252   6.282   6.619
 5998SOL    HW118893   6.254   6.316   6.525
 5998SOL    HW218894   6.325   6.325   6.672
 5999SOL     OW18895   5.510   3.630   1.062
 5999SOL    HW118896   5.435   3.640   1.127
 5999SOL    HW218897   5.474   3.624   0.969
 6000SOL     OW18898   1.252   4.665   1.687
 6000SOL    HW118899   1.205   4.725   1.752
 6000SOL    HW218900   1.190   4.640   1.613
 6001SOL     OW18901   6.966   6.226   5.727
 6001SOL    HW118902   6.905   6.154   5.760
 6001SOL    HW218903   0.026   6.185   5.685
 6002SOL     OW18904   5.771   4.768   5.109
 6002SOL    HW118905   5.675   4.740   5.109
 6002SOL    HW218906   5.822   4.712   5.044
 6003SOL     OW18907   2.843   1.282   5.269
 6003SOL    HW118908   2.778   1.341   5.220
 6003SOL    HW218909   2.899   1.233   5.204
 6004SOL     OW18910   5.473   3.048   5.033
 6004SOL    HW118911   5.475   2.974   4.966
 6004SOL    HW218912   5.479   3.010   5.126
 6005SOL     OW18913   4.234   4.321   0.405
 6005SOL    HW118914   4.324   4.349   0.440
 6005SOL    HW218915   4.220   4.223   0.424
 6006SOL     OW18916   2.917   6.060   6.199
 6006SOL    HW118917   2.877   6.059   6.107
 6006SOL    HW218918   2.884   5.981   6.251
 6007SOL     OW18919   2.904   6.525   4.586
 6007SOL    HW118920   2.966   6.590   4.629
 6007SOL    HW218921   2.874   6.560   4.498
 6008SOL     OW18922   2.352   3.995   6.790
 6008SOL    HW118923   2.255   3.990   6.813
 6008SOL    HW218924   2.406   3.964   6.868
 6009SOL     OW18925   2.688   5.423   2.683
 6009SOL    HW118926   2.729   5.500   2.636
 6009SOL    HW218927   2.636   5.368   2.618
 6010SOL     OW18928   0.287   5.136   5.745
 6010SOL    HW118929   0.317   5.152   5.839
 6010SOL    HW218930   0.232   5.214   5.714
 6011SOL     OW18931   5.579   1.877   3.054
 6011SOL    HW118932   5.507   1.857   2.987
 6011SOL    HW218933   5.642   1.800   3.059
 6012SOL     OW18934   6.812   0.715   5.894
 6012SOL    HW118935   6.808   0.767   5.809
 6012SOL    HW218936   6.793   0.618   5.875
 6013SOL     OW18937   5.897   1.667   2.298
 6013SOL    HW118938   5.965   1.606   2.338
 6013SOL    HW218939   5.807   1.645   2.334
 6014SOL     OW18940   4.014   3.129   4.200
 6014SOL    HW118941   3.922   3.096   4.181
 6014SOL    HW218942   4.022   3.152   4.297
 6015SOL     OW18943   6.429   0.064   3.443
 6015SOL    HW118944   6.480   0.145   3.472
 6015SOL    HW218945   6.332   0.086   3.438
 6016SOL     OW18946   4.272   1.904   4.687
 6016SOL    HW118947   4.192   1.900   4.627
 6016SOL    HW218948   4.245   1.940   4.776
 6017SOL     OW18949   1.243   2.179   5.407
 6017SOL    HW118950   1.282   2.243   5.473
 6017SOL    HW218951   1.162   2.220   5.365
 6018SOL     OW18952   2.469   0.973   3.671
 6018SOL    HW118953   2.400   1.038   3.702
 6018SOL    HW218954   2.509   0.927   3.751
 6019SOL     OW18955   6.931   3.402   6.548
 6019SOL    HW118956   6.884   3.329   6.498
 6019SOL    HW218957   6.995   3.362   6.614
 6020SOL     OW18958   0.772   5.774   4.762
 6020SOL    HW118959   0.835   5.836   4.809
 6020SOL    HW218960   0.722   5.721   4.830
 6021SOL     OW18961   4.567   0.290   3.591
 6021SOL    HW118962   4.555   0.296   3.492
 6021SOL    HW218963   4.602   0.200   3.615
 6022SOL     OW18964   6.695   3.613   0.993
 6022SOL    HW118965   6.661   3.666   1.071
 6022SOL    HW218966   6.789   3.585   1.010
 6023SOL     OW18967   4.038   6.626   2.752
 6023SOL    HW118968   3.972   6.647   2.824
 6023SOL    HW218969   4.025   6.690   2.676
 6024SOL     OW18970   0.774   6.587   0.342
 6024SOL    HW118971   0.828   6.655   0.293
 6024SOL    HW218972   0.707   6.546   0.280
 6025SOL     OW18973   3.536   0.266   5.947
 6025SOL    HW118974   3.475   0.187   5.953
 6025SOL    HW218975   3.483   0.350   5.962
 6026SOL     OW18976   5.526   6.301   3.853
 6026SOL    HW118977   5.583   6.243   3.796
 6026SOL    HW218978   5.583   6.366   3.903
 6027SOL     OW18979   6.360   4.195   5.823
 6027SOL    HW118980   6.288   4.256   5.788
 6027SOL    HW218981   6.318   4.121   5.875
 6028SOL     OW18982   5.836   5.674   6.590
 6028SOL    HW118983   5.745   5.709   6.613
 6028SOL    HW218984   5.838   5.648   6.494
 6029SOL     OW18985   2.553   1.377   2.638
 6029SOL    HW118986   2.579   1.450   2.702
 6029SOL    HW218987   2.570   1.407   2.544
 6030SOL     OW18988   6.466   3.352   4.740
 6030SOL    HW118989   6.441   3.259   4.713
 6030SOL    HW218990   6.488   3.405   4.658
 6031SOL     OW18991   6.779   0.408   3.580
 6031SOL    HW118992   6.803   0.496   3.540
 6031SOL    HW218993   6.853   0.377   3.639
 6032SOL     OW18994   2.747   0.251   3.381
 6032SOL    HW118995   2.799   0.201   3.312
 6032SOL    HW218996   2.810   0.295   3.445
 6033SOL     OW18997   0.867   1.619   3.079
 6033SOL    HW118998   0.809   1.677   3.022
 6033SOL    HW218999   0.911   1.675   3.150
 6034SOL     OW19000   0.716   1.016   0.852
 6034SOL    HW119001   0.774   1.007   0.771
 6034SOL    HW219002   0.637   1.074   0.830
 6035SOL     OW19003   1.559   1.012   2.335
 6035SOL    HW119004   1.620   1.062   2.273
 6035SOL    HW219005   1.504   1.078   2.387
 6036SOL     OW19006   6.816   3.356   0.463
 6036SOL    HW119007   6.804   3.291   0.388
 6036SOL    HW219008   6.910   3.352   0.496
 6037SOL     OW19009   4.226   0.529   6.515
 6037SOL    HW119010   4.182   0.610   6.554
 6037SOL    HW219011   4.321   0.527   6.543
 6038SOL     OW19012   2.305   1.342   6.973
 6038SOL    HW119013   2.403   1.357   6.981
 6038SOL    HW219014   2.268   1.391   6.894
 6039SOL     OW19015   3.373   2.907   4.453
 6039SOL    HW119016   3.428   2.991   4.453
 6039SOL    HW219017   3.298   2.917   4.388
 6040SOL     OW19018   0.010   1.451   0.358
 6040SOL    HW119019   0.100   1.459   0.315
 6040SOL    HW219020   0.020   1.416   0.451
 6041SOL     OW19021   0.592   3.121   4.958
 6041SOL    HW119022   0.571   3.061   5.035
 6041SOL    HW219023   0.509   3.165   4.927
 6042SOL     OW19024   2.749   5.916   3.933
 6042SOL    HW119025   2.663   5.929   3.884
 6042SOL    HW219026   2.808   5.853   3.882
 6043SOL     OW19027   2.268   5.579   2.146
 6043SOL    HW119028   2.263   5.657   2.208
 6043SOL    HW219029   2.276   5.612   2.052
 6044SOL     OW19030   0.050   3.361   0.608
 6044SOL    HW119031   0.052   3.261   0.620
 6044SOL    HW219032   0.024   3.404   0.694
 6045SOL     OW19033   5.102   1.571   4.565
 6045SOL    HW119034   5.077   1.656   4.519
 6045SOL    HW219035   5.021   1.514   4.576
 6046SOL     OW19036   3.198   3.954   2.427
 6046SOL    HW119037   3.114   3.937   2.375
 6046SOL    HW219038   3.239   4.040   2.398
 6047SOL     OW19039   0.030   1.408   6.895
 6047SOL    HW119040   6.986   1.470   6.937
 6047SOL    HW219041   0.084   1.362   6.966
 6048SOL     OW19042   6.384   5.535   3.348
 6048SOL    HW119043   6.326   5.597   3.296
 6048SOL    HW219044   6.356   5.440   3.331
 6049SOL     OW19045   5.107   4.897   6.889
 6049SOL    HW119046   5.091   4.995   6.881
 6049SOL    HW219047   5.202   4.877   6.863
 6050SOL     OW19048   2.349   5.654   2.739
 6050SOL    HW119049   2.432   5.669   2.685
 6050SOL    HW219050   2.329   5.556   2.742
 6051SOL     OW19051   0.793   1.558   2.436
 6051SOL    HW119052   0.715   1.547   2.499
 6051SOL    HW219053   0.877   1.528   2.482
 6052SOL     OW19054   5.601   6.110   6.295
 6052SOL    HW119055   5.664   6.038   6.267
 6052SOL    HW219056   5.612   6.129   6.393
 6053SOL     OW19057   4.038   2.169   5.592
 6053SOL    HW119058   3.981   2.115   5.653
 6053SOL    HW219059   4.127   2.124   5.581
 6054SOL     OW19060   4.270   3.657   0.122
 6054SOL    HW119061   4.308   3.739   0.080
 6054SOL    HW219062   4.172   3.652   0.105
 6055SOL     OW19063   2.789   4.610   1.307
 6055SOL    HW119064   2.832   4.540   1.250
 6055SOL    HW219065   2.813   4.595   1.403
 6056SOL     OW19066   5.197   6.377   2.953
 6056SOL    HW119067   5.263   6.380   3.027
 6056SOL    HW219068   5.106   6.399   2.988
 6057SOL     OW19069   5.868   1.317   3.800
 6057SOL    HW119070   5.805   1.337   3.875
 6057SOL    HW219071   5.823   1.339   3.713
 6058SOL     OW19072   7.020   2.938   5.797
 6058SOL    HW119073   6.957   2.954   5.721
 6058SOL    HW219074   0.041   2.848   5.787
 6059SOL     OW19075   4.474   2.200   6.471
 6059SOL    HW119076   4.525   2.272   6.423
 6059SOL    HW219077   4.414   2.153   6.406
 6060SOL     OW19078   1.862   2.393   1.240
 6060SOL    HW119079   1.856   2.293   1.231
 6060SOL    HW219080   1.825   2.421   1.329
 6061SOL     OW19081   2.451   4.650   6.668
 6061SOL    HW119082   2.454   4.560   6.713
 6061SOL    HW219083   2.389   4.645   6.590
 6062SOL     OW19084   1.992   1.781   5.802
 6062SOL    HW119085   2.041   1.822   5.879
 6062SOL    HW219086   2.053   1.718   5.753
 6063SOL     OW19087   4.528   3.817   6.417
 6063SOL    HW119088   4.512   3.890   6.350
 6063SOL    HW219089   4.457   3.747   6.407
 6064SOL     OW19090   5.755   6.076   0.449
 6064SOL    HW119091   5.777   6.173   0.444
 6064SOL    HW219092   5.780   6.031   0.363
 6065SOL     OW19093   2.202   6.027   1.588
 6065SOL    HW119094   2.217   6.010   1.491
 6065SOL    HW219095   2.271   6.090   1.623
 6066SOL     OW19096   5.704   5.996   1.884
 6066SOL    HW119097   5.667   6.057   1.813
 6066SOL    HW219098   5.664   5.905   1.874
 6067SOL     OW19099   0.143   4.902   5.653
 6067SOL    HW119100   0.207   4.978   5.658
 6067SOL    HW219101   0.083   4.903   5.733
 6068SOL     OW19102   3.872   1.673   3.854
 6068SOL    HW119103   3.812   1.599   3.824
 6068SOL    HW219104   3.959   1.635   3.885
 6069SOL     OW19105   0.496   4.876   5.290
 6069SOL    HW119106   0.490   4.969   5.327
 6069SOL    HW219107   0.573   4.871   5.227
 6070SOL     OW19108   2.515   1.124   0.811
 6070SOL    HW119109   2.471   1.112   0.722
 6070SOL    HW219110   2.452   1.169   0.874
 6071SOL     OW19111   6.022   0.380   6.405
 6071SOL    HW119112   5.938   0.434   6.413
 6071SOL    HW219113   6.020   0.306   6.472
 6072SOL     OW19114   6.574   2.616   0.368
 6072SOL    HW119115   6.625   2.682   0.424
 6072SOL    HW219116   6.497   2.663   0.323
 6073SOL     OW19117   4.634   3.673   0.241
 6073SOL    HW119118   4.683   3.586   0.240
 6073SOL    HW219119   4.611   3.698   0.335
 6074SOL     OW19120   1.032   6.156   2.843
 6074SOL    HW119121   0.957   6.137   2.907
 6074SOL    HW219122   1.024   6.250   2.809
 6075SOL     OW19123   6.314   6.920   6.764
 6075SOL    HW119124   6.305   6.985   6.839
 6075SOL    HW219125   6.383   6.852   6.787
 6076SOL     OW19126   0.033   6.653   3.075
 6076SOL    HW119127   0.085   6.592   3.016
 6076SOL    HW219128   0.061   6.639   3.170
 6077SOL     OW19129   4.831   6.105   2.629
 6077SOL    HW119130   4.843   6.053   2.545
 6077SOL    HW219131   4.901   6.177   2.634
 6078SOL     OW19132   5.391   4.593   0.217
 6078SOL    HW119133   5.408   4.497   0.195
 6078SOL    HW219134   5.392   4.604   0.317
 6079SOL     OW19135   3.488   1.951   0.162
 6079SOL    HW119136   3.439   1.912   0.240
 6079SOL    HW219137   3.437   1.932   0.078
 6080SOL     OW19138   6.892   3.668   5.530
 6080SOL    HW119139   6.965   3.620   5.483
 6080SOL    HW219140   6.814   3.679   5.467
 6081SOL     OW19141   2.131   3.816   4.430
 6081SOL    HW119142   2.151   3.914   4.424
 6081SOL    HW219143   2.121   3.779   4.338
 6082SOL     OW19144   4.903   1.327   0.965
 6082SOL    HW119145   4.922   1.397   1.033
 6082SOL    HW219146   4.912   1.237   1.006
 6083SOL     OW19147   4.904   0.315   6.201
 6083SOL    HW119148   4.949   0.298   6.113
 6083SOL    HW219149   4.836   0.243   6.217
 6084SOL     OW19150   6.443   5.014   3.273
 6084SOL    HW119151   6.516   4.947   3.270
 6084SOL    HW219152   6.389   5.008   3.189
 6085SOL     OW19153   0.611   6.203   1.178
 6085SOL    HW119154   0.525   6.154   1.165
 6085SOL    HW219155   0.614   6.281   1.115
 6086SOL     OW19156   4.156   3.498   0.793
 6086SOL    HW119157   4.182   3.440   0.716
 6086SOL    HW219158   4.092   3.449   0.852
 6087SOL     OW19159   3.767   0.818   0.409
 6087SOL    HW119160   3.753   0.726   0.373
 6087SOL    HW219161   3.745   0.820   0.506
 6088SOL     OW19162   3.822   5.626   1.996
 6088SOL    HW119163   3.813   5.725   1.994
 6088SOL    HW219164   3.780   5.587   1.914
 6089SOL     OW19165   6.275   5.283   3.337
 6089SOL    HW119166   6.213   5.256   3.263
 6089SOL    HW219167   6.324   5.203   3.371
 6090SOL     OW19168   3.916   5.827   4.939
 6090SOL    HW119169   3.872   5.792   4.857
 6090SOL    HW219170   3.934   5.752   5.002
 6091SOL     OW19171   1.006   2.762   2.653
 6091SOL    HW119172   0.943   2.816   2.598
 6091SOL    HW219173   1.034   2.681   2.602
 6092SOL     OW19174   2.317   6.544   1.260
 6092SOL    HW119175   2.315   6.599   1.343
 6092SOL    HW219176   2.360   6.456   1.278
 6093SOL     OW19177   2.929   3.090   1.675
 6093SOL    HW119178   2.977   3.049   1.753
 6093SOL    HW219179   2.852   3.143   1.707
 6094SOL     OW19180   0.893   0.252   5.820
 6094SOL    HW119181   0.895   0.272   5.722
 6094SOL    HW219182   0.987   0.246   5.855
 6095SOL     OW19183   4.902   5.300   2.233
 6095SOL    HW119184   4.893   5.224   2.169
 6095SOL    HW219185   4.985   5.289   2.287
 6096SOL     OW19186   4.661   5.853   2.654
 6096SOL    HW119187   4.706   5.896   2.575
 6096SOL    HW219188   4.617   5.923   2.710
 6097SOL     OW19189   2.526   5.453   1.735
 6097SOL    HW119190   2.562   5.431   1.644
 6097SOL    HW219191   2.484   5.371   1.774
 6098SOL     OW19192   6.314   1.541   5.026
 6098SOL    HW119193   6.309   1.477   4.949
 6098SOL    HW219194   6.287   1.495   5.110
 6099SOL     OW19195   3.456   6.908   5.175
 6099SOL    HW119196   3.499   6.941   5.259
 6099SOL    HW219197   3.455   6.808   5.175
 6100SOL     OW19198   0.610   5.438   5.621
 6100SOL    HW119199   0.673   5.449   5.544
 6100SOL    HW219200   0.591   5.340   5.634
 6101SOL     OW19201   0.826   3.050   1.280
 6101SOL    HW119202   0.771   3.009   1.353
 6101SOL    HW219203   0.801   3.146   1.269
 6102SOL     OW19204   3.025   0.345   3.028
 6102SOL    HW119205   2.928   0.323   3.035
 6102SOL    HW219206   3.058   0.378   3.116
 6103SOL     OW19207   5.652   1.178   2.444
 6103SOL    HW119208   5.566   1.187   2.495
 6103SOL    HW219209   5.655   1.089   2.400
 6104SOL     OW19210   6.575   0.711   4.996
 6104SOL    HW119211   6.522   0.726   4.913
 6104SOL    HW219212   6.638   0.787   5.010
 6105SOL     OW19213   3.885   4.691   5.907
 6105SOL    HW119214   3.864   4.699   6.004
 6105SOL    HW219215   3.976   4.729   5.889
 6106SOL     OW19216   6.368   3.926   5.183
 6106SOL    HW119217   6.399   3.831   5.187
 6106SOL    HW219218   6.415   3.975   5.110
 6107SOL     OW19219   5.943   5.029   5.425
 6107SOL    HW119220   5.972   5.064   5.336
 6107SOL    HW219221   5.980   4.937   5.438
 6108SOL     OW19222   3.431   0.675   6.396
 6108SOL    HW119223   3.450   0.577   6.392
 6108SOL    HW219224   3.336   0.690   6.426
 6109SOL     OW19225   6.884   7.008   3.725
 6109SOL    HW119226   6.813   7.008   3.796
 6109SOL    HW219227   6.972   6.985   3.767
 6110SOL     OW19228   1.235   2.093   3.629
 6110SOL    HW119229   1.209   2.164   3.564
 6110SOL    HW219230   1.153   2.040   3.655
 6111SOL     OW19231   2.657   2.455   0.682
 6111SOL    HW119232   2.706   2.515   0.621
 6111SOL    HW219233   2.662   2.490   0.776
 6112SOL     OW19234   4.578   6.841   3.323
 6112SOL    HW119235   4.627   6.891   3.251
 6112SOL    HW219236   4.532   6.906   3.383
 6113SOL     OW19237   3.101   5.179   1.139
 6113SOL    HW119238   3.107   5.197   1.041
 6113SOL    HW219239   3.087   5.081   1.154
 6114SOL     OW19240   4.967   3.542   1.748
 6114SOL    HW119241   4.891   3.572   1.806
 6114SOL    HW219242   4.930   3.503   1.664
 6115SOL     OW19243   6.659   0.939   5.095
 6115SOL    HW119244   6.751   0.960   5.130
 6115SOL    HW219245   6.591   0.962   5.164
 6116SOL     OW19246   6.473   2.991   0.242
 6116SOL    HW119247   6.483   3.030   0.334
 6116SOL    HW219248   6.477   3.064   0.174
 6117SOL     OW19249   2.189   2.327   1.070
 6117SOL    HW119250   2.162   2.291   0.981
 6117SOL    HW219251   2.131   2.405   1.094
 6118SOL     OW19252   5.657   0.904   1.412
 6118SOL    HW119253   5.726   0.871   1.347
 6118SOL    HW219254   5.701   0.927   1.498
 6119SOL     OW19255   0.322   1.141   6.267
 6119SOL    HW119256   0.400   1.177   6.318
 6119SOL    HW219257   0.347   1.131   6.171
 6120SOL     OW19258   3.345   1.253   3.996
 6120SOL    HW119259   3.311   1.346   4.012
 6120SOL    HW219260   3.275   1.199   3.949
 6121SOL     OW19261   3.303   1.306   5.170
 6121SOL    HW119262   3.310   1.295   5.071
 6121SOL    HW219263   3.310   1.216   5.214
 6122SOL     OW19264   4.731   4.815   5.119
 6122SOL    HW119265   4.807   4.868   5.155
 6122SOL    HW219266   4.702   4.854   5.032
 6123SOL     OW19267   6.629   1.750   4.847
 6123SOL    HW119268   6.723   1.758   4.881
 6123SOL    HW219269   6.601   1.837   4.806
 6124SOL     OW19270   2.481   6.374   4.076
 6124SOL    HW119271   2.497   6.284   4.117
 6124SOL    HW219272   2.451   6.363   3.981
 6125SOL     OW19273   3.683   1.191   5.361
 6125SOL    HW119274   3.626   1.273   5.356
 6125SOL    HW219275   3.661   1.140   5.444
 6126SOL     OW19276   5.899   2.681   6.523
 6126SOL    HW119277   5.870   2.597   6.570
 6126SOL    HW219278   5.913   2.754   6.589
 6127SOL     OW19279   4.971   2.650   2.530
 6127SOL    HW119280   5.057   2.648   2.582
 6127SOL    HW219281   4.989   2.684   2.438
 6128SOL     OW19282   6.012   5.837   5.262
 6128SOL    HW119283   6.035   5.784   5.344
 6128SOL    HW219284   6.096   5.871   5.220
 6129SOL     OW19285   2.310   5.797   2.983
 6129SOL    HW119286   2.401   5.816   3.021
 6129SOL    HW219287   2.316   5.723   2.916
 6130SOL     OW19288   6.134   2.944   0.307
 6130SOL    HW119289   6.057   2.952   0.371
 6130SOL    HW219290   6.106   2.975   0.217
 6131SOL     OW19291   6.584   2.914   2.682
 6131SOL    HW119292   6.598   2.845   2.753
 6131SOL    HW219293   6.512   2.884   2.620
 6132SOL     OW19294   4.756   6.344   6.378
 6132SOL    HW119295   4.663   6.342   6.339
 6132SOL    HW219296   4.816   6.286   6.323
 6133SOL     OW19297   0.700   2.474   3.695
 6133SOL    HW119298   0.789   2.489   3.739
 6133SOL    HW219299   0.710   2.482   3.596
 6134SOL     OW19300   0.193   6.383   5.453
 6134SOL    HW119301   0.153   6.428   5.373
 6134SOL    HW219302   0.270   6.325   5.424
 6135SOL     OW19303   6.311   6.460   0.377
 6135SOL    HW119304   6.296   6.462   0.476
 6135SOL    HW219305   6.225   6.480   0.330
 6136SOL     OW19306   1.225   2.273   3.406
 6136SOL    HW119307   1.181   2.347   3.456
 6136SOL    HW219308   1.285   2.312   3.336
 6137SOL     OW19309   6.853   5.218   1.387
 6137SOL    HW119310   6.762   5.201   1.349
 6137SOL    HW219311   6.896   5.131   1.409
 6138SOL     OW19312   5.694   1.010   1.994
 6138SOL    HW119313   5.617   1.072   1.985
 6138SOL    HW219314   5.702   0.955   1.911
 6139SOL     OW19315   2.003   2.020   5.519
 6139SOL    HW119316   1.991   2.101   5.461
 6139SOL    HW219317   1.996   2.047   5.615
 6140SOL     OW19318   2.362   0.305   3.629
 6140SOL    HW119319   2.350   0.336   3.535
 6140SOL    HW219320   2.392   0.209   3.629
 6141SOL     OW19321   1.122   0.551   0.632
 6141SOL    HW119322   1.183   0.557   0.711
 6141SOL    HW219323   1.148   0.619   0.564
 6142SOL     OW19324   0.370   7.007   1.942
 6142SOL    HW119325   0.357   0.073   1.893
 6142SOL    HW219326   0.420   6.943   1.883
 6143SOL     OW19327   0.811   2.988   5.472
 6143SOL    HW119328   0.886   2.933   5.510
 6143SOL    HW219329   0.808   2.976   5.373
 6144SOL     OW19330   3.359   5.832   2.907
 6144SOL    HW119331   3.361   5.751   2.848
 6144SOL    HW219332   3.296   5.899   2.868
 6145SOL     OW19333   5.270   2.875   4.185
 6145SOL    HW119334   5.329   2.795   4.174
 6145SOL    HW219335   5.182   2.847   4.222
 6146SOL     OW19336   5.828   0.980   5.230
 6146SOL    HW119337   5.795   0.891   5.197
 6146SOL    HW219338   5.901   1.012   5.170
 6147SOL     OW19339   1.334   1.814   5.880
 6147SOL    HW119340   1.364   1.865   5.800
 6147SOL    HW219341   1.280   1.873   5.940
 6148SOL     OW19342   4.084   4.911   6.836
 6148SOL    HW119343   4.149   4.874   6.902
 6148SOL    HW219344   3.998   4.861   6.842
 6149SOL     OW19345   3.817   2.156   1.439
 6149SOL    HW119346   3.785   2.249   1.454
 6149SOL    HW219347   3.813   2.105   1.525
 6150SOL     OW19348   0.541   4.950   4.355
 6150SOL    HW119349   0.514   4.897   4.435
 6150SOL    HW219350   0.634   4.984   4.367
 6151SOL     OW19351   3.870   5.382   3.340
 6151SOL    HW119352   3.962   5.355   3.311
 6151SOL    HW219353   3.806   5.309   3.317
 6152SOL     OW19354   0.603   4.097   3.079
 6152SOL    HW119355   0.548   4.129   3.156
 6152SOL    HW219356   0.692   4.065   3.113
 6153SOL     OW19357   5.359   6.206   0.669
 6153SOL    HW119358   5.275   6.188   0.721
 6153SOL    HW219359   5.359   6.301   0.638
 6154SOL     OW19360   4.364   4.564   2.949
 6154SOL    HW119361   4.399   4.541   3.040
 6154SOL    HW219362   4.279   4.616   2.958
 6155SOL     OW19363   1.982   1.585   3.705
 6155SOL    HW119364   1.888   1.613   3.686
 6155SOL    HW219365   1.990   1.556   3.800
 6156SOL     OW19366   4.673   4.237   2.381
 6156SOL    HW119367   4.727   4.321   2.373
 6156SOL    HW219368   4.587   4.248   2.331
 6157SOL     OW19369   0.548   3.116   1.052
 6157SOL    HW119370   0.548   3.145   0.956
 6157SOL    HW219371   0.609   3.174   1.105
 6158SOL     OW19372   2.998   1.074   5.862
 6158SOL    HW119373   2.964   1.004   5.798
 6158SOL    HW219374   2.973   1.164   5.829
 6159SOL     OW19375   5.797   2.105   0.702
 6159SOL    HW119376   5.844   2.192   0.683
 6159SOL    HW219377   5.708   2.124   0.743
 6160SOL     OW19378   0.976   6.750   1.205
 6160SOL    HW119379   0.952   6.654   1.221
 6160SOL    HW219380   0.895   6.800   1.175
 6161SOL     OW19381   4.994   4.062   6.596
 6161SOL    HW119382   5.026   4.156   6.606
 6161SOL    HW219383   5.072   4.002   6.579
 6162SOL     OW19384   5.999   6.008   0.961
 6162SOL    HW119385   5.948   5.933   1.004
 6162SOL    HW219386   5.963   6.024   0.869
 6163SOL     OW19387   6.026   6.077   3.049
 6163SOL    HW119388   6.001   6.148   2.982
 6163SOL    HW219389   5.984   6.097   3.137
 6164SOL     OW19390   3.461   3.323   4.612
 6164SOL    HW119391   3.396   3.380   4.562
 6164SOL    HW219392   3.487   3.244   4.556
 6165SOL     OW19393   3.738   0.736   6.966
 6165SOL    HW119394   3.707   0.785   0.026
 6165SOL    HW219395   3.665   0.733   6.898
 6166SOL     OW19396   3.530   1.068   6.028
 6166SOL    HW119397   3.467   1.057   5.951
 6166SOL    HW219398   3.593   0.990   6.031
 6167SOL     OW19399   1.485   3.335   2.818
 6167SOL    HW119400   1.491   3.418   2.762
 6167SOL    HW219401   1.484   3.255   2.758
 6168SOL     OW19402   0.923   3.414   4.435
 6168SOL    HW119403   0.839   3.361   4.431
 6168SOL    HW219404   0.901   3.511   4.443
 6169SOL     OW19405   2.889   0.782   0.327
 6169SOL    HW119406   2.951   0.803   0.403
 6169SOL    HW219407   2.909   0.842   0.250
 6170SOL     OW19408   2.996   4.909   1.184
 6170SOL    HW119409   3.054   4.910   1.266
 6170SOL    HW219410   2.900   4.914   1.211
 6171SOL     OW19411   2.091   4.330   1.400
 6171SOL    HW119412   2.133   4.243   1.426
 6171SOL    HW219413   2.100   4.396   1.475
 6172SOL     OW19414   2.847   5.111   1.528
 6172SOL    HW119415   2.827   5.052   1.606
 6172SOL    HW219416   2.822   5.063   1.443
 6173SOL     OW19417   1.557   5.547   2.077
 6173SOL    HW119418   1.519   5.564   1.986
 6173SOL    HW219419   1.656   5.556   2.074
 6174SOL     OW19420   5.689   4.326   1.870
 6174SOL    HW119421   5.676   4.373   1.957
 6174SOL    HW219422   5.621   4.254   1.860
 6175SOL     OW19423   4.927   0.339   4.044
 6175SOL    HW119424   4.953   0.376   3.955
 6175SOL    HW219425   4.858   0.267   4.031
 6176SOL     OW19426   5.629   3.097   6.917
 6176SOL    HW119427   5.658   3.001   6.915
 6176SOL    HW219428   5.657   3.139   7.003
 6177SOL     OW19429   6.382   2.737   2.598
 6177SOL    HW119430   6.410   2.652   2.643
 6177SOL    HW219431   6.329   2.792   2.662
 6178SOL     OW19432   6.238   3.490   1.154
 6178SOL    HW119433   6.248   3.405   1.103
 6178SOL    HW219434   6.145   3.497   1.190
 6179SOL     OW19435   0.560   1.796   5.005
 6179SOL    HW119436   0.516   1.805   5.094
 6179SOL    HW219437   0.569   1.886   4.962
 6180SOL     OW19438   3.326   0.345   6.205
 6180SOL    HW119439   3.330   0.245   6.199
 6180SOL    HW219440   3.270   0.381   6.130
 6181SOL     OW19441   4.210   5.934   6.704
 6181SOL    HW119442   4.167   5.844   6.703
 6181SOL    HW219443   4.179   5.987   6.625
 6182SOL     OW19444   4.968   6.881   5.563
 6182SOL    HW119445   4.998   6.809   5.626
 6182SOL    HW219446   5.045   6.941   5.541
 6183SOL     OW19447   3.156   0.446   2.536
 6183SOL    HW119448   3.153   0.371   2.470
 6183SOL    HW219449   3.123   0.414   2.625
 6184SOL     OW19450   6.812   0.419   5.841
 6184SOL    HW119451   6.770   0.373   5.919
 6184SOL    HW219452   6.840   0.351   5.773
 6185SOL     OW19453   2.415   2.828   6.824
 6185SOL    HW119454   2.462   2.824   6.736
 6185SOL    HW219455   2.459   2.764   6.888
 6186SOL     OW19456   4.627   0.848   3.959
 6186SOL    HW119457   4.545   0.877   4.009
 6186SOL    HW219458   4.666   0.767   4.002
 6187SOL     OW19459   3.211   5.047   4.397
 6187SOL    HW119460   3.280   5.019   4.329
 6187SOL    HW219461   3.152   4.969   4.418
 6188SOL     OW19462   3.135   6.710   1.912
 6188SOL    HW119463   3.127   6.617   1.875
 6188SOL    HW219464   3.195   6.764   1.854
 6189SOL     OW19465   5.144   4.808   3.222
 6189SOL    HW119466   5.154   4.710   3.206
 6189SOL    HW219467   5.234   4.852   3.216
 6190SOL     OW19468   5.440   2.527   5.797
 6190SOL    HW119469   5.372   2.582   5.749
 6190SOL    HW219470   5.421   2.430   5.782
 6191SOL     OW19471   6.997   1.913   6.139
 6191SOL    HW119472   6.940   1.878   6.065
 6191SOL    HW219473   6.939   1.930   6.219
 6192SOL     OW19474   3.451   2.267   0.216
 6192SOL    HW119475   3.518   2.196   0.237
 6192SOL    HW219476   3.376   2.263   0.282
 6193SOL     OW19477   6.756   0.307   1.576
 6193SOL    HW119478   6.789   0.388   1.624
 6193SOL    HW219479   6.658   0.314   1.562
 6194SOL     OW19480   2.460   0.411   0.574
 6194SOL    HW119481   2.557   0.404   0.596
 6194SOL    HW219482   2.408   0.353   0.636
 6195SOL     OW19483   2.477   6.774   5.334
 6195SOL    HW119484   2.548   6.798   5.267
 6195SOL    HW219485   2.475   6.843   5.406
 6196SOL     OW19486   0.626   1.914   5.783
 6196SOL    HW119487   0.706   1.945   5.731
 6196SOL    HW219488   0.564   1.865   5.722
 6197SOL     OW19489   2.265   2.683   0.984
 6197SOL    HW119490   2.345   2.709   1.038
 6197SOL    HW219491   2.195   2.645   1.045
 6198SOL     OW19492   3.678   5.332   2.919
 6198SOL    HW119493   3.686   5.335   2.819
 6198SOL    HW219494   3.615   5.404   2.949
 6199SOL     OW19495   0.365   0.694   6.624
 6199SOL    HW119496   0.363   0.791   6.602
 6199SOL    HW219497   0.310   0.644   6.557
 6200SOL     OW19498   3.974   0.539   5.781
 6200SOL    HW119499   3.995   0.551   5.878
 6200SOL    HW219500   4.038   0.593   5.726
 6201SOL     OW19501   1.978   5.083   4.092
 6201SOL    HW119502   1.882   5.074   4.118
 6201SOL    HW219503   2.024   5.143   4.157
 6202SOL     OW19504   2.275   2.155   1.267
 6202SOL    HW119505   2.237   2.203   1.188
 6202SOL    HW219506   2.286   2.058   1.245
 6203SOL     OW19507   6.002   1.955   4.165
 6203SOL    HW119508   6.073   1.897   4.125
 6203SOL    HW219509   6.041   2.042   4.193
 6204SOL     OW19510   1.124   6.451   5.769
 6204SOL    HW119511   1.130   6.423   5.865
 6204SOL    HW219512   1.027   6.462   5.744
 6205SOL     OW19513   5.144   6.287   6.983
 6205SOL    HW119514   5.058   6.316   6.942
 6205SOL    HW219515   5.149   6.187   6.984
 6206SOL     OW19516   4.984   0.051   3.507
 6206SOL    HW119517   4.900   0.076   3.460
 6206SOL    HW219518   4.963   7.006   3.580
 6207SOL     OW19519   2.228   4.090   4.363
 6207SOL    HW119520   2.255   4.119   4.271
 6207SOL    HW219521   2.204   4.171   4.417
 6208SOL     OW19522   5.487   5.516   5.067
 6208SOL    HW119523   5.519   5.554   5.154
 6208SOL    HW219524   5.393   5.484   5.077
 6209SOL     OW19525   2.587   4.968   1.101
 6209SOL    HW119526   2.642   4.929   1.174
 6209SOL    HW219527   2.591   4.909   1.020
 6210SOL     OW19528   6.760   4.677   2.641
 6210SOL    HW119529   6.681   4.731   2.673
 6210SOL    HW219530   6.792   4.712   2.554
 6211SOL     OW19531   2.555   0.876   5.211
 6211SOL    HW119532   2.488   0.861   5.284
 6211SOL    HW219533   2.514   0.932   5.139
 6212SOL     OW19534   6.380   0.414   3.469
 6212SOL    HW119535   6.458   0.429   3.408
 6212SOL    HW219536   6.295   0.426   3.417
 6213SOL     OW19537   7.009   0.067   0.618
 6213SOL    HW119538   0.055   0.036   0.685
 6213SOL    HW219539   0.009   0.160   0.588
 6214SOL     OW19540   5.236   4.865   1.989
 6214SOL    HW119541   5.200   4.920   1.913
 6214SOL    HW219542   5.162   4.847   2.055
 6215SOL     OW19543   2.744   4.892   1.323
 6215SOL    HW119544   2.770   4.796   1.316
 6215SOL    HW219545   2.653   4.899   1.363
 6216SOL     OW19546   6.528   2.421   2.775
 6216SOL    HW119547   6.438   2.380   2.761
 6216SOL    HW219548   6.581   2.415   2.691
 6217SOL     OW19549   4.563   1.659   1.217
 6217SOL    HW119550   4.507   1.725   1.167
 6217SOL    HW219551   4.538   1.566   1.187
 6218SOL     OW19552   4.437   5.248   4.164
 6218SOL    HW119553   4.388   5.188   4.100
 6218SOL    HW219554   4.527   5.269   4.128
 6219SOL     OW19555   0.217   1.155   4.199
 6219SOL    HW119556   0.122   1.130   4.181
 6219SOL    HW219557   0.224   1.253   4.216
 6220SOL     OW19558   1.525   3.419   5.193
 6220SOL    HW119559   1.474   3.505   5.196
 6220SOL    HW219560   1.489   3.362   5.119
 6221SOL     OW19561   4.526   4.667   4.702
 6221SOL    HW119562   4.541   4.643   4.798
 6221SOL    HW219563   4.428   4.675   4.685
 6222SOL     OW19564   0.206   1.890   1.301
 6222SOL    HW119565   0.276   1.839   1.252
 6222SOL    HW219566   0.176   1.838   1.381
 6223SOL     OW19567   5.190   4.250   4.360
 6223SOL    HW119568   5.137   4.266   4.444
 6223SOL    HW219569   5.141   4.289   4.282
 6224SOL     OW19570   2.575   0.383   4.880
 6224SOL    HW119571   2.622   0.470   4.893
 6224SOL    HW219572   2.488   0.398   4.833
 6225SOL     OW19573   3.879   2.113   6.582
 6225SOL    HW119574   3.800   2.140   6.527
 6225SOL    HW219575   3.957   2.171   6.558
 6226SOL     OW19576   6.712   6.567   4.286
 6226SOL    HW119577   6.775   6.637   4.319
 6226SOL    HW219578   6.704   6.575   4.186
 6227SOL     OW19579   2.849   4.366   6.703
 6227SOL    HW119580   2.807   4.280   6.730
 6227SOL    HW219581   2.817   4.439   6.763
 6228SOL     OW19582   6.831   2.099   2.997
 6228SOL    HW119583   6.815   2.097   3.096
 6228SOL    HW219584   6.926   2.074   2.978
 6229SOL     OW19585   1.855   2.068   1.802
 6229SOL    HW119586   1.798   2.076   1.883
 6229SOL    HW219587   1.951   2.055   1.829
 6230SOL     OW19588   2.453   1.881   4.098
 6230SOL    HW119589   2.398   1.823   4.038
 6230SOL    HW219590   2.418   1.974   4.097
 6231SOL     OW19591   6.796   5.090   1.717
 6231SOL    HW119592   6.881   5.118   1.672
 6231SOL    HW219593   6.719   5.102   1.655
 6232SOL     OW19594   0.949   0.998   6.990
 6232SOL    HW119595   0.940   1.023   0.065
 6232SOL    HW219596   1.040   1.022   6.957
 6233SOL     OW19597   4.243   0.940   6.563
 6233SOL    HW119598   4.244   0.936   6.463
 6233SOL    HW219599   4.162   0.892   6.597
 6234SOL     OW19600   2.290   2.273   3.854
 6234SOL    HW119601   2.342   2.272   3.769
 6234SOL    HW219602   2.258   2.180   3.875
 6235SOL     OW19603   2.346   5.942   2.143
 6235SOL    HW119604   2.284   5.931   2.066
 6235SOL    HW219605   2.408   6.019   2.126
 6236SOL     OW19606   6.956   4.080   6.922
 6236SOL    HW119607   6.952   3.987   6.958
 6236SOL    HW219608   0.008   4.130   6.967
 6237SOL     OW19609   4.005   5.782   6.101
 6237SOL    HW119610   4.012   5.879   6.124
 6237SOL    HW219611   4.040   5.728   6.177
 6238SOL     OW19612   5.498   3.637   0.526
 6238SOL    HW119613   5.441   3.718   0.534
 6238SOL    HW219614   5.471   3.585   0.445
 6239SOL     OW19615   3.132   6.429   3.492
 6239SOL    HW119616   3.228   6.433   3.518
 6239SOL    HW219617   3.094   6.340   3.518
 6240SOL     OW19618   2.875   3.593   0.457
 6240SOL    HW119619   2.885   3.529   0.532
 6240SOL    HW219620   2.779   3.620   0.447
 6241SOL     OW19621   4.686   0.510   2.089
 6241SOL    HW119622   4.728   0.439   2.034
 6241SOL    HW219623   4.622   0.563   2.034
 6242SOL     OW19624   3.787   2.054   3.020
 6242SOL    HW119625   3.729   2.027   2.943
 6242SOL    HW219626   3.735   2.049   3.105
 6243SOL     OW19627   6.063   5.837   2.909
 6243SOL    HW119628   5.977   5.792   2.886
 6243SOL    HW219629   6.046   5.906   2.980
 6244SOL     OW19630   1.708   1.967   2.048
 6244SOL    HW119631   1.731   1.994   2.142
 6244SOL    HW219632   1.619   1.922   2.047
 6245SOL     OW19633   2.281   4.004   0.512
 6245SOL    HW119634   2.209   3.956   0.562
 6245SOL    HW219635   2.371   3.976   0.546
 6246SOL     OW19636   4.425   0.029   0.226
 6246SOL    HW119637   4.499   0.063   0.168
 6246SOL    HW219638   4.345   0.088   0.216
 6247SOL     OW19639   6.863   6.628   2.650
 6247SOL    HW119640   6.799   6.586   2.714
 6247SOL    HW219641   6.827   6.716   2.619
 6248SOL     OW19642   0.897   5.813   0.719
 6248SOL    HW119643   0.912   5.725   0.765
 6248SOL    HW219644   0.913   5.802   0.621
 6249SOL     OW19645   6.527   3.420   6.412
 6249SOL    HW119646   6.476   3.338   6.384
 6249SOL    HW219647   6.624   3.409   6.389
 6250SOL     OW19648   6.843   4.579   5.829
 6250SOL    HW119649   6.816   4.482   5.834
 6250SOL    HW219650   6.867   4.602   5.735
 6251SOL     OW19651   4.679   1.504   0.914
 6251SOL    HW119652   4.689   1.574   0.843
 6251SOL    HW219653   4.749   1.434   0.902
 6252SOL     OW19654   2.080   6.603   4.697
 6252SOL    HW119655   2.162   6.637   4.743
 6252SOL    HW219656   2.062   6.509   4.727
 6253SOL     OW19657   2.619   3.642   1.354
 6253SOL    HW119658   2.672   3.727   1.353
 6253SOL    HW219659   2.610   3.607   1.260
 6254SOL     OW19660   5.284   0.442   0.456
 6254SOL    HW119661   5.274   0.473   0.551
 6254SOL    HW219662   5.259   0.346   0.450
 6255SOL     OW19663   0.227   3.136   3.426
 6255SOL    HW119664   0.140   3.182   3.444
 6255SOL    HW219665   0.248   3.144   3.328
 6256SOL     OW19666   4.142   5.154   4.171
 6256SOL    HW119667   4.228   5.136   4.123
 6256SOL    HW219668   4.095   5.230   4.126
 6257SOL     OW19669   4.160   2.895   6.662
 6257SOL    HW119670   4.241   2.851   6.702
 6257SOL    HW219671   4.132   2.843   6.580
 6258SOL     OW19672   4.271   2.155   2.785
 6258SOL    HW119673   4.221   2.144   2.871
 6258SOL    HW219674   4.219   2.112   2.711
 6259SOL     OW19675   3.153   2.206   1.631
 6259SOL    HW119676   3.076   2.144   1.616
 6259SOL    HW219677   3.122   2.286   1.682
 6260SOL     OW19678   3.120   4.372   1.337
 6260SOL    HW119679   3.044   4.321   1.377
 6260SOL    HW219680   3.090   4.464   1.312
 6261SOL     OW19681   4.802   6.802   6.103
 6261SOL    HW119682   4.786   6.767   6.011
 6261SOL    HW219683   4.883   6.860   6.103
 6262SOL     OW19684   0.911   5.772   5.146
 6262SOL    HW119685   0.844   5.797   5.215
 6262SOL    HW219686   0.906   5.835   5.069
 6263SOL     OW19687   6.188   1.228   1.329
 6263SOL    HW119688   6.118   1.282   1.376
 6263SOL    HW219689   6.269   1.284   1.313
 6264SOL     OW19690   2.812   1.413   0.244
 6264SOL    HW119691   2.714   1.395   0.237
 6264SOL    HW219692   2.829   1.511   0.228
 6265SOL     OW19693   5.894   3.456   0.232
 6265SOL    HW119694   5.891   3.524   0.306
 6265SOL    HW219695   5.988   3.428   0.216
 6266SOL     OW19696   2.414   0.105   2.462
 6266SOL    HW119697   2.391   0.037   2.532
 6266SOL    HW219698   2.513   0.119   2.462
 6267SOL     OW19699   2.756   6.577   0.455
 6267SOL    HW119700   2.786   6.629   0.375
 6267SOL    HW219701   2.726   6.640   0.527
 6268SOL     OW19702   1.986   5.648   2.304
 6268SOL    HW119703   1.947   5.557   2.302
 6268SOL    HW219704   2.019   5.669   2.396
 6269SOL     OW19705   6.213   4.418   6.903
 6269SOL    HW119706   6.275   4.346   6.872
 6269SOL    HW219707   6.260   4.475   6.971
 6270SOL     OW19708   0.568   1.174   3.994
 6270SOL    HW119709   0.598   1.085   3.960
 6270SOL    HW219710   0.538   1.165   4.089
 6271SOL     OW19711   6.236   1.862   1.387
 6271SOL    HW119712   6.149   1.909   1.371
 6271SOL    HW219713   6.311   1.928   1.386
 6272SOL     OW19714   2.370   2.799   3.511
 6272SOL    HW119715   2.414   2.734   3.573
 6272SOL    HW219716   2.342   2.880   3.561
 6273SOL     OW19717   4.336   0.892   2.386
 6273SOL    HW119718   4.370   0.809   2.342
 6273SOL    HW219719   4.351   0.885   2.485
 6274SOL     OW19720   2.809   5.955   6.822
 6274SOL    HW119721   2.900   5.913   6.817
 6274SOL    HW219722   2.770   5.939   6.912
 6275SOL     OW19723   3.130   1.008   4.893
 6275SOL    HW119724   3.188   0.933   4.926
 6275SOL    HW219725   3.094   0.986   4.803
 6276SOL     OW19726   1.400   5.284   3.473
 6276SOL    HW119727   1.442   5.209   3.524
 6276SOL    HW219728   1.397   5.366   3.531
 6277SOL     OW19729   5.983   3.171   4.391
 6277SOL    HW119730   5.926   3.247   4.424
 6277SOL    HW219731   6.029   3.199   4.307
 6278SOL     OW19732   4.419   1.042   3.406
 6278SOL    HW119733   4.486   0.979   3.444
 6278SOL    HW219734   4.453   1.136   3.413
 6279SOL     OW19735   4.623   1.831   6.539
 6279SOL    HW119736   4.630   1.734   6.518
 6279SOL    HW219737   4.528   1.861   6.529
 6280SOL     OW19738   1.273   5.429   6.034
 6280SOL    HW119739   1.342   5.488   6.076
 6280SOL    HW219740   1.317   5.346   6.001
 6281SOL     OW19741   3.422   6.217   4.580
 6281SOL    HW119742   3.414   6.120   4.557
 6281SOL    HW219743   3.448   6.226   4.676
 6282SOL     OW19744   0.665   6.874   3.837
 6282SOL    HW119745   0.594   6.807   3.857
 6282SOL    HW219746   0.727   6.838   3.768
 6283SOL     OW19747   0.983   2.968   4.947
 6283SOL    HW119748   1.059   2.908   4.974
 6283SOL    HW219749   0.947   2.939   4.859
 6284SOL     OW19750   2.665   4.789   6.587
 6284SOL    HW119751   2.733   4.805   6.658
 6284SOL    HW219752   2.579   4.760   6.630
 6285SOL     OW19753   1.919   4.046   2.489
 6285SOL    HW119754   1.999   4.023   2.434
 6285SOL    HW219755   1.928   4.141   2.522
 6286SOL     OW19756   6.514   6.280   4.576
 6286SOL    HW119757   6.607   6.243   4.570
 6286SOL    HW219758   6.467   6.265   4.489
 6287SOL     OW19759   3.913   5.038   2.498
 6287SOL    HW119760   3.948   4.945   2.497
 6287SOL    HW219761   3.978   5.098   2.545
 6288SOL     OW19762   5.515   3.212   0.571
 6288SOL    HW119763   5.575   3.241   0.496
 6288SOL    HW219764   5.517   3.281   0.644
 6289SOL     OW19765   0.908   6.815   2.831
 6289SOL    HW119766   0.825   6.781   2.787
 6289SOL    HW219767   0.950   6.742   2.885
 6290SOL     OW19768   6.086   4.311   3.500
 6290SOL    HW119769   6.146   4.361   3.564
 6290SOL    HW219770   5.995   4.353   3.501
 6291SOL     OW19771   3.989   3.901   3.376
 6291SOL    HW119772   4.034   3.823   3.420
 6291SOL    HW219773   4.025   3.912   3.283
 6292SOL     OW19774   6.810   0.951   1.902
 6292SOL    HW119775   6.781   0.889   1.830
 6292SOL    HW219776   6.889   0.912   1.950
 6293SOL     OW19777   5.989   5.322   6.344
 6293SOL    HW119778   6.018   5.345   6.251
 6293SOL    HW219779   5.894   5.289   6.341
 6294SOL     OW19780   3.647   6.303   1.875
 6294SOL    HW119781   3.608   6.394   1.890
 6294SOL    HW219782   3.588   6.234   1.918
 6295SOL     OW19783   6.902   5.777   5.581
 6295SOL    HW119784   6.913   5.679   5.563
 6295SOL    HW219785   6.857   5.790   5.669
 6296SOL     OW19786   6.339   1.316   3.056
 6296SOL    HW119787   6.343   1.352   2.963
 6296SOL    HW219788   6.284   1.233   3.057
 6297SOL     OW19789   5.542   1.049   5.670
 6297SOL    HW119790   5.590   1.031   5.584
 6297SOL    HW219791   5.452   1.087   5.650
 6298SOL     OW19792   6.620   2.384   4.463
 6298SOL    HW119793   6.523   2.377   4.440
 6298SOL    HW219794   6.644   2.315   4.531
 6299SOL     OW19795   6.700   2.757   0.749
 6299SOL    HW119796   6.729   2.779   0.657
 6299SOL    HW219797   6.772   2.707   0.796
 6300SOL     OW19798   5.212   1.480   3.533
 6300SOL    HW119799   5.138   1.417   3.556
 6300SOL    HW219800   5.177   1.574   3.532
 6301SOL     OW19801   3.726   0.862   0.996
 6301SOL    HW119802   3.664   0.938   1.014
 6301SOL    HW219803   3.674   0.786   0.956
 6302SOL     OW19804   6.313   0.529   2.598
 6302SOL    HW119805   6.396   0.573   2.563
 6302SOL    HW219806   6.241   0.535   2.529
 6303SOL     OW19807   2.546   5.862   4.445
 6303SOL    HW119808   2.473   5.906   4.497
 6303SOL    HW219809   2.628   5.855   4.502
 6304SOL     OW19810   3.774   0.963   4.663
 6304SOL    HW119811   3.854   0.954   4.722
 6304SOL    HW219812   3.794   0.925   4.572
 6305SOL     OW19813   5.603   0.920   2.441
 6305SOL    HW119814   5.652   0.860   2.377
 6305SOL    HW219815   5.506   0.923   2.417
 6306SOL     OW19816   6.007   2.560   4.075
 6306SOL    HW119817   6.077   2.569   4.146
 6306SOL    HW219818   5.917   2.549   4.117
 6307SOL     OW19819   1.818   4.586   0.389
 6307SOL    HW119820   1.781   4.625   0.304
 6307SOL    HW219821   1.907   4.544   0.370
 6308SOL     OW19822   4.072   1.918   6.256
 6308SOL    HW119823   4.016   1.958   6.183
 6308SOL    HW219824   4.085   1.820   6.238
 6309SOL     OW19825   5.899   1.957   5.239
 6309SOL    HW119826   5.825   2.003   5.288
 6309SOL    HW219827   5.914   1.867   5.280
 6310SOL     OW19828   0.005   5.589   4.724
 6310SOL    HW119829   7.017   5.682   4.687
 6310SOL    HW219830   7.004   5.590   4.821
 6311SOL     OW19831   5.864   0.301   4.370
 6311SOL    HW119832   5.772   0.308   4.408
 6311SOL    HW219833   5.859   0.305   4.270
 6312SOL     OW19834   5.445   4.058   5.593
 6312SOL    HW119835   5.520   4.010   5.548
 6312SOL    HW219836   5.482   4.134   5.647
 6313SOL     OW19837   2.281   5.262   3.972
 6313SOL    HW119838   2.215   5.333   3.946
 6313SOL    HW219839   2.370   5.305   3.989
 6314SOL     OW19840   1.540   0.329   3.851
 6314SOL    HW119841   1.597   0.301   3.774
 6314SOL    HW219842   1.444   0.310   3.829
 6315SOL     OW19843   1.963   3.510   0.252
 6315SOL    HW119844   1.892   3.580   0.242
 6315SOL    HW219845   1.989   3.477   0.161
 6316SOL     OW19846   4.376   1.393   4.878
 6316SOL    HW119847   4.317   1.473   4.884
 6316SOL    HW219848   4.420   1.390   4.788
 6317SOL     OW19849   6.620   5.231   4.861
 6317SOL    HW119850   6.527   5.245   4.895
 6317SOL    HW219851   6.662   5.155   4.910
 6318SOL     OW19852   1.525   1.948   4.247
 6318SOL    HW119853   1.492   2.041   4.266
 6318SOL    HW219854   1.610   1.953   4.195
 6319SOL     OW19855   1.199   2.298   2.854
 6319SOL    HW119856   1.293   2.262   2.850
 6319SOL    HW219857   1.179   2.327   2.948
 6320SOL     OW19858   0.442   2.455   2.419
 6320SOL    HW119859   0.410   2.550   2.415
 6320SOL    HW219860   0.367   2.394   2.394
 6321SOL     OW19861   2.343   3.836   6.136
 6321SOL    HW119862   2.247   3.857   6.155
 6321SOL    HW219863   2.368   3.867   6.045
 6322SOL     OW19864   2.773   0.303   6.983
 6322SOL    HW119865   2.710   0.380   6.991
 6322SOL    HW219866   2.735   0.235   6.920
 6323SOL     OW19867   4.273   1.538   1.624
 6323SOL    HW119868   4.246   1.483   1.545
 6323SOL    HW219869   4.283   1.633   1.597
 6324SOL     OW19870   3.189   1.758   0.161
 6324SOL    HW119871   3.172   1.848   0.121
 6324SOL    HW219872   3.149   1.753   0.253
 6325SOL     OW19873   1.368   3.233   3.023
 6325SOL    HW119874   1.419   3.274   2.947
 6325SOL    HW219875   1.331   3.305   3.081
 6326SOL     OW19876   4.256   6.770   1.732
 6326SOL    HW119877   4.352   6.778   1.703
 6326SOL    HW219878   4.232   6.674   1.740
 6327SOL     OW19879   3.821   5.230   5.473
 6327SOL    HW119880   3.770   5.315   5.460
 6327SOL    HW219881   3.760   5.160   5.510
 6328SOL     OW19882   2.254   4.612   0.001
 6328SOL    HW119883   2.204   4.689   6.982
 6328SOL    HW219884   2.265   4.625   0.099
 6329SOL     OW19885   0.799   1.372   3.064
 6329SOL    HW119886   0.837   1.464   3.058
 6329SOL    HW219887   0.790   1.346   3.160
 6330SOL     OW19888   3.639   0.460   6.919
 6330SOL    HW119889   3.663   0.466   7.016
 6330SOL    HW219890   3.602   0.369   6.900
 6331SOL     OW19891   4.752   3.237   1.768
 6331SOL    HW119892   4.776   3.225   1.864
 6331SOL    HW219893   4.694   3.161   1.738
 6332SOL     OW19894   4.543   6.395   2.186
 6332SOL    HW119895   4.602   6.448   2.126
 6332SOL    HW219896   4.450   6.396   2.151
 6333SOL     OW19897   2.441   5.282   3.046
 6333SOL    HW119898   2.346   5.296   3.018
 6333SOL    HW219899   2.481   5.370   3.075
 6334SOL     OW19900   2.331   1.455   2.335
 6334SOL    HW119901   2.394   1.383   2.308
 6334SOL    HW219902   2.382   1.537   2.360
 6335SOL     OW19903   6.870   0.975   0.019
 6335SOL    HW119904   6.903   1.051   0.075
 6335SOL    HW219905   6.948   0.926   7.000
 6336SOL     OW19906   1.412   2.791   5.019
 6336SOL    HW119907   1.405   2.754   4.927
 6336SOL    HW219908   1.418   2.891   5.015
 6337SOL     OW19909   0.560   4.562   4.929
 6337SOL    HW119910   0.467   4.588   4.953
 6337SOL    HW219911   0.624   4.599   4.997
 6338SOL     OW19912   3.749   1.499   4.548
 6338SOL    HW119913   3.725   1.592   4.575
 6338SOL    HW219914   3.731   1.486   4.450
 6339SOL     OW19915   0.238   2.686   4.257
 6339SOL    HW119916   0.180   2.727   4.186
 6339SOL    HW219917   0.195   2.699   4.346
 6340SOL     OW19918   2.889   5.761   3.750
 6340SOL    HW119919   2.913   5.669   3.781
 6340SOL    HW219920   2.802   5.758   3.702
 6341SOL     OW19921   6.008   5.664   2.058
 6341SOL    HW119922   5.979   5.728   2.128
 6341SOL    HW219923   6.087   5.701   2.010
 6342SOL     OW19924   1.331   3.687   0.852
 6342SOL    HW119925   1.322   3.689   0.753
 6342SOL    HW219926   1.426   3.667   0.876
 6343SOL     OW19927   4.555   1.364   0.523
 6343SOL    HW119928   4.618   1.311   0.467
 6343SOL    HW219929   4.534   1.314   0.607
 6344SOL     OW19930   6.109   4.795   4.684
 6344SOL    HW119931   6.208   4.807   4.678
 6344SOL    HW219932   6.082   4.716   4.631
 6345SOL     OW19933   1.967   2.185   1.464
 6345SOL    HW119934   2.028   2.108   1.443
 6345SOL    HW219935   1.876   2.150   1.487
 6346SOL     OW19936   0.600   5.202   4.100
 6346SOL    HW119937   0.601   5.103   4.110
 6346SOL    HW219938   0.580   5.226   4.005
 6347SOL     OW19939   3.189   0.366   0.664
 6347SOL    HW119940   3.145   0.433   0.605
 6347SOL    HW219941   3.153   0.275   0.643
 6348SOL     OW19942   0.271   2.799   3.689
 6348SOL    HW119943   0.249   2.769   3.596
 6348SOL    HW219944   0.255   2.723   3.752
 6349SOL     OW19945   1.436   0.836   0.621
 6349SOL    HW119946   1.356   0.794   0.579
 6349SOL    HW219947   1.407   0.911   0.681
 6350SOL     OW19948   0.001   5.966   3.071
 6350SOL    HW119949   0.027   5.971   3.168
 6350SOL    HW219950   0.052   6.036   3.020
 6351SOL     OW19951   0.132   2.450   3.078
 6351SOL    HW119952   0.200   2.381   3.102
 6351SOL    HW219953   0.170   2.512   3.009
 6352SOL     OW19954   6.891   4.717   2.386
 6352SOL    HW119955   6.825   4.780   2.345
 6352SOL    HW219956   6.983   4.754   2.376
 6353SOL     OW19957   6.598   6.620   2.059
 6353SOL    HW119958   6.523   6.555   2.069
 6353SOL    HW219959   6.669   6.580   2.002
 6354SOL     OW19960   0.100   6.936   4.336
 6354SOL    HW119961   0.179   6.912   4.393
 6354SOL    HW219962   0.045   7.005   4.382
 6355SOL     OW19963   1.439   2.165   1.518
 6355SOL    HW119964   1.480   2.228   1.452
 6355SOL    HW219965   1.355   2.205   1.554
 6356SOL     OW19966   3.132   3.780   1.119
 6356SOL    HW119967   3.175   3.849   1.177
 6356SOL    HW219968   3.203   3.725   1.076
 6357SOL     OW19969   5.211   2.023   1.203
 6357SOL    HW119970   5.129   2.076   1.227
 6357SOL    HW219971   5.184   1.935   1.164
 6358SOL     OW19972   1.167   2.850   5.403
 6358SOL    HW119973   1.104   2.845   5.481
 6358SOL    HW219974   1.241   2.914   5.424
 6359SOL     OW19975   6.972   0.967   6.537
 6359SOL    HW119976   6.998   0.981   6.441
 6359SOL    HW219977   6.983   0.871   6.560
 6360SOL     OW19978   2.500   5.098   4.118
 6360SOL    HW119979   2.581   5.132   4.168
 6360SOL    HW219980   2.435   5.060   4.183
 6361SOL     OW19981   3.025   6.802   5.400
 6361SOL    HW119982   2.930   6.775   5.385
 6361SOL    HW219983   3.058   6.761   5.485
 6362SOL     OW19984   6.649   5.354   6.277
 6362SOL    HW119985   6.748   5.341   6.284
 6362SOL    HW219986   6.625   5.443   6.315
 6363SOL     OW19987   1.046   5.143   3.909
 6363SOL    HW119988   0.985   5.111   3.836
 6363SOL    HW219989   0.997   5.207   3.968
 6364SOL     OW19990   2.750   1.944   6.258
 6364SOL    HW119991   2.830   1.884   6.258
 6364SOL    HW219992   2.746   1.993   6.171
 6365SOL     OW19993   3.989   5.574   2.490
 6365SOL    HW119994   4.035   5.490   2.519
 6365SOL    HW219995   4.041   5.653   2.521
 6366SOL     OW19996   0.604   4.006   5.521
 6366SOL    HW119997   0.585   4.047   5.432
 6366SOL    HW219998   0.578   4.070   5.594
 6367SOL     OW19999   5.054   5.892   2.194
 6367SOL    HW120000   5.042   5.987   2.226
 6367SOL    HW220001   5.141   5.884   2.145
 6368SOL     OW20002   2.825   1.714   2.593
 6368SOL    HW120003   2.860   1.694   2.685
 6368SOL    HW220004   2.790   1.807   2.591
 6369SOL     OW20005   2.145   6.315   5.028
 6369SOL    HW120006   2.219   6.354   5.084
 6369SOL    HW220007   2.163   6.218   5.013
 6370SOL     OW20008   5.250   3.149   1.989
 6370SOL    HW120009   5.302   3.135   2.073
 6370SOL    HW220010   5.156   3.174   2.011
 6371SOL     OW20011   4.380   1.202   4.080
 6371SOL    HW120012   4.427   1.269   4.022
 6371SOL    HW220013   4.308   1.248   4.133
 6372SOL     OW20014   2.782   0.297   2.818
 6372SOL    HW120015   2.812   0.339   2.732
 6372SOL    HW220016   2.838   0.215   2.836
 6373SOL     OW20017   3.470   4.409   0.163
 6373SOL    HW120018   3.567   4.388   0.163
 6373SOL    HW220019   3.456   4.502   0.130
 6374SOL     OW20020   3.012   3.491   3.621
 6374SOL    HW120021   2.956   3.440   3.555
 6374SOL    HW220022   3.093   3.438   3.644
 6375SOL     OW20023   2.506   5.857   1.867
 6375SOL    HW120024   2.458   5.773   1.892
 6375SOL    HW220025   2.585   5.871   1.926
 6376SOL     OW20026   1.287   1.700   5.537
 6376SOL    HW120027   1.207   1.641   5.540
 6376SOL    HW220028   1.283   1.759   5.456
 6377SOL     OW20029   1.123   2.267   3.846
 6377SOL    HW120030   1.148   2.211   3.767
 6377SOL    HW220031   1.167   2.232   3.928
 6378SOL     OW20032   4.312   5.253   3.884
 6378SOL    HW120033   4.349   5.262   3.792
 6378SOL    HW220034   4.304   5.156   3.907
 6379SOL     OW20035   2.847   4.955   1.799
 6379SOL    HW120036   2.783   4.881   1.819
 6379SOL    HW220037   2.941   4.923   1.813
 6380SOL     OW20038   1.463   0.803   6.124
 6380SOL    HW120039   1.556   0.826   6.096
 6380SOL    HW220040   1.439   0.712   6.089
 6381SOL     OW20041   3.484   3.266   2.754
 6381SOL    HW120042   3.400   3.265   2.809
 6381SOL    HW220043   3.534   3.351   2.772
 6382SOL     OW20044   1.452   4.951   4.499
 6382SOL    HW120045   1.413   4.894   4.427
 6382SOL    HW220046   1.548   4.926   4.512
 6383SOL     OW20047   3.662   1.506   4.271
 6383SOL    HW120048   3.721   1.427   4.252
 6383SOL    HW220049   3.652   1.560   4.188
 6384SOL     OW20050   6.724   4.038   2.001
 6384SOL    HW120051   6.706   4.122   2.053
 6384SOL    HW220052   6.668   4.038   1.918
 6385SOL     OW20053   1.083   6.019   5.812
 6385SOL    HW120054   1.011   6.000   5.745
 6385SOL    HW220055   1.164   6.054   5.764
 6386SOL     OW20056   2.322   5.382   2.727
 6386SOL    HW120057   2.246   5.319   2.709
 6386SOL    HW220058   2.404   5.349   2.682
 6387SOL     OW20059   6.132   0.629   4.843
 6387SOL    HW120060   6.104   0.720   4.812
 6387SOL    HW220061   6.139   0.628   4.943
 6388SOL     OW20062   1.726   4.765   3.039
 6388SOL    HW120063   1.642   4.815   3.061
 6388SOL    HW220064   1.761   4.796   2.951
 6389SOL     OW20065   1.462   4.290   1.141
 6389SOL    HW120066   1.550   4.281   1.188
 6389SOL    HW220067   1.421   4.200   1.129
 6390SOL     OW20068   0.663   3.022   4.696
 6390SOL    HW120069   0.759   2.995   4.681
 6390SOL    HW220070   0.644   3.020   4.794
 6391SOL     OW20071   4.147   0.686   0.354
 6391SOL    HW120072   4.175   0.706   0.448
 6391SOL    HW220073   4.097   0.600   0.351
 6392SOL     OW20074   1.572   6.048   4.411
 6392SOL    HW120075   1.552   6.139   4.375
 6392SOL    HW220076   1.630   6.056   4.492
 6393SOL     OW20077   4.739   1.158   6.902
 6393SOL    HW120078   4.645   1.184   6.881
 6393SOL    HW220079   4.802   1.218   6.853
 6394SOL     OW20080   3.554   5.219   1.764
 6394SOL    HW120081   3.513   5.306   1.790
 6394SOL    HW220082   3.591   5.226   1.672
 6395SOL     OW20083   5.694   2.068   6.983
 6395SOL    HW120084   5.660   1.990   6.931
 6395SOL    HW220085   5.782   2.098   6.945
 6396SOL     OW20086   6.268   3.081   6.673
 6396SOL    HW120087   6.265   2.991   6.716
 6396SOL    HW220088   6.261   3.152   6.743
 6397SOL     OW20089   6.355   1.115   0.776
 6397SOL    HW120090   6.452   1.128   0.794
 6397SOL    HW220091   6.336   1.127   0.679
 6398SOL     OW20092   3.893   0.716   1.587
 6398SOL    HW120093   3.962   0.764   1.641
 6398SOL    HW220094   3.810   0.771   1.582
 6399SOL     OW20095   1.207   6.520   6.482
 6399SOL    HW120096   1.260   6.527   6.398
 6399SOL    HW220097   1.265   6.489   6.557
 6400SOL     OW20098   2.870   5.040   4.727
 6400SOL    HW120099   2.964   5.075   4.723
 6400SOL    HW220100   2.828   5.046   4.637
 6401SOL     OW20101   0.747   4.844   5.430
 6401SOL    HW120102   0.809   4.900   5.376
 6401SOL    HW220103   0.708   4.898   5.505
 6402SOL     OW20104   1.959   2.957   3.406
 6402SOL    HW120105   1.915   2.984   3.321
 6402SOL    HW220106   1.999   2.866   3.395
 6403SOL     OW20107   0.504   6.207   1.837
 6403SOL    HW120108   0.447   6.235   1.760
 6403SOL    HW220109   0.600   6.202   1.808
 6404SOL     OW20110   5.331   0.919   2.321
 6404SOL    HW120111   5.318   0.996   2.258
 6404SOL    HW220112   5.255   0.918   2.387
 6405SOL     OW20113   3.378   0.132   1.496
 6405SOL    HW120114   3.431   0.058   1.454
 6405SOL    HW220115   3.441   0.201   1.533
 6406SOL     OW20116   2.687   1.808   3.304
 6406SOL    HW120117   2.738   1.742   3.249
 6406SOL    HW220118   2.669   1.890   3.249
 6407SOL     OW20119   4.782   6.241   6.760
 6407SOL    HW120120   4.823   6.287   6.839
 6407SOL    HW220121   4.713   6.176   6.792
 6408SOL     OW20122   5.552   2.477   0.946
 6408SOL    HW120123   5.602   2.492   1.031
 6408SOL    HW220124   5.461   2.440   0.967
 6409SOL     OW20125   1.077   5.286   2.010
 6409SOL    HW120126   1.114   5.292   2.102
 6409SOL    HW220127   0.977   5.288   2.013
 6410SOL     OW20128   0.480   0.551   1.655
 6410SOL    HW120129   0.422   0.506   1.587
 6410SOL    HW220130   0.423   0.590   1.727
 6411SOL     OW20131   1.485   1.962   3.213
 6411SOL    HW120132   1.563   1.910   3.247
 6411SOL    HW220133   1.405   1.942   3.269
 6412SOL     OW20134   5.755   2.756   4.604
 6412SOL    HW120135   5.842   2.727   4.563
 6412SOL    HW220136   5.686   2.767   4.533
 6413SOL     OW20137   0.569   5.042   0.827
 6413SOL    HW120138   0.619   5.123   0.856
 6413SOL    HW220139   0.623   4.960   0.848
 6414SOL     OW20140   5.882   0.499   3.184
 6414SOL    HW120141   5.851   0.408   3.157
 6414SOL    HW220142   5.960   0.490   3.247
 6415SOL     OW20143   1.467   1.804   1.998
 6415SOL    HW120144   1.462   1.848   1.908
 6415SOL    HW220145   1.375   1.800   2.039
 6416SOL     OW20146   2.657   6.094   6.442
 6416SOL    HW120147   2.640   6.107   6.540
 6416SOL    HW220148   2.716   6.013   6.429
 6417SOL     OW20149   6.886   5.834   4.059
 6417SOL    HW120150   6.791   5.837   4.026
 6417SOL    HW220151   6.909   5.739   4.081
 6418SOL     OW20152   6.842   5.312   2.365
 6418SOL    HW120153   6.902   5.342   2.439
 6418SOL    HW220154   6.851   5.213   2.352
 6419SOL     OW20155   2.482   2.846   0.637
 6419SOL    HW120156   2.447   2.753   0.624
 6419SOL    HW220157   2.478   2.895   0.550
 6420SOL     OW20158   0.707   2.616   6.923
 6420SOL    HW120159   0.655   2.583   6.844
 6420SOL    HW220160   0.759   2.540   6.963
 6421SOL     OW20161   5.503   1.752   0.295
 6421SOL    HW120162   5.586   1.800   0.269
 6421SOL    HW220163   5.455   1.720   0.213
 6422SOL     OW20164   5.850   2.910   2.809
 6422SOL    HW120165   5.916   2.945   2.743
 6422SOL    HW220166   5.785   2.849   2.763
 6423SOL     OW20167   5.318   4.065   0.386
 6423SOL    HW120168   5.298   4.041   0.291
 6423SOL    HW220169   5.350   3.984   0.435
 6424SOL     OW20170   6.072   3.759   5.176
 6424SOL    HW120171   6.138   3.745   5.102
 6424SOL    HW220172   6.015   3.838   5.155
 6425SOL     OW20173   0.479   5.353   1.095
 6425SOL    HW120174   0.449   5.394   1.181
 6425SOL    HW220175   0.510   5.425   1.033
 6426SOL     OW20176   6.052   3.192   3.137
 6426SOL    HW120177   6.146   3.212   3.166
 6426SOL    HW220178   5.989   3.253   3.185
 6427SOL     OW20179   0.569   3.318   5.964
 6427SOL    HW120180   0.549   3.333   6.061
 6427SOL    HW220181   0.542   3.225   5.938
 6428SOL     OW20182   6.112   3.894   4.493
 6428SOL    HW120183   6.062   3.904   4.579
 6428SOL    HW220184   6.067   3.945   4.421
 6429SOL     OW20185   1.102   1.506   5.489
 6429SOL    HW120186   1.022   1.546   5.443
 6429SOL    HW220187   1.072   1.432   5.549
 6430SOL     OW20188   6.244   2.962   0.564
 6430SOL    HW120189   6.227   2.971   0.466
 6430SOL    HW220190   6.285   2.872   0.582
 6431SOL     OW20191   6.071   1.451   2.349
 6431SOL    HW120192   5.990   1.396   2.371
 6431SOL    HW220193   6.105   1.495   2.432
 6432SOL     OW20194   6.327   3.980   0.523
 6432SOL    HW120195   6.275   3.918   0.583
 6432SOL    HW220196   6.279   3.991   0.436
 6433SOL     OW20197   2.098   3.526   1.478
 6433SOL    HW120198   2.034   3.603   1.485
 6433SOL    HW220199   2.047   3.440   1.479
 6434SOL     OW20200   1.202   5.641   1.036
 6434SOL    HW120201   1.233   5.547   1.028
 6434SOL    HW220202   1.120   5.654   0.980
 6435SOL     OW20203   5.167   3.484   0.808
 6435SOL    HW120204   5.090   3.421   0.807
 6435SOL    HW220205   5.144   3.566   0.754
 6436SOL     OW20206   2.090   2.461   1.412
 6436SOL    HW120207   2.185   2.431   1.399
 6436SOL    HW220208   2.028   2.388   1.382
 6437SOL     OW20209   0.264   1.229   1.005
 6437SOL    HW120210   0.185   1.170   0.987
 6437SOL    HW220211   0.236   1.325   0.995
 6438SOL     OW20212   0.771   3.318   4.937
 6438SOL    HW120213   0.841   3.304   4.867
 6438SOL    HW220214   0.710   3.239   4.940
 6439SOL     OW20215   0.084   6.214   2.630
 6439SOL    HW120216   0.056   6.306   2.603
 6439SOL    HW220217   0.163   6.220   2.691
 6440SOL     OW20218   0.907   0.557   1.960
 6440SOL    HW120219   0.820   0.555   1.910
 6440SOL    HW220220   0.979   0.588   1.899
 6441SOL     OW20221   4.637   1.908   3.192
 6441SOL    HW120222   4.708   1.974   3.218
 6441SOL    HW220223   4.674   1.843   3.125
 6442SOL     OW20224   1.892   1.413   3.454
 6442SOL    HW120225   1.850   1.500   3.481
 6442SOL    HW220226   1.965   1.430   3.388
 6443SOL     OW20227   2.065   0.365   1.053
 6443SOL    HW120228   2.127   0.286   1.043
 6443SOL    HW220229   1.974   0.340   1.022
 6444SOL     OW20230   1.152   1.830   2.886
 6444SOL    HW120231   1.068   1.868   2.847
 6444SOL    HW220232   1.229   1.891   2.866
 6445SOL     OW20233   3.193   4.441   6.008
 6445SOL    HW120234   3.177   4.504   5.932
 6445SOL    HW220235   3.157   4.351   5.985
 6446SOL     OW20236   0.138   1.006   0.886
 6446SOL    HW120237   0.196   1.014   0.805
 6446SOL    HW220238   0.129   0.909   0.910
 6447SOL     OW20239   1.628   0.609   3.673
 6447SOL    HW120240   1.538   0.589   3.635
 6447SOL    HW220241   1.632   0.578   3.768
 6448SOL     OW20242   6.704   2.367   2.983
 6448SOL    HW120243   6.727   2.270   2.991
 6448SOL    HW220244   6.627   2.377   2.920
 6449SOL     OW20245   4.060   2.608   0.798
 6449SOL    HW120246   4.085   2.569   0.886
 6449SOL    HW220247   4.082   2.705   0.796
 6450SOL     OW20248   6.419   2.490   0.553
 6450SOL    HW120249   6.356   2.418   0.522
 6450SOL    HW220250   6.460   2.534   0.473
 6451SOL     OW20251   2.554   6.617   4.200
 6451SOL    HW120252   2.512   6.533   4.165
 6451SOL    HW220253   2.599   6.666   4.126
 6452SOL     OW20254   3.530   6.227   4.291
 6452SOL    HW120255   3.553   6.220   4.194
 6452SOL    HW220256   3.461   6.298   4.304
 6453SOL     OW20257   2.034   5.280   6.623
 6453SOL    HW120258   2.118   5.263   6.571
 6453SOL    HW220259   1.977   5.345   6.572
 6454SOL     OW20260   3.498   0.951   4.711
 6454SOL    HW120261   3.595   0.971   4.695
 6454SOL    HW220262   3.443   0.993   4.638
 6455SOL     OW20263   6.506   3.478   0.130
 6455SOL    HW120264   6.514   3.497   0.228
 6455SOL    HW220265   6.575   3.410   0.104
 6456SOL     OW20266   6.640   1.962   4.681
 6456SOL    HW120267   6.675   2.050   4.712
 6456SOL    HW220268   6.561   1.976   4.621
 6457SOL     OW20269   5.681   3.153   2.274
 6457SOL    HW120270   5.704   3.250   2.270
 6457SOL    HW220271   5.733   3.103   2.205
 6458SOL     OW20272   0.804   5.947   3.775
 6458SOL    HW120273   0.808   6.045   3.796
 6458SOL    HW220274   0.828   5.933   3.679
 6459SOL     OW20275   5.656   4.397   0.395
 6459SOL    HW120276   5.731   4.358   0.448
 6459SOL    HW220277   5.617   4.474   0.445
 6460SOL     OW20278   3.677   4.571   1.513
 6460SOL    HW120279   3.718   4.497   1.565
 6460SOL    HW220280   3.600   4.536   1.459
 6461SOL     OW20281   3.400   5.831   5.123
 6461SOL    HW120282   3.453   5.824   5.038
 6461SOL    HW220283   3.315   5.881   5.105
 6462SOL     OW20284   1.822   3.807   2.647
 6462SOL    HW120285   1.837   3.892   2.595
 6462SOL    HW220286   1.909   3.761   2.662
 6463SOL     OW20287   1.508   3.463   5.917
 6463SOL    HW120288   1.429   3.521   5.900
 6463SOL    HW220289   1.556   3.445   5.831
 6464SOL     OW20290   1.429   4.853   1.898
 6464SOL    HW120291   1.387   4.931   1.852
 6464SOL    HW220292   1.358   4.799   1.944
 6465SOL     OW20293   6.108   0.528   2.424
 6465SOL    HW120294   6.029   0.585   2.446
 6465SOL    HW220295   6.110   0.511   2.325
 6466SOL     OW20296   6.294   2.486   4.528
 6466SOL    HW120297   6.339   2.572   4.505
 6466SOL    HW220298   6.320   2.416   4.463
 6467SOL     OW20299   3.479   0.086   6.397
 6467SOL    HW120300   3.551   0.103   6.330
 6467SOL    HW220301   3.506   0.010   6.457
 6468SOL     OW20302   6.005   4.286   2.251
 6468SOL    HW120303   5.996   4.337   2.337
 6468SOL    HW220304   5.914   4.261   2.218
 6469SOL     OW20305   6.081   1.532   5.910
 6469SOL    HW120306   6.172   1.556   5.945
 6469SOL    HW220307   6.021   1.508   5.986
 6470SOL     OW20308   6.633   6.002   4.679
 6470SOL    HW120309   6.592   5.916   4.709
 6470SOL    HW220310   6.605   6.075   4.740
 6471SOL     OW20311   6.448   6.173   5.302
 6471SOL    HW120312   6.541   6.202   5.323
 6471SOL    HW220313   6.420   6.102   5.367
 6472SOL     OW20314   2.070   6.300   1.631
 6472SOL    HW120315   2.072   6.383   1.687
 6472SOL    HW220316   2.027   6.226   1.684
 6473SOL     OW20317   2.010   0.879   5.323
 6473SOL    HW120318   1.927   0.934   5.319
 6473SOL    HW220319   2.030   0.856   5.419
 6474SOL     OW20320   1.887   3.419   6.382
 6474SOL    HW120321   1.799   3.440   6.426
 6474SOL    HW220322   1.954   3.488   6.410
 6475SOL     OW20323   4.328   5.537   3.951
 6475SOL    HW120324   4.341   5.583   3.864
 6475SOL    HW220325   4.323   5.438   3.937
 6476SOL     OW20326   4.790   5.763   2.902
 6476SOL    HW120327   4.746   5.779   2.813
 6476SOL    HW220328   4.847   5.842   2.925
 6477SOL     OW20329   6.701   6.133   0.083
 6477SOL    HW120330   6.662   6.190   0.156
 6477SOL    HW220331   6.691   6.037   0.108
 6478SOL     OW20332   4.341   5.597   1.215
 6478SOL    HW120333   4.372   5.607   1.120
 6478SOL    HW220334   4.273   5.667   1.235
 6479SOL     OW20335   3.029   5.985   2.887
 6479SOL    HW120336   2.986   5.983   2.977
 6479SOL    HW220337   3.067   5.895   2.866
 6480SOL     OW20338   2.536   0.990   1.087
 6480SOL    HW120339   2.468   0.917   1.086
 6480SOL    HW220340   2.509   1.061   1.021
 6481SOL     OW20341   4.620   0.490   0.987
 6481SOL    HW120342   4.531   0.517   1.023
 6481SOL    HW220343   4.680   0.569   0.984
 6482SOL     OW20344   0.369   6.900   5.734
 6482SOL    HW120345   0.283   6.930   5.777
 6482SOL    HW220346   0.362   6.912   5.635
 6483SOL     OW20347   1.937   4.775   1.452
 6483SOL    HW120348   1.955   4.840   1.525
 6483SOL    HW220349   1.850   4.798   1.408
 6484SOL     OW20350   4.606   6.795   2.953
 6484SOL    HW120351   4.614   6.830   3.046
 6484SOL    HW220352   4.636   6.865   2.888
 6485SOL     OW20353   0.529   2.901   2.859
 6485SOL    HW120354   0.592   2.827   2.836
 6485SOL    HW220355   0.500   2.948   2.776
 6486SOL     OW20356   1.687   2.842   3.052
 6486SOL    HW120357   1.786   2.836   3.035
 6486SOL    HW220358   1.641   2.874   2.970
 6487SOL     OW20359   5.839   5.677   3.428
 6487SOL    HW120360   5.785   5.594   3.414
 6487SOL    HW220361   5.910   5.683   3.358
 6488SOL     OW20362   3.380   5.334   4.382
 6488SOL    HW120363   3.363   5.238   4.406
 6488SOL    HW220364   3.331   5.393   4.446
 6489SOL     OW20365   2.550   1.465   6.359
 6489SOL    HW120366   2.558   1.393   6.290
 6489SOL    HW220367   2.528   1.552   6.315
 6490SOL     OW20368   5.283   2.065   0.184
 6490SOL    HW120369   5.190   2.084   0.215
 6490SOL    HW220370   5.344   2.057   0.263
 6491SOL     OW20371   5.329   0.836   5.689
 6491SOL    HW120372   5.368   0.781   5.616
 6491SOL    HW220373   5.352   0.796   5.777
 6492SOL     OW20374   6.305   5.912   6.089
 6492SOL    HW120375   6.360   5.979   6.140
 6492SOL    HW220376   6.343   5.821   6.101
 6493SOL     OW20377   0.627   6.981   5.144
 6493SOL    HW120378   0.629   0.047   5.193
 6493SOL    HW220379   0.667   6.909   5.201
 6494SOL     OW20380   0.293   2.171   3.132
 6494SOL    HW120381   0.275   2.075   3.112
 6494SOL    HW220382   0.385   2.180   3.171
 6495SOL     OW20383   5.458   4.666   2.041
 6495SOL    HW120384   5.442   4.603   1.965
 6495SOL    HW220385   5.408   4.751   2.025
 6496SOL     OW20386   0.292   6.233   3.300
 6496SOL    HW120387   0.328   6.296   3.232
 6496SOL    HW220388   0.275   6.144   3.258
 6497SOL     OW20389   0.805   6.877   1.025
 6497SOL    HW120390   0.757   6.954   1.068
 6497SOL    HW220391   0.750   6.794   1.035
 6498SOL     OW20392   1.475   3.614   4.389
 6498SOL    HW120393   1.403   3.621   4.458
 6498SOL    HW220394   1.561   3.648   4.427
 6499SOL     OW20395   6.462   1.467   3.247
 6499SOL    HW120396   6.401   1.438   3.174
 6499SOL    HW220397   6.428   1.432   3.335
 6500SOL     OW20398   5.753   4.977   2.244
 6500SOL    HW120399   5.748   4.904   2.175
 6500SOL    HW220400   5.794   4.941   2.327
 6501SOL     OW20401   6.708   4.141   0.786
 6501SOL    HW120402   6.686   4.105   0.695
 6501SOL    HW220403   6.754   4.229   0.776
 6502SOL     OW20404   0.681   5.055   1.286
 6502SOL    HW120405   0.601   4.996   1.296
 6502SOL    HW220406   0.758   5.015   1.335
 6503SOL     OW20407   4.401   0.400   3.921
 6503SOL    HW120408   4.334   0.350   3.977
 6503SOL    HW220409   4.359   0.427   3.835
 6504SOL     OW20410   2.310   1.866   0.733
 6504SOL    HW120411   2.275   1.776   0.707
 6504SOL    HW220412   2.377   1.897   0.666
 6505SOL     OW20413   5.817   5.075   0.634
 6505SOL    HW120414   5.756   5.141   0.679
 6505SOL    HW220415   5.903   5.120   0.611
 6506SOL     OW20416   2.269   0.993   1.234
 6506SOL    HW120417   2.332   0.915   1.238
 6506SOL    HW220418   2.301   1.065   1.295
 6507SOL     OW20419   2.791   0.963   1.715
 6507SOL    HW120420   2.833   1.006   1.795
 6507SOL    HW220421   2.707   1.013   1.691
 6508SOL     OW20422   1.860   2.355   1.945
 6508SOL    HW120423   1.928   2.318   2.009
 6508SOL    HW220424   1.904   2.376   1.858
 6509SOL     OW20425   1.130   3.101   4.022
 6509SOL    HW120426   1.150   3.100   4.120
 6509SOL    HW220427   1.212   3.075   3.971
 6510SOL     OW20428   6.195   4.469   6.350
 6510SOL    HW120429   6.141   4.465   6.434
 6510SOL    HW220430   6.288   4.500   6.372
 6511SOL     OW20431   0.277   6.674   6.069
 6511SOL    HW120432   0.319   6.654   5.980
 6511SOL    HW220433   0.212   6.750   6.058
 6512SOL     OW20434   5.335   5.944   4.082
 6512SOL    HW120435   5.419   5.889   4.077
 6512SOL    HW220436   5.278   5.911   4.158
 6513SOL     OW20437   1.167   6.770   3.294
 6513SOL    HW120438   1.150   6.812   3.205
 6513SOL    HW220439   1.146   6.835   3.366
 6514SOL     OW20440   2.792   0.608   3.330
 6514SOL    HW120441   2.743   0.684   3.374
 6514SOL    HW220442   2.864   0.575   3.391
 6515SOL     OW20443   0.915   0.669   3.496
 6515SOL    HW120444   1.002   0.620   3.502
 6515SOL    HW220445   0.841   0.603   3.483
 6516SOL     OW20446   1.384   0.866   5.335
 6516SOL    HW120447   1.354   0.805   5.408
 6516SOL    HW220448   1.425   0.948   5.375
 6517SOL     OW20449   2.548   2.286   0.957
 6517SOL    HW120450   2.603   2.288   0.873
 6517SOL    HW220451   2.503   2.197   0.964
 6518SOL     OW20452   5.913   6.384   0.682
 6518SOL    HW120453   5.999   6.423   0.712
 6518SOL    HW220454   5.838   6.421   0.736
 6519SOL     OW20455   0.857   2.054   3.972
 6519SOL    HW120456   0.920   2.132   3.974
 6519SOL    HW220457   0.794   2.066   3.896
 6520SOL     OW20458   5.818   5.109   1.235
 6520SOL    HW120459   5.776   5.175   1.172
 6520SOL    HW220460   5.813   5.145   1.328
 6521SOL     OW20461   1.445   2.291   5.827
 6521SOL    HW120462   1.475   2.196   5.823
 6521SOL    HW220463   1.373   2.300   5.896
 6522SOL     OW20464   2.181   4.869   4.413
 6522SOL    HW120465   2.113   4.848   4.343
 6522SOL    HW220466   2.223   4.958   4.394
 6523SOL     OW20467   1.901   2.062   0.901
 6523SOL    HW120468   1.868   2.146   0.857
 6523SOL    HW220469   1.904   1.988   0.835
 6524SOL     OW20470   4.087   2.379   5.424
 6524SOL    HW120471   4.072   2.462   5.477
 6524SOL    HW220472   4.048   2.301   5.472
 6525SOL     OW20473   0.515   2.715   4.305
 6525SOL    HW120474   0.419   2.686   4.302
 6525SOL    HW220475   0.538   2.743   4.398
 6526SOL     OW20476   1.437   5.704   3.740
 6526SOL    HW120477   1.459   5.716   3.643
 6526SOL    HW220478   1.499   5.638   3.781
 6527SOL     OW20479   2.173   1.491   4.302
 6527SOL    HW120480   2.246   1.483   4.369
 6527SOL    HW220481   2.091   1.528   4.346
 6528SOL     OW20482   0.499   0.335   3.372
 6528SOL    HW120483   0.573   0.279   3.335
 6528SOL    HW220484   0.430   0.351   3.301
 6529SOL     OW20485   6.432   2.769   2.318
 6529SOL    HW120486   6.435   2.865   2.292
 6529SOL    HW220487   6.404   2.761   2.413
 6530SOL     OW20488   0.211   1.624   0.065
 6530SOL    HW120489   0.250   1.605   0.155
 6530SOL    HW220490   0.111   1.628   0.072
 6531SOL     OW20491   5.026   2.230   5.597
 6531SOL    HW120492   5.067   2.142   5.621
 6531SOL    HW220493   4.929   2.218   5.577
 6532SOL     OW20494   1.379   1.776   0.069
 6532SOL    HW120495   1.440   1.757   7.013
 6532SOL    HW220496   1.432   1.777   0.153
 6533SOL     OW20497   4.656   6.962   1.103
 6533SOL    HW120498   4.683   0.023   1.053
 6533SOL    HW220499   4.603   6.902   1.042
 6534SOL     OW20500   3.134   2.866   6.671
 6534SOL    HW120501   3.171   2.959   6.663
 6534SOL    HW220502   3.067   2.864   6.746
 6535SOL     OW20503   2.321   3.379   5.348
 6535SOL    HW120504   2.359   3.286   5.343
 6535SOL    HW220505   2.243   3.379   5.412
 6536SOL     OW20506   0.444   1.763   6.935
 6536SOL    HW120507   0.359   1.722   6.967
 6536SOL    HW220508   0.472   1.719   6.850
 6537SOL     OW20509   0.945   0.631   6.466
 6537SOL    HW120510   0.874   0.698   6.445
 6537SOL    HW220511   1.029   0.655   6.416
 6538SOL     OW20512   2.683   2.503   5.778
 6538SOL    HW120513   2.763   2.481   5.721
 6538SOL    HW220514   2.600   2.485   5.726
 6539SOL     OW20515   3.561   1.517   7.008
 6539SOL    HW120516   3.538   1.505   6.912
 6539SOL    HW220517   3.478   1.529   0.041
 6540SOL     OW20518   3.787   2.144   3.463
 6540SOL    HW120519   3.810   2.168   3.558
 6540SOL    HW220520   3.863   2.169   3.403
 6541SOL     OW20521   2.482   2.435   5.304
 6541SOL    HW120522   2.404   2.443   5.243
 6541SOL    HW220523   2.563   2.408   5.252
 6542SOL     OW20524   5.226   4.647   2.604
 6542SOL    HW120525   5.209   4.561   2.651
 6542SOL    HW220526   5.321   4.648   2.571
 6543SOL     OW20527   1.146   6.410   6.025
 6543SOL    HW120528   1.141   6.321   6.071
 6543SOL    HW220529   1.109   6.481   6.086
 6544SOL     OW20530   0.215   5.916   2.656
 6544SOL    HW120531   0.132   5.869   2.627
 6544SOL    HW220532   0.193   6.011   2.680
 6545SOL     OW20533   5.947   2.887   6.847
 6545SOL    HW120534   5.940   2.953   6.772
 6545SOL    HW220535   5.860   2.839   6.857
 6546SOL     OW20536   3.294   4.917   6.209
 6546SOL    HW120537   3.232   4.870   6.146
 6546SOL    HW220538   3.246   4.942   6.292
 6547SOL     OW20539   4.667   0.914   6.474
 6547SOL    HW120540   4.665   0.912   6.574
 6547SOL    HW220541   4.740   0.974   6.443
 6548SOL     OW20542   4.921   3.811   5.791
 6548SOL    HW120543   4.926   3.876   5.715
 6548SOL    HW220544   5.014   3.789   5.822
 6549SOL     OW20545   2.720   2.335   2.626
 6549SOL    HW120546   2.740   2.364   2.719
 6549SOL    HW220547   2.635   2.283   2.625
 6550SOL     OW20548   1.073   5.632   2.536
 6550SOL    HW120549   1.095   5.619   2.633
 6550SOL    HW220550   1.131   5.705   2.499
 6551SOL     OW20551   3.482   5.155   2.036
 6551SOL    HW120552   3.468   5.057   2.023
 6551SOL    HW220553   3.512   5.197   1.950
 6552SOL     OW20554   4.744   4.570   5.681
 6552SOL    HW120555   4.815   4.521   5.731
 6552SOL    HW220556   4.654   4.542   5.714
 6553SOL     OW20557   6.975   3.364   3.092
 6553SOL    HW120558   0.030   3.389   3.033
 6553SOL    HW220559   7.003   3.371   3.188
 6554SOL     OW20560   0.245   3.894   4.803
 6554SOL    HW120561   0.179   3.869   4.732
 6554SOL    HW220562   0.334   3.856   4.781
 6555SOL     OW20563   0.663   1.712   1.296
 6555SOL    HW120564   0.631   1.649   1.225
 6555SOL    HW220565   0.711   1.661   1.367
 6556SOL     OW20566   3.773   0.018   3.577
 6556SOL    HW120567   3.777   0.042   3.674
 6556SOL    HW220568   3.850   0.060   3.529
 6557SOL     OW20569   5.412   5.716   0.691
 6557SOL    HW120570   5.412   5.810   0.724
 6557SOL    HW220571   5.370   5.713   0.600
 6558SOL     OW20572   0.041   6.483   5.649
 6558SOL    HW120573   0.112   6.457   5.584
 6558SOL    HW220574   0.002   6.401   5.691
 6559SOL     OW20575   2.930   3.604   1.142
 6559SOL    HW120576   3.000   3.675   1.145
 6559SOL    HW220577   2.967   3.519   1.180
 6560SOL     OW20578   4.314   1.657   1.080
 6560SOL    HW120579   4.350   1.564   1.082
 6560SOL    HW220580   4.228   1.661   1.130
 6561SOL     OW20581   3.826   3.695   4.662
 6561SOL    HW120582   3.905   3.756   4.657
 6561SOL    HW220583   3.829   3.630   4.586
 6562SOL     OW20584   0.319   4.621   5.008
 6562SOL    HW120585   0.260   4.554   4.962
 6562SOL    HW220586   0.305   4.615   5.107
 6563SOL     OW20587   0.605   5.396   2.434
 6563SOL    HW120588   0.669   5.469   2.457
 6563SOL    HW220589   0.525   5.435   2.388
 6564SOL     OW20590   1.507   4.900   3.143
 6564SOL    HW120591   1.500   4.896   3.242
 6564SOL    HW220592   1.416   4.887   3.103
 6565SOL     OW20593   6.724   3.535   5.070
 6565SOL    HW120594   6.776   3.450   5.064
 6565SOL    HW220595   6.788   3.612   5.077
 6566SOL     OW20596   4.065   1.216   0.821
 6566SOL    HW120597   4.126   1.182   0.749
 6566SOL    HW220598   4.093   1.308   0.847
 6567SOL     OW20599   6.553   2.386   0.776
 6567SOL    HW120600   6.481   2.410   0.711
 6567SOL    HW220601   6.637   2.437   0.754
 6568SOL     OW20602   5.178   3.672   1.053
 6568SOL    HW120603   5.179   3.620   0.967
 6568SOL    HW220604   5.160   3.609   1.129
 6569SOL     OW20605   1.424   4.291   5.425
 6569SOL    HW120606   1.485   4.218   5.454
 6569SOL    HW220607   1.394   4.344   5.505
 6570SOL     OW20608   6.765   3.674   1.955
 6570SOL    HW120609   6.665   3.682   1.958
 6570SOL    HW220610   6.800   3.718   1.873
 6571SOL     OW20611   1.659   5.695   3.904
 6571SOL    HW120612   1.758   5.703   3.918
 6571SOL    HW220613   1.620   5.639   3.977
 6572SOL     OW20614   2.103   3.738   5.718
 6572SOL    HW120615   2.195   3.700   5.718
 6572SOL    HW220616   2.054   3.708   5.800
 6573SOL     OW20617   1.773   1.779   1.803
 6573SOL    HW120618   1.715   1.798   1.723
 6573SOL    HW220619   1.791   1.864   1.852
 6574SOL     OW20620   2.213   4.357   4.472
 6574SOL    HW120621   2.223   4.329   4.567
 6574SOL    HW220622   2.238   4.454   4.463
 6575SOL     OW20623   1.625   1.942   2.572
 6575SOL    HW120624   1.644   1.991   2.657
 6575SOL    HW220625   1.670   1.852   2.575
 6576SOL     OW20626   0.253   6.486   3.798
 6576SOL    HW120627   0.161   6.481   3.838
 6576SOL    HW220628   0.280   6.396   3.765
 6577SOL     OW20629   0.371   3.792   5.630
 6577SOL    HW120630   0.421   3.730   5.570
 6577SOL    HW220631   0.318   3.857   5.575
 6578SOL     OW20632   6.304   5.694   3.554
 6578SOL    HW120633   6.359   5.628   3.503
 6578SOL    HW220634   6.231   5.646   3.603
 6579SOL     OW20635   0.373   3.936   3.818
 6579SOL    HW120636   0.357   3.853   3.766
 6579SOL    HW220637   0.294   3.997   3.809
 6580SOL     OW20638   5.546   2.403   0.359
 6580SOL    HW120639   5.633   2.446   0.386
 6580SOL    HW220640   5.470   2.453   0.399
 6581SOL     OW20641   2.475   2.215   5.479
 6581SOL    HW120642   2.546   2.159   5.436
 6581SOL    HW220643   2.488   2.311   5.453
 6582SOL     OW20644   6.706   0.580   2.351
 6582SOL    HW120645   6.626   0.540   2.396
 6582SOL    HW220646   6.704   0.679   2.362
 6583SOL     OW20647   6.818   1.124   6.159
 6583SOL    HW120648   6.775   1.034   6.148
 6583SOL    HW220649   6.912   1.112   6.191
 6584SOL     OW20650   5.816   2.591   0.443
 6584SOL    HW120651   5.866   2.567   0.526
 6584SOL    HW220652   5.782   2.685   0.450
 6585SOL     OW20653   2.779   0.449   2.234
 6585SOL    HW120654   2.869   0.455   2.191
 6585SOL    HW220655   2.725   0.531   2.212
 6586SOL     OW20656   6.086   1.912   6.842
 6586SOL    HW120657   6.133   1.901   6.754
 6586SOL    HW220658   6.150   1.894   6.916
 6587SOL     OW20659   1.869   5.889   1.921
 6587SOL    HW120660   1.848   5.818   1.853
 6587SOL    HW220661   1.816   5.872   2.004
 6588SOL     OW20662   3.014   2.497   0.220
 6588SOL    HW120663   3.058   2.448   0.145
 6588SOL    HW220664   3.003   2.593   0.195
 6589SOL     OW20665   4.907   1.495   5.944
 6589SOL    HW120666   4.956   1.536   6.021
 6589SOL    HW220667   4.866   1.568   5.889
 6590SOL     OW20668   6.403   1.997   5.551
 6590SOL    HW120669   6.330   1.955   5.498
 6590SOL    HW220670   6.491   1.975   5.509
 6591SOL     OW20671   4.770   0.251   2.894
 6591SOL    HW120672   4.791   0.331   2.839
 6591SOL    HW220673   4.825   0.173   2.862
 6592SOL     OW20674   6.279   5.103   5.409
 6592SOL    HW120675   6.295   5.032   5.478
 6592SOL    HW220676   6.244   5.061   5.325
 6593SOL     OW20677   5.098   0.765   2.815
 6593SOL    HW120678   5.129   0.675   2.844
 6593SOL    HW220679   5.043   0.806   2.888
 6594SOL     OW20680   5.168   1.168   6.915
 6594SOL    HW120681   5.111   1.153   6.834
 6594SOL    HW220682   5.141   1.105   6.988
 6595SOL     OW20683   3.388   2.308   6.225
 6595SOL    HW120684   3.322   2.295   6.151
 6595SOL    HW220685   3.467   2.249   6.211
 6596SOL     OW20686   2.983   6.523   4.967
 6596SOL    HW120687   3.003   6.539   5.064
 6596SOL    HW220688   3.026   6.437   4.938
 6597SOL     OW20689   0.107   4.018   6.690
 6597SOL    HW120690   0.054   4.041   6.771
 6597SOL    HW220691   0.050   3.965   6.627
 6598SOL     OW20692   2.762   6.077   4.387
 6598SOL    HW120693   2.662   6.070   4.393
 6598SOL    HW220694   2.788   6.103   4.294
 6599SOL     OW20695   4.410   3.599   6.284
 6599SOL    HW120696   4.407   3.669   6.213
 6599SOL    HW220697   4.324   3.548   6.284
 6600SOL     OW20698   4.075   4.904   4.908
 6600SOL    HW120699   4.147   4.972   4.918
 6600SOL    HW220700   4.008   4.914   4.982
 6601SOL     OW20701   0.791   0.999   1.795
 6601SOL    HW120702   0.873   1.035   1.750
 6601SOL    HW220703   0.818   0.951   1.879
 6602SOL     OW20704   6.598   1.622   1.039
 6602SOL    HW120705   6.623   1.586   1.129
 6602SOL    HW220706   6.603   1.549   0.972
 6603SOL     OW20707   2.582   1.659   1.457
 6603SOL    HW120708   2.632   1.670   1.371
 6603SOL    HW220709   2.604   1.734   1.518
 6604SOL     OW20710   4.059   6.122   4.554
 6604SOL    HW120711   4.003   6.180   4.612
 6604SOL    HW220712   4.010   6.103   4.468
 6605SOL     OW20713   4.995   6.568   0.158
 6605SOL    HW120714   5.094   6.567   0.149
 6605SOL    HW220715   4.967   6.506   0.232
 6606SOL     OW20716   0.631   2.266   2.858
 6606SOL    HW120717   0.619   2.324   2.777
 6606SOL    HW220718   0.625   2.322   2.941
 6607SOL     OW20719   1.201   3.351   2.655
 6607SOL    HW120720   1.284   3.407   2.666
 6607SOL    HW220721   1.167   3.360   2.561
 6608SOL     OW20722   4.950   4.331   4.922
 6608SOL    HW120723   4.866   4.333   4.976
 6608SOL    HW220724   4.979   4.424   4.902
 6609SOL     OW20725   5.370   2.088   6.696
 6609SOL    HW120726   5.378   2.067   6.793
 6609SOL    HW220727   5.274   2.102   6.673
 6610SOL     OW20728   3.689   1.381   0.633
 6610SOL    HW120729   3.749   1.459   0.618
 6610SOL    HW220730   3.643   1.358   0.547
 6611SOL     OW20731   5.366   3.809   2.815
 6611SOL    HW120732   5.266   3.809   2.818
 6611SOL    HW220733   5.401   3.756   2.893
 6612SOL     OW20734   0.849   6.286   6.694
 6612SOL    HW120735   0.826   6.258   6.787
 6612SOL    HW220736   0.906   6.216   6.651
 6613SOL     OW20737   5.958   4.941   0.875
 6613SOL    HW120738   5.950   4.850   0.916
 6613SOL    HW220739   5.867   4.984   0.872
 6614SOL     OW20740   6.184   4.761   5.863
 6614SOL    HW120741   6.240   4.759   5.780
 6614SOL    HW220742   6.146   4.670   5.880
 6615SOL     OW20743   0.016   3.462   5.108
 6615SOL    HW120744   0.097   3.422   5.152
 6615SOL    HW220745   0.041   3.495   5.017
 6616SOL     OW20746   4.799   1.296   4.134
 6616SOL    HW120747   4.742   1.284   4.215
 6616SOL    HW220748   4.763   1.240   4.059
 6617SOL     OW20749   4.355   0.308   4.875
 6617SOL    HW120750   4.442   0.260   4.877
 6617SOL    HW220751   4.359   0.389   4.933
 6618SOL     OW20752   7.008   4.733   1.070
 6618SOL    HW120753   0.062   4.676   1.038
 6618SOL    HW220754   6.958   4.685   1.141
 6619SOL     OW20755   6.946   6.275   1.918
 6619SOL    HW120756   0.006   6.300   1.972
 6619SOL    HW220757   6.915   6.184   1.944
 6620SOL     OW20758   4.547   2.987   5.345
 6620SOL    HW120759   4.475   3.051   5.315
 6620SOL    HW220760   4.609   2.969   5.269
 6621SOL     OW20761   2.958   2.764   0.158
 6621SOL    HW120762   2.863   2.789   0.178
 6621SOL    HW220763   3.003   2.840   0.111
 6622SOL     OW20764   5.965   5.412   0.542
 6622SOL    HW120765   5.868   5.410   0.519
 6622SOL    HW220766   5.999   5.319   0.553
 6623SOL     OW20767   3.820   3.958   2.540
 6623SOL    HW120768   3.798   4.012   2.459
 6623SOL    HW220769   3.908   3.911   2.527
 6624SOL     OW20770   4.625   5.000   4.553
 6624SOL    HW120771   4.577   5.021   4.638
 6624SOL    HW220772   4.631   5.082   4.497
 6625SOL     OW20773   5.761   6.495   6.988
 6625SOL    HW120774   5.780   6.528   6.895
 6625SOL    HW220775   5.832   6.430   7.015
 6626SOL     OW20776   2.695   4.792   3.837
 6626SOL    HW120777   2.631   4.868   3.849
 6626SOL    HW220778   2.710   4.777   3.739
 6627SOL     OW20779   1.580   0.484   1.553
 6627SOL    HW120780   1.676   0.506   1.567
 6627SOL    HW220781   1.567   0.446   1.461
 6628SOL     OW20782   3.990   6.174   3.821
 6628SOL    HW120783   3.960   6.079   3.827
 6628SOL    HW220784   3.926   6.226   3.765
 6629SOL     OW20785   3.186   3.746   0.177
 6629SOL    HW120786   3.168   3.791   0.090
 6629SOL    HW220787   3.117   3.675   0.193
 6630SOL     OW20788   3.873   0.916   6.436
 6630SOL    HW120789   3.901   0.976   6.510
 6630SOL    HW220790   3.779   0.885   6.452
 6631SOL     OW20791   4.028   6.916   1.189
 6631SOL    HW120792   4.125   6.932   1.209
 6631SOL    HW220793   3.989   6.997   1.146
 6632SOL     OW20794   6.087   3.362   2.189
 6632SOL    HW120795   6.036   3.367   2.102
 6632SOL    HW220796   6.183   3.384   2.172
 6633SOL     OW20797   0.502   6.299   2.412
 6633SOL    HW120798   0.420   6.304   2.355
 6633SOL    HW220799   0.505   6.211   2.458
 6634SOL     OW20800   6.656   2.295   6.037
 6634SOL    HW120801   6.586   2.266   6.102
 6634SOL    HW220802   6.639   2.252   5.948
 6635SOL     OW20803   4.350   5.141   3.534
 6635SOL    HW120804   4.408   5.222   3.524
 6635SOL    HW220805   4.266   5.165   3.582
 6636SOL     OW20806   1.836   3.615   3.388
 6636SOL    HW120807   1.776   3.538   3.411
 6636SOL    HW220808   1.929   3.596   3.421
 6637SOL     OW20809   6.477   3.104   1.421
 6637SOL    HW120810   6.400   3.131   1.363
 6637SOL    HW220811   6.556   3.161   1.401
 6638SOL     OW20812   2.038   0.871   6.617
 6638SOL    HW120813   1.966   0.940   6.607
 6638SOL    HW220814   2.002   0.782   6.588
 6639SOL     OW20815   3.980   5.203   5.952
 6639SOL    HW120816   4.031   5.135   6.005
 6639SOL    HW220817   3.898   5.161   5.914
 6640SOL     OW20818   5.766   3.831   2.948
 6640SOL    HW120819   5.769   3.832   2.848
 6640SOL    HW220820   5.679   3.793   2.978
 6641SOL     OW20821   2.252   5.656   6.692
 6641SOL    HW120822   2.179   5.723   6.691
 6641SOL    HW220823   2.340   5.702   6.678
 6642SOL     OW20824   6.870   6.041   5.896
 6642SOL    HW120825   6.902   5.946   5.896
 6642SOL    HW220826   6.770   6.043   5.898
 6643SOL     OW20827   4.076   5.525   0.024
 6643SOL    HW120828   4.157   5.492   6.996
 6643SOL    HW220829   4.089   5.511   0.122
 6644SOL     OW20830   0.430   3.858   1.649
 6644SOL    HW120831   0.508   3.855   1.586
 6644SOL    HW220832   0.437   3.938   1.708
 6645SOL     OW20833   6.932   4.743   5.615
 6645SOL    HW120834   6.962   4.696   5.532
 6645SOL    HW220835   6.987   4.826   5.628
 6646SOL     OW20836   1.760   5.373   3.541
 6646SOL    HW120837   1.833   5.435   3.571
 6646SOL    HW220838   1.759   5.369   3.441
 6647SOL     OW20839   4.321   1.760   1.933
 6647SOL    HW120840   4.323   1.835   1.999
 6647SOL    HW220841   4.405   1.761   1.879
 6648SOL     OW20842   4.175   5.710   2.285
 6648SOL    HW120843   4.199   5.739   2.192
 6648SOL    HW220844   4.128   5.622   2.281
 6649SOL     OW20845   4.433   1.160   6.334
 6649SOL    HW120846   4.388   1.177   6.422
 6649SOL    HW220847   4.435   1.062   6.315
 6650SOL     OW20848   3.314   1.400   3.609
 6650SOL    HW120849   3.333   1.446   3.523
 6650SOL    HW220850   3.361   1.448   3.684
 6651SOL     OW20851   0.504   1.730   0.646
 6651SOL    HW120852   0.480   1.654   0.586
 6651SOL    HW220853   0.568   1.699   0.716
 6652SOL     OW20854   0.920   5.127   3.120
 6652SOL    HW120855   0.993   5.066   3.088
 6652SOL    HW220856   0.922   5.131   3.220
 6653SOL     OW20857   3.785   3.763   3.216
 6653SOL    HW120858   3.695   3.805   3.226
 6653SOL    HW220859   3.855   3.834   3.217
 6654SOL     OW20860   1.512   3.840   1.380
 6654SOL    HW120861   1.581   3.912   1.388
 6654SOL    HW220862   1.432   3.864   1.435
 6655SOL     OW20863   1.473   0.702   6.888
 6655SOL    HW120864   1.374   0.712   6.889
 6655SOL    HW220865   1.516   0.790   6.908
 6656SOL     OW20866   6.659   2.312   2.065
 6656SOL    HW120867   6.741   2.354   2.026
 6656SOL    HW220868   6.580   2.370   2.046
 6657SOL     OW20869   3.060   5.264   5.407
 6657SOL    HW120870   2.978   5.216   5.439
 6657SOL    HW220871   3.063   5.260   5.307
 6658SOL     OW20872   0.034   6.825   6.002
 6658SOL    HW120873   7.017   6.736   5.977
 6658SOL    HW220874   6.986   6.877   6.053
 6659SOL     OW20875   1.924   2.792   6.627
 6659SOL    HW120876   1.905   2.694   6.622
 6659SOL    HW220877   1.883   2.839   6.549
 6660SOL     OW20878   0.447   6.466   2.664
 6660SOL    HW120879   0.475   6.543   2.722
 6660SOL    HW220880   0.486   6.477   2.573
 6661SOL     OW20881   6.730   6.846   4.042
 6661SOL    HW120882   6.811   6.905   4.035
 6661SOL    HW220883   6.654   6.888   3.993
 6662SOL     OW20884   0.885   3.738   5.854
 6662SOL    HW120885   0.812   3.805   5.850
 6662SOL    HW220886   0.962   3.774   5.907
 6663SOL     OW20887   0.631   4.982   2.113
 6663SOL    HW120888   0.645   4.930   2.029
 6663SOL    HW220889   0.555   5.046   2.101
 6664SOL     OW20890   0.089   2.195   2.044
 6664SOL    HW120891   0.155   2.255   2.000
 6664SOL    HW220892   0.074   2.224   2.139
 6665SOL     OW20893   1.991   6.554   2.933
 6665SOL    HW120894   1.959   6.555   3.027
 6665SOL    HW220895   2.090   6.564   2.931
 6666SOL     OW20896   5.174   1.075   0.335
 6666SOL    HW120897   5.235   1.063   0.414
 6666SOL    HW220898   5.162   1.172   0.316
 6667SOL     OW20899   5.943   5.035   5.156
 6667SOL    HW120900   5.896   5.086   5.083
 6667SOL    HW220901   5.896   4.948   5.171
 6668SOL     OW20902   6.378   5.980   1.348
 6668SOL    HW120903   6.380   6.047   1.422
 6668SOL    HW220904   6.285   5.974   1.311
 6669SOL     OW20905   0.971   4.948   2.917
 6669SOL    HW120906   0.915   4.891   2.978
 6669SOL    HW220907   0.910   5.003   2.860
 6670SOL     OW20908   4.693   4.601   6.939
 6670SOL    HW120909   4.608   4.610   6.991
 6670SOL    HW220910   4.765   4.654   6.984
 6671SOL     OW20911   0.495   2.455   5.450
 6671SOL    HW120912   0.503   2.550   5.479
 6671SOL    HW220913   0.453   2.451   5.359
 6672SOL     OW20914   6.890   0.992   5.228
 6672SOL    HW120915   6.884   1.092   5.219
 6672SOL    HW220916   6.932   0.969   5.316
 6673SOL     OW20917   4.331   6.005   1.576
 6673SOL    HW120918   4.393   6.007   1.497
 6673SOL    HW220919   4.319   6.098   1.611
 6674SOL     OW20920   0.678   6.500   5.227
 6674SOL    HW120921   0.691   6.512   5.129
 6674SOL    HW220922   0.682   6.403   5.250
 6675SOL     OW20923   6.676   5.937   6.769
 6675SOL    HW120924   6.616   5.998   6.716
 6675SOL    HW220925   6.769   5.942   6.734
 6676SOL     OW20926   0.194   1.747   0.626
 6676SOL    HW120927   0.151   1.708   0.708
 6676SOL    HW220928   0.289   1.716   0.621
 6677SOL     OW20929   0.396   4.694   0.814
 6677SOL    HW120930   0.490   4.715   0.842
 6677SOL    HW220931   0.337   4.773   0.834
 6678SOL     OW20932   0.664   3.045   3.980
 6678SOL    HW120933   0.579   2.994   3.995
 6678SOL    HW220934   0.705   3.017   3.894
 6679SOL     OW20935   2.152   0.869   4.861
 6679SOL    HW120936   2.131   0.893   4.766
 6679SOL    HW220937   2.090   0.797   4.892
 6680SOL     OW20938   2.570   0.477   6.596
 6680SOL    HW120939   2.651   0.485   6.654
 6680SOL    HW220940   2.588   0.520   6.508
 6681SOL     OW20941   5.402   5.942   6.183
 6681SOL    HW120942   5.402   5.868   6.250
 6681SOL    HW220943   5.451   6.021   6.220
 6682SOL     OW20944   6.547   5.090   2.313
 6682SOL    HW120945   6.635   5.066   2.353
 6682SOL    HW220946   6.561   5.141   2.228
 6683SOL     OW20947   4.497   2.495   4.608
 6683SOL    HW120948   4.545   2.569   4.562
 6683SOL    HW220949   4.455   2.435   4.540
 6684SOL     OW20950   1.296   1.405   2.432
 6684SOL    HW120951   1.384   1.375   2.395
 6684SOL    HW220952   1.309   1.441   2.524
 6685SOL     OW20953   5.671   2.798   6.863
 6685SOL    HW120954   5.644   2.793   6.959
 6685SOL    HW220955   5.619   2.732   6.810
 6686SOL     OW20956   5.702   4.153   3.550
 6686SOL    HW120957   5.733   4.170   3.643
 6686SOL    HW220958   5.781   4.143   3.490
 6687SOL     OW20959   0.839   0.354   0.403
 6687SOL    HW120960   0.840   0.402   0.316
 6687SOL    HW220961   0.782   0.272   0.395
 6688SOL     OW20962   0.767   5.076   2.781
 6688SOL    HW120963   0.677   5.089   2.823
 6688SOL    HW220964   0.785   5.150   2.716
 6689SOL     OW20965   4.896   4.150   6.842
 6689SOL    HW120966   4.913   4.077   6.908
 6689SOL    HW220967   4.936   4.125   6.754
 6690SOL     OW20968   0.435   1.498   0.524
 6690SOL    HW120969   0.375   1.423   0.551
 6690SOL    HW220970   0.481   1.475   0.438
 6691SOL     OW20971   1.223   5.364   0.878
 6691SOL    HW120972   1.286   5.344   0.802
 6691SOL    HW220973   1.213   5.283   0.935
 6692SOL     OW20974   4.551   3.569   6.619
 6692SOL    HW120975   4.597   3.654   6.647
 6692SOL    HW220976   4.587   3.539   6.531
 6693SOL     OW20977   4.250   3.738   6.053
 6693SOL    HW120978   4.237   3.837   6.057
 6693SOL    HW220979   4.348   3.718   6.051
 6694SOL     OW20980   3.053   6.119   6.820
 6694SOL    HW120981   3.099   6.089   6.737
 6694SOL    HW220982   2.958   6.087   6.819
 6695SOL     OW20983   1.543   1.494   0.169
 6695SOL    HW120984   1.626   1.440   0.171
 6695SOL    HW220985   1.561   1.585   0.208
 6696SOL     OW20986   1.728   2.437   1.475
 6696SOL    HW120987   1.670   2.482   1.543
 6696SOL    HW220988   1.759   2.349   1.511
 6697SOL     OW20989   5.101   3.169   4.177
 6697SOL    HW120990   5.131   3.155   4.272
 6697SOL    HW220991   5.179   3.191   4.120
 6698SOL     OW20992   2.524   4.175   6.214
 6698SOL    HW120993   2.524   4.106   6.287
 6698SOL    HW220994   2.502   4.265   6.253
 6699SOL     OW20995   1.799   3.085   6.826
 6699SOL    HW120996   1.701   3.066   6.820
 6699SOL    HW220997   1.849   2.999   6.835
 6700SOL     OW20998   0.131   6.608   6.585
 6700SOL    HW120999   0.172   6.609   6.494
 6700SOL    HW221000   0.063   6.536   6.591
 6701SOL     OW21001   1.107   2.460   0.657
 6701SOL    HW121002   1.053   2.440   0.738
 6701SOL    HW221003   1.133   2.556   0.657
 6702SOL     OW21004   2.598   3.123   0.645
 6702SOL    HW121005   2.538   3.185   0.695
 6702SOL    HW221006   2.587   3.138   0.547
 6703SOL     OW21007   0.308   2.659   6.854
 6703SOL    HW121008   0.304   2.714   6.938
 6703SOL    HW221009   0.314   2.719   6.775
 6704SOL     OW21010   5.250   3.351   3.150
 6704SOL    HW121011   5.267   3.387   3.242
 6704SOL    HW221012   5.163   3.388   3.116
 6705SOL     OW21013   5.679   1.251   1.235
 6705SOL    HW121014   5.770   1.211   1.222
 6705SOL    HW221015   5.619   1.185   1.278
 6706SOL     OW21016   1.316   6.321   0.111
 6706SOL    HW121017   1.315   6.371   0.198
 6706SOL    HW221018   1.223   6.304   0.080
 6707SOL     OW21019   1.524   5.300   3.121
 6707SOL    HW121020   1.488   5.208   3.141
 6707SOL    HW221021   1.479   5.367   3.180
 6708SOL     OW21022   2.365   6.240   1.248
 6708SOL    HW121023   2.428   6.165   1.227
 6708SOL    HW221024   2.341   6.237   1.345
 6709SOL     OW21025   5.186   1.784   3.744
 6709SOL    HW121026   5.136   1.748   3.665
 6709SOL    HW221027   5.180   1.719   3.820
 6710SOL     OW21028   1.890   2.041   0.517
 6710SOL    HW121029   1.937   1.954   0.501
 6710SOL    HW221030   1.841   2.038   0.604
 6711SOL     OW21031   5.647   3.626   6.584
 6711SOL    HW121032   5.689   3.646   6.495
 6711SOL    HW221033   5.664   3.530   6.608
 6712SOL     OW21034   3.429   6.376   1.365
 6712SOL    HW121035   3.454   6.280   1.360
 6712SOL    HW221036   3.499   6.426   1.416
 6713SOL     OW21037   1.592   2.276   3.383
 6713SOL    HW121038   1.569   2.258   3.287
 6713SOL    HW221039   1.521   2.332   3.425
 6714SOL     OW21040   6.717   0.215   5.047
 6714SOL    HW121041   6.755   0.307   5.034
 6714SOL    HW221042   6.622   0.223   5.077
 6715SOL     OW21043   5.363   2.443   0.627
 6715SOL    HW121044   5.317   2.399   0.704
 6715SOL    HW221045   5.462   2.441   0.642
 6716SOL     OW21046   3.750   6.159   0.729
 6716SOL    HW121047   3.733   6.074   0.780
 6716SOL    HW221048   3.665   6.211   0.723
 6717SOL     OW21049   3.925   1.085   6.635
 6717SOL    HW121050   3.947   1.029   6.715
 6717SOL    HW221051   3.973   1.172   6.640
 6718SOL     OW21052   3.880   0.276   6.760
 6718SOL    HW121053   3.793   0.278   6.712
 6718SOL    HW221054   3.884   0.353   6.824
 6719SOL     OW21055   0.634   2.243   5.180
 6719SOL    HW121056   0.561   2.292   5.133
 6719SOL    HW221057   0.600   2.208   5.267
 6720SOL     OW21058   1.243   4.651   0.990
 6720SOL    HW121059   1.239   4.698   1.078
 6720SOL    HW221060   1.157   4.603   0.974
 6721SOL     OW21061   6.222   6.403   2.957
 6721SOL    HW121062   6.158   6.364   2.890
 6721SOL    HW221063   6.300   6.341   2.969
 6722SOL     OW21064   4.204   4.612   0.125
 6722SOL    HW121065   4.176   4.518   0.105
 6722SOL    HW221066   4.301   4.613   0.149
 6723SOL     OW21067   3.865   1.498   2.548
 6723SOL    HW121068   3.810   1.542   2.477
 6723SOL    HW221069   3.962   1.515   2.530
 6724SOL     OW21070   3.406   4.450   5.743
 6724SOL    HW121071   3.409   4.394   5.825
 6724SOL    HW221072   3.413   4.547   5.768
 6725SOL     OW21073   0.598   5.392   1.564
 6725SOL    HW121074   0.599   5.390   1.664
 6725SOL    HW221075   0.692   5.393   1.529
 6726SOL     OW21076   2.432   2.785   1.530
 6726SOL    HW121077   2.444   2.718   1.456
 6726SOL    HW221078   2.435   2.877   1.492
 6727SOL     OW21079   2.891   4.353   0.759
 6727SOL    HW121080   2.810   4.296   0.742
 6727SOL    HW221081   2.948   4.355   0.677
 6728SOL     OW21082   4.678   1.251   4.381
 6728SOL    HW121083   4.658   1.154   4.392
 6728SOL    HW221084   4.715   1.288   4.466
 6729SOL     OW21085   4.805   6.305   3.507
 6729SOL    HW121086   4.737   6.262   3.448
 6729SOL    HW221087   4.896   6.272   3.483
 6730SOL     OW21088   1.046   6.717   2.507
 6730SOL    HW121089   0.995   6.792   2.464
 6730SOL    HW221090   1.113   6.755   2.571
 6731SOL     OW21091   1.946   3.733   1.509
 6731SOL    HW121092   1.890   3.695   1.583
 6731SOL    HW221093   1.954   3.832   1.521
 6732SOL     OW21094   3.073   5.581   0.584
 6732SOL    HW121095   3.118   5.493   0.570
 6732SOL    HW221096   3.118   5.650   0.528
 6733SOL     OW21097   6.103   5.844   4.521
 6733SOL    HW121098   6.045   5.837   4.440
 6733SOL    HW221099   6.075   5.923   4.576
 6734SOL     OW21100   2.076   3.688   6.712
 6734SOL    HW121101   2.055   3.786   6.715
 6734SOL    HW221102   2.059   3.653   6.620
 6735SOL     OW21103   0.877   6.572   6.141
 6735SOL    HW121104   0.954   6.635   6.149
 6735SOL    HW221105   0.818   6.602   6.065
 6736SOL     OW21106   2.420   4.362   1.781
 6736SOL    HW121107   2.412   4.458   1.805
 6736SOL    HW221108   2.380   4.305   1.852
 6737SOL     OW21109   1.405   6.402   1.101
 6737SOL    HW121110   1.332   6.454   1.146
 6737SOL    HW221111   1.493   6.443   1.122
 6738SOL     OW21112   4.734   1.774   1.383
 6738SOL    HW121113   4.818   1.724   1.363
 6738SOL    HW221114   4.662   1.745   1.321
 6739SOL     OW21115   3.753   6.314   5.515
 6739SOL    HW121116   3.852   6.312   5.530
 6739SOL    HW221117   3.732   6.358   5.428
 6740SOL     OW21118   5.631   1.900   5.958
 6740SOL    HW121119   5.640   1.938   6.050
 6740SOL    HW221120   5.667   1.966   5.892
 6741SOL     OW21121   0.338   0.670   5.560
 6741SOL    HW121122   0.342   0.751   5.501
 6741SOL    HW221123   0.424   0.619   5.552
 6742SOL     OW21124   6.197   5.658   4.717
 6742SOL    HW121125   6.296   5.644   4.715
 6742SOL    HW221126   6.170   5.711   4.637
 6743SOL     OW21127   5.658   2.287   1.268
 6743SOL    HW121128   5.666   2.386   1.255
 6743SOL    HW221129   5.707   2.240   1.194
 6744SOL     OW21130   4.714   0.641   4.187
 6744SOL    HW121131   4.701   0.692   4.272
 6744SOL    HW221132   4.744   0.548   4.208
 6745SOL     OW21133   0.698   3.589   3.133
 6745SOL    HW121134   0.627   3.656   3.111
 6745SOL    HW221135   0.656   3.507   3.170
 6746SOL     OW21136   6.247   1.133   0.510
 6746SOL    HW121137   6.167   1.173   0.554
 6746SOL    HW221138   6.219   1.074   0.435
 6747SOL     OW21139   4.843   5.152   6.725
 6747SOL    HW121140   4.918   5.207   6.692
 6747SOL    HW221141   4.767   5.154   6.660
 6748SOL     OW21142   6.563   6.249   2.258
 6748SOL    HW121143   6.514   6.179   2.207
 6748SOL    HW221144   6.526   6.339   2.234
 6749SOL     OW21145   2.707   5.236   1.186
 6749SOL    HW121146   2.772   5.201   1.120
 6749SOL    HW221147   2.650   5.162   1.220
 6750SOL     OW21148   2.420   3.132   5.377
 6750SOL    HW121149   2.381   3.064   5.439
 6750SOL    HW221150   2.441   3.090   5.289
 6751SOL     OW21151   4.217   2.226   5.915
 6751SOL    HW121152   4.282   2.193   5.985
 6751SOL    HW221153   4.125   2.198   5.940
 6752SOL     OW21154   6.940   1.597   0.045
 6752SOL    HW121155   6.919   1.562   0.137
 6752SOL    HW221156   6.887   1.680   0.029
 6753SOL     OW21157   6.512   0.941   6.749
 6753SOL    HW121158   6.555   0.982   6.830
 6753SOL    HW221159   6.492   0.845   6.768
 6754SOL     OW21160   4.416   0.857   6.790
 6754SOL    HW121161   4.513   0.878   6.797
 6754SOL    HW221162   4.384   0.876   6.697
 6755SOL     OW21163   5.237   1.723   3.318
 6755SOL    HW121164   5.229   1.774   3.232
 6755SOL    HW221165   5.315   1.661   3.313
 6756SOL     OW21166   4.916   4.712   3.509
 6756SOL    HW121167   4.897   4.792   3.451
 6756SOL    HW221168   4.898   4.629   3.457
 6757SOL     OW21169   6.175   4.428   1.194
 6757SOL    HW121170   6.076   4.438   1.193
 6757SOL    HW221171   6.218   4.518   1.187
 6758SOL     OW21172   6.687   2.089   2.524
 6758SOL    HW121173   6.650   2.182   2.524
 6758SOL    HW221174   6.683   2.052   2.431
 6759SOL     OW21175   0.772   5.060   3.851
 6759SOL    HW121176   0.715   4.996   3.902
 6759SOL    HW221177   0.716   5.137   3.820
 6760SOL     OW21178   0.259   3.748   5.098
 6760SOL    HW121179   0.314   3.745   5.015
 6760SOL    HW221180   0.317   3.729   5.178
 6761SOL     OW21181   6.224   2.831   6.766
 6761SOL    HW121182   6.136   2.830   6.813
 6761SOL    HW221183   6.239   2.743   6.720
 6762SOL     OW21184   0.366   3.069   4.446
 6762SOL    HW121185   0.460   3.075   4.413
 6762SOL    HW221186   0.312   3.014   4.381
 6763SOL     OW21187   6.080   6.496   5.990
 6763SOL    HW121188   6.099   6.463   5.898
 6763SOL    HW221189   6.036   6.423   6.043
 6764SOL     OW21190   1.739   3.711   0.239
 6764SOL    HW121191   1.688   3.769   0.301
 6764SOL    HW221192   1.782   3.767   0.169
 6765SOL     OW21193   5.019   4.867   2.178
 6765SOL    HW121194   4.945   4.934   2.171
 6765SOL    HW221195   5.042   4.852   2.274
 6766SOL     OW21196   2.918   2.589   5.577
 6766SOL    HW121197   2.967   2.610   5.492
 6766SOL    HW221198   2.821   2.575   5.557
 6767SOL     OW21199   0.478   2.706   5.544
 6767SOL    HW121200   0.528   2.724   5.629
 6767SOL    HW221201   0.384   2.679   5.566
 6768SOL     OW21202   0.003   0.827   5.973
 6768SOL    HW121203   0.052   0.889   5.912
 6768SOL    HW221204   6.934   0.807   5.935
 6769SOL     OW21205   1.275   2.272   6.047
 6769SOL    HW121206   1.237   2.180   6.058
 6769SOL    HW221207   1.289   2.314   6.137
 6770SOL     OW21208   0.568   1.529   3.304
 6770SOL    HW121209   0.650   1.482   3.274
 6770SOL    HW221210   0.591   1.622   3.333
 6771SOL     OW21211   5.544   2.481   2.387
 6771SOL    HW121212   5.584   2.569   2.413
 6771SOL    HW221213   5.449   2.494   2.361
 6772SOL     OW21214   1.191   0.520   1.753
 6772SOL    HW121215   1.261   0.591   1.765
 6772SOL    HW221216   1.105   0.563   1.726
 6773SOL     OW21217   1.791   0.996   2.920
 6773SOL    HW121218   1.874   0.991   2.865
 6773SOL    HW221219   1.718   1.037   2.866
 6774SOL     OW21220   3.987   1.499   5.416
 6774SOL    HW121221   3.936   1.495   5.330
 6774SOL    HW221222   3.953   1.429   5.478
 6775SOL     OW21223   1.480   2.462   4.952
 6775SOL    HW121224   1.467   2.539   4.890
 6775SOL    HW221225   1.576   2.437   4.955
 6776SOL     OW21226   3.609   3.854   4.067
 6776SOL    HW121227   3.633   3.795   4.144
 6776SOL    HW221228   3.538   3.919   4.095
 6777SOL     OW21229   0.281   0.410   5.800
 6777SOL    HW121230   0.213   0.347   5.764
 6777SOL    HW221231   0.322   0.462   5.725
 6778SOL     OW21232   6.435   5.964   1.929
 6778SOL    HW121233   6.491   5.993   1.852
 6778SOL    HW221234   6.391   5.876   1.907
 6779SOL     OW21235   5.316   4.092   6.193
 6779SOL    HW121236   5.391   4.026   6.190
 6779SOL    HW221237   5.235   4.049   6.235
 6780SOL     OW21238   4.898   0.859   2.637
 6780SOL    HW121239   4.928   0.768   2.663
 6780SOL    HW221240   4.901   0.919   2.716
 6781SOL     OW21241   6.036   3.956   3.187
 6781SOL    HW121242   6.033   3.865   3.147
 6781SOL    HW221243   5.972   3.962   3.263
 6782SOL     OW21244   0.226   1.797   2.822
 6782SOL    HW121245   0.181   1.709   2.807
 6782SOL    HW221246   0.157   1.869   2.825
 6783SOL     OW21247   0.466   6.066   6.796
 6783SOL    HW121248   0.388   6.109   6.840
 6783SOL    HW221249   0.489   6.116   6.712
 6784SOL     OW21250   1.897   5.082   6.505
 6784SOL    HW121251   1.817   5.142   6.502
 6784SOL    HW221252   1.974   5.131   6.546
 6785SOL     OW21253   5.369   4.103   2.102
 6785SOL    HW121254   5.431   4.116   2.024
 6785SOL    HW221255   5.323   4.189   2.123
 6786SOL     OW21256   6.199   1.262   5.902
 6786SOL    HW121257   6.294   1.260   5.933
 6786SOL    HW221258   6.159   1.352   5.921
 6787SOL     OW21259   4.498   2.685   1.051
 6787SOL    HW121260   4.513   2.664   0.954
 6787SOL    HW221261   4.410   2.730   1.062
 6788SOL     OW21262   1.473   4.462   0.940
 6788SOL    HW121263   1.400   4.531   0.939
 6788SOL    HW221264   1.467   4.408   1.024
 6789SOL     OW21265   6.186   2.520   2.724
 6789SOL    HW121266   6.142   2.571   2.650
 6789SOL    HW221267   6.136   2.435   2.740
 6790SOL     OW21268   0.814   5.738   0.391
 6790SOL    HW121269   0.781   5.786   0.310
 6790SOL    HW221270   0.743   5.737   0.461
 6791SOL     OW21271   1.747   6.206   3.788
 6791SOL    HW121272   1.651   6.182   3.770
 6791SOL    HW221273   1.794   6.128   3.828
 6792SOL     OW21274   3.281   5.764   0.069
 6792SOL    HW121275   3.363   5.750   0.123
 6792SOL    HW221276   3.241   5.676   0.044
 6793SOL     OW21277   1.673   3.481   6.571
 6793SOL    HW121278   1.615   3.562   6.569
 6793SOL    HW221279   1.727   3.480   6.656
 6794SOL     OW21280   4.760   2.366   4.335
 6794SOL    HW121281   4.686   2.431   4.318
 6794SOL    HW221282   4.722   2.278   4.363
 6795SOL     OW21283   0.510   0.528   2.131
 6795SOL    HW121284   0.482   0.473   2.211
 6795SOL    HW221285   0.544   0.616   2.162
 6796SOL     OW21286   6.448   2.827   1.955
 6796SOL    HW121287   6.489   2.760   1.893
 6796SOL    HW221288   6.407   2.780   2.033
 6797SOL     OW21289   1.624   3.662   0.633
 6797SOL    HW121290   1.544   3.713   0.603
 6797SOL    HW221291   1.628   3.662   0.733
 6798SOL     OW21292   5.174   1.983   1.694
 6798SOL    HW121293   5.075   1.968   1.691
 6798SOL    HW221294   5.217   1.935   1.617
 6799SOL     OW21295   4.975   6.959   3.072
 6799SOL    HW121296   5.038   6.893   3.112
 6799SOL    HW221297   4.970   0.019   3.131
 6800SOL     OW21298   6.295   2.541   2.183
 6800SOL    HW121299   6.229   2.602   2.141
 6800SOL    HW221300   6.345   2.590   2.255
 6801SOL     OW21301   2.234   5.052   5.232
 6801SOL    HW121302   2.334   5.046   5.225
 6801SOL    HW221303   2.195   5.069   5.141
 6802SOL     OW21304   2.684   4.530   1.596
 6802SOL    HW121305   2.661   4.486   1.509
 6802SOL    HW221306   2.704   4.460   1.664
 6803SOL     OW21307   6.123   5.586   6.205
 6803SOL    HW121308   6.171   5.561   6.289
 6803SOL    HW221309   6.154   5.527   6.130
 6804SOL     OW21310   3.314   5.045   1.732
 6804SOL    HW121311   3.342   5.079   1.822
 6804SOL    HW221312   3.344   5.109   1.662
 6805SOL     OW21313   0.575   3.784   4.121
 6805SOL    HW121314   0.582   3.780   4.021
 6805SOL    HW221315   0.505   3.851   4.147
 6806SOL     OW21316   6.067   3.683   2.112
 6806SOL    HW121317   6.149   3.626   2.100
 6806SOL    HW221318   5.987   3.633   2.080
 6807SOL     OW21319   4.138   3.220   2.486
 6807SOL    HW121320   4.094   3.157   2.422
 6807SOL    HW221321   4.238   3.209   2.480
 6808SOL     OW21322   3.168   6.361   4.045
 6808SOL    HW121323   3.119   6.305   4.112
 6808SOL    HW221324   3.174   6.455   4.077
 6809SOL     OW21325   6.071   2.934   0.818
 6809SOL    HW121326   6.096   2.932   0.722
 6809SOL    HW221327   6.109   2.853   0.864
 6810SOL     OW21328   3.127   7.015   4.590
 6810SOL    HW121329   3.076   0.021   4.508
 6810SOL    HW221330   3.215   0.041   4.592
 6811SOL     OW21331   6.614   1.922   1.120
 6811SOL    HW121332   6.589   1.833   1.083
 6811SOL    HW221333   6.709   1.943   1.098
 6812SOL     OW21334   3.208   4.584   5.566
 6812SOL    HW121335   3.159   4.542   5.490
 6812SOL    HW221336   3.265   4.515   5.611
 6813SOL     OW21337   0.092   3.944   2.281
 6813SOL    HW121338   0.185   3.952   2.317
 6813SOL    HW221339   0.087   3.865   2.219
 6814SOL     OW21340   4.634   2.449   1.368
 6814SOL    HW121341   4.613   2.493   1.456
 6814SOL    HW221342   4.709   2.384   1.380
 6815SOL     OW21343   1.487   5.672   1.063
 6815SOL    HW121344   1.387   5.671   1.070
 6815SOL    HW221345   1.517   5.756   1.019
 6816SOL     OW21346   5.534   0.027   3.654
 6816SOL    HW121347   5.504   0.089   3.582
 6816SOL    HW221348   5.458   6.988   3.681
 6817SOL     OW21349   5.769   0.526   1.353
 6817SOL    HW121350   5.690   0.476   1.389
 6817SOL    HW221351   5.839   0.533   1.424
 6818SOL     OW21352   6.847   0.248   5.633
 6818SOL    HW121353   6.798   0.161   5.646
 6818SOL    HW221354   6.852   0.268   5.536
 6819SOL     OW21355   5.700   3.466   0.616
 6819SOL    HW121356   5.657   3.541   0.565
 6819SOL    HW221357   5.794   3.454   0.584
 6820SOL     OW21358   2.249   4.495   0.689
 6820SOL    HW121359   2.251   4.395   0.694
 6820SOL    HW221360   2.206   4.531   0.771
 6821SOL     OW21361   2.615   3.388   5.834
 6821SOL    HW121362   2.639   3.482   5.808
 6821SOL    HW221363   2.665   3.363   5.917
 6822SOL     OW21364   0.025   4.291   5.267
 6822SOL    HW121365   7.018   4.306   5.172
 6822SOL    HW221366   6.999   4.210   5.302
 6823SOL     OW21367   6.763   3.335   5.880
 6823SOL    HW121368   6.747   3.364   5.786
 6823SOL    HW221369   6.844   3.277   5.884
 6824SOL     OW21370   0.403   0.408   4.093
 6824SOL    HW121371   0.423   0.413   3.995
 6824SOL    HW221372   0.304   0.409   4.106
 6825SOL     OW21373   4.996   4.706   1.704
 6825SOL    HW121374   4.957   4.681   1.793
 6825SOL    HW221375   5.071   4.770   1.716
 6826SOL     OW21376   5.693   0.812   3.824
 6826SOL    HW121377   5.613   0.845   3.875
 6826SOL    HW221378   5.700   0.862   3.738
 6827SOL     OW21379   5.242   4.900   5.336
 6827SOL    HW121380   5.223   4.968   5.407
 6827SOL    HW221381   5.181   4.821   5.349
 6828SOL     OW21382   2.483   2.209   2.605
 6828SOL    HW121383   2.434   2.215   2.518
 6828SOL    HW221384   2.484   2.114   2.637
 6829SOL     OW21385   5.637   0.304   4.495
 6829SOL    HW121386   5.641   0.231   4.563
 6829SOL    HW221387   5.544   0.339   4.489
 6830SOL     OW21388   3.588   6.429   2.244
 6830SOL    HW121389   3.677   6.386   2.259
 6830SOL    HW221390   3.522   6.361   2.211
 6831SOL     OW21391   2.256   0.491   0.157
 6831SOL    HW121392   2.263   0.590   0.169
 6831SOL    HW221393   2.299   0.465   0.071
 6832SOL     OW21394   3.401   3.611   0.296
 6832SOL    HW121395   3.337   3.673   0.252
 6832SOL    HW221396   3.357   3.523   0.313
 6833SOL     OW21397   4.758   5.047   0.172
 6833SOL    HW121398   4.818   5.054   0.252
 6833SOL    HW221399   4.742   5.138   0.134
 6834SOL     OW21400   6.551   5.540   5.288
 6834SOL    HW121401   6.640   5.503   5.312
 6834SOL    HW221402   6.500   5.473   5.233
 6835SOL     OW21403   4.380   0.079   2.908
 6835SOL    HW121404   4.409   0.024   2.830
 6835SOL    HW221405   4.319   0.025   2.966
 6836SOL     OW21406   0.825   5.107   6.723
 6836SOL    HW121407   0.789   5.050   6.649
 6836SOL    HW221408   0.925   5.113   6.715
 6837SOL     OW21409   6.344   2.538   1.758
 6837SOL    HW121410   6.354   2.483   1.675
 6837SOL    HW221411   6.250   2.573   1.763
 6838SOL     OW21412   1.841   3.951   0.053
 6838SOL    HW121413   1.872   4.043   0.077
 6838SOL    HW221414   1.787   3.955   6.990
 6839SOL     OW21415   6.191   2.276   5.466
 6839SOL    HW121416   6.105   2.226   5.481
 6839SOL    HW221417   6.171   2.372   5.449
 6840SOL     OW21418   3.282   0.449   4.421
 6840SOL    HW121419   3.280   0.504   4.338
 6840SOL    HW221420   3.192   0.452   4.465
 6841SOL     OW21421   4.796   5.817   0.753
 6841SOL    HW121422   4.788   5.898   0.811
 6841SOL    HW221423   4.794   5.735   0.811
 6842SOL     OW21424   0.999   3.442   3.453
 6842SOL    HW121425   1.040   3.459   3.364
 6842SOL    HW221426   0.923   3.377   3.443
 6843SOL     OW21427   4.414   2.879   1.705
 6843SOL    HW121428   4.463   2.934   1.774
 6843SOL    HW221429   4.464   2.794   1.688
 6844SOL     OW21430   3.412   6.799   4.553
 6844SOL    HW121431   3.384   6.713   4.596
 6844SOL    HW221432   3.363   6.875   4.594
 6845SOL     OW21433   3.420   3.910   6.988
 6845SOL    HW121434   3.421   3.812   6.965
 6845SOL    HW221435   3.402   3.921   0.064
 6846SOL     OW21436   3.502   3.012   4.090
 6846SOL    HW121437   3.431   2.949   4.060
 6846SOL    HW221438   3.463   3.102   4.105
 6847SOL     OW21439   5.324   3.531   2.246
 6847SOL    HW121440   5.249   3.548   2.182
 6847SOL    HW221441   5.323   3.599   2.319
 6848SOL     OW21442   0.565   5.898   4.595
 6848SOL    HW121443   0.627   5.844   4.653
 6848SOL    HW221444   0.519   5.838   4.531
 6849SOL     OW21445   3.167   0.359   4.847
 6849SOL    HW121446   3.227   0.284   4.818
 6849SOL    HW221447   3.092   0.322   4.901
 6850SOL     OW21448   6.633   3.268   1.919
 6850SOL    HW121449   6.553   3.273   1.859
 6850SOL    HW221450   6.604   3.259   2.014
 6851SOL     OW21451   1.657   5.639   0.622
 6851SOL    HW121452   1.605   5.607   0.543
 6851SOL    HW221453   1.637   5.735   0.639
 6852SOL     OW21454   5.375   4.856   2.391
 6852SOL    HW121455   5.418   4.933   2.345
 6852SOL    HW221456   5.286   4.883   2.426
 6853SOL     OW21457   6.476   4.357   4.571
 6853SOL    HW121458   6.402   4.400   4.519
 6853SOL    HW221459   6.458   4.259   4.580
 6854SOL     OW21460   6.120   1.038   6.747
 6854SOL    HW121461   6.113   1.133   6.776
 6854SOL    HW221462   6.168   0.985   6.817
 6855SOL     OW21463   2.839   6.709   2.132
 6855SOL    HW121464   2.804   6.791   2.089
 6855SOL    HW221465   2.764   6.659   2.175
 6856SOL     OW21466   0.867   5.029   5.249
 6856SOL    HW121467   0.797   5.051   5.182
 6856SOL    HW221468   0.928   5.108   5.261
 6857SOL     OW21469   4.686   0.843   0.106
 6857SOL    HW121470   4.612   0.909   0.092
 6857SOL    HW221471   4.760   0.862   0.042
 6858SOL     OW21472   3.330   2.729   6.339
 6858SOL    HW121473   3.403   2.662   6.358
 6858SOL    HW221474   3.284   2.704   6.254
 6859SOL     OW21475   4.481   0.574   1.216
 6859SOL    HW121476   4.431   0.568   1.303
 6859SOL    HW221477   4.457   0.659   1.169
 6860SOL     OW21478   4.633   2.961   7.000
 6860SOL    HW121479   4.672   2.976   0.069
 6860SOL    HW221480   4.698   2.992   6.930
 6861SOL     OW21481   6.107   3.721   7.004
 6861SOL    HW121482   6.189   3.685   6.959
 6861SOL    HW221483   6.124   3.730   0.081
 6862SOL     OW21484   2.344   4.531   4.737
 6862SOL    HW121485   2.264   4.584   4.766
 6862SOL    HW221486   2.329   4.434   4.757
 6863SOL     OW21487   1.213   3.428   3.862
 6863SOL    HW121488   1.218   3.397   3.957
 6863SOL    HW221489   1.147   3.502   3.855
 6864SOL     OW21490   2.865   5.558   6.060
 6864SOL    HW121491   2.769   5.550   6.090
 6864SOL    HW221492   2.874   5.522   5.968
 6865SOL     OW21493   1.207   2.489   5.362
 6865SOL    HW121494   1.186   2.576   5.317
 6865SOL    HW221495   1.262   2.507   5.444
 6866SOL     OW21496   0.776   3.917   2.447
 6866SOL    HW121497   0.799   3.866   2.530
 6866SOL    HW221498   0.710   3.989   2.470
 6867SOL     OW21499   2.483   5.248   3.486
 6867SOL    HW121500   2.416   5.321   3.477
 6867SOL    HW221501   2.526   5.253   3.577
 6868SOL     OW21502   1.977   5.700   4.677
 6868SOL    HW121503   2.036   5.621   4.695
 6868SOL    HW221504   1.979   5.762   4.756
 6869SOL     OW21505   0.290   3.088   4.839
 6869SOL    HW121506   0.243   3.050   4.918
 6869SOL    HW221507   0.294   3.020   4.766
 6870SOL     OW21508   5.621   4.163   2.922
 6870SOL    HW121509   5.602   4.095   2.851
 6870SOL    HW221510   5.713   4.150   2.957
 6871SOL     OW21511   4.209   5.833   2.047
 6871SOL    HW121512   4.241   5.909   2.104
 6871SOL    HW221513   4.242   5.846   1.953
 6872SOL     OW21514   3.266   4.459   0.798
 6872SOL    HW121515   3.201   4.449   0.722
 6872SOL    HW221516   3.230   4.525   0.864
 6873SOL     OW21517   5.593   5.122   5.333
 6873SOL    HW121518   5.542   5.096   5.251
 6873SOL    HW221519   5.640   5.041   5.369
 6874SOL     OW21520   0.900   1.849   6.469
 6874SOL    HW121521   0.966   1.910   6.512
 6874SOL    HW221522   0.934   1.755   6.471
 6875SOL     OW21523   4.009   0.473   5.032
 6875SOL    HW121524   3.961   0.559   5.012
 6875SOL    HW221525   3.942   0.399   5.035
 6876SOL     OW21526   3.073   6.186   4.237
 6876SOL    HW121527   3.132   6.105   4.232
 6876SOL    HW221528   3.097   6.239   4.319
 6877SOL     OW21529   2.266   3.752   6.965
 6877SOL    HW121530   2.217   3.763   6.878
 6877SOL    HW221531   2.202   3.765   0.020
 6878SOL     OW21532   1.563   1.672   5.060
 6878SOL    HW121533   1.659   1.657   5.080
 6878SOL    HW221534   1.550   1.682   4.961
 6879SOL     OW21535   6.253   1.495   5.470
 6879SOL    HW121536   6.247   1.399   5.497
 6879SOL    HW221537   6.332   1.538   5.514
 6880SOL     OW21538   1.207   4.450   4.607
 6880SOL    HW121539   1.284   4.513   4.618
 6880SOL    HW221540   1.121   4.501   4.611
 6881SOL     OW21541   5.248   5.866   1.227
 6881SOL    HW121542   5.187   5.892   1.152
 6881SOL    HW221543   5.202   5.883   1.315
 6882SOL     OW21544   2.525   5.951   5.317
 6882SOL    HW121545   2.571   6.009   5.250
 6882SOL    HW221546   2.551   5.980   5.409
 6883SOL     OW21547   2.737   6.236   1.905
 6883SOL    HW121548   2.781   6.210   1.819
 6883SOL    HW221549   2.789   6.311   1.947
 6884SOL     OW21550   1.812   4.481   2.810
 6884SOL    HW121551   1.808   4.578   2.835
 6884SOL    HW221552   1.870   4.432   2.874
 6885SOL     OW21553   4.334   4.806   4.904
 6885SOL    HW121554   4.241   4.824   4.872
 6885SOL    HW221555   4.337   4.722   4.957
 6886SOL     OW21556   5.180   0.123   1.330
 6886SOL    HW121557   5.234   0.203   1.302
 6886SOL    HW221558   5.213   0.042   1.280
 6887SOL     OW21559   6.175   1.144   4.710
 6887SOL    HW121560   6.213   1.226   4.753
 6887SOL    HW221561   6.248   1.097   4.661
 6888SOL     OW21562   6.448   0.090   4.009
 6888SOL    HW121563   6.488   0.176   4.041
 6888SOL    HW221564   6.348   0.096   4.014
 6889SOL     OW21565   2.013   3.829   6.459
 6889SOL    HW121566   2.070   3.890   6.405
 6889SOL    HW221567   2.041   3.734   6.443
 6890SOL     OW21568   1.114   0.605   1.408
 6890SOL    HW121569   1.203   0.635   1.442
 6890SOL    HW221570   1.121   0.584   1.310
 6891SOL     OW21571   4.375   4.871   5.966
 6891SOL    HW121572   4.354   4.864   6.063
 6891SOL    HW221573   4.463   4.826   5.948
 6892SOL     OW21574   3.485   2.120   4.267
 6892SOL    HW121575   3.459   2.025   4.281
 6892SOL    HW221576   3.561   2.125   4.203
 6893SOL     OW21577   5.042   6.784   1.306
 6893SOL    HW121578   5.054   6.704   1.365
 6893SOL    HW221579   5.132   6.826   1.291
 6894SOL     OW21580   5.889   5.091   5.707
 6894SOL    HW121581   5.972   5.107   5.761
 6894SOL    HW221582   5.913   5.082   5.611
 6895SOL     OW21583   4.449   5.051   5.353
 6895SOL    HW121584   4.475   5.094   5.440
 6895SOL    HW221585   4.515   5.076   5.282
 6896SOL     OW21586   5.338   2.184   2.254
 6896SOL    HW121587   5.405   2.163   2.183
 6896SOL    HW221588   5.338   2.112   2.323
 6897SOL     OW21589   3.746   0.997   1.510
 6897SOL    HW121590   3.806   1.049   1.571
 6897SOL    HW221591   3.781   1.002   1.417
 6898SOL     OW21592   3.411   1.277   2.023
 6898SOL    HW121593   3.483   1.265   1.955
 6898SOL    HW221594   3.325   1.300   1.976
 6899SOL     OW21595   5.712   4.857   5.997
 6899SOL    HW121596   5.732   4.848   5.900
 6899SOL    HW221597   5.794   4.887   6.046
 6900SOL     OW21598   4.202   0.126   6.216
 6900SOL    HW121599   4.109   0.155   6.242
 6900SOL    HW221600   4.196   0.042   6.162
 6901SOL     OW21601   2.013   0.373   0.282
 6901SOL    HW121602   1.990   0.469   0.293
 6901SOL    HW221603   2.097   0.364   0.228
 6902SOL     OW21604   6.648   5.847   2.632
 6902SOL    HW121605   6.623   5.918   2.696
 6902SOL    HW221606   6.708   5.885   2.561
 6903SOL     OW21607   5.781   4.442   0.122
 6903SOL    HW121608   5.879   4.428   0.138
 6903SOL    HW221609   5.731   4.426   0.207
 6904SOL     OW21610   0.640   1.167   2.964
 6904SOL    HW121611   0.576   1.202   2.896
 6904SOL    HW221612   0.704   1.239   2.990
 6905SOL     OW21613   3.782   5.392   0.616
 6905SOL    HW121614   3.697   5.443   0.630
 6905SOL    HW221615   3.778   5.346   0.527
 6906SOL     OW21616   5.646   6.411   2.401
 6906SOL    HW121617   5.661   6.427   2.499
 6906SOL    HW221618   5.581   6.478   2.366
 6907SOL     OW21619   3.439   0.424   1.352
 6907SOL    HW121620   3.360   0.421   1.413
 6907SOL    HW221621   3.415   0.387   1.263
 6908SOL     OW21622   5.270   6.662   6.812
 6908SOL    HW121623   5.280   6.608   6.895
 6908SOL    HW221624   5.336   6.738   6.813
 6909SOL     OW21625   2.307   1.976   0.130
 6909SOL    HW121626   2.343   2.050   0.073
 6909SOL    HW221627   2.383   1.922   0.166
 6910SOL     OW21628   4.886   1.088   1.072
 6910SOL    HW121629   4.884   1.095   1.171
 6910SOL    HW221630   4.814   1.026   1.041
 6911SOL     OW21631   3.774   7.014   4.683
 6911SOL    HW121632   3.837   0.062   4.718
 6911SOL    HW221633   3.707   6.991   4.753
 6912SOL     OW21634   4.016   5.381   1.763
 6912SOL    HW121635   4.068   5.378   1.678
 6912SOL    HW221636   4.048   5.308   1.824
 6913SOL     OW21637   4.661   5.637   5.748
 6913SOL    HW121638   4.602   5.575   5.800
 6913SOL    HW221639   4.685   5.716   5.805
 6914SOL     OW21640   0.038   4.912   0.310
 6914SOL    HW121641   6.965   4.934   0.282
 6914SOL    HW221642   0.093   4.890   0.230
 6915SOL     OW21643   0.616   6.751   0.754
 6915SOL    HW121644   0.673   6.825   0.718
 6915SOL    HW221645   0.545   6.789   0.813
 6916SOL     OW21646   6.081   1.096   5.439
 6916SOL    HW121647   6.117   1.004   5.452
 6916SOL    HW221648   6.095   1.149   5.522
 6917SOL     OW21649   4.581   6.282   5.662
 6917SOL    HW121650   4.540   6.319   5.745
 6917SOL    HW221651   4.511   6.235   5.609
 6918SOL     OW21652   2.164   2.454   3.374
 6918SOL    HW121653   2.137   2.498   3.460
 6918SOL    HW221654   2.219   2.518   3.320
 6919SOL     OW21655   1.367   5.855   3.342
 6919SOL    HW121656   1.358   5.762   3.377
 6919SOL    HW221657   1.341   5.920   3.414
 6920SOL     OW21658   5.397   5.518   4.333
 6920SOL    HW121659   5.314   5.515   4.389
 6920SOL    HW221660   5.375   5.492   4.239
 6921SOL     OW21661   1.656   5.143   2.876
 6921SOL    HW121662   1.658   5.048   2.844
 6921SOL    HW221663   1.622   5.146   2.970
 6922SOL     OW21664   2.317   6.254   1.520
 6922SOL    HW121665   2.386   6.316   1.556
 6922SOL    HW221666   2.226   6.291   1.539
 6923SOL     OW21667   5.089   5.164   3.944
 6923SOL    HW121668   5.039   5.079   3.925
 6923SOL    HW221669   5.187   5.145   3.944
 6924SOL     OW21670   5.484   6.196   2.186
 6924SOL    HW121671   5.469   6.113   2.240
 6924SOL    HW221672   5.544   6.258   2.236
 6925SOL     OW21673   4.690   5.318   2.404
 6925SOL    HW121674   4.636   5.365   2.334
 6925SOL    HW221675   4.786   5.317   2.377
 6926SOL     OW21676   2.869   3.899   5.481
 6926SOL    HW121677   2.830   3.978   5.528
 6926SOL    HW221678   2.877   3.919   5.383
 6927SOL     OW21679   3.796   3.954   0.657
 6927SOL    HW121680   3.810   4.052   0.671
 6927SOL    HW221681   3.799   3.908   0.745
 6928SOL     OW21682   6.844   0.451   6.959
 6928SOL    HW121683   6.803   0.498   6.881
 6928SOL    HW221684   6.772   0.418   7.020
 6929SOL     OW21685   3.496   5.699   1.366
 6929SOL    HW121686   3.572   5.656   1.415
 6929SOL    HW221687   3.435   5.629   1.330
 6930SOL     OW21688   0.228   0.439   2.788
 6930SOL    HW121689   0.228   0.343   2.817
 6930SOL    HW221690   0.198   0.445   2.693
 6931SOL     OW21691   3.029   0.026   0.949
 6931SOL    HW121692   2.934   0.011   0.924
 6931SOL    HW221693   3.050   6.996   1.032
 6932SOL     OW21694   2.847   2.144   0.348
 6932SOL    HW121695   2.917   2.207   0.385
 6932SOL    HW221696   2.863   2.131   0.250
 6933SOL     OW21697   2.995   6.114   5.136
 6933SOL    HW121698   3.006   6.148   5.229
 6933SOL    HW221699   2.898   6.103   5.115
 6934SOL     OW21700   5.450   4.624   6.475
 6934SOL    HW121701   5.497   4.633   6.563
 6934SOL    HW221702   5.519   4.615   6.402
 6935SOL     OW21703   4.203   5.815   3.340
 6935SOL    HW121704   4.174   5.741   3.280
 6935SOL    HW221705   4.297   5.843   3.316
 6936SOL     OW21706   0.637   4.465   0.952
 6936SOL    HW121707   0.705   4.518   1.002
 6936SOL    HW221708   0.641   4.489   0.855
 6937SOL     OW21709   4.480   5.684   6.173
 6937SOL    HW121710   4.481   5.750   6.247
 6937SOL    HW221711   4.453   5.729   6.088
 6938SOL     OW21712   6.452   2.458   5.522
 6938SOL    HW121713   6.518   2.511   5.468
 6938SOL    HW221714   6.362   2.499   5.515
 6939SOL     OW21715   6.607   4.787   1.525
 6939SOL    HW121716   6.584   4.706   1.579
 6939SOL    HW221717   6.593   4.767   1.428
 6940SOL     OW21718   4.328   0.669   4.167
 6940SOL    HW121719   4.377   0.646   4.251
 6940SOL    HW221720   4.370   0.749   4.124
 6941SOL     OW21721   3.366   2.761   5.161
 6941SOL    HW121722   3.322   2.730   5.076
 6941SOL    HW221723   3.347   2.858   5.175
 6942SOL     OW21724   6.264   1.794   6.634
 6942SOL    HW121725   6.222   1.788   6.544
 6942SOL    HW221726   6.291   1.703   6.664
 6943SOL     OW21727   6.384   5.234   6.860
 6943SOL    HW121728   6.317   5.308   6.867
 6943SOL    HW221729   6.355   5.159   6.919
 6944SOL     OW21730   1.314   6.889   0.448
 6944SOL    HW121731   1.406   6.848   0.449
 6944SOL    HW221732   1.246   6.817   0.460
 6945SOL     OW21733   4.055   1.590   6.682
 6945SOL    HW121734   4.148   1.569   6.713
 6945SOL    HW221735   4.041   1.689   6.683
 6946SOL     OW21736   6.264   4.329   2.575
 6946SOL    HW121737   6.268   4.377   2.488
 6946SOL    HW221738   6.235   4.392   2.647
 6947SOL     OW21739   4.118   6.438   1.115
 6947SOL    HW121740   4.105   6.519   1.058
 6947SOL    HW221741   4.037   6.380   1.109
 6948SOL     OW21742   3.252   1.687   5.501
 6948SOL    HW121743   3.197   1.771   5.506
 6948SOL    HW221744   3.213   1.626   5.432
 6949SOL     OW21745   5.149   0.616   2.230
 6949SOL    HW121746   5.099   0.702   2.219
 6949SOL    HW221747   5.238   0.622   2.185
 6950SOL     OW21748   3.526   1.477   2.911
 6950SOL    HW121749   3.608   1.458   2.858
 6950SOL    HW221750   3.542   1.455   3.007
 6951SOL     OW21751   4.899   3.972   5.578
 6951SOL    HW121752   4.830   4.028   5.532
 6951SOL    HW221753   4.978   4.029   5.602
 6952SOL     OW21754   0.132   3.678   6.398
 6952SOL    HW121755   0.152   3.589   6.441
 6952SOL    HW221756   0.213   3.737   6.405
 6953SOL     OW21757   5.519   2.564   4.805
 6953SOL    HW121758   5.613   2.533   4.819
 6953SOL    HW221759   5.491   2.544   4.710
 6954SOL     OW21760   0.111   4.428   1.976
 6954SOL    HW121761   0.092   4.488   2.054
 6954SOL    HW221762   0.133   4.337   2.010
 6955SOL     OW21763   6.807   0.641   3.844
 6955SOL    HW121764   6.737   0.703   3.809
 6955SOL    HW221765   6.810   0.558   3.788
 6956SOL     OW21766   3.013   3.956   1.550
 6956SOL    HW121767   2.985   3.868   1.511
 6956SOL    HW221768   2.958   3.977   1.630
 6957SOL     OW21769   0.896   4.770   0.096
 6957SOL    HW121770   0.933   4.702   0.159
 6957SOL    HW221771   0.953   4.772   0.013
 6958SOL     OW21772   2.010   3.639   5.438
 6958SOL    HW121773   1.965   3.699   5.372
 6958SOL    HW221774   2.009   3.682   5.528
 6959SOL     OW21775   4.159   1.055   5.094
 6959SOL    HW121776   4.183   1.151   5.106
 6959SOL    HW221777   4.222   0.998   5.145
 6960SOL     OW21778   1.100   5.815   6.998
 6960SOL    HW121779   1.027   5.872   0.017
 6960SOL    HW221780   1.063   5.763   6.921
 6961SOL     OW21781   6.250   1.233   3.492
 6961SOL    HW121782   6.204   1.154   3.451
 6961SOL    HW221783   6.344   1.208   3.515
 6962SOL     OW21784   2.956   4.005   1.141
 6962SOL    HW121785   3.001   4.062   1.072
 6962SOL    HW221786   2.987   3.911   1.132
 6963SOL     OW21787   5.873   5.738   1.771
 6963SOL    HW121788   5.903   5.822   1.726
 6963SOL    HW221789   5.941   5.710   1.839
 6964SOL     OW21790   3.533   5.540   5.634
 6964SOL    HW121791   3.520   5.442   5.651
 6964SOL    HW221792   3.449   5.579   5.595
 6965SOL     OW21793   6.400   1.822   6.070
 6965SOL    HW121794   6.367   1.848   5.979
 6965SOL    HW221795   6.361   1.733   6.094
 6966SOL     OW21796   4.706   1.569   4.042
 6966SOL    HW121797   4.747   1.660   4.050
 6966SOL    HW221798   4.770   1.501   4.077
 6967SOL     OW21799   3.166   2.589   6.161
 6967SOL    HW121800   3.106   2.527   6.210
 6967SOL    HW221801   3.124   2.614   6.073
 6968SOL     OW21802   4.153   0.250   3.994
 6968SOL    HW121803   4.098   0.256   3.911
 6968SOL    HW221804   4.155   0.156   4.026
 6969SOL     OW21805   3.398   3.327   1.023
 6969SOL    HW121806   3.496   3.325   1.043
 6969SOL    HW221807   3.374   3.245   0.971
 6970SOL     OW21808   5.248   4.289   0.514
 6970SOL    HW121809   5.280   4.203   0.475
 6970SOL    HW221810   5.150   4.299   0.497
 6971SOL     OW21811   6.193   1.611   2.518
 6971SOL    HW121812   6.290   1.589   2.517
 6971SOL    HW221813   6.181   1.703   2.556
 6972SOL     OW21814   4.966   5.268   4.353
 6972SOL    HW121815   4.892   5.331   4.377
 6972SOL    HW221816   4.944   5.219   4.269
 6973SOL     OW21817   0.909   4.239   3.962
 6973SOL    HW121818   0.914   4.139   3.960
 6973SOL    HW221819   0.956   4.273   4.043
 6974SOL     OW21820   3.695   4.217   5.118
 6974SOL    HW121821   3.659   4.186   5.206
 6974SOL    HW221822   3.707   4.316   5.120
 6975SOL     OW21823   2.079   0.077   6.127
 6975SOL    HW121824   2.076   0.136   6.207
 6975SOL    HW221825   2.009   0.006   6.135
 6976SOL     OW21826   0.990   6.033   0.904
 6976SOL    HW121827   0.918   6.029   0.974
 6976SOL    HW221828   0.974   5.961   0.836
 6977SOL     OW21829   4.961   2.953   1.782
 6977SOL    HW121830   4.946   3.029   1.845
 6977SOL    HW221831   4.872   2.915   1.755
 6978SOL     OW21832   4.216   2.299   3.158
 6978SOL    HW121833   4.251   2.330   3.246
 6978SOL    HW221834   4.267   2.342   3.084
 6979SOL     OW21835   0.074   3.814   4.605
 6979SOL    HW121836   0.102   3.719   4.593
 6979SOL    HW221837   0.024   3.845   4.524
 6980SOL     OW21838   4.886   1.644   4.843
 6980SOL    HW121839   4.878   1.544   4.840
 6980SOL    HW221840   4.958   1.669   4.907
 6981SOL     OW21841   3.170   3.859   6.704
 6981SOL    HW121842   3.141   3.886   6.612
 6981SOL    HW221843   3.258   3.900   6.724
 6982SOL     OW21844   0.232   6.916   4.757
 6982SOL    HW121845   0.295   6.919   4.679
 6982SOL    HW221846   0.275   6.957   4.837
 6983SOL     OW21847   6.149   1.086   3.000
 6983SOL    HW121848   6.083   1.034   3.053
 6983SOL    HW221849   6.101   1.139   2.930
 6984SOL     OW21850   1.694   1.352   6.265
 6984SOL    HW121851   1.768   1.296   6.302
 6984SOL    HW221852   1.633   1.295   6.210
 6985SOL     OW21853   5.140   6.351   4.063
 6985SOL    HW121854   5.044   6.368   4.039
 6985SOL    HW221855   5.181   6.288   3.997
 6986SOL     OW21856   1.682   6.412   5.294
 6986SOL    HW121857   1.618   6.370   5.230
 6986SOL    HW221858   1.631   6.453   5.370
 6987SOL     OW21859   6.989   3.853   6.550
 6987SOL    HW121860   0.019   3.798   6.484
 6987SOL    HW221861   6.920   3.797   6.595
 6988SOL     OW21862   5.811   1.145   6.130
 6988SOL    HW121863   5.852   1.232   6.157
 6988SOL    HW221864   5.756   1.159   6.047
 6989SOL     OW21865   1.565   3.362   4.472
 6989SOL    HW121866   1.580   3.368   4.571
 6989SOL    HW221867   1.533   3.450   4.438
 6990SOL     OW21868   4.041   3.393   1.627
 6990SOL    HW121869   4.126   3.341   1.615
 6990SOL    HW221870   3.963   3.334   1.607
 6991SOL     OW21871   4.091   4.708   5.261
 6991SOL    HW121872   4.027   4.739   5.191
 6991SOL    HW221873   4.083   4.767   5.341
 6992SOL     OW21874   6.411   6.303   5.071
 6992SOL    HW121875   6.408   6.246   5.154
 6992SOL    HW221876   6.332   6.365   5.071
 6993SOL     OW21877   0.246   0.175   2.851
 6993SOL    HW121878   0.236   0.145   2.756
 6993SOL    HW221879   0.318   0.122   2.896
 6994SOL     OW21880   1.403   2.321   0.451
 6994SOL    HW121881   1.340   2.243   0.458
 6994SOL    HW221882   1.434   2.330   0.356
 6995SOL     OW21883   0.951   5.608   3.925
 6995SOL    HW121884   0.915   5.517   3.945
 6995SOL    HW221885   0.928   5.634   3.831
 6996SOL     OW21886   1.893   6.868   5.735
 6996SOL    HW121887   1.864   6.826   5.648
 6996SOL    HW221888   1.981   6.914   5.722
 6997SOL     OW21889   4.500   5.510   4.601
 6997SOL    HW121890   4.454   5.493   4.514
 6997SOL    HW221891   4.543   5.600   4.600
 6998SOL     OW21892   2.612   2.047   2.356
 6998SOL    HW121893   2.639   2.116   2.289
 6998SOL    HW221894   2.544   1.986   2.316
 6999SOL     OW21895   5.275   1.776   6.767
 6999SOL    HW121896   5.300   1.796   6.673
 6999SOL    HW221897   5.292   1.680   6.788
 7000SOL     OW21898   0.050   0.404   1.642
 7000SOL    HW121899   0.089   0.429   1.731
 7000SOL    HW221900   6.993   0.463   1.622
 7001SOL     OW21901   2.769   1.179   6.498
 7001SOL    HW121902   2.743   1.154   6.591
 7001SOL    HW221903   2.826   1.261   6.501
 7002SOL     OW21904   2.494   4.707   2.463
 7002SOL    HW121905   2.458   4.695   2.371
 7002SOL    HW221906   2.423   4.749   2.521
 7003SOL     OW21907   2.123   6.624   5.843
 7003SOL    HW121908   2.141   6.606   5.940
 7003SOL    HW221909   2.053   6.562   5.810
 7004SOL     OW21910   1.790   3.880   6.734
 7004SOL    HW121911   1.752   3.968   6.708
 7004SOL    HW221912   1.733   3.806   6.698
 7005SOL     OW21913   6.765   6.992   5.636
 7005SOL    HW121914   6.668   6.975   5.653
 7005SOL    HW221915   6.817   6.910   5.659
 7006SOL     OW21916   4.661   5.167   4.372
 7006SOL    HW121917   4.724   5.105   4.326
 7006SOL    HW221918   4.635   5.241   4.310
 7007SOL     OW21919   5.132   4.981   1.714
 7007SOL    HW121920   5.098   5.065   1.757
 7007SOL    HW221921   5.154   5.000   1.618
 7008SOL     OW21922   0.706   5.787   4.277
 7008SOL    HW121923   0.619   5.802   4.324
 7008SOL    HW221924   0.693   5.794   4.179
 7009SOL     OW21925   0.052   4.346   1.726
 7009SOL    HW121926   0.072   4.361   1.823
 7009SOL    HW221927   0.099   4.263   1.696
 7010SOL     OW21928   5.796   4.326   5.557
 7010SOL    HW121929   5.738   4.396   5.516
 7010SOL    HW221930   5.743   4.273   5.623
 7011SOL     OW21931   0.795   0.474   5.467
 7011SOL    HW121932   0.880   0.426   5.487
 7011SOL    HW221933   0.799   0.513   5.374
 7012SOL     OW21934   0.967   1.277   1.555
 7012SOL    HW121935   0.933   1.267   1.462
 7012SOL    HW221936   0.896   1.317   1.613
 7013SOL     OW21937   6.383   2.381   1.550
 7013SOL    HW121938   6.415   2.372   1.455
 7013SOL    HW221939   6.309   2.317   1.567
 7014SOL     OW21940   2.512   5.116   0.852
 7014SOL    HW121941   2.563   5.091   0.934
 7014SOL    HW221942   2.547   5.064   0.774
 7015SOL     OW21943   4.727   1.968   2.050
 7015SOL    HW121944   4.812   1.930   2.085
 7015SOL    HW221945   4.745   2.057   2.008
 7016SOL     OW21946   4.268   4.335   1.157
 7016SOL    HW121947   4.269   4.407   1.088
 7016SOL    HW221948   4.247   4.376   1.246
 7017SOL     OW21949   5.278   1.818   5.173
 7017SOL    HW121950   5.255   1.848   5.265
 7017SOL    HW221951   5.362   1.862   5.143
 7018SOL     OW21952   0.567   3.390   3.298
 7018SOL    HW121953   0.516   3.311   3.263
 7018SOL    HW221954   0.648   3.359   3.347
 7019SOL     OW21955   0.038   6.406   2.201
 7019SOL    HW121956   7.015   6.327   2.245
 7019SOL    HW221957   0.090   6.375   2.122
 7020SOL     OW21958   0.310   5.288   6.791
 7020SOL    HW121959   0.285   5.261   6.884
 7020SOL    HW221960   0.393   5.240   6.763
 7021SOL     OW21961   3.235   6.554   5.722
 7021SOL    HW121962   3.327   6.583   5.746
 7021SOL    HW221963   3.210   6.473   5.775
 7022SOL     OW21964   4.077   5.247   5.678
 7022SOL    HW121965   4.134   5.181   5.726
 7022SOL    HW221966   4.058   5.325   5.737
 7023SOL     OW21967   4.423   4.789   2.553
 7023SOL    HW121968   4.480   4.859   2.509
 7023SOL    HW221969   4.372   4.830   2.629
 7024SOL     OW21970   5.854   6.529   1.825
 7024SOL    HW121971   5.818   6.470   1.752
 7024SOL    HW221972   5.801   6.515   1.908
 7025SOL     OW21973   2.543   0.155   1.039
 7025SOL    HW121974   2.611   0.117   1.102
 7025SOL    HW221975   2.487   0.222   1.087
 7026SOL     OW21976   4.239   2.443   0.992
 7026SOL    HW121977   4.180   2.492   1.057
 7026SOL    HW221978   4.326   2.422   1.036
 7027SOL     OW21979   5.586   5.695   4.382
 7027SOL    HW121980   5.512   5.630   4.398
 7027SOL    HW221981   5.566   5.748   4.299
 7028SOL     OW21982   2.713   0.983   4.500
 7028SOL    HW121983   2.732   1.046   4.576
 7028SOL    HW221984   2.774   1.002   4.424
 7029SOL     OW21985   3.833   0.874   4.412
 7029SOL    HW121986   3.754   0.812   4.406
 7029SOL    HW221987   3.916   0.820   4.426
 7030SOL     OW21988   1.621   3.258   3.772
 7030SOL    HW121989   1.582   3.222   3.857
 7030SOL    HW221990   1.719   3.241   3.770
 7031SOL     OW21991   1.097   1.127   4.837
 7031SOL    HW121992   1.132   1.134   4.744
 7031SOL    HW221993   1.173   1.113   4.900
 7032SOL     OW21994   5.969   2.606   3.379
 7032SOL    HW121995   5.917   2.522   3.372
 7032SOL    HW221996   5.917   2.681   3.338
 7033SOL     OW21997   0.547   0.739   4.954
 7033SOL    HW121998   0.517   0.825   4.913
 7033SOL    HW221999   0.531   0.664   4.890
 7034SOL     OW22000   0.131   5.359   3.534
 7034SOL    HW122001   0.122   5.361   3.435
 7034SOL    HW222002   0.040   5.361   3.576
 7035SOL     OW22003   6.627   4.477   1.868
 7035SOL    HW122004   6.527   4.469   1.867
 7035SOL    HW222005   6.660   4.493   1.775
 7036SOL     OW22006   6.112   4.559   0.778
 7036SOL    HW122007   6.147   4.466   0.789
 7036SOL    HW222008   6.151   4.617   0.849
 7037SOL     OW22009   1.170   0.480   6.921
 7037SOL    HW122010   1.184   0.579   6.925
 7037SOL    HW222011   1.082   0.460   6.878
 7038SOL     OW22012   2.201   3.036   4.361
 7038SOL    HW122013   2.188   3.055   4.458
 7038SOL    HW222014   2.121   3.068   4.310
 7039SOL     OW22015   3.758   2.048   6.844
 7039SOL    HW122016   3.661   2.073   6.838
 7039SOL    HW222017   3.797   2.045   6.752
 7040SOL     OW22018   5.660   2.393   6.811
 7040SOL    HW122019   5.669   2.413   6.908
 7040SOL    HW222020   5.564   2.406   6.783
 7041SOL     OW22021   2.099   1.609   3.349
 7041SOL    HW122022   2.073   1.703   3.323
 7041SOL    HW222023   2.087   1.598   3.448
 7042SOL     OW22024   2.091   1.367   6.746
 7042SOL    HW122025   2.073   1.352   6.843
 7042SOL    HW222026   2.032   1.441   6.712
 7043SOL     OW22027   1.581   2.803   2.197
 7043SOL    HW122028   1.645   2.728   2.178
 7043SOL    HW222029   1.612   2.886   2.151
 7044SOL     OW22030   6.884   5.849   0.879
 7044SOL    HW122031   6.936   5.854   0.794
 7044SOL    HW222032   6.801   5.903   0.871
 7045SOL     OW22033   0.617   4.904   0.414
 7045SOL    HW122034   0.591   4.840   0.486
 7045SOL    HW222035   0.544   4.908   0.346
 7046SOL     OW22036   3.125   1.867   3.615
 7046SOL    HW122037   3.177   1.951   3.624
 7046SOL    HW222038   3.069   1.852   3.696
 7047SOL     OW22039   1.571   6.943   3.061
 7047SOL    HW122040   1.507   6.888   3.113
 7047SOL    HW222041   1.574   0.015   3.097
 7048SOL     OW22042   6.491   5.653   0.049
 7048SOL    HW122043   6.399   5.649   0.009
 7048SOL    HW222044   6.487   5.623   0.144
 7049SOL     OW22045   2.377   0.636   6.785
 7049SOL    HW122046   2.469   0.622   6.822
 7049SOL    HW222047   2.382   0.702   6.709
 7050SOL     OW22048   4.339   3.557   5.442
 7050SOL    HW122049   4.418   3.539   5.383
 7050SOL    HW222050   4.369   3.612   5.520
 7051SOL     OW22051   5.624   6.483   2.968
 7051SOL    HW122052   5.588   6.506   2.878
 7051SOL    HW222053   5.672   6.396   2.963
 7052SOL     OW22054   6.845   0.026   5.292
 7052SOL    HW122055   6.766   0.079   5.261
 7052SOL    HW222056   6.818   6.990   5.370
 7053SOL     OW22057   6.721   3.666   6.230
 7053SOL    HW122058   6.821   3.672   6.231
 7053SOL    HW222059   6.683   3.726   6.300
 7054SOL     OW22060   6.375   2.182   2.469
 7054SOL    HW122061   6.378   2.083   2.482
 7054SOL    HW222062   6.345   2.202   2.375
 7055SOL     OW22063   4.509   1.723   3.882
 7055SOL    HW122064   4.510   1.679   3.972
 7055SOL    HW222065   4.543   1.659   3.814
 7056SOL     OW22066   4.844   5.594   4.145
 7056SOL    HW122067   4.940   5.603   4.171
 7056SOL    HW222068   4.797   5.536   4.212
 7057SOL     OW22069   5.594   5.760   2.767
 7057SOL    HW122070   5.541   5.776   2.850
 7057SOL    HW222071   5.582   5.837   2.704
 7058SOL     OW22072   0.402   4.391   4.329
 7058SOL    HW122073   0.436   4.353   4.243
 7058SOL    HW222074   0.401   4.320   4.399
 7059SOL     OW22075   1.776   1.033   2.564
 7059SOL    HW122076   1.700   1.081   2.608
 7059SOL    HW222077   1.740   0.969   2.495
 7060SOL     OW22078   2.918   6.759   0.807
 7060SOL    HW122079   2.857   6.799   0.875
 7060SOL    HW222080   2.866   6.698   0.747
 7061SOL     OW22081   0.413   0.932   3.046
 7061SOL    HW122082   0.376   1.009   3.098
 7061SOL    HW222083   0.471   0.876   3.105
 7062SOL     OW22084   6.516   1.366   5.808
 7062SOL    HW122085   6.442   1.433   5.807
 7062SOL    HW222086   6.576   1.384   5.886
 7063SOL     OW22087   1.931   6.444   2.060
 7063SOL    HW122088   1.947   6.528   2.008
 7063SOL    HW222089   1.871   6.384   2.008
 7064SOL     OW22090   3.515   2.362   6.963
 7064SOL    HW122091   3.581   2.437   6.955
 7064SOL    HW222092   3.490   2.350   0.038
 7065SOL     OW22093   3.307   3.705   2.728
 7065SOL    HW122094   3.374   3.760   2.679
 7065SOL    HW222095   3.346   3.614   2.745
 7066SOL     OW22096   2.463   4.895   1.708
 7066SOL    HW122097   2.536   4.845   1.754
 7066SOL    HW222098   2.396   4.926   1.776
 7067SOL     OW22099   1.064   4.174   4.918
 7067SOL    HW122100   1.084   4.076   4.912
 7067SOL    HW222101   0.972   4.192   4.882
 7068SOL     OW22102   0.425   0.631   2.801
 7068SOL    HW122103   0.393   0.537   2.801
 7068SOL    HW222104   0.413   0.670   2.893
 7069SOL     OW22105   1.890   4.819   5.044
 7069SOL    HW122106   1.871   4.768   5.128
 7069SOL    HW222107   1.809   4.821   4.986
 7070SOL     OW22108   5.576   5.188   3.434
 7070SOL    HW122109   5.487   5.212   3.473
 7070SOL    HW222110   5.592   5.090   3.445
 7071SOL     OW22111   1.930   6.548   5.313
 7071SOL    HW122112   2.012   6.490   5.322
 7071SOL    HW222113   1.849   6.490   5.313
 7072SOL     OW22114   0.483   0.340   6.487
 7072SOL    HW122115   0.496   0.246   6.455
 7072SOL    HW222116   0.537   0.355   6.570
 7073SOL     OW22117   1.988   2.361   6.811
 7073SOL    HW122118   2.051   2.405   6.875
 7073SOL    HW222119   2.038   2.296   6.754
 7074SOL     OW22120   3.706   1.265   6.849
 7074SOL    HW122121   3.757   1.329   6.792
 7074SOL    HW222122   3.706   1.175   6.806
 7075SOL     OW22123   0.560   6.150   3.097
 7075SOL    HW122124   0.497   6.227   3.106
 7075SOL    HW222125   0.521   6.081   3.036
 7076SOL     OW22126   3.392   1.181   6.233
 7076SOL    HW122127   3.447   1.161   6.152
 7076SOL    HW222128   3.310   1.232   6.206
 7077SOL     OW22129   1.481   5.885   6.510
 7077SOL    HW122130   1.385   5.898   6.488
 7077SOL    HW222131   1.500   5.924   6.601
 7078SOL     OW22132   0.013   1.163   1.957
 7078SOL    HW122133   6.945   1.130   1.924
 7078SOL    HW222134   0.075   1.085   1.967
 7079SOL     OW22135   5.402   6.544   4.478
 7079SOL    HW122136   5.424   6.472   4.412
 7079SOL    HW222137   5.447   6.524   4.565
 7080SOL     OW22138   5.651   0.175   3.873
 7080SOL    HW122139   5.615   0.121   3.797
 7080SOL    HW222140   5.699   0.255   3.837
 7081SOL     OW22141   4.876   0.784   4.932
 7081SOL    HW122142   4.846   0.875   4.962
 7081SOL    HW222143   4.925   0.739   5.006
 7082SOL     OW22144   6.058   1.390   0.143
 7082SOL    HW122145   6.115   1.456   0.193
 7082SOL    HW222146   6.105   1.303   0.137
 7083SOL     OW22147   4.366   0.071   5.354
 7083SOL    HW122148   4.291   0.010   5.381
 7083SOL    HW222149   4.422   0.026   5.284
 7084SOL     OW22150   6.112   5.848   0.611
 7084SOL    HW122151   6.193   5.897   0.580
 7084SOL    HW222152   6.135   5.752   0.627
 7085SOL     OW22153   4.320   1.186   1.683
 7085SOL    HW122154   4.338   1.143   1.594
 7085SOL    HW222155   4.407   1.204   1.729
 7086SOL     OW22156   1.167   0.867   5.985
 7086SOL    HW122157   1.257   0.899   6.015
 7086SOL    HW222158   1.159   0.878   5.886
 7087SOL     OW22159   2.373   2.822   5.329
 7087SOL    HW122160   2.426   2.882   5.270
 7087SOL    HW222161   2.349   2.739   5.280
 7088SOL     OW22162   0.025   2.333   4.571
 7088SOL    HW122163   6.979   2.375   4.632
 7088SOL    HW222164   0.057   2.247   4.612
 7089SOL     OW22165   3.247   1.762   1.584
 7089SOL    HW122166   3.170   1.770   1.520
 7089SOL    HW222167   3.218   1.793   1.674
 7090SOL     OW22168   2.759   1.791   4.843
 7090SOL    HW122169   2.672   1.833   4.819
 7090SOL    HW222170   2.834   1.847   4.809
 7091SOL     OW22171   6.756   6.267   0.863
 7091SOL    HW122172   6.781   6.345   0.806
 7091SOL    HW222173   6.750   6.296   0.959
 7092SOL     OW22174   3.467   2.142   0.760
 7092SOL    HW122175   3.463   2.228   0.709
 7092SOL    HW222176   3.558   2.103   0.751
 7093SOL     OW22177   4.001   2.912   6.421
 7093SOL    HW122178   4.046   2.991   6.379
 7093SOL    HW222179   3.943   2.867   6.354
 7094SOL     OW22180   6.524   1.054   6.524
 7094SOL    HW122181   6.519   1.001   6.609
 7094SOL    HW222182   6.615   1.094   6.515
 7095SOL     OW22183   0.450   3.945   0.852
 7095SOL    HW122184   0.368   3.914   0.805
 7095SOL    HW222185   0.462   3.894   0.937
 7096SOL     OW22186   3.996   6.804   2.537
 7096SOL    HW122187   4.090   6.837   2.529
 7096SOL    HW222188   3.933   6.878   2.511
 7097SOL     OW22189   2.358   1.231   1.608
 7097SOL    HW122190   2.362   1.241   1.509
 7097SOL    HW222191   2.265   1.251   1.640
 7098SOL     OW22192   1.357   0.485   6.046
 7098SOL    HW122193   1.319   0.513   5.958
 7098SOL    HW222194   1.291   0.427   6.094
 7099SOL     OW22195   6.918   1.345   5.209
 7099SOL    HW122196   6.927   1.313   5.114
 7099SOL    HW222197   6.824   1.376   5.224
 7100SOL     OW22198   5.505   1.712   1.154
 7100SOL    HW122199   5.538   1.619   1.135
 7100SOL    HW222200   5.558   1.751   1.230
 7101SOL     OW22201   1.355   0.335   4.224
 7101SOL    HW122202   1.429   0.378   4.275
 7101SOL    HW222203   1.299   0.405   4.180
 7102SOL     OW22204   4.169   3.045   0.632
 7102SOL    HW122205   4.230   3.121   0.654
 7102SOL    HW222206   4.222   2.961   0.622
 7103SOL     OW22207   2.271   0.097   5.913
 7103SOL    HW122208   2.231   0.070   6.000
 7103SOL    HW222209   2.357   0.048   5.899
 7104SOL     OW22210   0.930   2.985   1.963
 7104SOL    HW122211   0.884   2.929   1.894
 7104SOL    HW222212   0.866   3.006   2.037
 7105SOL     OW22213   1.928   2.891   5.530
 7105SOL    HW122214   1.851   2.865   5.472
 7105SOL    HW222215   1.985   2.958   5.482
 7106SOL     OW22216   3.050   2.694   5.341
 7106SOL    HW122217   3.038   2.793   5.335
 7106SOL    HW222218   3.147   2.673   5.352
 7107SOL     OW22219   1.341   1.403   0.361
 7107SOL    HW122220   1.363   1.338   0.434
 7107SOL    HW222221   1.424   1.429   0.312
 7108SOL     OW22222   4.730   6.950   2.066
 7108SOL    HW122223   4.662   6.878   2.055
 7108SOL    HW222224   4.812   6.913   2.110
 7109SOL     OW22225   4.488   5.893   6.470
 7109SOL    HW122226   4.469   5.986   6.440
 7109SOL    HW222227   4.403   5.849   6.499
 7110SOL     OW22228   4.016   4.862   4.491
 7110SOL    HW122229   4.068   4.779   4.513
 7110SOL    HW222230   3.944   4.875   4.558
 7111SOL     OW22231   1.700   2.695   3.423
 7111SOL    HW122232   1.768   2.626   3.398
 7111SOL    HW222233   1.722   2.734   3.512
 7112SOL     OW22234   1.641   6.222   3.121
 7112SOL    HW122235   1.620   6.126   3.139
 7112SOL    HW222236   1.731   6.229   3.079
 7113SOL     OW22237   4.052   3.235   5.738
 7113SOL    HW122238   3.956   3.246   5.764
 7113SOL    HW222239   4.079   3.311   5.680
 7114SOL     OW22240   3.929   6.494   0.700
 7114SOL    HW122241   3.924   6.454   0.792
 7114SOL    HW222242   3.981   6.433   0.640
 7115SOL     OW22243   4.026   2.616   1.103
 7115SOL    HW122244   3.963   2.564   1.161
 7115SOL    HW222245   4.058   2.696   1.154
 7116SOL     OW22246   6.422   4.515   3.222
 7116SOL    HW122247   6.490   4.490   3.290
 7116SOL    HW222248   6.447   4.474   3.134
 7117SOL     OW22249   5.540   6.810   2.444
 7117SOL    HW122250   5.575   6.891   2.492
 7117SOL    HW222251   5.462   6.774   2.495
 7118SOL     OW22252   6.687   3.294   3.409
 7118SOL    HW122253   6.751   3.217   3.411
 7118SOL    HW222254   6.594   3.261   3.393
 7119SOL     OW22255   1.375   2.381   3.181
 7119SOL    HW122256   1.435   2.460   3.195
 7119SOL    HW222257   1.291   2.411   3.134
 7120SOL     OW22258   4.392   6.696   3.766
 7120SOL    HW122259   4.471   6.657   3.719
 7120SOL    HW222260   4.312   6.693   3.706
 7121SOL     OW22261   2.220   6.461   1.011
 7121SOL    HW122262   2.217   6.502   1.102
 7121SOL    HW222263   2.219   6.361   1.019
 7122SOL     OW22264   7.005   6.126   0.456
 7122SOL    HW122265   0.015   6.125   0.551
 7122SOL    HW222266   6.981   6.219   0.429
 7123SOL     OW22267   2.802   5.429   0.783
 7123SOL    HW122268   2.828   5.486   0.704
 7123SOL    HW222269   2.707   5.448   0.807
 7124SOL     OW22270   6.888   6.440   6.558
 7124SOL    HW122271   6.867   6.360   6.615
 7124SOL    HW222272   6.922   6.409   6.469
 7125SOL     OW22273   0.923   5.939   3.512
 7125SOL    HW122274   0.895   5.941   3.416
 7125SOL    HW222275   1.023   5.948   3.517
 7126SOL     OW22276   1.565   3.597   1.489
 7126SOL    HW122277   1.530   3.677   1.439
 7126SOL    HW222278   1.499   3.569   1.558
 7127SOL     OW22279   2.104   0.486   5.158
 7127SOL    HW122280   2.073   0.423   5.087
 7127SOL    HW222281   2.198   0.516   5.138
 7128SOL     OW22282   3.079   3.618   2.490
 7128SOL    HW122283   3.062   3.715   2.474
 7128SOL    HW222284   3.166   3.592   2.447
 7129SOL     OW22285   2.603   1.795   0.886
 7129SOL    HW122286   2.562   1.880   0.920
 7129SOL    HW222287   2.587   1.787   0.788
 7130SOL     OW22288   1.698   0.488   2.916
 7130SOL    HW122289   1.714   0.454   3.008
 7130SOL    HW222290   1.746   0.575   2.903
 7131SOL     OW22291   2.595   1.213   3.549
 7131SOL    HW122292   2.579   1.124   3.592
 7131SOL    HW222293   2.581   1.285   3.617
 7132SOL     OW22294   2.953   3.881   2.271
 7132SOL    HW122295   2.893   3.822   2.218
 7132SOL    HW222296   2.986   3.956   2.212
 7133SOL     OW22297   6.130   4.112   1.682
 7133SOL    HW122298   6.057   4.155   1.735
 7133SOL    HW222299   6.117   4.130   1.585
 7134SOL     OW22300   5.133   4.991   2.482
 7134SOL    HW122301   5.037   4.970   2.464
 7134SOL    HW222302   5.151   4.981   2.580
 7135SOL     OW22303   0.285   2.232   6.240
 7135SOL    HW122304   0.270   2.308   6.304
 7135SOL    HW222305   0.304   2.149   6.292
 7136SOL     OW22306   1.572   1.739   6.878
 7136SOL    HW122307   1.605   1.819   6.828
 7136SOL    HW222308   1.504   1.691   6.821
 7137SOL     OW22309   4.685   2.318   5.011
 7137SOL    HW122310   4.595   2.360   5.002
 7137SOL    HW222311   4.738   2.335   4.927
 7138SOL     OW22312   2.455   2.485   6.684
 7138SOL    HW122313   2.463   2.506   6.587
 7138SOL    HW222314   2.438   2.569   6.735
 7139SOL     OW22315   2.843   1.235   0.448
 7139SOL    HW122316   2.934   1.252   0.485
 7139SOL    HW222317   2.824   1.302   0.376
 7140SOL     OW22318   0.075   4.399   4.587
 7140SOL    HW122319   0.034   4.313   4.559
 7140SOL    HW222320   0.084   4.460   4.508
 7141SOL     OW22321   0.646   0.091   2.010
 7141SOL    HW122322   0.648   0.191   2.005
 7141SOL    HW222323   0.589   0.055   1.937
 7142SOL     OW22324   3.329   6.662   3.786
 7142SOL    HW122325   3.229   6.653   3.788
 7142SOL    HW222326   3.371   6.587   3.837
 7143SOL     OW22327   1.835   2.144   3.437
 7143SOL    HW122328   1.905   2.179   3.500
 7143SOL    HW222329   1.752   2.197   3.447
 7144SOL     OW22330   1.339   3.599   3.467
 7144SOL    HW122331   1.267   3.648   3.515
 7144SOL    HW222332   1.391   3.544   3.532
 7145SOL     OW22333   4.068   5.599   6.323
 7145SOL    HW122334   3.975   5.562   6.328
 7145SOL    HW222335   4.122   5.545   6.258
 7146SOL     OW22336   3.598   4.942   1.600
 7146SOL    HW122337   3.551   4.991   1.673
 7146SOL    HW222338   3.570   4.979   1.511
 7147SOL     OW22339   6.992   1.096   3.553
 7147SOL    HW122340   0.062   1.133   3.532
 7147SOL    HW222341   6.947   1.068   3.468
 7148SOL     OW22342   6.812   1.925   0.804
 7148SOL    HW122343   6.719   1.917   0.770
 7148SOL    HW222344   6.876   1.882   0.741
 7149SOL     OW22345   0.828   0.677   4.603
 7149SOL    HW122346   0.899   0.747   4.596
 7149SOL    HW222347   0.845   0.621   4.684
 7150SOL     OW22348   5.786   3.445   6.123
 7150SOL    HW122349   5.829   3.425   6.211
 7150SOL    HW222350   5.807   3.373   6.057
 7151SOL     OW22351   2.124   6.567   0.132
 7151SOL    HW122352   2.140   6.534   0.039
 7151SOL    HW222353   2.186   6.644   0.151
 7152SOL     OW22354   1.122   2.458   4.915
 7152SOL    HW122355   1.158   2.365   4.906
 7152SOL    HW222356   1.055   2.461   4.989
 7153SOL     OW22357   4.089   1.938   2.873
 7153SOL    HW122358   4.033   2.020   2.861
 7153SOL    HW222359   4.070   1.874   2.799
 7154SOL     OW22360   3.354   0.184   4.816
 7154SOL    HW122361   3.353   0.140   4.906
 7154SOL    HW222362   3.413   0.133   4.754
 7155SOL     OW22363   2.361   1.522   3.584
 7155SOL    HW122364   2.419   1.603   3.582
 7155SOL    HW222365   2.358   1.481   3.493
 7156SOL     OW22366   2.036   5.834   5.554
 7156SOL    HW122367   1.949   5.869   5.587
 7156SOL    HW222368   2.073   5.768   5.620
 7157SOL     OW22369   4.704   4.174   0.237
 7157SOL    HW122370   4.714   4.268   0.270
 7157SOL    HW222371   4.795   4.136   0.219
 7158SOL     OW22372   4.016   0.191   3.555
 7158SOL    HW122373   4.024   0.225   3.461
 7158SOL    HW222374   4.106   0.162   3.587
 7159SOL     OW22375   1.184   6.044   6.829
 7159SOL    HW122376   1.162   6.122   6.887
 7159SOL    HW222377   1.210   5.966   6.885
 7160SOL     OW22378   6.645   0.690   1.600
 7160SOL    HW122379   6.583   0.741   1.660
 7160SOL    HW222380   6.602   0.677   1.510
 7161SOL     OW22381   3.921   3.986   4.875
 7161SOL    HW122382   3.981   3.928   4.820
 7161SOL    HW222383   3.921   4.079   4.839
 7162SOL     OW22384   3.603   5.114   4.029
 7162SOL    HW122385   3.623   5.123   4.127
 7162SOL    HW222386   3.509   5.082   4.018
 7163SOL     OW22387   1.041   6.512   3.357
 7163SOL    HW122388   1.106   6.441   3.385
 7163SOL    HW222389   1.091   6.589   3.316
 7164SOL     OW22390   2.533   1.888   4.771
 7164SOL    HW122391   2.448   1.925   4.807
 7164SOL    HW222392   2.566   1.945   4.696
 7165SOL     OW22393   4.823   5.077   2.090
 7165SOL    HW122394   4.755   5.044   2.155
 7165SOL    HW222395   4.777   5.119   2.012
 7166SOL     OW22396   3.762   6.216   2.282
 7166SOL    HW122397   3.836   6.184   2.223
 7166SOL    HW222398   3.763   6.162   2.367
 7167SOL     OW22399   5.312   3.348   6.974
 7167SOL    HW122400   5.336   3.259   7.013
 7167SOL    HW222401   5.259   3.401   0.019
 7168SOL     OW22402   0.378   1.656   4.022
 7168SOL    HW122403   0.347   1.750   4.013
 7168SOL    HW222404   0.440   1.648   4.100
 7169SOL     OW22405   2.110   2.380   6.397
 7169SOL    HW122406   2.152   2.460   6.439
 7169SOL    HW222407   2.155   2.359   6.311
 7170SOL     OW22408   5.207   4.406   3.844
 7170SOL    HW122409   5.219   4.506   3.843
 7170SOL    HW222410   5.174   4.378   3.934
 7171SOL     OW22411   3.910   3.845   5.753
 7171SOL    HW122412   3.842   3.773   5.734
 7171SOL    HW222413   3.891   3.886   5.842
 7172SOL     OW22414   0.014   6.295   0.949
 7172SOL    HW122415   6.968   6.236   0.904
 7172SOL    HW222416   7.017   6.297   1.048
 7173SOL     OW22417   6.267   6.580   4.663
 7173SOL    HW122418   6.359   6.544   4.676
 7173SOL    HW222419   6.250   6.593   4.565
 7174SOL     OW22420   1.127   6.139   6.103
 7174SOL    HW122421   1.186   6.062   6.128
 7174SOL    HW222422   1.105   6.134   6.005
 7175SOL     OW22423   6.154   3.564   5.614
 7175SOL    HW122424   6.244   3.522   5.600
 7175SOL    HW222425   6.126   3.612   5.531
 7176SOL     OW22426   0.963   3.084   1.546
 7176SOL    HW122427   0.963   3.184   1.541
 7176SOL    HW222428   0.869   3.051   1.539
 7177SOL     OW22429   0.923   4.664   1.738
 7177SOL    HW122430   0.897   4.721   1.816
 7177SOL    HW222431   0.962   4.578   1.771
 7178SOL     OW22432   6.364   0.678   6.834
 7178SOL    HW122433   6.309   0.660   6.753
 7178SOL    HW222434   6.444   0.617   6.835
 7179SOL     OW22435   0.766   3.996   6.002
 7179SOL    HW122436   0.734   3.979   6.095
 7179SOL    HW222437   0.707   3.949   5.937
 7180SOL     OW22438   6.855   0.038   2.312
 7180SOL    HW122439   6.921   0.013   2.241
 7180SOL    HW222440   6.824   6.977   2.358
 7181SOL     OW22441   5.433   5.894   2.598
 7181SOL    HW122442   5.363   5.827   2.621
 7181SOL    HW222443   5.429   5.914   2.500
 7182SOL     OW22444   4.507   3.701   6.034
 7182SOL    HW122445   4.563   3.627   6.072
 7182SOL    HW222446   4.545   3.729   5.946
 7183SOL     OW22447   2.212   3.057   3.076
 7183SOL    HW122448   2.213   2.989   3.150
 7183SOL    HW222449   2.285   3.037   3.011
 7184SOL     OW22450   2.510   5.615   3.457
 7184SOL    HW122451   2.552   5.594   3.546
 7184SOL    HW222452   2.411   5.622   3.468
 7185SOL     OW22453   4.960   2.070   6.982
 7185SOL    HW122454   4.969   2.169   6.969
 7185SOL    HW222455   4.908   2.052   0.044
 7186SOL     OW22456   0.817   6.259   4.693
 7186SOL    HW122457   0.903   6.208   4.683
 7186SOL    HW222458   0.755   6.206   4.751
 7187SOL     OW22459   1.816   5.337   1.370
 7187SOL    HW122460   1.836   5.289   1.285
 7187SOL    HW222461   1.732   5.390   1.360
 7188SOL     OW22462   5.373   0.194   1.650
 7188SOL    HW122463   5.358   0.289   1.626
 7188SOL    HW222464   5.460   0.185   1.698
 7189SOL     OW22465   6.216   0.861   5.438
 7189SOL    HW122466   6.228   0.820   5.529
 7189SOL    HW222467   6.161   0.800   5.381
 7190SOL     OW22468   4.311   5.449   3.003
 7190SOL    HW122469   4.318   5.352   2.981
 7190SOL    HW222470   4.399   5.493   2.989
 7191SOL     OW22471   0.679   3.003   1.522
 7191SOL    HW122472   0.681   2.988   1.621
 7191SOL    HW222473   0.602   3.063   1.499
 7192SOL     OW22474   3.207   4.034   6.428
 7192SOL    HW122475   3.188   4.127   6.459
 7192SOL    HW222476   3.289   4.035   6.370
 7193SOL     OW22477   5.754   2.233   4.855
 7193SOL    HW122478   5.714   2.166   4.793
 7193SOL    HW222479   5.809   2.185   4.924
 7194SOL     OW22480   2.846   1.052   1.953
 7194SOL    HW122481   2.833   0.978   2.018
 7194SOL    HW222482   2.852   1.139   2.001
 7195SOL     OW22483   0.545   0.018   2.654
 7195SOL    HW122484   0.450   0.026   2.687
 7195SOL    HW222485   0.545   7.018   2.557
 7196SOL     OW22486   3.620   3.572   1.812
 7196SOL    HW122487   3.713   3.557   1.779
 7196SOL    HW222488   3.571   3.485   1.815
 7197SOL     OW22489   1.410   1.008   4.618
 7197SOL    HW122490   1.500   1.042   4.592
 7197SOL    HW222491   1.405   0.909   4.600
 7198SOL     OW22492   0.448   6.941   6.148
 7198SOL    HW122493   0.367   6.932   6.090
 7198SOL    HW222494   0.427   6.909   6.240
 7199SOL     OW22495   5.921   5.799   2.271
 7199SOL    HW122496   5.829   5.836   2.275
 7199SOL    HW222497   5.979   5.847   2.337
 7200SOL     OW22498   1.428   2.356   2.501
 7200SOL    HW122499   1.435   2.453   2.479
 7200SOL    HW222500   1.412   2.344   2.599
 7201SOL     OW22501   2.262   4.192   4.115
 7201SOL    HW122502   2.180   4.143   4.087
 7201SOL    HW222503   2.311   4.224   4.033
 7202SOL     OW22504   2.471   6.870   5.939
 7202SOL    HW122505   2.426   6.816   6.010
 7202SOL    HW222506   2.545   6.923   5.980
 7203SOL     OW22507   5.891   0.034   0.063
 7203SOL    HW122508   5.855   6.963   0.076
 7203SOL    HW222509   5.943   0.061   0.144
 7204SOL     OW22510   6.476   2.202   3.181
 7204SOL    HW122511   6.550   2.260   3.149
 7204SOL    HW222512   6.397   2.210   3.119
 7205SOL     OW22513   1.316   4.029   1.479
 7205SOL    HW122514   1.403   4.061   1.518
 7205SOL    HW222515   1.241   4.054   1.540
 7206SOL     OW22516   6.224   1.050   1.642
 7206SOL    HW122517   6.310   1.097   1.622
 7206SOL    HW222518   6.207   0.979   1.573
 7207SOL     OW22519   4.204   0.319   1.653
 7207SOL    HW122520   4.128   0.316   1.718
 7207SOL    HW222521   4.171   0.346   1.563
 7208SOL     OW22522   2.475   0.529   5.409
 7208SOL    HW122523   2.404   0.491   5.468
 7208SOL    HW222524   2.487   0.626   5.430
 7209SOL     OW22525   3.269   3.853   5.189
 7209SOL    HW122526   3.306   3.902   5.267
 7209SOL    HW222527   3.254   3.757   5.214
 7210SOL     OW22528   3.920   6.761   4.249
 7210SOL    HW122529   3.909   6.720   4.340
 7210SOL    HW222530   4.013   6.743   4.216
 7211SOL     OW22531   0.784   5.076   2.359
 7211SOL    HW122532   0.736   5.072   2.272
 7211SOL    HW222533   0.880   5.101   2.344
 7212SOL     OW22534   5.415   6.858   3.417
 7212SOL    HW122535   5.451   6.839   3.326
 7212SOL    HW222536   5.344   6.928   3.411
 7213SOL     OW22537   5.575   6.604   5.389
 7213SOL    HW122538   5.503   6.542   5.420
 7213SOL    HW222539   5.594   6.588   5.292
 7214SOL     OW22540   1.158   4.915   5.851
 7214SOL    HW122541   1.091   4.868   5.908
 7214SOL    HW222542   1.248   4.871   5.860
 7215SOL     OW22543   1.184   3.026   1.702
 7215SOL    HW122544   1.100   3.019   1.649
 7215SOL    HW222545   1.223   3.118   1.690
 7216SOL     OW22546   2.962   2.224   2.521
 7216SOL    HW122547   2.890   2.291   2.534
 7216SOL    HW222548   2.981   2.214   2.423
 7217SOL     OW22549   0.280   3.364   1.793
 7217SOL    HW122550   0.247   3.400   1.880
 7217SOL    HW222551   0.376   3.338   1.802
 7218SOL     OW22552   6.332   2.859   4.322
 7218SOL    HW122553   6.374   2.770   4.342
 7218SOL    HW222554   6.236   2.857   4.349
 7219SOL     OW22555   3.023   1.293   0.795
 7219SOL    HW122556   3.021   1.318   0.698
 7219SOL    HW222557   2.936   1.251   0.820
 7220SOL     OW22558   6.812   1.786   3.155
 7220SOL    HW122559   6.885   1.766   3.221
 7220SOL    HW222560   6.759   1.865   3.187
 7221SOL     OW22561   6.613   3.885   5.495
 7221SOL    HW122562   6.541   3.914   5.559
 7221SOL    HW222563   6.624   3.955   5.425
 7222SOL     OW22564   6.796   0.235   3.065
 7222SOL    HW122565   6.894   0.223   3.052
 7222SOL    HW222566   6.751   0.146   3.063
 7223SOL     OW22567   4.366   1.226   4.454
 7223SOL    HW122568   4.376   1.240   4.552
 7223SOL    HW222569   4.309   1.146   4.437
 7224SOL     OW22570   5.468   1.482   3.078
 7224SOL    HW122571   5.446   1.489   3.176
 7224SOL    HW222572   5.536   1.410   3.064
 7225SOL     OW22573   2.766   0.234   1.646
 7225SOL    HW122574   2.827   0.188   1.710
 7225SOL    HW222575   2.671   0.218   1.673
 7226SOL     OW22576   6.227   6.424   5.460
 7226SOL    HW122577   6.314   6.442   5.413
 7226SOL    HW222578   6.164   6.379   5.398
 7227SOL     OW22579   0.019   3.144   5.993
 7227SOL    HW122580   0.092   3.200   5.955
 7227SOL    HW222581   0.010   3.060   5.939
 7228SOL     OW22582   1.901   0.474   2.519
 7228SOL    HW122583   1.953   0.536   2.576
 7228SOL    HW222584   1.846   0.526   2.454
 7229SOL     OW22585   6.891   0.447   3.251
 7229SOL    HW122586   6.930   0.390   3.324
 7229SOL    HW222587   6.881   0.392   3.168
 7230SOL     OW22588   6.609   5.135   1.237
 7230SOL    HW122589   6.544   5.210   1.227
 7230SOL    HW222590   6.591   5.065   1.167
 7231SOL     OW22591   5.956   0.904   0.402
 7231SOL    HW122592   5.950   0.985   0.343
 7231SOL    HW222593   5.947   0.822   0.347
 7232SOL     OW22594   3.204   4.039   0.695
 7232SOL    HW122595   3.216   4.111   0.628
 7232SOL    HW222596   3.293   4.005   0.725
 7233SOL     OW22597   1.362   2.396   5.604
 7233SOL    HW122598   1.405   2.347   5.681
 7233SOL    HW222599   1.269   2.422   5.630
 7234SOL     OW22600   5.358   2.573   3.880
 7234SOL    HW122601   5.340   2.484   3.837
 7234SOL    HW222602   5.445   2.608   3.847
 7235SOL     OW22603   6.139   2.739   5.128
 7235SOL    HW122604   6.062   2.719   5.068
 7235SOL    HW222605   6.108   2.793   5.206
 7236SOL     OW22606   1.054   1.821   3.212
 7236SOL    HW122607   1.049   1.868   3.124
 7236SOL    HW222608   1.141   1.841   3.256
 7237SOL     OW22609   5.756   6.148   4.788
 7237SOL    HW122610   5.808   6.139   4.873
 7237SOL    HW222611   5.815   6.131   4.710
 7238SOL     OW22612   1.527   0.072   1.937
 7238SOL    HW122613   1.559   0.098   1.845
 7238SOL    HW222614   1.477   0.149   1.977
 7239SOL     OW22615   4.689   1.589   2.151
 7239SOL    HW122616   4.726   1.614   2.062
 7239SOL    HW222617   4.630   1.508   2.142
 7240SOL     OW22618   3.395   3.795   2.993
 7240SOL    HW122619   3.303   3.797   2.953
 7240SOL    HW222620   3.454   3.859   2.945
 7241SOL     OW22621   4.582   0.002   4.344
 7241SOL    HW122622   4.536   0.084   4.380
 7241SOL    HW222623   4.630   6.976   4.418
 7242SOL     OW22624   6.606   5.651   0.626
 7242SOL    HW122625   6.633   5.595   0.547
 7242SOL    HW222626   6.611   5.747   0.602
 7243SOL     OW22627   0.606   5.811   1.295
 7243SOL    HW122628   0.622   5.781   1.201
 7243SOL    HW222629   0.554   5.741   1.343
 7244SOL     OW22630   5.886   1.958   1.721
 7244SOL    HW122631   5.813   1.947   1.654
 7244SOL    HW222632   5.973   1.933   1.681
 7245SOL     OW22633   5.560   1.710   3.707
 7245SOL    HW122634   5.513   1.799   3.709
 7245SOL    HW222635   5.658   1.725   3.719
 7246SOL     OW22636   1.336   5.403   5.602
 7246SOL    HW122637   1.403   5.471   5.575
 7246SOL    HW222638   1.260   5.448   5.649
 7247SOL     OW22639   4.156   5.781   3.968
 7247SOL    HW122640   4.190   5.688   3.982
 7247SOL    HW222641   4.105   5.810   4.049
 7248SOL     OW22642   3.272   1.273   4.888
 7248SOL    HW122643   3.315   1.270   4.798
 7248SOL    HW222644   3.234   1.182   4.909
 7249SOL     OW22645   4.529   3.280   5.673
 7249SOL    HW122646   4.481   3.314   5.754
 7249SOL    HW222647   4.556   3.185   5.688
 7250SOL     OW22648   3.042   3.129   0.094
 7250SOL    HW122649   2.959   3.156   0.143
 7250SOL    HW222650   3.113   3.104   0.159
 7251SOL     OW22651   5.722   1.343   5.196
 7251SOL    HW122652   5.689   1.357   5.289
 7251SOL    HW222653   5.812   1.300   5.198
 7252SOL     OW22654   4.573   3.474   5.293
 7252SOL    HW122655   4.619   3.542   5.235
 7252SOL    HW222656   4.625   3.462   5.378
 7253SOL     OW22657   4.998   5.140   6.992
 7253SOL    HW122658   5.047   5.154   0.057
 7253SOL    HW222659   4.901   5.163   7.005
 7254SOL     OW22660   5.023   6.532   5.372
 7254SOL    HW122661   5.000   6.628   5.353
 7254SOL    HW222662   5.122   6.522   5.375
 7255SOL     OW22663   3.469   3.116   3.459
 7255SOL    HW122664   3.420   3.202   3.467
 7255SOL    HW222665   3.566   3.131   3.479
 7256SOL     OW22666   2.898   5.447   3.688
 7256SOL    HW122667   2.989   5.473   3.722
 7256SOL    HW222668   2.895   5.348   3.674
 7257SOL     OW22669   6.133   5.359   2.702
 7257SOL    HW122670   6.086   5.309   2.629
 7257SOL    HW222671   6.134   5.456   2.680
 7258SOL     OW22672   2.146   6.976   5.665
 7258SOL    HW122673   2.167   0.030   5.728
 7258SOL    HW222674   2.203   6.897   5.688
 7259SOL     OW22675   3.208   3.975   6.076
 7259SOL    HW122676   3.286   4.016   6.124
 7259SOL    HW222677   3.148   3.930   6.141
 7260SOL     OW22678   4.546   2.540   2.659
 7260SOL    HW122679   4.604   2.609   2.614
 7260SOL    HW222680   4.560   2.544   2.758
 7261SOL     OW22681   2.503   4.903   1.430
 7261SOL    HW122682   2.421   4.947   1.393
 7261SOL    HW222683   2.496   4.898   1.530
 7262SOL     OW22684   6.407   0.745   4.776
 7262SOL    HW122685   6.444   0.669   4.724
 7262SOL    HW222686   6.311   0.727   4.799
 7263SOL     OW22687   5.603   5.150   1.438
 7263SOL    HW122688   5.528   5.199   1.392
 7263SOL    HW222689   5.569   5.063   1.474
 7264SOL     OW22690   0.183   6.623   4.545
 7264SOL    HW122691   0.211   6.711   4.582
 7264SOL    HW222692   0.257   6.585   4.488
 7265SOL     OW22693   4.459   3.177   6.926
 7265SOL    HW122694   4.506   3.091   6.947
 7265SOL    HW222695   4.494   3.213   6.839
 7266SOL     OW22696   4.536   1.554   2.889
 7266SOL    HW122697   4.562   1.461   2.917
 7266SOL    HW222698   4.476   1.594   2.959
 7267SOL     OW22699   5.061   1.716   3.524
 7267SOL    HW122700   4.967   1.696   3.494
 7267SOL    HW222701   5.116   1.741   3.445
 7268SOL     OW22702   4.267   6.892   0.070
 7268SOL    HW122703   4.277   6.982   0.027
 7268SOL    HW222704   4.304   6.894   0.162
 7269SOL     OW22705   1.618   0.092   2.390
 7269SOL    HW122706   1.644   0.024   2.322
 7269SOL    HW222707   1.565   0.165   2.346
 7270SOL     OW22708   3.109   2.464   1.720
 7270SOL    HW122709   3.034   2.469   1.786
 7270SOL    HW222710   3.144   2.556   1.703
 7271SOL     OW22711   5.870   5.128   3.770
 7271SOL    HW122712   5.935   5.055   3.793
 7271SOL    HW222713   5.905   5.181   3.693
 7272SOL     OW22714   6.018   1.401   1.479
 7272SOL    HW122715   6.025   1.379   1.576
 7272SOL    HW222716   6.083   1.473   1.456
 7273SOL     OW22717   6.371   5.187   4.984
 7273SOL    HW122718   6.340   5.092   4.986
 7273SOL    HW222719   6.296   5.246   4.954
 7274SOL     OW22720   5.600   5.028   3.903
 7274SOL    HW122721   5.668   5.101   3.896
 7274SOL    HW222722   5.602   4.973   3.819
 7275SOL     OW22723   5.815   6.826   1.753
 7275SOL    HW122724   5.723   6.855   1.781
 7275SOL    HW222725   5.838   6.741   1.801
 7276SOL     OW22726   3.937   1.606   2.990
 7276SOL    HW122727   3.872   1.556   2.932
 7276SOL    HW222728   3.893   1.628   3.076
 7277SOL     OW22729   6.132   2.212   4.207
 7277SOL    HW122730   6.061   2.237   4.274
 7277SOL    HW222731   6.128   2.277   4.130
 7278SOL     OW22732   3.421   0.884   3.320
 7278SOL    HW122733   3.408   0.983   3.311
 7278SOL    HW222734   3.487   0.853   3.251
 7279SOL     OW22735   3.586   3.778   1.626
 7279SOL    HW122736   3.594   3.744   1.720
 7279SOL    HW222737   3.601   3.703   1.562
 7280SOL     OW22738   6.647   1.442   5.515
 7280SOL    HW122739   6.735   1.448   5.562
 7280SOL    HW222740   6.579   1.402   5.576
 7281SOL     OW22741   3.308   6.914   3.218
 7281SOL    HW122742   3.225   6.877   3.259
 7281SOL    HW222743   3.352   6.976   3.282
 7282SOL     OW22744   6.977   3.802   1.003
 7282SOL    HW122745   0.009   3.871   1.052
 7282SOL    HW222746   6.964   3.722   1.061
 7283SOL     OW22747   3.241   6.140   2.907
 7283SOL    HW122748   3.249   6.187   2.819
 7283SOL    HW222749   3.168   6.072   2.902
 7284SOL     OW22750   0.702   0.389   3.775
 7284SOL    HW122751   0.700   0.292   3.800
 7284SOL    HW222752   0.728   0.443   3.855
 7285SOL     OW22753   5.184   2.881   1.605
 7285SOL    HW122754   5.106   2.910   1.661
 7285SOL    HW222755   5.159   2.797   1.555
 7286SOL     OW22756   6.666   1.175   4.670
 7286SOL    HW122757   6.725   1.250   4.640
 7286SOL    HW222758   6.716   1.116   4.732
 7287SOL     OW22759   3.163   1.851   4.117
 7287SOL    HW122760   3.244   1.794   4.102
 7287SOL    HW222761   3.191   1.936   4.160
 7288SOL     OW22762   3.115   1.869   1.826
 7288SOL    HW122763   3.207   1.878   1.865
 7288SOL    HW222764   3.063   1.953   1.841
 7289SOL     OW22765   6.700   2.433   1.210
 7289SOL    HW122766   6.653   2.489   1.141
 7289SOL    HW222767   6.712   2.486   1.294
 7290SOL     OW22768   3.302   2.058   4.898
 7290SOL    HW122769   3.357   2.099   4.824
 7290SOL    HW222770   3.231   2.123   4.926
 7291SOL     OW22771   1.189   1.019   0.371
 7291SOL    HW122772   1.156   1.055   0.458
 7291SOL    HW222773   1.113   1.015   0.306
 7292SOL     OW22774   3.963   1.148   2.083
 7292SOL    HW122775   4.010   1.081   2.141
 7292SOL    HW222776   4.011   1.236   2.088
 7293SOL     OW22777   6.534   1.110   4.333
 7293SOL    HW122778   6.488   1.174   4.395
 7293SOL    HW222779   6.480   1.099   4.250
 7294SOL     OW22780   2.954   1.003   2.864
 7294SOL    HW122781   2.911   1.080   2.817
 7294SOL    HW222782   2.902   0.981   2.946
 7295SOL     OW22783   5.518   4.091   1.796
 7295SOL    HW122784   5.546   4.116   1.703
 7295SOL    HW222785   5.529   3.993   1.808
 7296SOL     OW22786   3.197   6.683   2.593
 7296SOL    HW122787   3.144   6.649   2.515
 7296SOL    HW222788   3.134   6.717   2.664
 7297SOL     OW22789   4.021   0.469   0.216
 7297SOL    HW122790   4.061   0.468   0.124
 7297SOL    HW222791   4.008   0.375   0.248
 7298SOL     OW22792   3.893   4.424   1.061
 7298SOL    HW122793   3.946   4.497   1.104
 7298SOL    HW222794   3.952   4.345   1.045
 7299SOL     OW22795   6.952   3.155   0.066
 7299SOL    HW122796   6.910   3.064   0.076
 7299SOL    HW222797   6.973   3.172   6.991
 7300SOL     OW22798   0.799   4.115   1.558
 7300SOL    HW122799   0.729   4.051   1.527
 7300SOL    HW222800   0.775   4.207   1.528
 7301SOL     OW22801   4.362   1.575   0.196
 7301SOL    HW122802   4.343   1.526   0.281
 7301SOL    HW222803   4.456   1.554   0.166
 7302SOL     OW22804   5.713   1.570   6.258
 7302SOL    HW122805   5.668   1.494   6.305
 7302SOL    HW222806   5.646   1.619   6.202
 7303SOL     OW22807   3.370   2.207   1.479
 7303SOL    HW122808   3.426   2.287   1.500
 7303SOL    HW222809   3.292   2.203   1.540
 7304SOL     OW22810   2.303   0.096   0.491
 7304SOL    HW122811   2.313   0.155   0.411
 7304SOL    HW222812   2.393   0.076   0.529
 7305SOL     OW22813   7.020   6.872   6.612
 7305SOL    HW122814   0.036   6.936   6.679
 7305SOL    HW222815   0.055   6.788   6.612
 7306SOL     OW22816   1.806   3.871   0.552
 7306SOL    HW122817   1.748   3.894   0.474
 7306SOL    HW222818   1.773   3.786   0.594
 7307SOL     OW22819   4.217   6.506   2.138
 7307SOL    HW122820   4.142   6.480   2.199
 7307SOL    HW222821   4.263   6.586   2.175
 7308SOL     OW22822   3.527   1.730   2.828
 7308SOL    HW122823   3.511   1.649   2.883
 7308SOL    HW222824   3.501   1.713   2.733
 7309SOL     OW22825   2.556   4.634   4.470
 7309SOL    HW122826   2.465   4.595   4.482
 7309SOL    HW222827   2.564   4.674   4.379
 7310SOL     OW22828   3.864   3.255   0.109
 7310SOL    HW122829   3.806   3.292   0.181
 7310SOL    HW222830   3.848   3.157   0.100
 7311SOL     OW22831   1.202   6.506   5.504
 7311SOL    HW122832   1.299   6.529   5.504
 7311SOL    HW222833   1.169   6.502   5.599
 7312SOL     OW22834   6.451   2.034   4.507
 7312SOL    HW122835   6.409   2.033   4.416
 7312SOL    HW222836   6.420   2.115   4.557
 7313SOL     OW22837   3.309   1.247   3.263
 7313SOL    HW122838   3.368   1.244   3.182
 7313SOL    HW222839   3.218   1.211   3.239
 7314SOL     OW22840   2.308   5.902   4.565
 7314SOL    HW122841   2.224   5.877   4.516
 7314SOL    HW222842   2.289   5.977   4.628
 7315SOL     OW22843   2.319   4.846   2.676
 7315SOL    HW122844   2.356   4.809   2.761
 7315SOL    HW222845   2.346   4.942   2.666
 7316SOL     OW22846   3.770   0.716   1.984
 7316SOL    HW122847   3.761   0.810   2.016
 7316SOL    HW222848   3.848   0.673   2.028
 7317SOL     OW22849   6.470   1.762   1.678
 7317SOL    HW122850   6.448   1.857   1.656
 7317SOL    HW222851   6.546   1.759   1.743
 7318SOL     OW22852   4.729   5.946   1.842
 7318SOL    HW122853   4.820   5.987   1.843
 7318SOL    HW222854   4.736   5.846   1.841
 7319SOL     OW22855   4.639   4.992   5.793
 7319SOL    HW122856   4.595   4.936   5.722
 7319SOL    HW222857   4.733   4.961   5.805
 7320SOL     OW22858   1.494   2.924   0.391
 7320SOL    HW122859   1.483   2.950   0.487
 7320SOL    HW222860   1.446   2.838   0.374
 7321SOL     OW22861   2.190   2.334   5.364
 7321SOL    HW122862   2.232   2.419   5.335
 7321SOL    HW222863   2.184   2.332   5.464
 7322SOL     OW22864   2.240   1.990   4.329
 7322SOL    HW122865   2.268   2.084   4.344
 7322SOL    HW222866   2.279   1.957   4.243
 7323SOL     OW22867   2.550   1.679   0.625
 7323SOL    HW122868   2.463   1.631   0.622
 7323SOL    HW222869   2.625   1.615   0.607
 7324SOL     OW22870   5.337   3.767   4.467
 7324SOL    HW122871   5.413   3.722   4.420
 7324SOL    HW222872   5.320   3.857   4.425
 7325SOL     OW22873   3.474   0.444   6.573
 7325SOL    HW122874   3.392   0.389   6.584
 7325SOL    HW222875   3.490   0.498   6.655
 7326SOL     OW22876   3.825   6.382   0.149
 7326SOL    HW122877   3.754   6.312   0.142
 7326SOL    HW222878   3.876   6.385   0.063
 7327SOL     OW22879   1.208   4.589   3.381
 7327SOL    HW122880   1.171   4.655   3.316
 7327SOL    HW222881   1.136   4.561   3.445
 7328SOL     OW22882   4.356   5.197   0.094
 7328SOL    HW122883   4.396   5.107   0.082
 7328SOL    HW222884   4.385   5.236   0.181
 7329SOL     OW22885   2.780   3.901   6.609
 7329SOL    HW122886   2.879   3.884   6.606
 7329SOL    HW222887   2.754   3.960   6.533
 7330SOL     OW22888   2.385   3.571   1.057
 7330SOL    HW122889   2.426   3.481   1.049
 7330SOL    HW222890   2.456   3.638   1.079
 7331SOL     OW22891   5.163   1.166   2.629
 7331SOL    HW122892   5.130   1.088   2.577
 7331SOL    HW222893   5.115   1.169   2.717
 7332SOL     OW22894   2.522   0.042   5.182
 7332SOL    HW122895   2.613   0.033   5.223
 7332SOL    HW222896   2.532   0.062   5.084
 7333SOL     OW22897   6.477   1.180   1.615
 7333SOL    HW122898   6.547   1.222   1.556
 7333SOL    HW222899   6.519   1.151   1.701
 7334SOL     OW22900   1.139   4.924   4.642
 7334SOL    HW122901   1.132   4.936   4.741
 7334SOL    HW222902   1.106   5.006   4.596
 7335SOL     OW22903   0.275   3.019   2.360
 7335SOL    HW122904   0.212   3.074   2.414
 7335SOL    HW222905   0.271   2.924   2.391
 7336SOL     OW22906   2.755   6.867   1.156
 7336SOL    HW122907   2.728   6.952   1.202
 7336SOL    HW222908   2.816   6.815   1.216
 7337SOL     OW22909   3.122   1.837   2.206
 7337SOL    HW122910   3.166   1.925   2.188
 7337SOL    HW222911   3.190   1.763   2.196
 7338SOL     OW22912   5.449   2.835   0.325
 7338SOL    HW122913   5.377   2.782   0.279
 7338SOL    HW222914   5.407   2.899   0.389
 7339SOL     OW22915   6.788   0.095   4.167
 7339SOL    HW122916   6.774   0.148   4.083
 7339SOL    HW222917   6.880   0.112   4.202
 7340SOL     OW22918   3.101   6.508   0.741
 7340SOL    HW122919   3.118   6.603   0.770
 7340SOL    HW222920   3.164   6.485   0.666
 7341SOL     OW22921   6.642   5.368   3.303
 7341SOL    HW122922   6.620   5.289   3.361
 7341SOL    HW222923   6.605   5.451   3.344
 7342SOL     OW22924   0.293   5.229   0.028
 7342SOL    HW122925   0.232   5.188   0.097
 7342SOL    HW222926   0.380   5.254   0.071
 7343SOL     OW22927   0.585   2.441   2.654
 7343SOL    HW122928   0.656   2.443   2.584
 7343SOL    HW222929   0.495   2.449   2.611
 7344SOL     OW22930   2.172   1.095   5.933
 7344SOL    HW122931   2.140   1.000   5.924
 7344SOL    HW222932   2.214   1.107   6.023
 7345SOL     OW22933   1.325   6.852   6.783
 7345SOL    HW122934   1.263   6.821   6.855
 7345SOL    HW222935   1.384   6.924   6.819
 7346SOL     OW22936   3.558   5.134   3.515
 7346SOL    HW122937   3.517   5.096   3.598
 7346SOL    HW222938   3.546   5.069   3.439
 7347SOL     OW22939   5.601   3.197   3.440
 7347SOL    HW122940   5.512   3.159   3.466
 7347SOL    HW222941   5.628   3.160   3.351
 7348SOL     OW22942   5.539   0.251   6.533
 7348SOL    HW122943   5.490   0.188   6.472
 7348SOL    HW222944   5.607   0.199   6.586
 7349SOL     OW22945   3.494   2.169   1.020
 7349SOL    HW122946   3.435   2.247   1.040
 7349SOL    HW222947   3.488   2.146   0.923
 7350SOL     OW22948   1.807   1.628   3.118
 7350SOL    HW122949   1.769   1.537   3.134
 7350SOL    HW222950   1.900   1.619   3.083
 7351SOL     OW22951   5.954   4.717   0.270
 7351SOL    HW122952   5.955   4.618   0.256
 7351SOL    HW222953   5.867   4.755   0.241
 7352SOL     OW22954   6.631   1.298   2.904
 7352SOL    HW122955   6.543   1.310   2.858
 7352SOL    HW222956   6.652   1.380   2.958
 7353SOL     OW22957   5.691   1.728   5.136
 7353SOL    HW122958   5.753   1.796   5.098
 7353SOL    HW222959   5.636   1.688   5.062
 7354SOL     OW22960   5.441   4.423   5.204
 7354SOL    HW122961   5.358   4.423   5.149
 7354SOL    HW222962   5.447   4.338   5.256
 7355SOL     OW22963   0.184   5.451   0.653
 7355SOL    HW122964   0.194   5.360   0.695
 7355SOL    HW222965   0.139   5.441   0.564
 7356SOL     OW22966   0.247   1.900   6.019
 7356SOL    HW122967   0.159   1.904   6.068
 7356SOL    HW222968   0.292   1.989   6.025
 7357SOL     OW22969   0.277   1.282   0.639
 7357SOL    HW122970   0.304   1.344   0.713
 7357SOL    HW222971   0.177   1.284   0.629
 7358SOL     OW22972   3.230   1.164   3.530
 7358SOL    HW122973   3.264   1.247   3.574
 7358SOL    HW222974   3.234   1.175   3.431
 7359SOL     OW22975   3.220   3.731   4.275
 7359SOL    HW122976   3.258   3.782   4.353
 7359SOL    HW222977   3.295   3.697   4.219
 7360SOL     OW22978   1.464   4.456   6.074
 7360SOL    HW122979   1.396   4.410   6.131
 7360SOL    HW222980   1.506   4.531   6.125
 7361SOL     OW22981   4.910   0.089   1.925
 7361SOL    HW122982   4.903   0.064   1.828
 7361SOL    HW222983   4.867   0.017   1.980
 7362SOL     OW22984   1.305   5.419   6.718
 7362SOL    HW122985   1.250   5.384   6.794
 7362SOL    HW222986   1.261   5.395   6.632
 7363SOL     OW22987   4.748   1.737   6.115
 7363SOL    HW122988   4.846   1.727   6.099
 7363SOL    HW222989   4.733   1.809   6.183
 7364SOL     OW22990   5.288   6.953   0.682
 7364SOL    HW122991   5.364   6.906   0.637
 7364SOL    HW222992   5.203   6.932   0.634
 7365SOL     OW22993   5.312   6.955   1.166
 7365SOL    HW122994   5.362   6.981   1.084
 7365SOL    HW222995   5.377   6.929   1.238
 7366SOL     OW22996   2.530   6.955   0.544
 7366SOL    HW122997   2.553   6.992   0.454
 7366SOL    HW222998   2.583   6.872   0.560
 7367SOL     OW22999   4.556   3.038   6.434
 7367SOL    HW123000   4.488   3.075   6.497
 7367SOL    HW223001   4.590   2.951   6.469
 7368SOL     OW23002   2.948   3.261   4.823
 7368SOL    HW123003   2.849   3.267   4.819
 7368SOL    HW223004   2.983   3.329   4.887
 7369SOL     OW23005   6.704   7.019   6.381
 7369SOL    HW123006   6.724   6.928   6.419
 7369SOL    HW223007   6.606   0.008   6.369
 7370SOL     OW23008   0.273   6.067   1.120
 7370SOL    HW123009   0.329   6.007   1.062
 7370SOL    HW223010   0.217   6.011   1.181
 7371SOL     OW23011   2.009   4.822   3.746
 7371SOL    HW123012   2.066   4.902   3.762
 7371SOL    HW223013   1.918   4.838   3.784
 7372SOL     OW23014   2.673   0.292   5.407
 7372SOL    HW123015   2.705   0.203   5.373
 7372SOL    HW223016   2.574   0.289   5.418
 7373SOL     OW23017   3.771   1.646   1.105
 7373SOL    HW123018   3.700   1.660   1.035
 7373SOL    HW223019   3.766   1.720   1.173
 7374SOL     OW23020   2.332   3.422   0.618
 7374SOL    HW123021   2.373   3.466   0.538
 7374SOL    HW223022   2.238   3.396   0.597
 7375SOL     OW23023   2.511   5.899   3.121
 7375SOL    HW123024   2.534   5.977   3.062
 7375SOL    HW223025   2.595   5.849   3.143
 7376SOL     OW23026   3.312   4.140   6.919
 7376SOL    HW123027   3.377   4.067   6.941
 7376SOL    HW223028   3.290   4.191   7.003
 7377SOL     OW23029   5.842   6.035   1.256
 7377SOL    HW123030   5.934   6.058   1.225
 7377SOL    HW223031   5.809   5.954   1.207
 7378SOL     OW23032   0.880   1.769   6.063
 7378SOL    HW123033   0.893   1.675   6.031
 7378SOL    HW223034   0.931   1.784   6.148
 7379SOL     OW23035   4.491   0.567   0.426
 7379SOL    HW123036   4.425   0.517   0.482
 7379SOL    HW223037   4.504   0.659   0.464
 7380SOL     OW23038   0.038   2.791   6.949
 7380SOL    HW123039   0.052   2.775   0.025
 7380SOL    HW223040   6.961   2.807   6.932
 7381SOL     OW23041   5.178   2.592   0.448
 7381SOL    HW123042   5.256   2.553   0.497
 7381SOL    HW223043   5.145   2.673   0.496
 7382SOL     OW23044   1.230   5.350   3.751
 7382SOL    HW123045   1.328   5.340   3.735
 7382SOL    HW223046   1.194   5.266   3.791
 7383SOL     OW23047   1.560   4.716   2.672
 7383SOL    HW123048   1.545   4.662   2.589
 7383SOL    HW223049   1.486   4.698   2.737
 7384SOL     OW23050   6.188   1.589   1.366
 7384SOL    HW123051   6.193   1.688   1.350
 7384SOL    HW223052   6.264   1.561   1.424
 7385SOL     OW23053   5.917   0.569   1.902
 7385SOL    HW123054   5.888   0.496   1.963
 7385SOL    HW223055   6.013   0.591   1.919
 7386SOL     OW23056   6.389   1.611   5.706
 7386SOL    HW123057   6.322   1.681   5.733
 7386SOL    HW223058   6.479   1.654   5.697
 7387SOL     OW23059   4.581   6.144   3.499
 7387SOL    HW123060   4.632   6.058   3.495
 7387SOL    HW223061   4.541   6.154   3.591
 7388SOL     OW23062   5.025   3.505   4.832
 7388SOL    HW123063   4.946   3.511   4.892
 7388SOL    HW223064   5.035   3.591   4.782
 7389SOL     OW23065   1.728   2.806   5.385
 7389SOL    HW123066   1.637   2.811   5.426
 7389SOL    HW223067   1.719   2.786   5.288
 7390SOL     OW23068   4.484   6.638   0.527
 7390SOL    HW123069   4.455   6.549   0.492
 7390SOL    HW223070   4.504   6.699   0.450
 7391SOL     OW23071   6.871   4.977   0.556
 7391SOL    HW123072   6.925   4.970   0.472
 7391SOL    HW223073   6.787   5.029   0.538
 7392SOL     OW23074   1.818   4.359   2.295
 7392SOL    HW123075   1.722   4.347   2.270
 7392SOL    HW223076   1.832   4.327   2.389
 7393SOL     OW23077   0.960   3.751   0.723
 7393SOL    HW123078   0.961   3.698   0.638
 7393SOL    HW223079   0.967   3.689   0.801
 7394SOL     OW23080   2.851   3.362   6.917
 7394SOL    HW123081   2.784   3.435   6.900
 7394SOL    HW223082   2.810   3.292   6.975
 7395SOL     OW23083   2.751   0.516   0.333
 7395SOL    HW123084   2.794   0.510   0.423
 7395SOL    HW223085   2.788   0.596   0.284
 7396SOL     OW23086   6.535   6.693   2.554
 7396SOL    HW123087   6.475   6.623   2.514
 7396SOL    HW223088   6.480   6.757   2.607
 7397SOL     OW23089   6.603   4.374   4.010
 7397SOL    HW123090   6.587   4.449   3.946
 7397SOL    HW223091   6.534   4.376   4.083
 7398SOL     OW23092   4.301   6.530   2.471
 7398SOL    HW123093   4.218   6.513   2.524
 7398SOL    HW223094   4.354   6.446   2.463
 7399SOL     OW23095   4.960   6.024   4.098
 7399SOL    HW123096   4.890   6.068   4.043
 7399SOL    HW223097   5.038   6.085   4.108
 7400SOL     OW23098   2.467   4.443   6.849
 7400SOL    HW123099   2.384   4.405   6.888
 7400SOL    HW223100   2.544   4.424   6.910
 7401SOL     OW23101   6.494   3.001   3.978
 7401SOL    HW123102   6.523   3.017   3.884
 7401SOL    HW223103   6.451   2.911   3.985
 7402SOL     OW23104   1.967   6.405   4.361
 7402SOL    HW123105   1.936   6.451   4.278
 7402SOL    HW223106   1.895   6.408   4.429
 7403SOL     OW23107   2.386   3.213   1.703
 7403SOL    HW123108   2.354   3.271   1.777
 7403SOL    HW223109   2.356   3.119   1.719
 7404SOL     OW23110   1.281   3.005   2.888
 7404SOL    HW123111   1.265   2.931   2.953
 7404SOL    HW223112   1.303   3.089   2.937
 7405SOL     OW23113   3.755   4.458   6.007
 7405SOL    HW123114   3.750   4.466   6.107
 7405SOL    HW223115   3.778   4.547   5.968
 7406SOL     OW23116   6.453   6.227   2.920
 7406SOL    HW123117   6.470   6.290   2.845
 7406SOL    HW223118   6.491   6.137   2.898
 7407SOL     OW23119   3.557   1.364   5.682
 7407SOL    HW123120   3.628   1.434   5.676
 7407SOL    HW223121   3.467   1.408   5.684
 7408SOL     OW23122   1.402   3.654   5.230
 7408SOL    HW123123   1.303   3.659   5.215
 7408SOL    HW223124   1.445   3.739   5.198
 7409SOL     OW23125   2.209   0.341   4.172
 7409SOL    HW123126   2.167   0.432   4.164
 7409SOL    HW223127   2.155   0.275   4.121
 7410SOL     OW23128   4.737   5.897   6.169
 7410SOL    HW123129   4.760   5.876   6.075
 7410SOL    HW223130   4.664   5.966   6.171
 7411SOL     OW23131   5.592   3.851   5.499
 7411SOL    HW123132   5.607   3.888   5.407
 7411SOL    HW223133   5.633   3.760   5.506
 7412SOL     OW23134   1.188   0.745   0.429
 7412SOL    HW123135   1.218   0.675   0.364
 7412SOL    HW223136   1.214   0.835   0.394
 7413SOL     OW23137   6.440   3.457   3.799
 7413SOL    HW123138   6.537   3.464   3.777
 7413SOL    HW223139   6.429   3.444   3.898
 7414SOL     OW23140   0.406   5.985   1.961
 7414SOL    HW123141   0.449   6.051   1.899
 7414SOL    HW223142   0.418   6.015   2.055
 7415SOL     OW23143   3.189   1.576   2.885
 7415SOL    HW123144   3.268   1.514   2.882
 7415SOL    HW223145   3.195   1.642   2.810
 7416SOL     OW23146   6.233   0.099   2.538
 7416SOL    HW123147   6.260   0.009   2.503
 7416SOL    HW223148   6.281   0.117   2.624
 7417SOL     OW23149   0.253   4.989   1.630
 7417SOL    HW123150   0.226   5.062   1.568
 7417SOL    HW223151   0.310   4.922   1.581
 7418SOL     OW23152   2.085   3.733   0.891
 7418SOL    HW123153   2.039   3.652   0.855
 7418SOL    HW223154   2.040   3.762   0.975
 7419SOL     OW23155   6.226   2.137   5.745
 7419SOL    HW123156   6.133   2.131   5.708
 7419SOL    HW223157   6.223   2.181   5.835
 7420SOL     OW23158   0.423   5.551   2.256
 7420SOL    HW123159   0.434   5.630   2.197
 7420SOL    HW223160   0.380   5.579   2.342
 7421SOL     OW23161   4.342   2.241   1.415
 7421SOL    HW123162   4.260   2.281   1.455
 7421SOL    HW223163   4.343   2.258   1.317
 7422SOL     OW23164   1.252   2.169   1.000
 7422SOL    HW123165   1.337   2.185   0.950
 7422SOL    HW223166   1.196   2.104   0.949
 7423SOL     OW23167   3.047   4.142   0.393
 7423SOL    HW123168   2.988   4.068   0.425
 7423SOL    HW223169   3.051   4.141   0.293
 7424SOL     OW23170   5.117   0.620   3.859
 7424SOL    HW123171   5.028   0.623   3.904
 7424SOL    HW223172   5.183   0.671   3.914
 7425SOL     OW23173   3.338   0.554   4.816
 7425SOL    HW123174   3.267   0.492   4.849
 7425SOL    HW223175   3.341   0.553   4.717
 7426SOL     OW23176   0.239   0.726   6.373
 7426SOL    HW123177   0.313   0.784   6.339
 7426SOL    HW223178   0.156   0.741   6.319
 7427SOL     OW23179   5.488   5.120   5.578
 7427SOL    HW123180   5.517   5.111   5.483
 7427SOL    HW223181   5.534   5.198   5.620
 7428SOL     OW23182   4.825   1.252   5.442
 7428SOL    HW123183   4.783   1.212   5.360
 7428SOL    HW223184   4.890   1.188   5.482
 7429SOL     OW23185   6.217   6.115   3.975
 7429SOL    HW123186   6.128   6.082   3.942
 7429SOL    HW223187   6.204   6.173   4.055
 7430SOL     OW23188   0.448   4.022   4.202
 7430SOL    HW123189   0.478   4.104   4.152
 7430SOL    HW223190   0.491   4.022   4.293
 7431SOL     OW23191   7.013   3.994   2.870
 7431SOL    HW123192   0.078   4.041   2.892
 7431SOL    HW223193   0.009   3.926   2.799
 7432SOL     OW23194   1.916   5.926   5.894
 7432SOL    HW123195   1.880   5.907   5.986
 7432SOL    HW223196   1.924   5.840   5.843
 7433SOL     OW23197   0.740   6.996   0.650
 7433SOL    HW123198   0.745   6.988   0.550
 7433SOL    HW223199   0.716   0.070   0.674
 7434SOL     OW23200   4.487   6.972   0.490
 7434SOL    HW123201   4.455   6.974   0.396
 7434SOL    HW223202   4.587   6.975   0.491
 7435SOL     OW23203   1.148   5.063   0.040
 7435SOL    HW123204   1.057   5.052   0.002
 7435SOL    HW223205   1.216   5.023   6.999
 7436SOL     OW23206   5.257   3.567   6.687
 7436SOL    HW123207   5.231   3.502   6.758
 7436SOL    HW223208   5.327   3.629   6.722
 7437SOL     OW23209   0.172   6.148   5.592
 7437SOL    HW123210   0.233   6.199   5.652
 7437SOL    HW223211   0.161   6.197   5.506
 7438SOL     OW23212   5.360   3.863   0.599
 7438SOL    HW123213   5.393   3.920   0.675
 7438SOL    HW223214   5.273   3.821   0.624
 7439SOL     OW23215   0.968   6.380   3.093
 7439SOL    HW123216   0.986   6.464   3.041
 7439SOL    HW223217   0.927   6.403   3.181
 7440SOL     OW23218   0.706   1.290   4.382
 7440SOL    HW123219   0.623   1.240   4.357
 7440SOL    HW223220   0.771   1.227   4.425
 7441SOL     OW23221   6.413   0.335   4.194
 7441SOL    HW123222   6.314   0.331   4.176
 7441SOL    HW223223   6.439   0.259   4.254
 7442SOL     OW23224   1.673   0.935   6.957
 7442SOL    HW123225   1.647   0.914   0.030
 7442SOL    HW223226   1.680   1.034   6.945
 7443SOL     OW23227   6.928   1.752   1.874
 7443SOL    HW123228   6.881   1.727   1.789
 7443SOL    HW223229   6.983   1.833   1.859
 7444SOL     OW23230   1.621   2.459   5.564
 7444SOL    HW123231   1.611   2.396   5.488
 7444SOL    HW223232   1.532   2.473   5.608
 7445SOL     OW23233   5.748   3.062   1.991
 7445SOL    HW123234   5.845   3.054   2.010
 7445SOL    HW223235   5.711   2.973   1.964
 7446SOL     OW23236   4.828   3.972   2.809
 7446SOL    HW123237   4.778   4.034   2.750
 7446SOL    HW223238   4.788   3.972   2.901
 7447SOL     OW23239   1.271   4.008   6.216
 7447SOL    HW123240   1.364   3.989   6.247
 7447SOL    HW223241   1.274   4.041   6.122
 7448SOL     OW23242   0.562   1.224   5.775
 7448SOL    HW123243   0.610   1.148   5.820
 7448SOL    HW223244   0.549   1.299   5.840
 7449SOL     OW23245   3.439   0.634   2.990
 7449SOL    HW123246   3.470   0.611   2.898
 7449SOL    HW223247   3.426   0.549   3.042
 7450SOL     OW23248   3.835   2.034   1.707
 7450SOL    HW123249   3.870   2.101   1.773
 7450SOL    HW223250   3.736   2.047   1.695
 7451SOL     OW23251   1.301   0.899   2.036
 7451SOL    HW123252   1.279   0.852   2.121
 7451SOL    HW223253   1.322   0.995   2.055
 7452SOL     OW23254   1.888   5.734   2.998
 7452SOL    HW123255   1.971   5.692   2.960
 7452SOL    HW223256   1.834   5.772   2.923
 7453SOL     OW23257   6.685   4.541   4.705
 7453SOL    HW123258   6.782   4.543   4.682
 7453SOL    HW223259   6.655   4.446   4.719
 7454SOL     OW23260   2.786   2.171   6.830
 7454SOL    HW123261   2.851   2.233   6.787
 7454SOL    HW223262   2.785   2.083   6.781
 7455SOL     OW23263   4.742   6.790   0.861
 7455SOL    HW123264   4.721   6.710   0.805
 7455SOL    HW223265   4.841   6.806   0.860
 7456SOL     OW23266   1.344   3.754   5.840
 7456SOL    HW123267   1.257   3.708   5.857
 7456SOL    HW223268   1.378   3.730   5.749
 7457SOL     OW23269   0.278   5.975   6.032
 7457SOL    HW123270   0.303   6.069   6.056
 7457SOL    HW223271   0.278   5.966   5.932
 7458SOL     OW23272   2.853   0.473   1.568
 7458SOL    HW123273   2.811   0.384   1.582
 7458SOL    HW223274   2.894   0.478   1.477
 7459SOL     OW23275   3.862   6.016   3.576
 7459SOL    HW123276   3.889   5.939   3.518
 7459SOL    HW223277   3.860   5.986   3.672
 7460SOL     OW23278   0.699   5.435   6.486
 7460SOL    HW123279   0.672   5.437   6.582
 7460SOL    HW223280   0.681   5.523   6.444
 7461SOL     OW23281   4.086   1.439   3.404
 7461SOL    HW123282   4.168   1.455   3.459
 7461SOL    HW223283   4.062   1.523   3.355
 7462SOL     OW23284   1.884   1.608   3.995
 7462SOL    HW123285   1.935   1.694   4.006
 7462SOL    HW223286   1.947   1.531   4.002
 7463SOL     OW23287   4.053   3.786   2.496
 7463SOL    HW123288   4.089   3.836   2.417
 7463SOL    HW223289   4.065   3.687   2.480
 7464SOL     OW23290   4.267   5.709   0.279
 7464SOL    HW123291   4.206   5.631   0.291
 7464SOL    HW223292   4.361   5.682   0.299
 7465SOL     OW23293   3.767   1.441   2.816
 7465SOL    HW123294   3.830   1.376   2.859
 7465SOL    HW223295   3.800   1.464   2.725
 7466SOL     OW23296   6.488   0.103   0.540
 7466SOL    HW123297   6.481   0.099   0.639
 7466SOL    HW223298   6.533   0.188   0.513
 7467SOL     OW23299   4.566   2.688   0.767
 7467SOL    HW123300   4.647   2.712   0.819
 7467SOL    HW223301   4.590   2.675   0.671
 7468SOL     OW23302   5.468   4.531   4.638
 7468SOL    HW123303   5.426   4.596   4.575
 7468SOL    HW223304   5.451   4.438   4.606
 7469SOL     OW23305   5.651   1.936   1.552
 7469SOL    HW123306   5.625   1.902   1.643
 7469SOL    HW223307   5.631   1.866   1.483
 7470SOL     OW23308   0.144   3.447   3.301
 7470SOL    HW123309   0.193   3.424   3.385
 7470SOL    HW223310   0.163   3.542   3.276
 7471SOL     OW23311   6.452   4.482   5.415
 7471SOL    HW123312   6.412   4.469   5.324
 7471SOL    HW223313   6.467   4.392   5.457
 7472SOL     OW23314   4.155   5.553   3.219
 7472SOL    HW123315   4.060   5.558   3.189
 7472SOL    HW223316   4.214   5.540   3.139
 7473SOL     OW23317   1.703   2.621   6.874
 7473SOL    HW123318   1.746   2.596   6.787
 7473SOL    HW223319   1.677   2.538   6.924
 7474SOL     OW23320   2.850   1.293   2.083
 7474SOL    HW123321   2.824   1.389   2.075
 7474SOL    HW223322   2.939   1.286   2.127
 7475SOL     OW23323   5.097   0.600   5.875
 7475SOL    HW123324   5.078   0.684   5.926
 7475SOL    HW223325   5.011   0.563   5.839
 7476SOL     OW23326   1.979   6.812   4.549
 7476SOL    HW123327   2.026   6.738   4.597
 7476SOL    HW223328   1.971   6.891   4.609
 7477SOL     OW23329   4.633   4.449   4.434
 7477SOL    HW123330   4.614   4.532   4.382
 7477SOL    HW223331   4.601   4.369   4.382
 7478SOL     OW23332   0.249   4.476   1.501
 7478SOL    HW123333   0.183   4.445   1.432
 7478SOL    HW223334   0.214   4.454   1.592
 7479SOL     OW23335   3.856   0.694   4.997
 7479SOL    HW123336   3.861   0.782   5.044
 7479SOL    HW223337   3.808   0.628   5.054
 7480SOL     OW23338   5.666   5.307   0.167
 7480SOL    HW123339   5.577   5.305   0.213
 7480SOL    HW223340   5.717   5.224   0.190
 7481SOL     OW23341   6.042   6.465   0.298
 7481SOL    HW123342   5.999   6.414   0.373
 7481SOL    HW223343   6.021   6.421   0.211
 7482SOL     OW23344   4.628   0.228   4.925
 7482SOL    HW123345   4.646   0.305   4.864
 7482SOL    HW223346   4.692   0.153   4.904
 7483SOL     OW23347   3.540   6.746   6.795
 7483SOL    HW123348   3.530   6.678   6.722
 7483SOL    HW223349   3.481   6.824   6.776
 7484SOL     OW23350   3.668   6.684   1.175
 7484SOL    HW123351   3.661   6.751   1.100
 7484SOL    HW223352   3.758   6.691   1.217
 7485SOL     OW23353   0.730   6.569   4.955
 7485SOL    HW123354   0.703   6.664   4.945
 7485SOL    HW223355   0.814   6.552   4.902
 7486SOL     OW23356   1.289   2.071   5.139
 7486SOL    HW123357   1.292   2.112   5.230
 7486SOL    HW223358   1.315   1.974   5.145
 7487SOL     OW23359   3.372   5.225   2.937
 7487SOL    HW123360   3.337   5.203   3.028
 7487SOL    HW223361   3.430   5.306   2.942
 7488SOL     OW23362   4.587   1.327   5.077
 7488SOL    HW123363   4.576   1.416   5.123
 7488SOL    HW223364   4.534   1.328   4.992
 7489SOL     OW23365   0.498   3.145   3.228
 7489SOL    HW123366   0.508   3.053   3.265
 7489SOL    HW223367   0.414   3.151   3.174
 7490SOL     OW23368   5.627   6.756   2.812
 7490SOL    HW123369   5.561   6.780   2.884
 7490SOL    HW223370   5.676   6.838   2.783
 7491SOL     OW23371   0.942   6.984   0.846
 7491SOL    HW123372   0.870   0.017   0.804
 7491SOL    HW223373   0.908   6.943   0.931
 7492SOL     OW23374   1.988   1.823   2.812
 7492SOL    HW123375   2.013   1.860   2.902
 7492SOL    HW223376   2.044   1.743   2.793
 7493SOL     OW23377   5.521   4.417   6.790
 7493SOL    HW123378   5.484   4.508   6.770
 7493SOL    HW223379   5.619   4.424   6.806
 7494SOL     OW23380   4.943   2.008   0.880
 7494SOL    HW123381   4.852   1.968   0.893
 7494SOL    HW223382   5.005   1.974   0.950
 7495SOL     OW23383   1.628   1.740   3.285
 7495SOL    HW123384   1.540   1.719   3.243
 7495SOL    HW223385   1.701   1.690   3.237
 7496SOL     OW23386   0.844   5.028   6.075
 7496SOL    HW123387   0.897   5.037   5.991
 7496SOL    HW223388   0.888   5.079   6.148
 7497SOL     OW23389   1.276   4.925   2.965
 7497SOL    HW123390   1.267   5.015   3.006
 7497SOL    HW223391   1.289   4.934   2.866
 7498SOL     OW23392   5.397   1.912   4.459
 7498SOL    HW123393   5.442   1.892   4.546
 7498SOL    HW223394   5.440   1.858   4.386
 7499SOL     OW23395   3.713   4.889   3.746
 7499SOL    HW123396   3.771   4.871   3.667
 7499SOL    HW223397   3.769   4.893   3.829
 7500SOL     OW23398   4.897   3.773   1.528
 7500SOL    HW123399   4.926   3.788   1.434
 7500SOL    HW223400   4.972   3.795   1.590
 7501SOL     OW23401   0.822   4.230   3.608
 7501SOL    HW123402   0.894   4.164   3.584
 7501SOL    HW223403   0.863   4.318   3.629
 7502SOL     OW23404   1.584   2.087   3.815
 7502SOL    HW123405   1.609   2.165   3.758
 7502SOL    HW223406   1.614   2.103   3.909
 7503SOL     OW23407   2.685   1.647   6.974
 7503SOL    HW123408   2.587   1.650   6.992
 7503SOL    HW223409   2.702   1.681   6.881
 7504SOL     OW23410   5.129   5.586   5.327
 7504SOL    HW123411   5.147   5.684   5.317
 7504SOL    HW223412   5.066   5.571   5.404
 7505SOL     OW23413   1.940   1.924   3.521
 7505SOL    HW123414   1.902   1.996   3.462
 7505SOL    HW223415   1.866   1.883   3.575
 7506SOL     OW23416   3.650   0.872   3.124
 7506SOL    HW123417   3.670   0.780   3.156
 7506SOL    HW223418   3.638   0.871   3.025
 7507SOL     OW23419   1.360   0.126   5.280
 7507SOL    HW123420   1.308   0.041   5.274
 7507SOL    HW223421   1.394   0.150   5.189
 7508SOL     OW23422   5.250   6.029   3.312
 7508SOL    HW123423   5.274   5.979   3.229
 7508SOL    HW223424   5.207   5.967   3.378
 7509SOL     OW23425   3.738   4.192   6.054
 7509SOL    HW123426   3.715   4.174   5.959
 7509SOL    HW223427   3.722   4.289   6.074
 7510SOL     OW23428   3.807   3.277   4.857
 7510SOL    HW123429   3.810   3.177   4.852
 7510SOL    HW223430   3.815   3.315   4.765
 7511SOL     OW23431   1.339   1.597   2.637
 7511SOL    HW123432   1.268   1.562   2.699
 7511SOL    HW223433   1.327   1.695   2.625
 7512SOL     OW23434   2.281   2.856   2.393
 7512SOL    HW123435   2.345   2.785   2.421
 7512SOL    HW223436   2.330   2.942   2.379
 7513SOL     OW23437   2.241   3.093   6.518
 7513SOL    HW123438   2.183   3.157   6.468
 7513SOL    HW223439   2.186   3.046   6.587
 7514SOL     OW23440   3.097   5.205   3.439
 7514SOL    HW123441   3.003   5.195   3.472
 7514SOL    HW223442   3.161   5.173   3.509
 7515SOL     OW23443   0.340   4.984   3.118
 7515SOL    HW123444   0.404   5.054   3.086
 7515SOL    HW223445   0.262   5.028   3.162
 7516SOL     OW23446   1.929   3.155   1.215
 7516SOL    HW123447   1.831   3.163   1.228
 7516SOL    HW223448   1.955   3.058   1.215
 7517SOL     OW23449   1.437   5.011   2.405
 7517SOL    HW123450   1.413   5.102   2.438
 7517SOL    HW223451   1.536   5.006   2.392
 7518SOL     OW23452   4.915   3.862   2.548
 7518SOL    HW123453   4.893   3.936   2.484
 7518SOL    HW223454   4.884   3.886   2.639
 7519SOL     OW23455   1.945   0.012   4.685
 7519SOL    HW123456   1.937   0.111   4.668
 7519SOL    HW223457   1.857   6.998   4.716
 7520SOL     OW23458   2.044   0.144   4.035
 7520SOL    HW123459   1.988   0.158   3.954
 7520SOL    HW223460   2.001   0.077   4.095
 7521SOL     OW23461   4.625   2.881   5.856
 7521SOL    HW123462   4.666   2.864   5.766
 7521SOL    HW223463   4.539   2.931   5.844
 7522SOL     OW23464   2.183   6.992   2.774
 7522SOL    HW123465   2.110   6.968   2.710
 7522SOL    HW223466   2.145   0.024   2.849
 7523SOL     OW23467   6.915   6.454   6.954
 7523SOL    HW123468   6.968   6.505   0.001
 7523SOL    HW223469   6.902   6.510   6.872
 7524SOL     OW23470   6.406   1.289   5.187
 7524SOL    HW123471   6.421   1.255   5.094
 7524SOL    HW223472   6.463   1.370   5.203
 7525SOL     OW23473   0.761   0.444   0.904
 7525SOL    HW123474   0.783   0.541   0.918
 7525SOL    HW223475   0.836   0.400   0.854
 7526SOL     OW23476   3.897   2.996   5.692
 7526SOL    HW123477   3.888   2.948   5.779
 7526SOL    HW223478   3.987   3.039   5.686
 7527SOL     OW23479   3.301   6.174   1.826
 7527SOL    HW123480   3.263   6.179   1.919
 7527SOL    HW223481   3.366   6.099   1.821
 7528SOL     OW23482   6.118   3.278   0.086
 7528SOL    HW123483   6.113   3.340   0.008
 7528SOL    HW223484   6.079   3.189   0.060
 7529SOL     OW23485   1.669   6.791   4.183
 7529SOL    HW123486   1.599   6.723   4.159
 7529SOL    HW223487   1.667   6.866   4.118
 7530SOL     OW23488   0.141   3.279   2.677
 7530SOL    HW123489   0.147   3.306   2.773
 7530SOL    HW223490   0.047   3.289   2.646
 7531SOL     OW23491   2.003   1.857   4.114
 7531SOL    HW123492   2.002   1.903   4.202
 7531SOL    HW223493   2.073   1.786   4.113
 7532SOL     OW23494   4.707   4.449   2.141
 7532SOL    HW123495   4.756   4.517   2.087
 7532SOL    HW223496   4.646   4.396   2.081
 7533SOL     OW23497   3.354   0.800   4.905
 7533SOL    HW123498   3.356   0.703   4.879
 7533SOL    HW223499   3.386   0.856   4.828
 7534SOL     OW23500   3.718   6.454   3.907
 7534SOL    HW123501   3.669   6.526   3.856
 7534SOL    HW223502   3.791   6.495   3.961
 7535SOL     OW23503   2.956   5.238   0.023
 7535SOL    HW123504   2.881   5.173   0.037
 7535SOL    HW223505   2.943   5.317   0.083
 7536SOL     OW23506   4.723   5.338   6.336
 7536SOL    HW123507   4.754   5.248   6.306
 7536SOL    HW223508   4.688   5.390   6.258
 7537SOL     OW23509   2.294   4.661   5.142
 7537SOL    HW123510   2.241   4.695   5.064
 7537SOL    HW223511   2.359   4.732   5.172
 7538SOL     OW23512   3.590   3.879   5.212
 7538SOL    HW123513   3.652   3.929   5.271
 7538SOL    HW223514   3.496   3.898   5.238
 7539SOL     OW23515   0.720   2.305   4.751
 7539SOL    HW123516   0.634   2.293   4.702
 7539SOL    HW223517   0.788   2.345   4.689
 7540SOL     OW23518   2.617   0.743   0.385
 7540SOL    HW123519   2.713   0.719   0.371
 7540SOL    HW223520   2.576   0.772   0.299
 7541SOL     OW23521   0.097   2.359   5.850
 7541SOL    HW123522   0.003   2.365   5.817
 7541SOL    HW223523   0.156   2.320   5.779
 7542SOL     OW23524   1.354   0.224   4.834
 7542SOL    HW123525   1.439   0.233   4.886
 7542SOL    HW223526   1.276   0.231   4.896
 7543SOL     OW23527   2.405   2.419   1.200
 7543SOL    HW123528   2.379   2.323   1.206
 7543SOL    HW223529   2.420   2.444   1.105
 7544SOL     OW23530   1.224   2.192   2.412
 7544SOL    HW123531   1.253   2.131   2.339
 7544SOL    HW223532   1.303   2.244   2.445
 7545SOL     OW23533   4.423   0.606   3.353
 7545SOL    HW123534   4.430   0.515   3.312
 7545SOL    HW223535   4.332   0.619   3.391
 7546SOL     OW23536   5.620   0.305   5.599
 7546SOL    HW123537   5.599   0.369   5.673
 7546SOL    HW223538   5.552   0.232   5.599
 7547SOL     OW23539   2.568   0.079   0.312
 7547SOL    HW123540   2.489   0.135   0.287
 7547SOL    HW223541   2.634   0.077   0.237
 7548SOL     OW23542   2.208   3.790   1.160
 7548SOL    HW123543   2.236   3.759   1.251
 7548SOL    HW223544   2.259   3.740   1.090
 7549SOL     OW23545   5.949   0.296   2.531
 7549SOL    HW123546   6.010   0.371   2.505
 7549SOL    HW223547   6.000   0.229   2.584
 7550SOL     OW23548   0.823   5.377   1.243
 7550SOL    HW123549   0.864   5.364   1.333
 7550SOL    HW223550   0.799   5.289   1.204
 7551SOL     OW23551   5.042   3.714   6.057
 7551SOL    HW123552   4.966   3.672   6.107
 7551SOL    HW223553   5.075   3.794   6.107
 7552SOL     OW23554   3.547   5.886   3.835
 7552SOL    HW123555   3.454   5.849   3.826
 7552SOL    HW223556   3.593   5.881   3.746
 7553SOL     OW23557   4.447   3.986   6.197
 7553SOL    HW123558   4.466   3.929   6.117
 7553SOL    HW223559   4.362   4.037   6.182
 7554SOL     OW23560   0.347   1.712   1.137
 7554SOL    HW123561   0.400   1.627   1.145
 7554SOL    HW223562   0.366   1.753   1.048
 7555SOL     OW23563   1.796   6.588   5.854
 7555SOL    HW123564   1.772   6.621   5.945
 7555SOL    HW223565   1.861   6.652   5.811
 7556SOL     OW23566   6.834   3.654   2.980
 7556SOL    HW123567   6.772   3.726   2.950
 7556SOL    HW223568   6.797   3.609   3.061
 7557SOL     OW23569   4.244   4.074   0.591
 7557SOL    HW123570   4.175   4.002   0.598
 7557SOL    HW223571   4.307   4.054   0.516
 7558SOL     OW23572   1.631   3.436   3.474
 7558SOL    HW123573   1.709   3.374   3.484
 7558SOL    HW223574   1.553   3.398   3.524
 7559SOL     OW23575   1.058   4.317   6.860
 7559SOL    HW123576   1.015   4.390   6.807
 7559SOL    HW223577   1.003   4.298   6.941
 7560SOL     OW23578   4.388   0.458   5.582
 7560SOL    HW123579   4.391   0.470   5.681
 7560SOL    HW223580   4.413   0.544   5.537
 7561SOL     OW23581   0.778   3.420   7.005
 7561SOL    HW123582   0.870   3.440   0.016
 7561SOL    HW223583   0.750   3.487   6.937
 7562SOL     OW23584   4.447   6.139   5.180
 7562SOL    HW123585   4.506   6.160   5.102
 7562SOL    HW223586   4.419   6.043   5.176
 7563SOL     OW23587   2.161   1.240   3.602
 7563SOL    HW123588   2.069   1.233   3.640
 7563SOL    HW223589   2.194   1.334   3.614
 7564SOL     OW23590   6.132   5.371   4.104
 7564SOL    HW123591   6.190   5.355   4.184
 7564SOL    HW223592   6.069   5.446   4.124
 7565SOL     OW23593   5.238   5.205   6.582
 7565SOL    HW123594   5.202   5.215   6.674
 7565SOL    HW223595   5.232   5.292   6.534
 7566SOL     OW23596   1.961   5.488   4.117
 7566SOL    HW123597   1.867   5.460   4.137
 7566SOL    HW223598   1.995   5.437   4.038
 7567SOL     OW23599   2.734   3.723   0.049
 7567SOL    HW123600   2.695   3.638   0.015
 7567SOL    HW223601   2.821   3.741   0.003
 7568SOL     OW23602   4.151   4.761   3.505
 7568SOL    HW123603   4.177   4.666   3.518
 7568SOL    HW223604   4.198   4.818   3.572
 7569SOL     OW23605   3.986   0.211   2.427
 7569SOL    HW123606   4.008   0.208   2.329
 7569SOL    HW223607   3.955   0.303   2.451
 7570SOL     OW23608   5.918   4.571   5.276
 7570SOL    HW123609   5.841   4.515   5.307
 7570SOL    HW223610   5.883   4.659   5.243
 7571SOL     OW23611   6.661   4.026   6.871
 7571SOL    HW123612   6.747   4.062   6.835
 7571SOL    HW223613   6.664   4.030   6.971
 7572SOL     OW23614   6.464   1.674   3.446
 7572SOL    HW123615   6.503   1.614   3.377
 7572SOL    HW223616   6.412   1.620   3.512
 7573SOL     OW23617   3.300   5.268   3.976
 7573SOL    HW123618   3.338   5.326   4.048
 7573SOL    HW223619   3.352   5.280   3.891
 7574SOL     OW23620   4.174   5.765   1.573
 7574SOL    HW123621   4.230   5.846   1.588
 7574SOL    HW223622   4.139   5.732   1.661
 7575SOL     OW23623   4.830   2.962   4.431
 7575SOL    HW123624   4.767   3.001   4.497
 7575SOL    HW223625   4.833   2.863   4.441
 7576SOL     OW23626   6.998   4.030   1.710
 7576SOL    HW123627   6.915   4.003   1.758
 7576SOL    HW223628   0.056   4.016   1.769
 7577SOL     OW23629   4.196   1.347   4.280
 7577SOL    HW123630   4.113   1.291   4.288
 7577SOL    HW223631   4.266   1.312   4.342
 7578SOL     OW23632   2.414   5.300   4.969
 7578SOL    HW123633   2.430   5.399   4.964
 7578SOL    HW223634   2.481   5.258   5.031
 7579SOL     OW23635   4.440   2.011   4.253
 7579SOL    HW123636   4.409   1.923   4.289
 7579SOL    HW223637   4.392   2.031   4.168
 7580SOL     OW23638   2.058   3.379   2.087
 7580SOL    HW123639   2.116   3.453   2.053
 7580SOL    HW223640   2.104   3.291   2.073
 7581SOL     OW23641   5.894   1.210   0.885
 7581SOL    HW123642   5.896   1.301   0.926
 7581SOL    HW223643   5.829   1.152   0.934
 7582SOL     OW23644   4.033   2.782   1.346
 7582SOL    HW123645   4.129   2.774   1.373
 7582SOL    HW223646   3.976   2.753   1.423
 7583SOL     OW23647   6.922   4.281   2.974
 7583SOL    HW123648   6.917   4.195   2.923
 7583SOL    HW223649   6.868   4.273   3.058
 7584SOL     OW23650   2.103   2.059   1.895
 7584SOL    HW123651   2.172   1.994   1.861
 7584SOL    HW223652   2.120   2.149   1.855
 7585SOL     OW23653   2.676   4.365   0.451
 7585SOL    HW123654   2.668   4.315   0.537
 7585SOL    HW223655   2.693   4.299   0.377
 7586SOL     OW23656   1.604   2.344   3.737
 7586SOL    HW123657   1.657   2.430   3.739
 7586SOL    HW223658   1.507   2.365   3.736
 7587SOL     OW23659   2.383   1.039   5.521
 7587SOL    HW123660   2.326   1.091   5.458
 7587SOL    HW223661   2.401   1.094   5.603
 7588SOL     OW23662   0.594   4.495   2.034
 7588SOL    HW123663   0.552   4.552   1.963
 7588SOL    HW223664   0.560   4.401   2.026
 7589SOL     OW23665   5.107   5.338   6.146
 7589SOL    HW123666   5.035   5.399   6.112
 7589SOL    HW223667   5.186   5.342   6.084
 7590SOL     OW23668   1.629   0.756   5.118
 7590SOL    HW123669   1.715   0.780   5.162
 7590SOL    HW223670   1.595   0.670   5.157
 7591SOL     OW23671   6.518   6.087   6.630
 7591SOL    HW123672   6.515   6.175   6.676
 7591SOL    HW223673   6.432   6.038   6.644
 7592SOL     OW23674   4.471   4.549   6.013
 7592SOL    HW123675   4.374   4.557   6.036
 7592SOL    HW223676   4.521   4.624   6.057
 7593SOL     OW23677   6.442   4.364   0.192
 7593SOL    HW123678   6.390   4.291   0.238
 7593SOL    HW223679   6.536   4.334   0.179
 7594SOL     OW23680   0.931   6.571   3.909
 7594SOL    HW123681   0.939   6.593   4.006
 7594SOL    HW223682   0.836   6.583   3.880
 7595SOL     OW23683   6.719   3.232   6.718
 7595SOL    HW123684   6.679   3.324   6.727
 7595SOL    HW223685   6.731   3.211   6.621
 7596SOL     OW23686   5.046   5.600   2.338
 7596SOL    HW123687   4.968   5.574   2.281
 7596SOL    HW223688   5.075   5.693   2.316
 7597SOL     OW23689   2.405   5.193   1.833
 7597SOL    HW123690   2.326   5.178   1.892
 7597SOL    HW223691   2.374   5.217   1.741
 7598SOL     OW23692   5.955   0.791   2.763
 7598SOL    HW123693   6.036   0.840   2.730
 7598SOL    HW223694   5.982   0.724   2.832
 7599SOL     OW23695   5.362   3.305   2.400
 7599SOL    HW123696   5.412   3.325   2.485
 7599SOL    HW223697   5.358   3.388   2.344
 7600SOL     OW23698   2.433   2.642   2.460
 7600SOL    HW123699   2.444   2.652   2.559
 7600SOL    HW223700   2.509   2.589   2.423
 7601SOL     OW23701   1.552   0.514   5.177
 7601SOL    HW123702   1.488   0.531   5.252
 7601SOL    HW223703   1.626   0.456   5.210
 7602SOL     OW23704   2.162   2.962   5.184
 7602SOL    HW123705   2.201   2.935   5.272
 7602SOL    HW223706   2.234   2.970   5.116
 7603SOL     OW23707   6.645   1.414   1.858
 7603SOL    HW123708   6.604   1.477   1.792
 7603SOL    HW223709   6.734   1.448   1.886
 7604SOL     OW23710   5.419   5.731   6.355
 7604SOL    HW123711   5.326   5.729   6.392
 7604SOL    HW223712   5.459   5.639   6.359
 7605SOL     OW23713   5.867   3.355   6.381
 7605SOL    HW123714   5.770   3.332   6.382
 7605SOL    HW223715   5.921   3.273   6.397
 7606SOL     OW23716   5.669   1.234   3.574
 7606SOL    HW123717   5.754   1.268   3.534
 7606SOL    HW223718   5.593   1.257   3.513
 7607SOL     OW23719   5.195   6.582   5.704
 7607SOL    HW123720   5.105   6.540   5.712
 7607SOL    HW223721   5.184   6.681   5.692
 7608SOL     OW23722   3.823   3.572   4.903
 7608SOL    HW123723   3.798   3.619   4.818
 7608SOL    HW223724   3.847   3.640   4.972
 7609SOL     OW23725   1.247   2.729   3.304
 7609SOL    HW123726   1.270   2.775   3.390
 7609SOL    HW223727   1.162   2.679   3.315
 7610SOL     OW23728   5.416   0.698   2.188
 7610SOL    HW123729   5.392   0.774   2.249
 7610SOL    HW223730   5.404   0.726   2.093
 7611SOL     OW23731   1.876   1.671   1.394
 7611SOL    HW123732   1.801   1.700   1.453
 7611SOL    HW223733   1.925   1.752   1.360
 7612SOL     OW23734   4.603   2.024   2.824
 7612SOL    HW123735   4.528   2.062   2.879
 7612SOL    HW223736   4.622   1.931   2.854
 7613SOL     OW23737   6.493   0.781   2.216
 7613SOL    HW123738   6.427   0.806   2.288
 7613SOL    HW223739   6.502   0.682   2.212
 7614SOL     OW23740   4.813   1.026   0.631
 7614SOL    HW123741   4.802   1.118   0.669
 7614SOL    HW223742   4.748   1.014   0.555
 7615SOL     OW23743   3.331   5.088   5.320
 7615SOL    HW123744   3.358   5.184   5.322
 7615SOL    HW223745   3.248   5.075   5.375
 7616SOL     OW23746   0.064   5.713   3.015
 7616SOL    HW123747   0.093   5.681   3.105
 7616SOL    HW223748   0.043   5.811   3.019
 7617SOL     OW23749   3.973   5.503   3.929
 7617SOL    HW123750   3.891   5.454   3.900
 7617SOL    HW223751   4.031   5.522   3.849
 7618SOL     OW23752   3.070   2.293   6.935
 7618SOL    HW123753   3.139   2.229   6.969
 7618SOL    HW223754   3.109   2.385   6.928
 7619SOL     OW23755   5.620   2.639   5.979
 7619SOL    HW123756   5.679   2.705   5.933
 7619SOL    HW223757   5.545   2.613   5.918
 7620SOL     OW23758   3.404   5.854   1.577
 7620SOL    HW123759   3.436   5.800   1.499
 7620SOL    HW223760   3.473   5.922   1.601
 7621SOL     OW23761   2.380   2.510   0.816
 7621SOL    HW123762   2.371   2.418   0.855
 7621SOL    HW223763   2.350   2.578   0.883
 7622SOL     OW23764   4.850   2.432   0.759
 7622SOL    HW123765   4.788   2.385   0.822
 7622SOL    HW223766   4.844   2.390   0.668
 7623SOL     OW23767   6.718   6.327   5.145
 7623SOL    HW123768   6.625   6.354   5.119
 7623SOL    HW223769   6.753   6.389   5.214
 7624SOL     OW23770   6.838   0.704   4.707
 7624SOL    HW123771   6.934   0.728   4.718
 7624SOL    HW223772   6.827   0.605   4.710
 7625SOL     OW23773   2.796   5.150   0.925
 7625SOL    HW123774   2.770   5.236   0.881
 7625SOL    HW223775   2.821   5.084   0.854
 7626SOL     OW23776   2.554   4.415   5.282
 7626SOL    HW123777   2.608   4.331   5.290
 7626SOL    HW223778   2.604   4.491   5.324
 7627SOL     OW23779   6.930   0.905   0.430
 7627SOL    HW123780   7.012   0.907   0.373
 7627SOL    HW223781   6.932   0.824   0.488
 7628SOL     OW23782   4.836   1.770   1.058
 7628SOL    HW123783   4.768   1.803   1.124
 7628SOL    HW223784   4.792   1.756   0.969
 7629SOL     OW23785   5.985   5.648   3.171
 7629SOL    HW123786   5.976   5.612   3.078
 7629SOL    HW223787   6.072   5.695   3.180
 7630SOL     OW23788   6.230   1.716   1.890
 7630SOL    HW123789   6.328   1.702   1.880
 7630SOL    HW223790   6.195   1.659   1.964
 7631SOL     OW23791   1.286   0.608   3.763
 7631SOL    HW123792   1.316   0.700   3.788
 7631SOL    HW223793   1.230   0.570   3.837
 7632SOL     OW23794   4.422   0.842   4.817
 7632SOL    HW123795   4.387   0.756   4.779
 7632SOL    HW223796   4.520   0.834   4.833
 7633SOL     OW23797   5.968   3.692   6.100
 7633SOL    HW123798   5.932   3.599   6.099
 7633SOL    HW223799   6.043   3.700   6.034
 7634SOL     OW23800   1.192   2.677   2.275
 7634SOL    HW123801   1.192   2.765   2.228
 7634SOL    HW223802   1.205   2.604   2.208
 7635SOL     OW23803   2.542   4.817   5.778
 7635SOL    HW123804   2.556   4.727   5.737
 7635SOL    HW223805   2.446   4.844   5.769
 7636SOL     OW23806   0.920   0.892   3.736
 7636SOL    HW123807   0.951   0.986   3.720
 7636SOL    HW223808   0.929   0.839   3.651
 7637SOL     OW23809   2.775   6.148   4.117
 7637SOL    HW123810   2.812   6.074   4.061
 7637SOL    HW223811   2.677   6.134   4.130
 7638SOL     OW23812   4.661   4.345   1.737
 7638SOL    HW123813   4.589   4.292   1.781
 7638SOL    HW223814   4.746   4.337   1.789
 7639SOL     OW23815   0.669   2.302   3.988
 7639SOL    HW123816   0.662   2.402   3.983
 7639SOL    HW223817   0.710   2.268   3.903
 7640SOL     OW23818   2.333   3.416   5.990
 7640SOL    HW123819   2.296   3.323   5.984
 7640SOL    HW223820   2.284   3.466   6.061
 7641SOL     OW23821   5.767   3.367   2.613
 7641SOL    HW123822   5.670   3.365   2.592
 7641SOL    HW223823   5.820   3.344   2.531
 7642SOL     OW23824   1.738   2.210   2.733
 7642SOL    HW123825   1.763   2.290   2.788
 7642SOL    HW223826   1.762   2.227   2.638
 7643SOL     OW23827   5.334   3.703   3.258
 7643SOL    HW123828   5.290   3.766   3.194
 7643SOL    HW223829   5.274   3.689   3.337
 7644SOL     OW23830   6.149   3.264   4.179
 7644SOL    HW123831   6.166   3.246   4.082
 7644SOL    HW223832   6.236   3.277   4.226
 7645SOL     OW23833   3.831   3.124   0.913
 7645SOL    HW123834   3.886   3.206   0.895
 7645SOL    HW223835   3.738   3.138   0.880
 7646SOL     OW23836   0.920   0.137   1.971
 7646SOL    HW123837   0.931   0.078   1.891
 7646SOL    HW223838   0.826   0.131   2.005
 7647SOL     OW23839   2.065   4.985   0.013
 7647SOL    HW123840   2.144   5.000   0.072
 7647SOL    HW223841   2.019   4.900   0.040
 7648SOL     OW23842   2.605   0.795   3.513
 7648SOL    HW123843   2.576   0.700   3.529
 7648SOL    HW223844   2.556   0.856   3.574
 7649SOL     OW23845   3.206   1.771   0.972
 7649SOL    HW123846   3.254   1.832   0.909
 7649SOL    HW223847   3.257   1.765   1.058
 7650SOL     OW23848   6.441   4.633   0.783
 7650SOL    HW123849   6.519   4.598   0.835
 7650SOL    HW223850   6.473   4.704   0.719
 7651SOL     OW23851   5.837   1.308   5.696
 7651SOL    HW123852   5.872   1.215   5.706
 7651SOL    HW223853   5.768   1.309   5.624
 7652SOL     OW23854   0.795   3.467   2.700
 7652SOL    HW123855   0.884   3.509   2.718
 7652SOL    HW223856   0.723   3.536   2.708
 7653SOL     OW23857   4.889   2.403   2.008
 7653SOL    HW123858   4.808   2.385   2.063
 7653SOL    HW223859   4.872   2.376   1.913
 7654SOL     OW23860   5.433   3.524   4.829
 7654SOL    HW123861   5.418   3.426   4.815
 7654SOL    HW223862   5.512   3.554   4.777
 7655SOL     OW23863   4.720   4.913   6.843
 7655SOL    HW123864   4.729   5.009   6.818
 7655SOL    HW223865   4.790   4.859   6.796
 7656SOL     OW23866   0.642   0.339   5.043
 7656SOL    HW123867   0.602   0.399   4.973
 7656SOL    HW223868   0.699   0.270   4.998
 7657SOL     OW23869   4.055   1.813   3.544
 7657SOL    HW123870   3.957   1.832   3.554
 7657SOL    HW223871   4.104   1.897   3.524
 7658SOL     OW23872   4.180   0.678   5.688
 7658SOL    HW123873   4.226   0.668   5.600
 7658SOL    HW223874   4.139   0.769   5.694
 7659SOL     OW23875   4.993   5.958   6.221
 7659SOL    HW123876   4.896   5.935   6.215
 7659SOL    HW223877   5.048   5.876   6.200
 7660SOL     OW23878   5.512   5.271   3.968
 7660SOL    HW123879   5.483   5.254   4.062
 7660SOL    HW223880   5.487   5.193   3.910
 7661SOL     OW23881   5.955   3.533   4.148
 7661SOL    HW123882   5.927   3.526   4.053
 7661SOL    HW223883   6.021   3.462   4.169
 7662SOL     OW23884   6.435   5.405   3.613
 7662SOL    HW123885   6.393   5.394   3.523
 7662SOL    HW223886   6.421   5.323   3.668
 7663SOL     OW23887   0.892   6.213   0.461
 7663SOL    HW123888   0.842   6.259   0.534
 7663SOL    HW223889   0.965   6.157   0.501
 7664SOL     OW23890   3.657   5.384   4.726
 7664SOL    HW123891   3.641   5.461   4.664
 7664SOL    HW223892   3.740   5.336   4.698
 7665SOL     OW23893   1.994   5.795   3.566
 7665SOL    HW123894   2.002   5.862   3.492
 7665SOL    HW223895   1.908   5.809   3.615
 7666SOL     OW23896   2.169   0.507   2.403
 7666SOL    HW123897   2.109   0.534   2.479
 7666SOL    HW223898   2.172   0.580   2.335
 7667SOL     OW23899   5.966   6.896   5.218
 7667SOL    HW123900   5.916   6.940   5.144
 7667SOL    HW223901   5.939   6.937   5.305
 7668SOL     OW23902   3.204   3.450   2.136
 7668SOL    HW123903   3.148   3.386   2.189
 7668SOL    HW223904   3.186   3.437   2.039
 7669SOL     OW23905   4.502   6.544   5.083
 7669SOL    HW123906   4.534   6.485   5.008
 7669SOL    HW223907   4.553   6.521   5.166
 7670SOL     OW23908   1.625   5.945   0.934
 7670SOL    HW123909   1.709   5.910   0.976
 7670SOL    HW223910   1.609   6.039   0.964
 7671SOL     OW23911   4.724   2.349   4.730
 7671SOL    HW123912   4.809   2.385   4.692
 7671SOL    HW223913   4.647   2.405   4.700
 7672SOL     OW23914   6.270   0.234   1.868
 7672SOL    HW123915   6.336   0.163   1.893
 7672SOL    HW223916   6.318   0.318   1.845
 7673SOL     OW23917   1.244   3.579   0.353
 7673SOL    HW123918   1.297   3.494   0.357
 7673SOL    HW223919   1.147   3.558   0.366
 7674SOL     OW23920   6.438   0.900   5.277
 7674SOL    HW123921   6.357   0.924   5.331
 7674SOL    HW223922   6.413   0.894   5.180
 7675SOL     OW23923   4.954   0.453   3.265
 7675SOL    HW123924   4.935   0.547   3.292
 7675SOL    HW223925   5.053   0.439   3.260
 7676SOL     OW23926   1.753   6.756   1.119
 7676SOL    HW123927   1.839   6.792   1.156
 7676SOL    HW223928   1.681   6.766   1.187
 7677SOL     OW23929   1.847   2.917   2.558
 7677SOL    HW123930   1.858   2.956   2.650
 7677SOL    HW223931   1.821   2.989   2.494
 7678SOL     OW23932   5.152   0.028   5.964
 7678SOL    HW123933   5.123   0.098   5.898
 7678SOL    HW223934   5.084   0.020   6.037
 7679SOL     OW23935   1.385   5.206   4.351
 7679SOL    HW123936   1.410   5.164   4.438
 7679SOL    HW223937   1.400   5.140   4.277
 7680SOL     OW23938   4.735   0.518   0.552
 7680SOL    HW123939   4.773   0.437   0.507
 7680SOL    HW223940   4.656   0.551   0.500
 7681SOL     OW23941   4.145   2.447   5.758
 7681SOL    HW123942   4.059   2.436   5.708
 7681SOL    HW223943   4.166   2.362   5.806
 7682SOL     OW23944   2.938   0.689   0.624
 7682SOL    HW123945   2.883   0.762   0.666
 7682SOL    HW223946   2.891   0.601   0.637
 7683SOL     OW23947   6.880   3.286   3.822
 7683SOL    HW123948   6.960   3.302   3.764
 7683SOL    HW223949   6.836   3.201   3.795
 7684SOL     OW23950   3.782   1.811   5.504
 7684SOL    HW123951   3.851   1.807   5.576
 7684SOL    HW223952   3.819   1.771   5.420
 7685SOL     OW23953   3.948   3.901   1.560
 7685SOL    HW123954   3.974   3.809   1.529
 7685SOL    HW223955   3.874   3.894   1.627
 7686SOL     OW23956   2.346   0.961   2.327
 7686SOL    HW123957   2.310   0.974   2.235
 7686SOL    HW223958   2.371   1.050   2.366
 7687SOL     OW23959   4.689   4.230   5.688
 7687SOL    HW123960   4.597   4.266   5.707
 7687SOL    HW223961   4.733   4.205   5.774
 7688SOL     OW23962   6.718   0.866   3.084
 7688SOL    HW123963   6.813   0.844   3.107
 7688SOL    HW223964   6.692   0.952   3.128
 7689SOL     OW23965   3.771   0.023   5.140
 7689SOL    HW123966   3.677   0.044   5.166
 7689SOL    HW223967   3.772   6.969   5.075
 7690SOL     OW23968   0.949   5.325   2.921
 7690SOL    HW123969   0.926   5.254   2.987
 7690SOL    HW223970   0.865   5.360   2.879
 7691SOL     OW23971   6.471   3.631   5.583
 7691SOL    HW123972   6.508   3.722   5.603
 7691SOL    HW223973   6.409   3.638   5.504
 7692SOL     OW23974   1.392   6.065   1.248
 7692SOL    HW123975   1.368   5.974   1.283
 7692SOL    HW223976   1.322   6.096   1.185
 7693SOL     OW23977   5.224   1.177   0.675
 7693SOL    HW123978   5.299   1.230   0.635
 7693SOL    HW223979   5.215   1.200   0.772
 7694SOL     OW23980   5.910   4.924   3.520
 7694SOL    HW123981   5.959   4.844   3.555
 7694SOL    HW223982   5.912   4.997   3.589
 7695SOL     OW23983   4.444   0.528   6.672
 7695SOL    HW123984   4.411   0.566   6.759
 7695SOL    HW223985   4.531   0.571   6.648
 7696SOL     OW23986   1.264   3.997   5.607
 7696SOL    HW123987   1.258   4.037   5.698
 7696SOL    HW223988   1.239   3.900   5.612
 7697SOL     OW23989   4.723   1.472   2.473
 7697SOL    HW123990   4.815   1.481   2.435
 7697SOL    HW223991   4.714   1.384   2.520
 7698SOL     OW23992   0.287   2.178   5.983
 7698SOL    HW123993   0.294   2.201   6.081
 7698SOL    HW223994   0.211   2.229   5.942
 7699SOL     OW23995   3.113   3.206   0.879
 7699SOL    HW123996   3.047   3.281   0.879
 7699SOL    HW223997   3.202   3.239   0.849
 7700SOL     OW23998   5.461   0.152   4.920
 7700SOL    HW123999   5.541   0.093   4.932
 7700SOL    HW224000   5.468   0.230   4.982
 7701SOL     OW24001   6.623   2.283   5.728
 7701SOL    HW124002   6.655   2.188   5.731
 7701SOL    HW224003   6.690   2.339   5.679
 7702SOL     OW24004   1.398   6.529   6.691
 7702SOL    HW124005   1.372   6.622   6.666
 7702SOL    HW224006   1.406   6.522   6.791
 7703SOL     OW24007   0.984   1.990   6.230
 7703SOL    HW124008   0.927   2.060   6.186
 7703SOL    HW224009   0.940   1.960   6.314
 7704SOL     OW24010   2.966   3.279   1.219
 7704SOL    HW124011   2.944   3.183   1.202
 7704SOL    HW224012   2.901   3.317   1.285
 7705SOL     OW24013   4.076   3.481   4.357
 7705SOL    HW124014   3.979   3.502   4.365
 7705SOL    HW224015   4.101   3.476   4.260
 7706SOL     OW24016   6.571   0.745   5.449
 7706SOL    HW124017   6.517   0.791   5.379
 7706SOL    HW224018   6.607   0.813   5.514
 7707SOL     OW24019   6.853   5.826   6.509
 7707SOL    HW124020   6.835   5.788   6.600
 7707SOL    HW224021   6.887   5.753   6.449
 7708SOL     OW24022   5.214   1.308   5.097
 7708SOL    HW124023   5.117   1.301   5.121
 7708SOL    HW224024   5.241   1.228   5.044
 7709SOL     OW24025   3.731   2.422   1.435
 7709SOL    HW124026   3.772   2.510   1.460
 7709SOL    HW224027   3.632   2.428   1.447
 7710SOL     OW24028   3.339   2.216   6.598
 7710SOL    HW124029   3.321   2.312   6.575
 7710SOL    HW224030   3.260   2.178   6.646
 7711SOL     OW24031   4.645   5.890   5.004
 7711SOL    HW124032   4.722   5.861   5.062
 7711SOL    HW224033   4.559   5.860   5.045
 7712SOL     OW24034   5.838   3.947   6.414
 7712SOL    HW124035   5.922   3.949   6.360
 7712SOL    HW224036   5.788   3.863   6.394
 7713SOL     OW24037   0.237   5.379   6.525
 7713SOL    HW124038   0.266   5.356   6.618
 7713SOL    HW224039   0.153   5.329   6.503
 7714SOL     OW24040   5.298   4.190   4.728
 7714SOL    HW124041   5.224   4.250   4.699
 7714SOL    HW224042   5.269   4.095   4.718
 7715SOL     OW24043   3.894   2.396   1.719
 7715SOL    HW124044   3.796   2.405   1.703
 7715SOL    HW224045   3.912   2.314   1.773
 7716SOL     OW24046   4.405   2.349   4.375
 7716SOL    HW124047   4.318   2.314   4.410
 7716SOL    HW224048   4.476   2.280   4.389
 7717SOL     OW24049   2.823   0.208   6.699
 7717SOL    HW124050   2.844   0.289   6.644
 7717SOL    HW224051   2.908   0.162   6.724
 7718SOL     OW24052   2.504   6.367   3.637
 7718SOL    HW124053   2.604   6.371   3.630
 7718SOL    HW224054   2.465   6.351   3.547
 7719SOL     OW24055   5.713   2.564   5.243
 7719SOL    HW124056   5.624   2.570   5.289
 7719SOL    HW224057   5.779   2.623   5.289
 7720SOL     OW24058   4.853   6.354   1.470
 7720SOL    HW124059   4.761   6.382   1.498
 7720SOL    HW224060   4.847   6.275   1.410
 7721SOL     OW24061   0.735   4.657   2.917
 7721SOL    HW124062   0.709   4.573   2.965
 7721SOL    HW224063   0.779   4.720   2.981
 7722SOL     OW24064   0.625   5.820   4.007
 7722SOL    HW124065   0.529   5.829   3.981
 7722SOL    HW224066   0.683   5.829   3.926
 7723SOL     OW24067   6.611   1.929   0.266
 7723SOL    HW124068   6.594   2.006   0.326
 7723SOL    HW224069   6.622   1.962   0.172
 7724SOL     OW24070   2.785   6.496   6.729
 7724SOL    HW124071   2.701   6.448   6.754
 7724SOL    HW224072   2.844   6.435   6.676
 7725SOL     OW24073   5.223   3.981   4.102
 7725SOL    HW124074   5.178   3.897   4.071
 7725SOL    HW224075   5.233   3.979   4.201
 7726SOL     OW24076   5.249   5.603   3.300
 7726SOL    HW124077   5.256   5.513   3.257
 7726SOL    HW224078   5.338   5.649   3.295
 7727SOL     OW24079   5.797   3.584   2.070
 7727SOL    HW124080   5.765   3.510   2.129
 7727SOL    HW224081   5.781   3.561   1.975
 7728SOL     OW24082   2.150   2.684   2.762
 7728SOL    HW124083   2.097   2.649   2.685
 7728SOL    HW224084   2.244   2.650   2.757
 7729SOL     OW24085   5.343   1.547   6.116
 7729SOL    HW124086   5.358   1.498   6.201
 7729SOL    HW224087   5.429   1.584   6.082
 7730SOL     OW24088   4.512   6.976   2.702
 7730SOL    HW124089   4.605   6.942   2.694
 7730SOL    HW224090   4.447   6.901   2.691
 7731SOL     OW24091   6.254   1.508   3.594
 7731SOL    HW124092   6.269   1.411   3.576
 7731SOL    HW224093   6.314   1.538   3.668
 7732SOL     OW24094   4.491   4.943   0.896
 7732SOL    HW124095   4.517   5.016   0.959
 7732SOL    HW224096   4.572   4.887   0.875
 7733SOL     OW24097   3.263   5.532   1.004
 7733SOL    HW124098   3.339   5.476   0.971
 7733SOL    HW224099   3.176   5.488   0.979
 7734SOL     OW24100   1.394   3.241   2.294
 7734SOL    HW124101   1.425   3.321   2.346
 7734SOL    HW224102   1.349   3.271   2.210
 7735SOL     OW24103   5.404   4.299   0.743
 7735SOL    HW124104   5.360   4.293   0.832
 7735SOL    HW224105   5.335   4.298   0.671
 7736SOL     OW24106   5.802   4.423   6.838
 7736SOL    HW124107   5.785   4.447   6.934
 7736SOL    HW224108   5.852   4.498   6.793
 7737SOL     OW24109   4.796   2.715   6.931
 7737SOL    HW124110   4.810   2.774   6.852
 7737SOL    HW224111   4.814   2.767   7.015
 7738SOL     OW24112   1.929   5.433   6.926
 7738SOL    HW124113   1.896   5.343   6.896
 7738SOL    HW224114   1.970   5.481   6.849
 7739SOL     OW24115   5.441   4.170   2.462
 7739SOL    HW124116   5.508   4.208   2.526
 7739SOL    HW224117   5.478   4.087   2.420
 7740SOL     OW24118   6.747   6.179   3.527
 7740SOL    HW124119   6.803   6.207   3.448
 7740SOL    HW224120   6.793   6.104   3.575
 7741SOL     OW24121   2.899   5.190   3.633
 7741SOL    HW124122   2.833   5.136   3.685
 7741SOL    HW224123   2.989   5.184   3.677
 7742SOL     OW24124   6.828   0.332   4.358
 7742SOL    HW124125   6.883   0.382   4.426
 7742SOL    HW224126   6.763   0.395   4.316
 7743SOL     OW24127   4.999   3.230   2.382
 7743SOL    HW124128   4.939   3.171   2.329
 7743SOL    HW224129   5.044   3.177   2.454
 7744SOL     OW24130   0.434   6.293   4.808
 7744SOL    HW124131   0.345   6.297   4.762
 7744SOL    HW224132   0.426   6.336   4.899
 7745SOL     OW24133   5.369   2.905   5.771
 7745SOL    HW124134   5.391   2.976   5.704
 7745SOL    HW224135   5.336   2.824   5.723
 7746SOL     OW24136   2.021   0.694   6.351
 7746SOL    HW124137   1.944   0.666   6.409
 7746SOL    HW224138   2.002   0.783   6.312
 7747SOL     OW24139   4.661   5.019   0.568
 7747SOL    HW124140   4.723   5.070   0.509
 7747SOL    HW224141   4.712   4.980   0.644
 7748SOL     OW24142   2.075   4.000   6.865
 7748SOL    HW124143   2.025   3.996   6.779
 7748SOL    HW224144   2.018   3.965   6.939
 7749SOL     OW24145   5.858   3.054   6.634
 7749SOL    HW124146   5.788   2.996   6.593
 7749SOL    HW224147   5.915   3.094   6.561
 7750SOL     OW24148   4.689   5.195   3.345
 7750SOL    HW124149   4.761   5.197   3.275
 7750SOL    HW224150   4.697   5.277   3.402
 7751SOL     OW24151   0.691   2.398   0.910
 7751SOL    HW124152   0.643   2.371   0.993
 7751SOL    HW224153   0.672   2.333   0.837
 7752SOL     OW24154   3.501   1.215   3.062
 7752SOL    HW124155   3.576   1.194   3.124
 7752SOL    HW224156   3.533   1.206   2.967
 7753SOL     OW24157   4.119   0.959   5.614
 7753SOL    HW124158   4.045   1.005   5.662
 7753SOL    HW224159   4.126   0.995   5.521
 7754SOL     OW24160   4.575   5.401   1.356
 7754SOL    HW124161   4.527   5.472   1.409
 7754SOL    HW224162   4.544   5.311   1.385
 7755SOL     OW24163   0.438   4.813   6.344
 7755SOL    HW124164   0.341   4.796   6.328
 7755SOL    HW224165   0.454   4.911   6.355
 7756SOL     OW24166   2.146   3.907   2.339
 7756SOL    HW124167   2.185   3.876   2.426
 7756SOL    HW224168   2.133   3.829   2.278
 7757SOL     OW24169   0.641   4.524   0.398
 7757SOL    HW124170   0.714   4.566   0.451
 7757SOL    HW224171   0.664   4.428   0.381
 7758SOL     OW24172   0.657   1.008   5.522
 7758SOL    HW124173   0.653   1.046   5.614
 7758SOL    HW224174   0.738   0.950   5.513
 7759SOL     OW24175   3.759   0.976   2.404
 7759SOL    HW124176   3.806   1.000   2.489
 7759SOL    HW224177   3.671   1.023   2.400
 7760SOL     OW24178   4.094   3.124   0.291
 7760SOL    HW124179   4.016   3.067   0.319
 7760SOL    HW224180   4.119   3.102   0.196
 7761SOL     OW24181   5.688   5.424   3.353
 7761SOL    HW124182   5.645   5.456   3.438
 7761SOL    HW224183   5.702   5.325   3.359
 7762SOL     OW24184   4.607   2.098   1.099
 7762SOL    HW124185   4.565   2.009   1.083
 7762SOL    HW224186   4.674   2.091   1.173
 7763SOL     OW24187   2.044   0.700   3.416
 7763SOL    HW124188   2.057   0.603   3.396
 7763SOL    HW224189   1.976   0.738   3.354
 7764SOL     OW24190   3.917   4.914   5.155
 7764SOL    HW124191   3.963   4.984   5.210
 7764SOL    HW224192   3.830   4.890   5.197
 7765SOL     OW24193   6.250   4.212   4.789
 7765SOL    HW124194   6.220   4.128   4.833
 7765SOL    HW224195   6.315   4.190   4.716
 7766SOL     OW24196   6.886   2.246   6.144
 7766SOL    HW124197   6.798   2.265   6.101
 7766SOL    HW224198   6.916   2.154   6.121
 7767SOL     OW24199   4.435   0.365   4.214
 7767SOL    HW124200   4.343   0.338   4.244
 7767SOL    HW224201   4.427   0.437   4.144
 7768SOL     OW24202   3.415   5.604   3.376
 7768SOL    HW124203   3.393   5.615   3.473
 7768SOL    HW224204   3.513   5.588   3.366
 7769SOL     OW24205   4.060   2.584   6.400
 7769SOL    HW124206   4.070   2.683   6.412
 7769SOL    HW224207   3.995   2.548   6.467
 7770SOL     OW24208   0.998   3.613   3.853
 7770SOL    HW124209   0.977   3.695   3.799
 7770SOL    HW224210   0.916   3.582   3.901
 7771SOL     OW24211   0.934   3.836   4.997
 7771SOL    HW124212   0.860   3.768   4.996
 7771SOL    HW224213   1.008   3.806   4.938
 7772SOL     OW24214   4.873   5.508   2.039
 7772SOL    HW124215   4.949   5.502   1.975
 7772SOL    HW224216   4.872   5.426   2.098
 7773SOL     OW24217   2.707   6.687   6.911
 7773SOL    HW124218   2.741   6.669   6.819
 7773SOL    HW224219   2.621   6.640   6.924
 7774SOL     OW24220   5.077   1.472   2.696
 7774SOL    HW124221   5.107   1.534   2.768
 7774SOL    HW224222   5.062   1.381   2.734
 7775SOL     OW24223   3.330   1.891   0.747
 7775SOL    HW124224   3.400   1.820   0.742
 7775SOL    HW224225   3.372   1.981   0.744
 7776SOL     OW24226   2.695   1.454   3.774
 7776SOL    HW124227   2.766   1.387   3.794
 7776SOL    HW224228   2.728   1.517   3.703
 7777SOL     OW24229   5.013   5.331   3.334
 7777SOL    HW124230   5.100   5.334   3.284
 7777SOL    HW224231   4.938   5.351   3.272
 7778SOL     OW24232   1.053   3.690   2.061
 7778SOL    HW124233   0.970   3.717   2.110
 7778SOL    HW224234   1.062   3.746   1.978
 7779SOL     OW24235   2.614   0.522   3.141
 7779SOL    HW124236   2.673   0.546   3.218
 7779SOL    HW224237   2.634   0.582   3.064
 7780SOL     OW24238   6.481   5.538   4.075
 7780SOL    HW124239   6.506   5.560   3.980
 7780SOL    HW224240   6.402   5.594   4.102
 7781SOL     OW24241   3.258   2.900   0.751
 7781SOL    HW124242   3.237   2.813   0.707
 7781SOL    HW224243   3.208   2.974   0.707
 7782SOL     OW24244   5.641   4.418   4.269
 7782SOL    HW124245   5.568   4.364   4.311
 7782SOL    HW224246   5.668   4.490   4.333
 7783SOL     OW24247   0.865   6.227   3.795
 7783SOL    HW124248   0.783   6.239   3.852
 7783SOL    HW224249   0.867   6.299   3.725
 7784SOL     OW24250   1.410   2.776   2.706
 7784SOL    HW124251   1.465   2.834   2.766
 7784SOL    HW224252   1.332   2.828   2.672
 7785SOL     OW24253   5.804   6.987   2.803
 7785SOL    HW124254   5.829   0.057   2.838
 7785SOL    HW224255   5.887   6.931   2.795
 7786SOL     OW24256   5.438   0.914   6.973
 7786SOL    HW124257   5.355   0.961   7.003
 7786SOL    HW224258   5.435   0.819   7.001
 7787SOL     OW24259   1.024   2.551   1.294
 7787SOL    HW124260   1.058   2.599   1.374
 7787SOL    HW224261   0.935   2.588   1.268
 7788SOL     OW24262   1.225   4.163   2.144
 7788SOL    HW124263   1.257   4.073   2.173
 7788SOL    HW224264   1.126   4.167   2.153
 7789SOL     OW24265   3.249   0.075   6.257
 7789SOL    HW124266   3.334   0.053   6.305
 7789SOL    HW224267   3.172   0.065   6.319
 7790SOL     OW24268   4.271   5.293   4.588
 7790SOL    HW124269   4.244   5.216   4.530
 7790SOL    HW224270   4.339   5.263   4.655
 7791SOL     OW24271   2.778   6.191   1.629
 7791SOL    HW124272   2.747   6.284   1.647
 7791SOL    HW224273   2.840   6.191   1.550
 7792SOL     OW24274   1.041   1.505   1.904
 7792SOL    HW124275   1.072   1.474   1.993
 7792SOL    HW224276   1.004   1.598   1.913
 7793SOL     OW24277   4.738   1.571   0.441
 7793SOL    HW124278   4.653   1.523   0.462
 7793SOL    HW224279   4.816   1.519   0.477
 7794SOL     OW24280   1.144   1.211   2.634
 7794SOL    HW124281   1.236   1.249   2.624
 7794SOL    HW224282   1.146   1.114   2.613
 7795SOL     OW24283   4.069   3.628   1.471
 7795SOL    HW124284   4.058   3.541   1.520
 7795SOL    HW224285   4.165   3.656   1.474
 7796SOL     OW24286   4.437   1.420   1.029
 7796SOL    HW124287   4.526   1.428   0.986
 7796SOL    HW224288   4.437   1.343   1.093
 7797SOL     OW24289   1.249   6.087   2.996
 7797SOL    HW124290   1.178   6.113   2.931
 7797SOL    HW224291   1.289   6.169   3.037
 7798SOL     OW24292   1.722   3.450   1.073
 7798SOL    HW124293   1.800   3.465   1.013
 7798SOL    HW224294   1.644   3.416   1.020
 7799SOL     OW24295   1.856   5.993   3.877
 7799SOL    HW124296   1.862   5.893   3.875
 7799SOL    HW224297   1.930   6.030   3.934
 7800SOL     OW24298   0.932   0.944   2.425
 7800SOL    HW124299   0.893   0.921   2.336
 7800SOL    HW224300   0.936   1.043   2.435
 7801SOL     OW24301   1.601   2.058   0.655
 7801SOL    HW124302   1.608   1.981   0.718
 7801SOL    HW224303   1.562   2.137   0.701
 7802SOL     OW24304   6.248   5.154   3.940
 7802SOL    HW124305   6.198   5.227   3.986
 7802SOL    HW224306   6.344   5.180   3.932
 7803SOL     OW24307   3.426   2.044   6.054
 7803SOL    HW124308   3.494   2.049   6.127
 7803SOL    HW224309   3.469   2.014   5.970
 7804SOL     OW24310   3.154   1.091   5.540
 7804SOL    HW124311   3.162   1.165   5.606
 7804SOL    HW224312   3.063   1.090   5.500
 7805SOL     OW24313   6.294   2.079   6.569
 7805SOL    HW124314   6.380   2.130   6.568
 7805SOL    HW224315   6.308   1.991   6.614
 7806SOL     OW24316   6.337   2.299   5.256
 7806SOL    HW124317   6.282   2.281   5.338
 7806SOL    HW224318   6.313   2.388   5.218
 7807SOL     OW24319   1.855   5.642   5.434
 7807SOL    HW124320   1.891   5.670   5.345
 7807SOL    HW224321   1.860   5.720   5.498
 7808SOL     OW24322   0.236   2.894   4.613
 7808SOL    HW124323   0.221   2.799   4.586
 7808SOL    HW224324   0.284   2.942   4.540
 7809SOL     OW24325   3.504   0.304   2.930
 7809SOL    HW124326   3.464   0.212   2.938
 7809SOL    HW224327   3.481   0.357   3.011
 7810SOL     OW24328   2.299   6.550   6.509
 7810SOL    HW124329   2.272   6.466   6.461
 7810SOL    HW224330   2.393   6.574   6.483
 7811SOL     OW24331   1.405   5.373   2.871
 7811SOL    HW124332   1.416   5.355   2.968
 7811SOL    HW224333   1.470   5.444   2.842
 7812SOL     OW24334   3.028   0.941   6.097
 7812SOL    HW124335   3.021   0.981   6.006
 7812SOL    HW224336   2.959   0.982   6.157
 7813SOL     OW24337   5.970   1.206   0.590
 7813SOL    HW124338   5.903   1.139   0.558
 7813SOL    HW224339   5.953   1.227   0.686
 7814SOL     OW24340   0.119   2.461   1.887
 7814SOL    HW124341   0.194   2.395   1.877
 7814SOL    HW224342   0.144   2.530   1.955
 7815SOL     OW24343   4.828   6.050   3.126
 7815SOL    HW124344   4.802   6.102   3.044
 7815SOL    HW224345   4.926   6.057   3.140
 7816SOL     OW24346   1.440   1.578   5.758
 7816SOL    HW124347   1.376   1.578   5.835
 7816SOL    HW224348   1.404   1.635   5.684
 7817SOL     OW24349   4.901   0.947   5.812
 7817SOL    HW124350   4.806   0.915   5.814
 7817SOL    HW224351   4.922   0.994   5.898
 7818SOL     OW24352   4.987   1.217   2.846
 7818SOL    HW124353   4.958   1.313   2.846
 7818SOL    HW224354   4.974   1.179   2.937
 7819SOL     OW24355   2.423   2.567   4.422
 7819SOL    HW124356   2.389   2.657   4.447
 7819SOL    HW224357   2.439   2.513   4.505
 7820SOL     OW24358   1.715   0.893   6.029
 7820SOL    HW124359   1.770   0.918   6.108
 7820SOL    HW224360   1.724   0.963   5.958
 7821SOL     OW24361   3.706   5.262   6.538
 7821SOL    HW124362   3.773   5.195   6.506
 7821SOL    HW224363   3.645   5.219   6.606
 7822SOL     OW24364   0.462   1.549   4.581
 7822SOL    HW124365   0.544   1.585   4.536
 7822SOL    HW224366   0.471   1.563   4.680
 7823SOL     OW24367   2.556   3.024   6.026
 7823SOL    HW124368   2.497   3.010   5.946
 7823SOL    HW224369   2.582   2.936   6.064
 7824SOL     OW24370   5.992   4.423   2.481
 7824SOL    HW124371   6.085   4.429   2.517
 7824SOL    HW224372   5.927   4.419   2.558
 7825SOL     OW24373   3.276   3.305   3.565
 7825SOL    HW124374   3.260   3.380   3.501
 7825SOL    HW224375   3.227   3.224   3.533
 7826SOL     OW24376   6.419   6.772   1.090
 7826SOL    HW124377   6.415   6.817   1.179
 7826SOL    HW224378   6.349   6.700   1.086
 7827SOL     OW24379   4.840   3.889   0.373
 7827SOL    HW124380   4.877   3.952   0.305
 7827SOL    HW224381   4.828   3.938   0.460
 7828SOL     OW24382   0.784   6.346   0.994
 7828SOL    HW124383   0.792   6.296   0.907
 7828SOL    HW224384   0.725   6.426   0.981
 7829SOL     OW24385   3.664   3.919   2.751
 7829SOL    HW124386   3.728   3.943   2.678
 7829SOL    HW224387   3.589   3.985   2.751
 7830SOL     OW24388   6.918   4.507   6.891
 7830SOL    HW124389   6.907   4.597   6.851
 7830SOL    HW224390   6.910   4.513   6.991
 7831SOL     OW24391   2.670   2.763   0.231
 7831SOL    HW124392   2.574   2.780   0.249
 7831SOL    HW224393   2.689   2.665   0.241
 7832SOL     OW24394   3.878   2.834   5.909
 7832SOL    HW124395   3.837   2.743   5.899
 7832SOL    HW224396   3.974   2.830   5.882
 7833SOL     OW24397   6.232   0.087   1.570
 7833SOL    HW124398   6.169   0.146   1.519
 7833SOL    HW224399   6.180   0.025   1.629
 7834SOL     OW24400   5.289   1.378   1.259
 7834SOL    HW124401   5.294   1.278   1.264
 7834SOL    HW224402   5.333   1.409   1.175
 7835SOL     OW24403   2.589   2.442   4.243
 7835SOL    HW124404   2.631   2.360   4.283
 7835SOL    HW224405   2.528   2.484   4.310
 7836SOL     OW24406   2.712   0.603   6.805
 7836SOL    HW124407   2.806   0.628   6.783
 7836SOL    HW224408   2.693   0.626   6.901
 7837SOL     OW24409   5.316   6.514   1.982
 7837SOL    HW124410   5.337   6.428   1.935
 7837SOL    HW224411   5.281   6.494   2.073
 7838SOL     OW24412   3.524   5.562   3.822
 7838SOL    HW124413   3.466   5.585   3.900
 7838SOL    HW224414   3.585   5.638   3.802
 7839SOL     OW24415   6.695   5.521   3.576
 7839SOL    HW124416   6.771   5.497   3.516
 7839SOL    HW224417   6.624   5.451   3.571
 7840SOL     OW24418   4.333   2.554   6.449
 7840SOL    HW124419   4.376   2.576   6.361
 7840SOL    HW224420   4.234   2.546   6.435
 7841SOL     OW24421   1.159   2.008   6.029
 7841SOL    HW124422   1.091   1.981   5.961
 7841SOL    HW224423   1.122   1.993   6.121
 7842SOL     OW24424   1.821   0.729   2.893
 7842SOL    HW124425   1.877   0.708   2.813
 7842SOL    HW224426   1.791   0.824   2.889
 7843SOL     OW24427   0.337   2.275   1.880
 7843SOL    HW124428   0.362   2.277   1.783
 7843SOL    HW224429   0.404   2.327   1.933
 7844SOL     OW24430   3.229   2.139   3.264
 7844SOL    HW124431   3.234   2.046   3.300
 7844SOL    HW224432   3.279   2.144   3.177
 7845SOL     OW24433   0.638   0.712   4.419
 7845SOL    HW124434   0.708   0.690   4.487
 7845SOL    HW224435   0.623   0.633   4.360
 7846SOL     OW24436   4.928   0.247   2.425
 7846SOL    HW124437   4.873   0.327   2.400
 7846SOL    HW224438   5.001   0.274   2.487
 7847SOL     OW24439   0.554   6.658   6.484
 7847SOL    HW124440   0.517   6.748   6.459
 7847SOL    HW224441   0.644   6.670   6.525
 7848SOL     OW24442   4.178   3.645   1.898
 7848SOL    HW124443   4.225   3.698   1.827
 7848SOL    HW224444   4.125   3.707   1.956
 7849SOL     OW24445   5.222   3.950   4.766
 7849SOL    HW124446   5.136   3.976   4.810
 7849SOL    HW224447   5.223   3.851   4.750
 7850SOL     OW24448   1.139   2.793   5.103
 7850SOL    HW124449   1.237   2.777   5.089
 7850SOL    HW224450   1.124   2.823   5.198
 7851SOL     OW24451   3.734   6.778   0.484
 7851SOL    HW124452   3.660   6.813   0.541
 7851SOL    HW224453   3.700   6.703   0.427
 7852SOL     OW24454   2.653   6.739   0.632
 7852SOL    HW124455   2.600   6.668   0.679
 7852SOL    HW224456   2.667   6.817   0.693
 7853SOL     OW24457   2.525   1.367   0.250
 7853SOL    HW124458   2.498   1.365   0.346
 7853SOL    HW224459   2.444   1.372   0.192
 7854SOL     OW24460   4.087   3.710   4.045
 7854SOL    HW124461   4.096   3.616   4.080
 7854SOL    HW224462   4.080   3.708   3.945
 7855SOL     OW24463   2.952   0.293   4.981
 7855SOL    HW124464   2.899   0.209   4.969
 7855SOL    HW224465   2.913   0.346   5.056
 7856SOL     OW24466   3.453   2.633   6.757
 7856SOL    HW124467   3.511   2.689   6.698
 7856SOL    HW224468   3.476   2.650   6.853
 7857SOL     OW24469   0.192   2.772   5.003
 7857SOL    HW124470   0.162   2.861   5.037
 7857SOL    HW224471   0.226   2.716   5.079
 7858SOL     OW24472   5.325   3.392   3.400
 7858SOL    HW124473   5.331   3.304   3.448
 7858SOL    HW224474   5.239   3.436   3.423
 7859SOL     OW24475   0.293   0.264   0.524
 7859SOL    HW124476   0.295   0.363   0.533
 7859SOL    HW224477   0.271   0.222   0.612
 7860SOL     OW24478   4.960   6.269   1.073
 7860SOL    HW124479   4.952   6.368   1.086
 7860SOL    HW224480   5.056   6.242   1.082
 7861SOL     OW24481   6.174   3.419   0.328
 7861SOL    HW124482   6.233   3.379   0.397
 7861SOL    HW224483   6.172   3.361   0.247
 7862SOL     OW24484   2.641   4.699   1.800
 7862SOL    HW124485   2.714   4.680   1.866
 7862SOL    HW224486   2.648   4.634   1.724
 7863SOL     OW24487   4.126   6.187   2.879
 7863SOL    HW124488   4.163   6.140   2.959
 7863SOL    HW224489   4.056   6.252   2.909
 7864SOL     OW24490   1.624   5.648   5.043
 7864SOL    HW124491   1.602   5.551   5.050
 7864SOL    HW224492   1.541   5.699   5.018
 7865SOL     OW24493   4.320   0.844   3.143
 7865SOL    HW124494   4.285   0.936   3.162
 7865SOL    HW224495   4.418   0.841   3.164
 7866SOL     OW24496   2.829   0.830   5.524
 7866SOL    HW124497   2.874   0.918   5.541
 7866SOL    HW224498   2.881   0.757   5.567
 7867SOL     OW24499   6.193   3.256   1.007
 7867SOL    HW124500   6.247   3.231   0.926
 7867SOL    HW224501   6.110   3.201   1.010
 7868SOL     OW24502   4.355   6.503   0.731
 7868SOL    HW124503   4.287   6.433   0.708
 7868SOL    HW224504   4.334   6.588   0.682
 7869SOL     OW24505   6.163   1.805   3.881
 7869SOL    HW124506   6.126   1.897   3.878
 7869SOL    HW224507   6.089   1.739   3.866
 7870SOL     OW24508   6.701   0.217   3.400
 7870SOL    HW124509   6.734   0.312   3.401
 7870SOL    HW224510   6.769   0.158   3.357
 7871SOL     OW24511   5.679   3.230   3.739
 7871SOL    HW124512   5.602   3.293   3.728
 7871SOL    HW224513   5.764   3.280   3.724
 7872SOL     OW24514   6.729   4.318   4.469
 7872SOL    HW124515   6.780   4.251   4.523
 7872SOL    HW224516   6.637   4.328   4.507
 7873SOL     OW24517   6.671   5.674   4.525
 7873SOL    HW124518   6.705   5.684   4.431
 7873SOL    HW224519   6.688   5.580   4.556
 7874SOL     OW24520   6.040   0.118   6.880
 7874SOL    HW124521   5.978   0.074   6.945
 7874SOL    HW224522   6.131   0.125   6.920
 7875SOL     OW24523   5.358   3.127   0.074
 7875SOL    HW124524   5.407   3.048   0.039
 7875SOL    HW224525   5.274   3.097   0.119
 7876SOL     OW24526   0.095   1.836   4.611
 7876SOL    HW124527   0.007   1.790   4.615
 7876SOL    HW224528   0.130   1.833   4.517
 7877SOL     OW24529   5.686   3.819   2.166
 7877SOL    HW124530   5.729   3.903   2.132
 7877SOL    HW224531   5.733   3.740   2.128
 7878SOL     OW24532   3.591   3.659   2.083
 7878SOL    HW124533   3.499   3.699   2.081
 7878SOL    HW224534   3.622   3.641   1.990
 7879SOL     OW24535   6.978   1.249   4.967
 7879SOL    HW124536   0.033   1.184   4.969
 7879SOL    HW224537   6.968   1.285   4.874
 7880SOL     OW24538   1.900   5.995   6.583
 7880SOL    HW124539   1.884   6.067   6.650
 7880SOL    HW224540   1.827   5.995   6.516
 7881SOL     OW24541   0.650   5.257   4.683
 7881SOL    HW124542   0.691   5.293   4.599
 7881SOL    HW224543   0.719   5.209   4.735
 7882SOL     OW24544   1.677   4.803   1.346
 7882SOL    HW124545   1.600   4.832   1.403
 7882SOL    HW224546   1.654   4.717   1.301
 7883SOL     OW24547   3.240   2.111   2.154
 7883SOL    HW124548   3.158   2.163   2.178
 7883SOL    HW224549   3.258   2.119   2.056
 7884SOL     OW24550   1.097   2.346   5.861
 7884SOL    HW124551   1.028   2.408   5.897
 7884SOL    HW224552   1.161   2.322   5.934
 7885SOL     OW24553   6.027   5.263   2.451
 7885SOL    HW124554   6.032   5.356   2.414
 7885SOL    HW224555   6.026   5.197   2.376
 7886SOL     OW24556   3.913   4.842   3.037
 7886SOL    HW124557   3.844   4.840   2.965
 7886SOL    HW224558   3.886   4.910   3.106
 7887SOL     OW24559   0.645   3.220   0.637
 7887SOL    HW124560   0.600   3.293   0.585
 7887SOL    HW224561   0.585   3.141   0.643
 7888SOL     OW24562   0.235   1.886   5.517
 7888SOL    HW124563   0.224   1.865   5.420
 7888SOL    HW224564   0.253   1.984   5.528
 7889SOL     OW24565   5.226   4.839   0.428
 7889SOL    HW124566   5.208   4.889   0.513
 7889SOL    HW224567   5.217   4.902   0.351
 7890SOL     OW24568   2.142   3.113   2.138
 7890SOL    HW124569   2.236   3.122   2.169
 7890SOL    HW224570   2.088   3.069   2.209
 7891SOL     OW24571   5.984   1.394   4.276
 7891SOL    HW124572   5.931   1.478   4.270
 7891SOL    HW224573   5.935   1.320   4.230
 7892SOL     OW24574   1.133   2.146   4.119
 7892SOL    HW124575   1.064   2.191   4.176
 7892SOL    HW224576   1.207   2.112   4.176
 7893SOL     OW24577   5.399   6.073   1.133
 7893SOL    HW124578   5.394   6.141   1.206
 7893SOL    HW224579   5.360   5.987   1.165
 7894SOL     OW24580   3.271   0.267   6.893
 7894SOL    HW124581   3.246   0.272   6.796
 7894SOL    HW224582   3.233   0.345   6.942
 7895SOL     OW24583   5.402   6.399   3.115
 7895SOL    HW124584   5.370   6.466   3.182
 7895SOL    HW224585   5.501   6.408   3.104
 7896SOL     OW24586   2.616   2.040   0.452
 7896SOL    HW124587   2.680   2.111   0.421
 7896SOL    HW224588   2.565   2.074   0.530
 7897SOL     OW24589   4.766   1.208   1.716
 7897SOL    HW124590   4.709   1.196   1.635
 7897SOL    HW224591   4.805   1.300   1.716
 7898SOL     OW24592   4.450   6.329   3.047
 7898SOL    HW124593   4.359   6.371   3.045
 7898SOL    HW224594   4.514   6.387   2.997
 7899SOL     OW24595   5.953   4.936   2.799
 7899SOL    HW124596   5.911   4.851   2.767
 7899SOL    HW224597   6.043   4.917   2.839
 7900SOL     OW24598   0.360   3.244   0.844
 7900SOL    HW124599   0.387   3.155   0.807
 7900SOL    HW224600   0.378   3.316   0.777
 7901SOL     OW24601   0.635   2.366   0.155
 7901SOL    HW124602   0.538   2.382   0.172
 7901SOL    HW224603   0.662   2.280   0.198
 7902SOL     OW24604   1.902   0.037   1.249
 7902SOL    HW124605   1.968   0.061   1.178
 7902SOL    HW224606   1.949   7.007   1.322
 7903SOL     OW24607   2.810   1.907   5.547
 7903SOL    HW124608   2.742   1.843   5.583
 7903SOL    HW224609   2.788   2.000   5.576
 7904SOL     OW24610   5.383   3.423   2.900
 7904SOL    HW124611   5.331   3.415   2.985
 7904SOL    HW224612   5.320   3.437   2.823
 7905SOL     OW24613   6.216   2.136   1.573
 7905SOL    HW124614   6.162   2.072   1.628
 7905SOL    HW224615   6.312   2.108   1.573
 7906SOL     OW24616   0.159   5.815   6.196
 7906SOL    HW124617   0.182   5.881   6.124
 7906SOL    HW224618   0.206   5.841   6.280
 7907SOL     OW24619   5.724   5.868   3.628
 7907SOL    HW124620   5.762   5.960   3.618
 7907SOL    HW224621   5.778   5.804   3.574
 7908SOL     OW24622   1.781   0.161   5.631
 7908SOL    HW124623   1.750   0.173   5.725
 7908SOL    HW224624   1.713   0.200   5.569
 7909SOL     OW24625   6.457   3.522   1.869
 7909SOL    HW124626   6.456   3.500   1.771
 7909SOL    HW224627   6.465   3.621   1.881
 7910SOL     OW24628   1.473   4.083   4.941
 7910SOL    HW124629   1.398   4.087   4.874
 7910SOL    HW224630   1.474   4.169   4.993
 7911SOL     OW24631   5.973   3.892   5.533
 7911SOL    HW124632   5.887   3.933   5.565
 7911SOL    HW224633   6.048   3.957   5.545
 7912SOL     OW24634   5.454   6.059   1.457
 7912SOL    HW124635   5.444   5.972   1.504
 7912SOL    HW224636   5.539   6.060   1.404
 7913SOL     OW24637   1.365   5.008   6.186
 7913SOL    HW124638   1.282   5.009   6.242
 7913SOL    HW224639   1.436   4.955   6.233
 7914SOL     OW24640   1.110   6.885   4.736
 7914SOL    HW124641   1.149   6.972   4.708
 7914SOL    HW224642   1.027   6.867   4.683
 7915SOL     OW24643   3.143   5.507   2.012
 7915SOL    HW124644   3.075   5.493   2.084
 7915SOL    HW224645   3.224   5.552   2.051
 7916SOL     OW24646   1.348   0.918   4.266
 7916SOL    HW124647   1.364   1.016   4.280
 7916SOL    HW224648   1.432   0.868   4.288
 7917SOL     OW24649   5.109   2.203   2.621
 7917SOL    HW124650   5.111   2.113   2.577
 7917SOL    HW224651   5.078   2.271   2.555
 7918SOL     OW24652   1.664   2.496   2.337
 7918SOL    HW124653   1.733   2.433   2.372
 7918SOL    HW224654   1.603   2.523   2.412
 7919SOL     OW24655   0.341   6.687   4.959
 7919SOL    HW124656   0.383   6.629   4.889
 7919SOL    HW224657   0.367   6.783   4.943
 7920SOL     OW24658   5.169   6.680   0.805
 7920SOL    HW124659   5.111   6.737   0.863
 7920SOL    HW224660   5.203   6.734   0.728
 7921SOL     OW24661   5.333   3.268   0.897
 7921SOL    HW124662   5.417   3.276   0.949
 7921SOL    HW224663   5.278   3.351   0.909
 7922SOL     OW24664   2.099   6.479   3.574
 7922SOL    HW124665   2.011   6.525   3.559
 7922SOL    HW224666   2.171   6.547   3.581
 7923SOL     OW24667   5.041   6.840   0.970
 7923SOL    HW124668   5.048   6.859   1.068
 7923SOL    HW224669   5.021   6.924   0.921
 7924SOL     OW24670   5.736   5.863   6.832
 7924SOL    HW124671   5.698   5.857   6.740
 7924SOL    HW224672   5.701   5.788   6.888
 7925SOL     OW24673   1.988   4.925   5.994
 7925SOL    HW124674   2.013   4.946   6.088
 7925SOL    HW224675   2.071   4.925   5.937
 7926SOL     OW24676   4.525   5.388   5.856
 7926SOL    HW124677   4.432   5.365   5.885
 7926SOL    HW224678   4.588   5.317   5.889
 7927SOL     OW24679   4.658   0.426   3.316
 7927SOL    HW124680   4.735   0.428   3.252
 7927SOL    HW224681   4.659   0.510   3.371
 7928SOL     OW24682   5.732   1.929   4.285
 7928SOL    HW124683   5.820   1.925   4.238
 7928SOL    HW224684   5.725   1.854   4.350
 7929SOL     OW24685   4.745   3.762   5.367
 7929SOL    HW124686   4.712   3.720   5.283
 7929SOL    HW224687   4.690   3.843   5.389
 7930SOL     OW24688   4.088   5.308   0.628
 7930SOL    HW124689   4.089   5.208   0.625
 7930SOL    HW224690   3.999   5.339   0.662
 7931SOL     OW24691   4.852   0.758   0.666
 7931SOL    HW124692   4.824   0.848   0.634
 7931SOL    HW224693   4.796   0.688   0.620
 7932SOL     OW24694   0.997   3.434   1.127
 7932SOL    HW124695   0.928   3.370   1.161
 7932SOL    HW224696   1.030   3.490   1.203
 7933SOL     OW24697   1.534   1.671   0.713
 7933SOL    HW124698   1.612   1.659   0.651
 7933SOL    HW224699   1.520   1.587   0.765
 7934SOL     OW24700   6.874   5.305   1.078
 7934SOL    HW124701   6.833   5.226   1.123
 7934SOL    HW224702   6.974   5.296   1.079
 7935SOL     OW24703   6.117   3.545   3.461
 7935SOL    HW124704   6.187   3.579   3.524
 7935SOL    HW224705   6.026   3.556   3.502
 7936SOL     OW24706   2.178   6.238   3.442
 7936SOL    HW124707   2.277   6.225   3.451
 7936SOL    HW224708   2.157   6.335   3.456
 7937SOL     OW24709   4.117   1.717   1.283
 7937SOL    HW124710   4.074   1.805   1.306
 7937SOL    HW224711   4.052   1.643   1.298
 7938SOL     OW24712   2.266   6.669   3.658
 7938SOL    HW124713   2.363   6.653   3.676
 7938SOL    HW224714   2.215   6.663   3.744
 7939SOL     OW24715   1.492   0.117   2.628
 7939SOL    HW124716   1.533   0.089   2.541
 7939SOL    HW224717   1.544   0.194   2.666
 7940SOL     OW24718   6.640   1.939   5.413
 7940SOL    HW124719   6.618   2.028   5.373
 7940SOL    HW224720   6.642   1.869   5.341
 7941SOL     OW24721   3.338   0.016   0.709
 7941SOL    HW124722   3.269   0.046   0.643
 7941SOL    HW224723   3.353   0.089   0.776
 7942SOL     OW24724   0.943   3.925   1.124
 7942SOL    HW124725   0.871   3.995   1.131
 7942SOL    HW224726   0.994   3.922   1.210
 7943SOL     OW24727   1.938   5.936   0.366
 7943SOL    HW124728   1.854   5.940   0.419
 7943SOL    HW224729   1.917   5.921   0.270
 7944SOL     OW24730   1.260   1.825   1.057
 7944SOL    HW124731   1.348   1.870   1.074
 7944SOL    HW224732   1.190   1.864   1.116
 7945SOL     OW24733   6.447   3.977   3.240
 7945SOL    HW124734   6.437   3.887   3.283
 7945SOL    HW224735   6.448   4.047   3.311
 7946SOL     OW24736   4.488   1.312   6.124
 7946SOL    HW124737   4.529   1.256   6.052
 7946SOL    HW224738   4.470   1.256   6.205
 7947SOL     OW24739   0.808   3.803   6.470
 7947SOL    HW124740   0.721   3.816   6.518
 7947SOL    HW224741   0.873   3.757   6.531
 7948SOL     OW24742   1.343   5.354   1.411
 7948SOL    HW124743   1.321   5.451   1.420
 7948SOL    HW224744   1.417   5.342   1.345
 7949SOL     OW24745   3.085   5.566   5.422
 7949SOL    HW124746   3.064   5.472   5.448
 7949SOL    HW224747   3.145   5.566   5.342
 7950SOL     OW24748   6.341   3.277   5.670
 7950SOL    HW124749   6.373   3.247   5.760
 7950SOL    HW224750   6.270   3.214   5.637
 7951SOL     OW24751   3.804   0.454   3.035
 7951SOL    HW124752   3.789   0.546   2.998
 7951SOL    HW224753   3.880   0.411   2.986
 7952SOL     OW24754   6.649   3.204   5.363
 7952SOL    HW124755   6.733   3.247   5.329
 7952SOL    HW224756   6.665   3.171   5.456
 7953SOL     OW24757   1.833   6.809   0.631
 7953SOL    HW124758   1.848   6.908   0.623
 7953SOL    HW224759   1.870   6.777   0.718
 7954SOL     OW24760   3.228   2.583   6.999
 7954SOL    HW124761   3.263   2.616   0.065
 7954SOL    HW224762   3.301   2.585   6.931
 7955SOL     OW24763   6.759   0.741   6.660
 7955SOL    HW124764   6.708   0.822   6.633
 7955SOL    HW224765   6.853   0.766   6.682
 7956SOL     OW24766   0.244   0.106   0.754
 7956SOL    HW124767   0.213   0.088   0.848
 7956SOL    HW224768   0.270   0.020   0.711
 7957SOL     OW24769   5.343   1.367   5.454
 7957SOL    HW124770   5.286   1.396   5.378
 7957SOL    HW224771   5.303   1.398   5.540
 7958SOL     OW24772   4.838   2.256   6.658
 7958SOL    HW124773   4.835   2.314   6.739
 7958SOL    HW224774   4.793   2.169   6.678
 7959SOL     OW24775   4.834   2.988   6.819
 7959SOL    HW124776   4.853   3.086   6.823
 7959SOL    HW224777   4.905   2.943   6.766
 7960SOL     OW24778   0.617   1.668   4.794
 7960SOL    HW124779   0.629   1.740   4.726
 7960SOL    HW224780   0.597   1.709   4.883
 7961SOL     OW24781   6.266   0.346   6.674
 7961SOL    HW124782   6.224   0.276   6.617
 7961SOL    HW224783   6.305   0.417   6.616
 7962SOL     OW24784   5.670   6.990   4.983
 7962SOL    HW124785   5.765   7.020   4.995
 7962SOL    HW224786   5.666   6.915   4.918
 7963SOL     OW24787   5.536   6.134   2.730
 7963SOL    HW124788   5.486   6.048   2.739
 7963SOL    HW224789   5.548   6.176   2.820
 7964SOL     OW24790   6.767   3.832   1.717
 7964SOL    HW124791   6.723   3.922   1.722
 7964SOL    HW224792   6.707   3.768   1.668
 7965SOL     OW24793   4.363   1.745   6.416
 7965SOL    HW124794   4.318   1.677   6.357
 7965SOL    HW224795   4.448   1.707   6.452
 7966SOL     OW24796   5.873   3.338   5.066
 7966SOL    HW124797   5.827   3.249   5.059
 7966SOL    HW224798   5.909   3.348   5.159
 7967SOL     OW24799   1.783   4.173   1.717
 7967SOL    HW124800   1.753   4.079   1.699
 7967SOL    HW224801   1.704   4.231   1.734
 7968SOL     OW24802   2.442   2.602   3.679
 7968SOL    HW124803   2.423   2.504   3.677
 7968SOL    HW224804   2.417   2.639   3.769
 7969SOL     OW24805   3.256   4.500   6.746
 7969SOL    HW124806   3.243   4.429   6.677
 7969SOL    HW224807   3.200   4.579   6.724
 7970SOL     OW24808   6.351   2.988   3.030
 7970SOL    HW124809   6.327   2.957   2.939
 7970SOL    HW224810   6.450   2.987   3.041
 7971SOL     OW24811   3.228   0.047   0.021
 7971SOL    HW124812   3.237   0.117   6.971
 7971SOL    HW224813   3.295   0.064   0.093
 7972SOL     OW24814   4.147   3.375   4.704
 7972SOL    HW124815   4.156   3.454   4.764
 7972SOL    HW224816   4.235   3.328   4.698
 7973SOL     OW24817   0.384   5.143   2.103
 7973SOL    HW124818   0.309   5.114   2.043
 7973SOL    HW224819   0.364   5.116   2.197
 7974SOL     OW24820   6.960   2.930   4.703
 7974SOL    HW124821   6.984   3.025   4.723
 7974SOL    HW224822   0.008   2.889   4.644
 7975SOL     OW24823   3.987   0.004   6.709
 7975SOL    HW124824   3.962   6.940   6.754
 7975SOL    HW224825   3.930   0.079   6.744
 7976SOL     OW24826   0.740   0.794   0.442
 7976SOL    HW124827   0.743   0.772   0.539
 7976SOL    HW224828   0.824   0.763   0.398
 7977SOL     OW24829   4.846   5.389   3.146
 7977SOL    HW124830   4.830   5.487   3.162
 7977SOL    HW224831   4.813   5.365   3.055
 7978SOL     OW24832   0.195   4.009   1.056
 7978SOL    HW124833   0.238   4.001   0.966
 7978SOL    HW224834   0.265   4.030   1.124
 7979SOL     OW24835   3.129   2.446   5.694
 7979SOL    HW124836   3.067   2.499   5.637
 7979SOL    HW224837   3.124   2.349   5.668
 7980SOL     OW24838   3.766   6.078   2.539
 7980SOL    HW124839   3.769   6.132   2.622
 7980SOL    HW224840   3.773   5.981   2.562
 7981SOL     OW24841   1.407   3.208   5.037
 7981SOL    HW124842   1.312   3.234   5.057
 7981SOL    HW224843   1.416   3.185   4.940
 7982SOL     OW24844   6.834   6.890   0.589
 7982SOL    HW124845   6.911   6.950   0.611
 7982SOL    HW224846   6.755   6.946   0.564
 7983SOL     OW24847   3.543   1.462   1.351
 7983SOL    HW124848   3.619   1.443   1.289
 7983SOL    HW224849   3.458   1.423   1.314
 7984SOL     OW24850   6.248   2.866   2.802
 7984SOL    HW124851   6.153   2.886   2.780
 7984SOL    HW224852   6.254   2.774   2.841
 7985SOL     OW24853   3.196   3.589   5.790
 7985SOL    HW124854   3.208   3.498   5.829
 7985SOL    HW224855   3.164   3.652   5.861
 7986SOL     OW24856   3.080   1.014   3.888
 7986SOL    HW124857   3.139   0.943   3.850
 7986SOL    HW224858   3.056   1.079   3.816
 7987SOL     OW24859   1.724   2.933   5.740
 7987SOL    HW124860   1.701   3.024   5.774
 7987SOL    HW224861   1.804   2.939   5.680
 7988SOL     OW24862   6.522   0.671   1.341
 7988SOL    HW124863   6.529   0.748   1.277
 7988SOL    HW224864   6.498   0.589   1.290
 7989SOL     OW24865   0.686   4.579   1.347
 7989SOL    HW124866   0.749   4.588   1.270
 7989SOL    HW224867   0.640   4.666   1.364
 7990SOL     OW24868   4.254   5.268   5.204
 7990SOL    HW124869   4.178   5.206   5.223
 7990SOL    HW224870   4.340   5.226   5.234
 7991SOL     OW24871   5.296   0.971   4.409
 7991SOL    HW124872   5.264   0.909   4.479
 7991SOL    HW224873   5.306   1.063   4.447
 7992SOL     OW24874   1.986   0.540   6.925
 7992SOL    HW124875   1.964   0.442   6.921
 7992SOL    HW224876   1.951   0.586   6.844
 7993SOL     OW24877   6.374   6.380   1.123
 7993SOL    HW124878   6.325   6.323   1.058
 7993SOL    HW224879   6.465   6.403   1.087
 7994SOL     OW24880   0.798   1.790   4.558
 7994SOL    HW124881   0.892   1.767   4.579
 7994SOL    HW224882   0.755   1.714   4.509
 7995SOL     OW24883   0.481   6.620   1.779
 7995SOL    HW124884   0.384   6.597   1.774
 7995SOL    HW224885   0.531   6.570   1.707
 7996SOL     OW24886   2.081   6.602   3.918
 7996SOL    HW124887   2.007   6.546   3.880
 7996SOL    HW224888   2.133   6.548   3.984
 7997SOL     OW24889   2.681   0.994   5.761
 7997SOL    HW124890   2.654   0.923   5.697
 7997SOL    HW224891   2.693   0.955   5.852
 7998SOL     OW24892   2.053   0.827   1.213
 7998SOL    HW124893   2.097   0.739   1.196
 7998SOL    HW224894   2.121   0.900   1.209
 7999SOL     OW24895   0.181   1.137   2.535
 7999SOL    HW124896   0.122   1.163   2.612
 7999SOL    HW224897   0.274   1.122   2.569
 8000SOL     OW24898   4.822   5.542   0.809
 8000SOL    HW124899   4.818   5.518   0.906
 8000SOL    HW224900   4.729   5.549   0.772
 8001SOL     OW24901   5.216   4.329   2.180
 8001SOL    HW124902   5.142   4.319   2.247
 8001SOL    HW224903   5.267   4.412   2.199
 8002SOL     OW24904   1.089   0.870   4.646
 8002SOL    HW124905   1.067   0.828   4.734
 8002SOL    HW224906   1.117   0.965   4.661
 8003SOL     OW24907   2.684   5.674   3.011
 8003SOL    HW124908   2.770   5.641   2.971
 8003SOL    HW224909   2.633   5.726   2.942
 8004SOL     OW24910   2.044   3.744   3.962
 8004SOL    HW124911   2.030   3.831   4.008
 8004SOL    HW224912   1.964   3.686   3.975
 8005SOL     OW24913   3.079   0.452   4.600
 8005SOL    HW124914   2.983   0.433   4.580
 8005SOL    HW224915   3.102   0.417   4.691
 8006SOL     OW24916   4.716   5.017   6.229
 8006SOL    HW124917   4.815   5.015   6.235
 8006SOL    HW224918   4.683   4.936   6.181
 8007SOL     OW24919   0.258   0.856   1.271
 8007SOL    HW124920   0.244   0.771   1.323
 8007SOL    HW224921   0.263   0.933   1.335
 8008SOL     OW24922   5.390   5.131   0.827
 8008SOL    HW124923   5.365   5.201   0.893
 8008SOL    HW224924   5.485   5.145   0.799
 8009SOL     OW24925   6.250   0.974   1.250
 8009SOL    HW124926   6.246   1.067   1.287
 8009SOL    HW224927   6.170   0.958   1.192
 8010SOL     OW24928   2.719   0.028   6.502
 8010SOL    HW124929   2.621   0.042   6.519
 8010SOL    HW224930   2.772   0.076   6.573
 8011SOL     OW24931   3.732   2.078   2.595
 8011SOL    HW124932   3.811   2.133   2.622
 8011SOL    HW224933   3.678   2.128   2.528
 8012SOL     OW24934   6.483   0.543   5.222
 8012SOL    HW124935   6.550   0.576   5.155
 8012SOL    HW224936   6.495   0.593   5.308
 8013SOL     OW24937   3.797   0.671   3.256
 8013SOL    HW124938   3.773   0.624   3.341
 8013SOL    HW224939   3.891   0.647   3.230
 8014SOL     OW24940   2.268   2.880   3.264
 8014SOL    HW124941   2.325   2.867   3.345
 8014SOL    HW224942   2.185   2.824   3.272
 8015SOL     OW24943   3.640   6.200   4.852
 8015SOL    HW124944   3.649   6.102   4.836
 8015SOL    HW224945   3.543   6.224   4.860
 8016SOL     OW24946   3.062   2.934   5.248
 8016SOL    HW124947   3.161   2.943   5.253
 8016SOL    HW224948   3.024   3.013   5.200
 8017SOL     OW24949   5.539   6.650   1.816
 8017SOL    HW124950   5.620   6.632   1.871
 8017SOL    HW224951   5.457   6.628   1.869
 8018SOL     OW24952   2.827   3.039   0.751
 8018SOL    HW124953   2.853   3.104   0.822
 8018SOL    HW224954   2.740   3.067   0.711
 8019SOL     OW24955   2.651   3.609   1.080
 8019SOL    HW124956   2.750   3.624   1.087
 8019SOL    HW224957   2.609   3.689   1.036
 8020SOL     OW24958   0.575   0.227   0.412
 8020SOL    HW124959   0.523   0.267   0.487
 8020SOL    HW224960   0.588   0.129   0.429
 8021SOL     OW24961   0.829   2.651   0.695
 8021SOL    HW124962   0.870   2.577   0.749
 8021SOL    HW224963   0.863   2.739   0.728
 8022SOL     OW24964   4.136   0.607   2.577
 8022SOL    HW124965   4.064   0.544   2.606
 8022SOL    HW224966   4.224   0.560   2.582
 8023SOL     OW24967   3.732   4.914   2.059
 8023SOL    HW124968   3.662   4.905   2.130
 8023SOL    HW224969   3.702   4.865   1.977
 8024SOL     OW24970   2.465   0.811   5.961
 8024SOL    HW124971   2.404   0.794   6.038
 8024SOL    HW224972   2.523   0.890   5.980
 8025SOL     OW24973   1.270   6.638   1.167
 8025SOL    HW124974   1.249   6.693   1.086
 8025SOL    HW224975   1.193   6.639   1.230
 8026SOL     OW24976   0.624   6.769   5.761
 8026SOL    HW124977   0.629   6.704   5.684
 8026SOL    HW224978   0.545   6.829   5.748
 8027SOL     OW24979   4.545   6.938   6.392
 8027SOL    HW124980   4.468   6.985   6.435
 8027SOL    HW224981   4.605   7.005   6.347
 8028SOL     OW24982   4.252   5.803   6.363
 8028SOL    HW124983   4.188   5.727   6.352
 8028SOL    HW224984   4.202   5.888   6.380
 8029SOL     OW24985   1.236   6.961   1.715
 8029SOL    HW124986   1.164   6.906   1.672
 8029SOL    HW224987   1.206   0.035   1.721
 8030SOL     OW24988   0.508   3.809   1.071
 8030SOL    HW124989   0.484   3.713   1.087
 8030SOL    HW224990   0.484   3.863   1.152
 8031SOL     OW24991   6.855   0.674   3.539
 8031SOL    HW124992   6.784   0.696   3.472
 8031SOL    HW224993   6.940   0.652   3.492
 8032SOL     OW24994   0.298   3.086   1.248
 8032SOL    HW124995   0.356   3.010   1.278
 8032SOL    HW224996   0.224   3.051   1.190
 8033SOL     OW24997   4.015   5.059   1.192
 8033SOL    HW124998   4.091   5.124   1.193
 8033SOL    HW224999   4.011   5.015   1.102
 8034SOL     OW25000   1.328   1.377   5.375
 8034SOL    HW125001   1.248   1.414   5.422
 8034SOL    HW225002   1.302   1.351   5.282
 8035SOL     OW25003   5.659   0.721   4.845
 8035SOL    HW125004   5.602   0.789   4.800
 8035SOL    HW225005   5.718   0.677   4.778
 8036SOL     OW25006   4.855   4.506   4.109
 8036SOL    HW125007   4.934   4.528   4.167
 8036SOL    HW225008   4.798   4.438   4.156
 8037SOL     OW25009   2.701   1.581   6.549
 8037SOL    HW125010   2.795   1.592   6.520
 8037SOL    HW225011   2.650   1.530   6.480
 8038SOL     OW25012   6.656   5.298   1.886
 8038SOL    HW125013   6.634   5.370   1.820
 8038SOL    HW225014   6.706   5.224   1.840
 8039SOL     OW25015   2.043   2.737   5.005
 8039SOL    HW125016   2.132   2.692   5.005
 8039SOL    HW225017   1.994   2.714   5.089
 8040SOL     OW25018   0.868   6.536   5.760
 8040SOL    HW125019   0.865   6.550   5.661
 8040SOL    HW225020   0.778   6.552   5.799
 8041SOL     OW25021   3.199   1.794   2.703
 8041SOL    HW125022   3.270   1.857   2.734
 8041SOL    HW225023   3.157   1.828   2.619
 8042SOL     OW25024   4.207   4.136   6.235
 8042SOL    HW125025   4.169   4.043   6.229
 8042SOL    HW225026   4.134   4.203   6.223
 8043SOL     OW25027   5.480   5.102   6.941
 8043SOL    HW125028   5.485   5.153   6.856
 8043SOL    HW225029   5.572   5.073   6.968
 8044SOL     OW25030   1.152   2.976   1.348
 8044SOL    HW125031   1.091   3.045   1.387
 8044SOL    HW225032   1.241   3.017   1.330
 8045SOL     OW25033   6.054   3.465   4.894
 8045SOL    HW125034   6.002   3.430   4.971
 8045SOL    HW225035   6.113   3.540   4.924
 8046SOL     OW25036   0.348   4.246   0.721
 8046SOL    HW125037   0.343   4.275   0.626
 8046SOL    HW225038   0.348   4.146   0.725
 8047SOL     OW25039   3.468   6.217   6.623
 8047SOL    HW125040   3.472   6.219   6.723
 8047SOL    HW225041   3.541   6.158   6.588
 8048SOL     OW25042   4.311   1.992   6.331
 8048SOL    HW125043   4.216   1.980   6.303
 8048SOL    HW225044   4.344   1.908   6.374
 8049SOL     OW25045   2.016   1.319   1.201
 8049SOL    HW125046   2.093   1.275   1.154
 8049SOL    HW225047   1.930   1.277   1.171
 8050SOL     OW25048   0.347   5.436   5.917
 8050SOL    HW125049   0.384   5.347   5.944
 8050SOL    HW225050   0.357   5.501   5.992
 8051SOL     OW25051   4.243   6.508   3.032
 8051SOL    HW125052   4.236   6.555   3.120
 8051SOL    HW225053   4.282   6.569   2.963
 8052SOL     OW25054   2.579   1.374   3.080
 8052SOL    HW125055   2.613   1.318   3.156
 8052SOL    HW225056   2.506   1.434   3.113
 8053SOL     OW25057   1.337   1.975   6.653
 8053SOL    HW125058   1.379   1.934   6.572
 8053SOL    HW225059   1.408   2.008   6.715
 8054SOL     OW25060   5.157   3.571   5.055
 8054SOL    HW125061   5.239   3.629   5.049
 8054SOL    HW225062   5.119   3.558   4.963
 8055SOL     OW25063   6.846   0.166   6.557
 8055SOL    HW125064   6.911   0.222   6.505
 8055SOL    HW225065   6.800   0.103   6.495
 8056SOL     OW25066   2.239   2.443   3.012
 8056SOL    HW125067   2.259   2.538   3.038
 8056SOL    HW225068   2.234   2.437   2.912
 8057SOL     OW25069   3.328   2.088   1.845
 8057SOL    HW125070   3.274   2.116   1.766
 8057SOL    HW225071   3.426   2.099   1.825
 8058SOL     OW25072   3.812   6.296   1.641
 8058SOL    HW125073   3.745   6.289   1.715
 8058SOL    HW225074   3.904   6.295   1.680
 8059SOL     OW25075   4.421   3.730   5.641
 8059SOL    HW125076   4.339   3.732   5.698
 8059SOL    HW225077   4.497   3.770   5.692
 8060SOL     OW25078   0.334   1.441   5.377
 8060SOL    HW125079   0.401   1.477   5.312
 8060SOL    HW225080   0.374   1.366   5.429
 8061SOL     OW25081   6.940   0.951   1.222
 8061SOL    HW125082   6.960   0.865   1.269
 8061SOL    HW225083   6.966   1.027   1.281
 8062SOL     OW25084   4.107   4.708   6.387
 8062SOL    HW125085   4.108   4.764   6.470
 8062SOL    HW225086   4.142   4.617   6.409
 8063SOL     OW25087   2.303   4.756   2.981
 8063SOL    HW125088   2.308   4.662   2.946
 8063SOL    HW225089   2.380   4.773   3.043
 8064SOL     OW25090   0.104   2.920   0.512
 8064SOL    HW125091   0.082   2.982   0.588
 8064SOL    HW225092   0.113   2.827   0.546
 8065SOL     OW25093   4.633   0.270   6.597
 8065SOL    HW125094   4.653   0.363   6.626
 8065SOL    HW225095   4.569   0.228   6.661
 8066SOL     OW25096   6.689   0.890   6.089
 8066SOL    HW125097   6.721   0.796   6.083
 8066SOL    HW225098   6.612   0.903   6.026
 8067SOL     OW25099   5.100   0.912   4.154
 8067SOL    HW125100   5.044   0.967   4.092
 8067SOL    HW225101   5.179   0.966   4.184
 8068SOL     OW25102   6.932   4.622   1.297
 8068SOL    HW125103   6.861   4.692   1.299
 8068SOL    HW225104   6.953   4.593   1.390
 8069SOL     OW25105   1.258   2.460   2.130
 8069SOL    HW125106   1.346   2.434   2.169
 8069SOL    HW225107   1.272   2.503   2.040
 8070SOL     OW25108   5.253   4.154   1.814
 8070SOL    HW125109   5.231   4.072   1.867
 8070SOL    HW225110   5.346   4.148   1.780
 8071SOL     OW25111   2.208   0.357   5.956
 8071SOL    HW125112   2.232   0.360   6.053
 8071SOL    HW225113   2.228   0.266   5.919
 8072SOL     OW25114   2.418   2.515   5.698
 8072SOL    HW125115   2.378   2.423   5.698
 8072SOL    HW225116   2.374   2.571   5.628
 8073SOL     OW25117   5.656   6.888   6.429
 8073SOL    HW125118   5.685   6.807   6.378
 8073SOL    HW225119   5.642   6.864   6.525
 8074SOL     OW25120   6.481   0.872   1.163
 8074SOL    HW125121   6.402   0.914   1.207
 8074SOL    HW225122   6.464   0.861   1.065
 8075SOL     OW25123   0.446   0.733   1.071
 8075SOL    HW125124   0.369   0.770   1.123
 8075SOL    HW225125   0.529   0.737   1.126
 8076SOL     OW25126   6.948   5.625   0.462
 8076SOL    HW125127   6.909   5.715   0.443
 8076SOL    HW225128   6.942   5.606   0.560
 8077SOL     OW25129   6.263   3.972   1.310
 8077SOL    HW125130   6.262   3.918   1.395
 8077SOL    HW225131   6.248   4.069   1.332
 8078SOL     OW25132   6.147   1.857   1.665
 8078SOL    HW125133   6.208   1.831   1.590
 8078SOL    HW225134   6.174   1.808   1.748
 8079SOL     OW25135   0.189   0.946   6.688
 8079SOL    HW125136   0.254   0.959   6.613
 8079SOL    HW225137   0.097   0.973   6.657
 8080SOL     OW25138   0.530   3.658   3.869
 8080SOL    HW125139   0.500   3.719   3.795
 8080SOL    HW225140   0.522   3.563   3.839
 8081SOL     OW25141   6.195   0.731   5.667
 8081SOL    HW125142   6.162   0.653   5.613
 8081SOL    HW225143   6.149   0.732   5.755
 8082SOL     OW25144   5.106   2.313   4.873
 8082SOL    HW125145   5.126   2.395   4.927
 8082SOL    HW225146   5.088   2.236   4.933
 8083SOL     OW25147   6.757   3.001   4.349
 8083SOL    HW125148   6.759   2.908   4.312
 8083SOL    HW225149   6.728   3.065   4.277
 8084SOL     OW25150   5.360   1.705   0.075
 8084SOL    HW125151   5.358   1.666   7.004
 8084SOL    HW225152   5.347   1.804   0.069
 8085SOL     OW25153   1.728   6.380   4.536
 8085SOL    HW125154   1.693   6.365   4.443
 8085SOL    HW225155   1.679   6.456   4.578
 8086SOL     OW25156   0.367   2.710   2.276
 8086SOL    HW125157   0.397   2.721   2.370
 8086SOL    HW225158   0.422   2.767   2.216
 8087SOL     OW25159   6.552   0.541   6.315
 8087SOL    HW125160   6.614   0.484   6.262
 8087SOL    HW225161   6.461   0.539   6.274
 8088SOL     OW25162   0.069   6.978   5.251
 8088SOL    HW125163   6.995   7.005   5.271
 8088SOL    HW225164   0.101   0.005   5.170
 8089SOL     OW25165   6.400   1.249   0.175
 8089SOL    HW125166   6.484   1.201   0.203
 8089SOL    HW225167   6.424   1.335   0.130
 8090SOL     OW25168   4.774   2.068   4.726
 8090SOL    HW125169   4.770   2.164   4.752
 8090SOL    HW225170   4.869   2.044   4.704
 8091SOL     OW25171   0.744   3.605   4.882
 8091SOL    HW125172   0.691   3.637   4.960
 8091SOL    HW225173   0.732   3.506   4.872
 8092SOL     OW25174   4.748   7.013   5.616
 8092SOL    HW125175   4.754   0.091   5.600
 8092SOL    HW225176   4.836   6.971   5.595
 8093SOL     OW25177   3.405   0.042   3.472
 8093SOL    HW125178   3.449   0.132   3.481
 8093SOL    HW225179   3.327   0.037   3.535
 8094SOL     OW25180   1.801   4.416   3.861
 8094SOL    HW125181   1.792   4.373   3.771
 8094SOL    HW225182   1.890   4.461   3.867
 8095SOL     OW25183   1.146   5.620   4.493
 8095SOL    HW125184   1.095   5.622   4.407
 8095SOL    HW225185   1.226   5.562   4.482
 8096SOL     OW25186   0.699   4.823   0.925
 8096SOL    HW125187   0.711   4.774   1.011
 8096SOL    HW225188   0.783   4.874   0.904
 8097SOL     OW25189   4.706   6.597   0.668
 8097SOL    HW125190   4.607   6.608   0.671
 8097SOL    HW225191   4.736   6.593   0.573
 8098SOL     OW25192   2.703   6.387   4.693
 8098SOL    HW125193   2.776   6.446   4.658
 8098SOL    HW225194   2.617   6.438   4.696
 8099SOL     OW25195   2.077   3.680   2.663
 8099SOL    HW125196   2.063   3.586   2.692
 8099SOL    HW225197   2.102   3.682   2.567
 8100SOL     OW25198   6.983   6.649   0.541
 8100SOL    HW125199   0.039   6.616   0.486
 8100SOL    HW225200   6.966   6.746   0.522
 8101SOL     OW25201   2.356   4.903   0.060
 8101SOL    HW125202   2.345   4.997   0.029
 8101SOL    HW225203   2.345   4.898   0.159
 8102SOL     OW25204   1.365   4.418   3.833
 8102SOL    HW125205   1.386   4.508   3.871
 8102SOL    HW225206   1.429   4.351   3.870
 8103SOL     OW25207   4.312   0.547   1.446
 8103SOL    HW125208   4.364   0.536   1.530
 8103SOL    HW225209   4.217   0.567   1.468
 8104SOL     OW25210   0.823   6.270   6.988
 8104SOL    HW125211   0.768   6.342   0.007
 8104SOL    HW225212   0.767   6.188   6.974
 8105SOL     OW25213   6.748   6.875   2.698
 8105SOL    HW125214   6.846   6.895   2.693
 8105SOL    HW225215   6.697   6.960   2.689
 8106SOL     OW25216   3.131   6.056   6.571
 8106SOL    HW125217   3.107   6.125   6.503
 8106SOL    HW225218   3.219   6.016   6.547
 8107SOL     OW25219   1.020   6.461   0.363
 8107SOL    HW125220   0.940   6.518   0.342
 8107SOL    HW225221   0.989   6.372   0.397
 8108SOL     OW25222   1.820   1.134   0.912
 8108SOL    HW125223   1.798   1.176   1.000
 8108SOL    HW225224   1.826   1.035   0.923
 8109SOL     OW25225   0.358   3.988   2.304
 8109SOL    HW125226   0.386   3.920   2.372
 8109SOL    HW225227   0.366   3.949   2.212
 8110SOL     OW25228   4.424   4.297   0.075
 8110SOL    HW125229   4.389   4.245   0.153
 8110SOL    HW225230   4.501   4.249   0.034
 8111SOL     OW25231   5.656   2.040   2.372
 8111SOL    HW125232   5.629   2.127   2.414
 8111SOL    HW225233   5.612   1.964   2.420
 8112SOL     OW25234   2.195   4.803   6.596
 8112SOL    HW125235   2.100   4.796   6.565
 8112SOL    HW225236   2.245   4.721   6.568
 8113SOL     OW25237   5.647   5.029   6.474
 8113SOL    HW125238   5.555   4.995   6.454
 8113SOL    HW225239   5.661   5.029   6.573
 8114SOL     OW25240   1.969   3.418   2.752
 8114SOL    HW125241   2.027   3.336   2.751
 8114SOL    HW225242   1.962   3.452   2.846
 8115SOL     OW25243   2.435   1.746   6.021
 8115SOL    HW125244   2.514   1.805   6.002
 8115SOL    HW225245   2.463   1.650   6.018
 8116SOL     OW25246   4.014   3.087   2.290
 8116SOL    HW125247   3.939   3.021   2.298
 8116SOL    HW225248   4.008   3.133   2.201
 8117SOL     OW25249   0.975   0.256   4.072
 8117SOL    HW125250   0.932   0.316   4.139
 8117SOL    HW225251   0.914   0.179   4.054
 8118SOL     OW25252   6.763   2.213   6.490
 8118SOL    HW125253   6.739   2.234   6.585
 8118SOL    HW225254   6.859   2.234   6.474
 8119SOL     OW25255   5.395   4.899   6.405
 8119SOL    HW125256   5.435   4.809   6.385
 8119SOL    HW225257   5.304   4.887   6.445
 8120SOL     OW25258   1.808   6.553   2.286
 8120SOL    HW125259   1.762   6.488   2.345
 8120SOL    HW225260   1.813   6.517   2.193
 8121SOL     OW25261   1.717   2.504   2.728
 8121SOL    HW125262   1.654   2.548   2.792
 8121SOL    HW225263   1.771   2.574   2.681
 8122SOL     OW25264   0.986   4.816   1.487
 8122SOL    HW125265   0.933   4.896   1.513
 8122SOL    HW225266   0.957   4.737   1.541
 8123SOL     OW25267   6.749   1.709   6.238
 8123SOL    HW125268   6.813   1.765   6.290
 8123SOL    HW225269   6.720   1.631   6.293
 8124SOL     OW25270   6.465   5.801   5.284
 8124SOL    HW125271   6.497   5.707   5.294
 8124SOL    HW225272   6.474   5.849   5.372
 8125SOL     OW25273   0.778   6.262   2.212
 8125SOL    HW125274   0.802   6.297   2.303
 8125SOL    HW225275   0.852   6.282   2.148
 8126SOL     OW25276   3.674   5.601   4.532
 8126SOL    HW125277   3.711   5.535   4.467
 8126SOL    HW225278   3.593   5.643   4.494
 8127SOL     OW25279   4.165   1.273   6.081
 8127SOL    HW125280   4.261   1.273   6.108
 8127SOL    HW225281   4.112   1.329   6.145
 8128SOL     OW25282   3.204   3.423   1.184
 8128SOL    HW125283   3.133   3.353   1.191
 8128SOL    HW225284   3.268   3.399   1.110
 8129SOL     OW25285   6.908   2.616   3.406
 8129SOL    HW125286   6.811   2.591   3.413
 8129SOL    HW225287   6.933   2.623   3.309
 8130SOL     OW25288   0.019   6.596   0.145
 8130SOL    HW125289   0.070   6.623   0.226
 8130SOL    HW225290   6.959   6.654   0.135
 8131SOL     OW25291   1.891   2.599   0.801
 8131SOL    HW125292   1.986   2.593   0.771
 8131SOL    HW225293   1.854   2.506   0.812
 8132SOL     OW25294   6.467   1.736   4.504
 8132SOL    HW125295   6.421   1.682   4.433
 8132SOL    HW225296   6.426   1.827   4.508
 8133SOL     OW25297   3.745   5.229   1.551
 8133SOL    HW125298   3.799   5.168   1.609
 8133SOL    HW225299   3.739   5.190   1.459
 8134SOL     OW25300   5.682   1.760   6.465
 8134SOL    HW125301   5.726   1.766   6.554
 8134SOL    HW225302   5.744   1.716   6.400
 8135SOL     OW25303   2.527   6.053   1.700
 8135SOL    HW125304   2.528   5.967   1.752
 8135SOL    HW225305   2.613   6.102   1.714
 8136SOL     OW25306   4.516   5.056   2.499
 8136SOL    HW125307   4.517   5.152   2.471
 8136SOL    HW225308   4.561   5.047   2.588
 8137SOL     OW25309   4.470   0.786   5.917
 8137SOL    HW125310   4.532   0.818   5.845
 8137SOL    HW225311   4.444   0.691   5.898
 8138SOL     OW25312   5.736   0.841   2.195
 8138SOL    HW125313   5.725   0.894   2.111
 8138SOL    HW225314   5.686   0.755   2.187
 8139SOL     OW25315   0.476   1.194   4.599
 8139SOL    HW125316   0.575   1.208   4.600
 8139SOL    HW225317   0.436   1.244   4.523
 8140SOL     OW25318   5.084   2.796   3.197
 8140SOL    HW125319   5.152   2.750   3.140
 8140SOL    HW225320   4.993   2.783   3.158
 8141SOL     OW25321   5.872   3.952   3.794
 8141SOL    HW125322   5.947   3.888   3.809
 8141SOL    HW225323   5.796   3.904   3.749
 8142SOL     OW25324   0.494   6.131   0.607
 8142SOL    HW125325   0.514   6.087   0.520
 8142SOL    HW225326   0.405   6.100   0.641
 8143SOL     OW25327   6.474   2.765   5.812
 8143SOL    HW125328   6.536   2.686   5.811
 8143SOL    HW225329   6.483   2.814   5.899
 8144SOL     OW25330   4.882   5.797   0.068
 8144SOL    HW125331   4.867   5.760   6.997
 8144SOL    HW225332   4.809   5.861   0.091
 8145SOL     OW25333   4.694   6.249   4.240
 8145SOL    HW125334   4.644   6.237   4.326
 8145SOL    HW225335   4.631   6.277   4.168
 8146SOL     OW25336   3.641   1.574   3.502
 8146SOL    HW125337   3.667   1.655   3.449
 8146SOL    HW225338   3.592   1.510   3.443
 8147SOL     OW25339   4.834   1.511   3.322
 8147SOL    HW125340   4.875   1.581   3.263
 8147SOL    HW225341   4.901   1.439   3.338
 8148SOL     OW25342   6.920   3.975   3.159
 8148SOL    HW125343   6.882   3.899   3.211
 8148SOL    HW225344   6.966   3.940   3.077
 8149SOL     OW25345   4.118   5.447   4.164
 8149SOL    HW125346   4.211   5.466   4.133
 8149SOL    HW225347   4.054   5.457   4.087
 8150SOL     OW25348   1.071   6.368   1.496
 8150SOL    HW125349   1.089   6.273   1.523
 8150SOL    HW225350   1.158   6.417   1.490
 8151SOL     OW25351   0.472   1.916   4.629
 8151SOL    HW125352   0.475   1.887   4.533
 8151SOL    HW225353   0.422   1.848   4.683
 8152SOL     OW25354   1.066   0.401   3.652
 8152SOL    HW125355   0.988   0.342   3.671
 8152SOL    HW225356   1.089   0.453   3.735
 8153SOL     OW25357   2.344   6.389   0.537
 8153SOL    HW125358   2.387   6.375   0.448
 8153SOL    HW225359   2.269   6.455   0.528
 8154SOL     OW25360   1.741   6.138   3.531
 8154SOL    HW125361   1.759   6.176   3.621
 8154SOL    HW225362   1.818   6.082   3.501
 8155SOL     OW25363   3.314   3.686   4.917
 8155SOL    HW125364   3.334   3.712   5.011
 8155SOL    HW225365   3.389   3.716   4.857
 8156SOL     OW25366   0.267   6.775   5.238
 8156SOL    HW125367   0.302   6.769   5.144
 8156SOL    HW225368   0.186   6.833   5.239
 8157SOL     OW25369   5.666   2.166   6.652
 8157SOL    HW125370   5.686   2.231   6.726
 8157SOL    HW225371   5.576   2.125   6.666
 8158SOL     OW25372   1.582   5.554   2.750
 8158SOL    HW125373   1.636   5.566   2.666
 8158SOL    HW225374   1.509   5.622   2.753
 8159SOL     OW25375   0.416   5.905   0.186
 8159SOL    HW125376   0.373   5.921   0.275
 8159SOL    HW225377   0.349   5.870   0.122
 8160SOL     OW25378   4.906   1.983   1.656
 8160SOL    HW125379   4.837   2.025   1.715
 8160SOL    HW225380   4.887   2.005   1.561
 8161SOL     OW25381   3.836   3.229   1.579
 8161SOL    HW125382   3.756   3.206   1.634
 8161SOL    HW225383   3.894   3.148   1.569
 8162SOL     OW25384   6.271   1.152   2.396
 8162SOL    HW125385   6.212   1.141   2.316
 8162SOL    HW225386   6.345   1.215   2.373
 8163SOL     OW25387   2.333   2.752   5.608
 8163SOL    HW125388   2.358   2.779   5.516
 8163SOL    HW225389   2.406   2.778   5.672
 8164SOL     OW25390   5.138   3.856   1.677
 8164SOL    HW125391   5.176   3.770   1.641
 8164SOL    HW225392   5.189   3.882   1.759
 8165SOL     OW25393   1.660   3.921   1.646
 8165SOL    HW125394   1.715   3.872   1.715
 8165SOL    HW225395   1.632   3.857   1.574
 8166SOL     OW25396   3.124   6.668   1.541
 8166SOL    HW125397   3.103   6.574   1.565
 8166SOL    HW225398   3.051   6.728   1.575
 8167SOL     OW25399   5.709   2.896   4.841
 8167SOL    HW125400   5.752   2.846   4.766
 8167SOL    HW225401   5.610   2.876   4.841
 8168SOL     OW25402   2.860   1.738   2.870
 8168SOL    HW125403   2.940   1.759   2.926
 8168SOL    HW225404   2.807   1.822   2.855
 8169SOL     OW25405   5.335   3.975   5.131
 8169SOL    HW125406   5.341   3.907   5.059
 8169SOL    HW225407   5.279   3.940   5.206
 8170SOL     OW25408   1.520   5.410   3.737
 8170SOL    HW125409   1.540   5.326   3.788
 8170SOL    HW225410   1.591   5.426   3.669
 8171SOL     OW25411   1.896   0.777   0.047
 8171SOL    HW125412   1.889   0.693   7.015
 8171SOL    HW225413   1.848   0.851   7.020
 8172SOL     OW25414   0.339   6.589   2.045
 8172SOL    HW125415   0.409   6.652   2.012
 8172SOL    HW225416   0.383   6.505   2.078
 8173SOL     OW25417   6.738   2.883   0.500
 8173SOL    HW125418   6.674   2.959   0.507
 8173SOL    HW225419   6.818   2.913   0.446
 8174SOL     OW25420   4.796   6.580   2.448
 8174SOL    HW125421   4.747   6.648   2.393
 8174SOL    HW225422   4.845   6.517   2.387
 8175SOL     OW25423   1.539   2.870   3.739
 8175SOL    HW125424   1.623   2.921   3.718
 8175SOL    HW225425   1.551   2.819   3.824
 8176SOL     OW25426   4.105   5.563   3.678
 8176SOL    HW125427   4.167   5.528   3.608
 8176SOL    HW225428   4.094   5.662   3.668
 8177SOL     OW25429   1.581   6.372   6.561
 8177SOL    HW125430   1.506   6.433   6.588
 8177SOL    HW225431   1.616   6.325   6.642
 8178SOL     OW25432   2.024   6.584   6.513
 8178SOL    HW125433   2.000   6.543   6.601
 8178SOL    HW225434   2.123   6.577   6.499
 8179SOL     OW25435   3.890   0.552   6.819
 8179SOL    HW125436   3.839   0.534   6.734
 8179SOL    HW225437   3.826   0.579   6.891
 8180SOL     OW25438   5.081   4.841   4.860
 8180SOL    HW125439   5.091   4.911   4.788
 8180SOL    HW225440   5.128   4.872   4.943
 8181SOL     OW25441   2.569   2.018   1.951
 8181SOL    HW125442   2.618   1.939   1.988
 8181SOL    HW225443   2.634   2.088   1.924
 8182SOL     OW25444   5.451   2.536   5.371
 8182SOL    HW125445   5.459   2.584   5.459
 8182SOL    HW225446   5.388   2.459   5.381
 8183SOL     OW25447   2.043   3.262   3.247
 8183SOL    HW125448   2.044   3.271   3.347
 8183SOL    HW225449   2.137   3.270   3.212
 8184SOL     OW25450   5.974   6.221   4.335
 8184SOL    HW125451   5.944   6.306   4.378
 8184SOL    HW225452   6.065   6.233   4.296
 8185SOL     OW25453   0.961   1.970   3.653
 8185SOL    HW125454   0.874   2.006   3.686
 8185SOL    HW225455   0.949   1.935   3.560
 8186SOL     OW25456   4.375   3.857   6.981
 8186SOL    HW125457   4.440   3.806   6.925
 8186SOL    HW225458   4.424   3.917   0.023
 8187SOL     OW25459   2.324   1.156   6.151
 8187SOL    HW125460   2.286   1.231   6.205
 8187SOL    HW225461   2.409   1.124   6.192
 8188SOL     OW25462   5.057   3.044   2.707
 8188SOL    HW125463   4.989   3.013   2.640
 8188SOL    HW225464   5.147   3.046   2.663
 8189SOL     OW25465   6.522   5.174   3.465
 8189SOL    HW125466   6.482   5.125   3.387
 8189SOL    HW225467   6.473   5.150   3.549
 8190SOL     OW25468   5.901   3.467   2.811
 8190SOL    HW125469   5.844   3.487   2.890
 8190SOL    HW225470   5.845   3.429   2.737
 8191SOL     OW25471   5.483   4.929   1.550
 8191SOL    HW125472   5.501   4.912   1.647
 8191SOL    HW225473   5.442   4.847   1.510
 8192SOL     OW25474   1.337   2.568   1.019
 8192SOL    HW125475   1.346   2.531   0.926
 8192SOL    HW225476   1.415   2.538   1.074
 8193SOL     OW25477   4.075   6.364   5.680
 8193SOL    HW125478   4.163   6.409   5.700
 8193SOL    HW225479   4.019   6.362   5.763
 8194SOL     OW25480   1.410   0.890   2.880
 8194SOL    HW125481   1.336   0.923   2.821
 8194SOL    HW225482   1.378   0.883   2.974
 8195SOL     OW25483   5.753   0.971   1.695
 8195SOL    HW125484   5.844   1.011   1.694
 8195SOL    HW225485   5.685   1.044   1.709
 8196SOL     OW25486   2.205   1.080   0.788
 8196SOL    HW125487   2.214   1.120   0.697
 8196SOL    HW225488   2.190   0.982   0.780
 8197SOL     OW25489   0.626   0.045   1.077
 8197SOL    HW125490   0.595   0.114   1.012
 8197SOL    HW225491   0.547   7.016   1.112
 8198SOL     OW25492   3.264   1.070   2.834
 8198SOL    HW125493   3.177   1.026   2.858
 8198SOL    HW225494   3.317   1.009   2.775
 8199SOL     OW25495   5.585   4.676   1.407
 8199SOL    HW125496   5.622   4.748   1.348
 8199SOL    HW225497   5.485   4.673   1.398
 8200SOL     OW25498   4.027   4.161   1.669
 8200SOL    HW125499   3.964   4.215   1.614
 8200SOL    HW225500   4.016   4.064   1.647
 8201SOL     OW25501   0.624   1.156   4.954
 8201SOL    HW125502   0.693   1.113   5.013
 8201SOL    HW225503   0.598   1.245   4.991
 8202SOL     OW25504   1.778   3.604   3.969
 8202SOL    HW125505   1.793   3.596   3.870
 8202SOL    HW225506   1.765   3.513   4.007
 8203SOL     OW25507   6.616   4.550   6.176
 8203SOL    HW125508   6.571   4.471   6.135
 8203SOL    HW225509   6.715   4.544   6.160
 8204SOL     OW25510   3.622   0.209   0.690
 8204SOL    HW125511   3.630   0.275   0.765
 8204SOL    HW225512   3.640   0.117   0.724
 8205SOL     OW25513   4.190   6.972   3.064
 8205SOL    HW125514   4.101   7.010   3.037
 8205SOL    HW225515   4.182   6.934   3.157
 8206SOL     OW25516   3.636   2.040   4.661
 8206SOL    HW125517   3.700   1.990   4.604
 8206SOL    HW225518   3.669   2.044   4.755
 8207SOL     OW25519   2.947   5.872   0.227
 8207SOL    HW125520   2.876   5.892   0.294
 8207SOL    HW225521   2.912   5.804   0.162
 8208SOL     OW25522   1.578   5.461   1.229
 8208SOL    HW125523   1.587   5.387   1.162
 8208SOL    HW225524   1.564   5.547   1.181
 8209SOL     OW25525   1.175   5.760   5.243
 8209SOL    HW125526   1.081   5.779   5.214
 8209SOL    HW225527   1.175   5.735   5.340
 8210SOL     OW25528   2.516   0.524   1.189
 8210SOL    HW125529   2.607   0.486   1.174
 8210SOL    HW225530   2.469   0.535   1.101
 8211SOL     OW25531   3.693   4.104   3.682
 8211SOL    HW125532   3.730   4.188   3.722
 8211SOL    HW225533   3.743   4.026   3.718
 8212SOL     OW25534   4.356   4.720   6.747
 8212SOL    HW125535   4.347   4.755   6.840
 8212SOL    HW225536   4.372   4.795   6.684
 8213SOL     OW25537   4.776   4.133   1.919
 8213SOL    HW125538   4.710   4.191   1.966
 8213SOL    HW225539   4.733   4.045   1.897
 8214SOL     OW25540   4.170   5.389   3.453
 8214SOL    HW125541   4.267   5.375   3.471
 8214SOL    HW225542   4.159   5.452   3.376
 8215SOL     OW25543   2.828   6.482   5.916
 8215SOL    HW125544   2.795   6.559   5.971
 8215SOL    HW225545   2.914   6.449   5.954
 8216SOL     OW25546   6.031   5.249   0.915
 8216SOL    HW125547   6.031   5.149   0.926
 8216SOL    HW225548   5.956   5.288   0.969
 8217SOL     OW25549   3.083   6.151   3.550
 8217SOL    HW125550   3.103   6.173   3.646
 8217SOL    HW225551   3.067   6.053   3.540
 8218SOL     OW25552   1.831   6.517   4.153
 8218SOL    HW125553   1.764   6.588   4.171
 8218SOL    HW225554   1.846   6.509   4.055
 8219SOL     OW25555   3.803   3.437   3.726
 8219SOL    HW125556   3.823   3.473   3.818
 8219SOL    HW225557   3.793   3.513   3.662
 8220SOL     OW25558   4.499   4.446   5.747
 8220SOL    HW125559   4.488   4.484   5.839
 8220SOL    HW225560   4.416   4.397   5.721
 8221SOL     OW25561   0.128   4.073   3.813
 8221SOL    HW125562   0.095   4.004   3.876
 8221SOL    HW225563   0.065   4.081   3.736
 8222SOL     OW25564   5.037   1.869   6.023
 8222SOL    HW125565   5.051   1.912   6.112
 8222SOL    HW225566   4.950   1.899   5.985
 8223SOL     OW25567   1.259   6.178   5.668
 8223SOL    HW125568   1.242   6.270   5.703
 8223SOL    HW225569   1.351   6.149   5.694
 8224SOL     OW25570   6.072   0.735   5.913
 8224SOL    HW125571   6.070   0.828   5.950
 8224SOL    HW225572   6.021   0.674   5.973
 8225SOL     OW25573   6.170   2.555   0.277
 8225SOL    HW125574   6.096   2.514   0.223
 8225SOL    HW225575   6.134   2.583   0.366
 8226SOL     OW25576   3.921   0.918   6.862
 8226SOL    HW125577   3.865   0.847   6.905
 8226SOL    HW225578   4.013   0.915   6.898
 8227SOL     OW25579   5.565   3.937   2.385
 8227SOL    HW125580   5.653   3.973   2.417
 8227SOL    HW225581   5.576   3.898   2.293
 8228SOL     OW25582   2.515   1.647   4.294
 8228SOL    HW125583   2.467   1.692   4.370
 8228SOL    HW225584   2.478   1.680   4.207
 8229SOL     OW25585   3.752   4.501   0.529
 8229SOL    HW125586   3.802   4.438   0.471
 8229SOL    HW225587   3.678   4.452   0.576
 8230SOL     OW25588   6.377   0.573   6.539
 8230SOL    HW125589   6.372   0.655   6.482
 8230SOL    HW225590   6.462   0.524   6.520
 8231SOL     OW25591   3.418   1.587   2.100
 8231SOL    HW125592   3.356   1.608   2.024
 8231SOL    HW225593   3.512   1.607   2.074
 8232SOL     OW25594   3.552   6.594   3.416
 8232SOL    HW125595   3.568   6.684   3.457
 8232SOL    HW225596   3.516   6.606   3.323
 8233SOL     OW25597   2.764   0.539   6.292
 8233SOL    HW125598   2.824   0.608   6.253
 8233SOL    HW225599   2.715   0.492   6.219
 8234SOL     OW25600   0.879   2.965   6.834
 8234SOL    HW125601   0.967   3.000   6.865
 8234SOL    HW225602   0.874   2.867   6.854
 8235SOL     OW25603   0.789   6.125   0.229
 8235SOL    HW125604   0.821   6.153   0.320
 8235SOL    HW225605   0.779   6.205   0.171
 8236SOL     OW25606   1.462   6.935   0.743
 8236SOL    HW125607   1.467   6.855   0.683
 8236SOL    HW225608   1.536   6.931   0.811
 8237SOL     OW25609   4.033   5.103   5.328
 8237SOL    HW125610   4.087   5.038   5.381
 8237SOL    HW225611   3.963   5.144   5.386
 8238SOL     OW25612   6.553   5.162   0.326
 8238SOL    HW125613   6.573   5.190   0.420
 8238SOL    HW225614   6.457   5.181   0.305
 8239SOL     OW25615   4.387   2.368   3.782
 8239SOL    HW125616   4.433   2.455   3.764
 8239SOL    HW225617   4.452   2.304   3.822
 8240SOL     OW25618   3.837   3.428   5.194
 8240SOL    HW125619   3.840   3.519   5.235
 8240SOL    HW225620   3.924   3.381   5.209
 8241SOL     OW25621   0.752   3.234   5.633
 8241SOL    HW125622   0.833   3.200   5.682
 8241SOL    HW225623   0.714   3.162   5.576
 8242SOL     OW25624   0.423   2.981   3.540
 8242SOL    HW125625   0.363   2.946   3.612
 8242SOL    HW225626   0.371   3.044   3.481
 8243SOL     OW25627   1.463   6.114   3.844
 8243SOL    HW125628   1.367   6.106   3.870
 8243SOL    HW225629   1.518   6.054   3.902
 8244SOL     OW25630   5.479   0.603   4.312
 8244SOL    HW125631   5.432   0.593   4.224
 8244SOL    HW225632   5.429   0.551   4.382
 8245SOL     OW25633   5.808   4.557   2.295
 8245SOL    HW125634   5.889   4.524   2.344
 8245SOL    HW225635   5.745   4.601   2.359
 8246SOL     OW25636   1.925   4.350   6.827
 8246SOL    HW125637   1.850   4.416   6.822
 8246SOL    HW225638   1.969   4.342   6.738
 8247SOL     OW25639   1.936   4.865   3.248
 8247SOL    HW125640   1.916   4.946   3.303
 8247SOL    HW225641   1.883   4.868   3.164
 8248SOL     OW25642   6.118   6.864   2.632
 8248SOL    HW125643   6.112   6.796   2.706
 8248SOL    HW225644   6.040   6.853   2.571
 8249SOL     OW25645   3.590   0.333   6.300
 8249SOL    HW125646   3.607   0.357   6.396
 8249SOL    HW225647   3.497   0.360   6.275
 8250SOL     OW25648   1.076   1.401   0.374
 8250SOL    HW125649   1.057   1.423   0.469
 8250SOL    HW225650   1.174   1.414   0.355
 8251SOL     OW25651   1.538   2.057   6.830
 8251SOL    HW125652   1.521   2.118   6.908
 8251SOL    HW225653   1.620   2.087   6.781
 8252SOL     OW25654   0.885   1.384   6.600
 8252SOL    HW125655   0.892   1.382   6.700
 8252SOL    HW225656   0.851   1.295   6.568
 8253SOL     OW25657   7.015   4.412   5.635
 8253SOL    HW125658   0.070   4.350   5.613
 8253SOL    HW225659   6.932   4.379   5.590
 8254SOL     OW25660   5.178   4.295   0.143
 8254SOL    HW125661   5.255   4.302   0.206
 8254SOL    HW225662   5.148   4.386   0.117
 8255SOL     OW25663   1.482   6.557   5.491
 8255SOL    HW125664   1.510   6.523   5.581
 8255SOL    HW225665   1.441   6.647   5.500
 8256SOL     OW25666   1.778   5.665   2.606
 8256SOL    HW125667   1.856   5.603   2.619
 8256SOL    HW225668   1.771   5.726   2.685
 8257SOL     OW25669   4.680   4.530   3.664
 8257SOL    HW125670   4.769   4.545   3.708
 8257SOL    HW225671   4.614   4.499   3.733
 8258SOL     OW25672   0.503   3.246   4.674
 8258SOL    HW125673   0.563   3.168   4.688
 8258SOL    HW225674   0.409   3.220   4.695
 8259SOL     OW25675   5.778   3.162   4.117
 8259SOL    HW125676   5.749   3.257   4.103
 8259SOL    HW225677   5.733   3.126   4.199
 8260SOL     OW25678   5.020   1.711   6.433
 8260SOL    HW125679   5.014   1.807   6.405
 8260SOL    HW225680   5.111   1.692   6.470
 8261SOL     OW25681   5.686   2.679   2.692
 8261SOL    HW125682   5.754   2.610   2.669
 8261SOL    HW225683   5.616   2.682   2.620
 8262SOL     OW25684   4.989   4.109   2.114
 8262SOL    HW125685   4.929   4.128   2.037
 8262SOL    HW225686   5.056   4.183   2.123
 8263SOL     OW25687   6.617   1.617   6.594
 8263SOL    HW125688   6.674   1.553   6.542
 8263SOL    HW225689   6.623   1.708   6.552
 8264SOL     OW25690   3.283   1.146   1.683
 8264SOL    HW125691   3.221   1.069   1.698
 8264SOL    HW225692   3.376   1.119   1.709
 8265SOL     OW25693   4.815   5.344   0.270
 8265SOL    HW125694   4.905   5.374   0.301
 8265SOL    HW225695   4.805   5.365   0.172
 8266SOL     OW25696   4.767   2.788   3.161
 8266SOL    HW125697   4.699   2.716   3.172
 8266SOL    HW225698   4.809   2.781   3.071
 8267SOL     OW25699   1.854   3.078   3.166
 8267SOL    HW125700   1.914   3.157   3.180
 8267SOL    HW225701   1.784   3.101   3.099
 8268SOL     OW25702   2.767   5.378   1.629
 8268SOL    HW125703   2.804   5.290   1.600
 8268SOL    HW225704   2.762   5.380   1.729
 8269SOL     OW25705   6.870   1.817   3.864
 8269SOL    HW125706   6.872   1.719   3.842
 8269SOL    HW225707   6.791   1.836   3.922
 8270SOL     OW25708   3.996   4.616   0.573
 8270SOL    HW125709   3.914   4.559   0.562
 8270SOL    HW225710   4.029   4.643   0.483
 8271SOL     OW25711   2.752   0.040   5.321
 8271SOL    HW125712   2.846   0.012   5.303
 8271SOL    HW225713   2.718   7.016   5.403
 8272SOL     OW25714   0.858   0.780   2.193
 8272SOL    HW125715   0.898   0.693   2.224
 8272SOL    HW225716   0.912   0.817   2.118
 8273SOL     OW25717   5.131   0.235   5.760
 8273SOL    HW125718   5.090   0.256   5.672
 8273SOL    HW225719   5.229   0.218   5.748
 8274SOL     OW25720   5.080   0.042   4.301
 8274SOL    HW125721   4.999   0.085   4.341
 8274SOL    HW225722   5.142   0.015   4.375
 8275SOL     OW25723   4.425   0.706   4.443
 8275SOL    HW125724   4.376   0.675   4.525
 8275SOL    HW225725   4.523   0.689   4.455
 8276SOL     OW25726   5.567   2.766   0.711
 8276SOL    HW125727   5.486   2.756   0.769
 8276SOL    HW225728   5.604   2.676   0.690
 8277SOL     OW25729   1.369   6.690   2.148
 8277SOL    HW125730   1.394   6.639   2.066
 8277SOL    HW225731   1.343   6.626   2.221
 8278SOL     OW25732   1.541   0.538   1.279
 8278SOL    HW125733   1.478   0.562   1.205
 8278SOL    HW225734   1.633   0.568   1.256
 8279SOL     OW25735   6.571   5.079   5.912
 8279SOL    HW125736   6.520   4.994   5.907
 8279SOL    HW225737   6.545   5.138   5.836
 8280SOL     OW25738   0.148   4.415   6.762
 8280SOL    HW125739   0.055   4.439   6.788
 8280SOL    HW225740   0.206   4.412   6.844
 8281SOL     OW25741   3.243   4.992   6.887
 8281SOL    HW125742   3.227   5.000   6.985
 8281SOL    HW225743   3.341   5.002   6.868
 8282SOL     OW25744   4.026   2.927   0.841
 8282SOL    HW125745   4.099   2.981   0.800
 8282SOL    HW225746   3.947   2.986   0.860
 8283SOL     OW25747   0.543   1.150   3.681
 8283SOL    HW125748   0.481   1.219   3.719
 8283SOL    HW225749   0.557   1.078   3.748
 8284SOL     OW25750   4.916   2.329   1.044
 8284SOL    HW125751   4.821   2.301   1.034
 8284SOL    HW225752   4.955   2.346   0.954
 8285SOL     OW25753   0.648   4.695   0.115
 8285SOL    HW125754   0.744   4.719   0.107
 8285SOL    HW225755   0.636   4.630   0.190
 8286SOL     OW25756   6.592   2.130   6.311
 8286SOL    HW125757   6.517   2.193   6.293
 8286SOL    HW225758   6.651   2.167   6.382
 8287SOL     OW25759   0.274   1.137   3.212
 8287SOL    HW125760   0.181   1.126   3.248
 8287SOL    HW225761   0.327   1.194   3.274
 8288SOL     OW25762   2.605   6.871   2.495
 8288SOL    HW125763   2.578   6.787   2.543
 8288SOL    HW225764   2.608   6.947   2.560
 8289SOL     OW25765   6.447   7.002   0.181
 8289SOL    HW125766   6.400   6.916   0.199
 8289SOL    HW225767   6.509   0.003   0.257
 8290SOL     OW25768   4.698   2.797   1.768
 8290SOL    HW125769   4.663   2.728   1.831
 8290SOL    HW225770   4.681   2.888   1.806
 8291SOL     OW25771   5.572   5.627   5.284
 8291SOL    HW125772   5.652   5.592   5.334
 8291SOL    HW225773   5.546   5.716   5.320
 8292SOL     OW25774   6.850   3.913   5.655
 8292SOL    HW125775   6.752   3.896   5.646
 8292SOL    HW225776   6.900   3.846   5.600
 8293SOL     OW25777   2.694   5.593   4.350
 8293SOL    HW125778   2.601   5.596   4.385
 8293SOL    HW225779   2.743   5.676   4.378
 8294SOL     OW25780   6.532   3.815   6.019
 8294SOL    HW125781   6.495   3.739   5.964
 8294SOL    HW225782   6.610   3.782   6.072
 8295SOL     OW25783   4.269   4.438   1.412
 8295SOL    HW125784   4.191   4.494   1.440
 8295SOL    HW225785   4.277   4.359   1.473
 8296SOL     OW25786   3.228   0.820   1.842
 8296SOL    HW125787   3.188   0.902   1.883
 8296SOL    HW225788   3.163   0.779   1.779
 8297SOL     OW25789   6.058   4.424   2.031
 8297SOL    HW125790   6.014   4.357   1.971
 8297SOL    HW225791   6.048   4.395   2.126
 8298SOL     OW25792   6.759   6.660   0.760
 8298SOL    HW125793   6.783   6.737   0.701
 8298SOL    HW225794   6.841   6.628   0.807
 8299SOL     OW25795   0.831   2.253   6.738
 8299SOL    HW125796   0.743   2.227   6.776
 8299SOL    HW225797   0.904   2.219   6.797
 8300SOL     OW25798   4.812   5.908   4.297
 8300SOL    HW125799   4.716   5.885   4.284
 8300SOL    HW225800   4.848   5.950   4.213
 8301SOL     OW25801   6.456   5.517   0.292
 8301SOL    HW125802   6.401   5.437   0.271
 8301SOL    HW225803   6.526   5.493   0.359
 8302SOL     OW25804   3.618   6.355   5.774
 8302SOL    HW125805   3.699   6.360   5.832
 8302SOL    HW225806   3.644   6.324   5.682
 8303SOL     OW25807   0.603   4.923   4.042
 8303SOL    HW125808   0.574   4.864   3.967
 8303SOL    HW225809   0.574   4.883   4.129
 8304SOL     OW25810   5.571   2.685   3.754
 8304SOL    HW125811   5.656   2.666   3.804
 8304SOL    HW225812   5.594   2.712   3.660
 8305SOL     OW25813   4.659   6.021   5.412
 8305SOL    HW125814   4.733   6.081   5.440
 8305SOL    HW225815   4.585   6.075   5.372
 8306SOL     OW25816   5.088   1.261   4.119
 8306SOL    HW125817   4.990   1.259   4.100
 8306SOL    HW225818   5.115   1.352   4.150
 8307SOL     OW25819   6.892   4.894   4.185
 8307SOL    HW125820   6.982   4.913   4.222
 8307SOL    HW225821   6.888   4.924   4.090
 8308SOL     OW25822   2.120   5.464   0.568
 8308SOL    HW125823   2.034   5.423   0.538
 8308SOL    HW225824   2.126   5.557   0.533
 8309SOL     OW25825   5.794   5.298   2.612
 8309SOL    HW125826   5.769   5.387   2.572
 8309SOL    HW225827   5.886   5.273   2.583
 8310SOL     OW25828   1.748   5.864   2.804
 8310SOL    HW125829   1.810   5.936   2.772
 8310SOL    HW225830   1.691   5.899   2.878
 8311SOL     OW25831   4.449   6.568   1.905
 8311SOL    HW125832   4.446   6.667   1.916
 8311SOL    HW225833   4.356   6.531   1.905
 8312SOL     OW25834   6.549   0.755   0.589
 8312SOL    HW125835   6.606   0.680   0.621
 8312SOL    HW225836   6.606   0.820   0.538
 8313SOL     OW25837   5.037   2.400   5.836
 8313SOL    HW125838   5.056   2.333   5.764
 8313SOL    HW225839   4.997   2.353   5.915
 8314SOL     OW25840   4.993   6.044   4.744
 8314SOL    HW125841   4.971   5.975   4.675
 8314SOL    HW225842   4.913   6.102   4.761
 8315SOL     OW25843   3.549   1.772   0.605
 8315SOL    HW125844   3.573   1.728   0.691
 8315SOL    HW225845   3.542   1.871   0.618
 8316SOL     OW25846   1.497   1.677   4.798
 8316SOL    HW125847   1.436   1.751   4.770
 8316SOL    HW225848   1.521   1.621   4.718
 8317SOL     OW25849   2.056   1.860   6.394
 8317SOL    HW125850   2.040   1.952   6.429
 8317SOL    HW225851   2.003   1.846   6.311
 8318SOL     OW25852   4.389   6.092   5.549
 8318SOL    HW125853   4.312   6.034   5.526
 8318SOL    HW225854   4.376   6.182   5.507
 8319SOL     OW25855   2.784   5.657   6.338
 8319SOL    HW125856   2.827   5.686   6.252
 8319SOL    HW225857   2.790   5.558   6.346
 8320SOL     OW25858   4.215   4.891   5.434
 8320SOL    HW125859   4.246   4.805   5.474
 8320SOL    HW225860   4.294   4.947   5.410
 8321SOL     OW25861   0.474   0.482   0.959
 8321SOL    HW125862   0.449   0.564   1.010
 8321SOL    HW225863   0.573   0.482   0.944
 8322SOL     OW25864   2.216   0.542   1.511
 8322SOL    HW125865   2.312   0.549   1.539
 8322SOL    HW225866   2.170   0.630   1.527
 8323SOL     OW25867   5.910   5.222   6.821
 8323SOL    HW125868   5.822   5.249   6.861
 8323SOL    HW225869   5.925   5.274   6.736
 8324SOL     OW25870   5.878   6.278   6.355
 8324SOL    HW125871   5.805   6.211   6.373
 8324SOL    HW225872   5.868   6.315   6.263
 8325SOL     OW25873   1.862   6.210   4.699
 8325SOL    HW125874   1.839   6.121   4.659
 8325SOL    HW225875   1.802   6.280   4.662
 8326SOL     OW25876   2.433   1.323   6.534
 8326SOL    HW125877   2.492   1.381   6.479
 8326SOL    HW225878   2.341   1.322   6.495
 8327SOL     OW25879   0.679   5.433   5.360
 8327SOL    HW125880   0.695   5.377   5.279
 8327SOL    HW225881   0.700   5.529   5.339
 8328SOL     OW25882   1.201   0.464   0.285
 8328SOL    HW125883   1.277   0.445   0.348
 8328SOL    HW225884   1.117   0.426   0.321
 8329SOL     OW25885   1.835   2.581   5.492
 8329SOL    HW125886   1.809   2.666   5.445
 8329SOL    HW225887   1.753   2.532   5.520
 8330SOL     OW25888   3.207   6.442   0.299
 8330SOL    HW125889   3.259   6.502   0.359
 8330SOL    HW225890   3.129   6.492   0.261
 8331SOL     OW25891   1.983   2.068   5.793
 8331SOL    HW125892   2.022   1.976   5.800
 8331SOL    HW225893   1.989   2.114   5.882
 8332SOL     OW25894   5.444   4.030   0.904
 8332SOL    HW125895   5.393   4.113   0.927
 8332SOL    HW225896   5.456   3.974   0.986
 8333SOL     OW25897   2.689   4.601   6.391
 8333SOL    HW125898   2.689   4.673   6.461
 8333SOL    HW225899   2.712   4.641   6.302
 8334SOL     OW25900   3.350   2.695   5.424
 8334SOL    HW125901   3.432   2.649   5.460
 8334SOL    HW225902   3.362   2.714   5.327
 8335SOL     OW25903   5.614   3.228   6.301
 8335SOL    HW125904   5.564   3.306   6.262
 8335SOL    HW225905   5.550   3.169   6.350
 8336SOL     OW25906   1.313   4.700   3.999
 8336SOL    HW125907   1.276   4.663   4.085
 8336SOL    HW225908   1.238   4.711   3.933
 8337SOL     OW25909   5.929   0.445   4.105
 8337SOL    HW125910   5.871   0.513   4.061
 8337SOL    HW225911   5.965   0.383   4.035
 8338SOL     OW25912   2.795   5.492   1.232
 8338SOL    HW125913   2.889   5.498   1.265
 8338SOL    HW225914   2.771   5.396   1.218
 8339SOL     OW25915   6.952   0.555   1.981
 8339SOL    HW125916   6.914   0.520   2.067
 8339SOL    HW225917   0.005   0.494   1.951
 8340SOL     OW25918   5.951   2.559   6.266
 8340SOL    HW125919   5.912   2.590   6.353
 8340SOL    HW225920   5.978   2.638   6.211
 8341SOL     OW25921   3.302   6.747   1.337
 8341SOL    HW125922   3.239   6.708   1.404
 8341SOL    HW225923   3.355   6.673   1.295
 8342SOL     OW25924   3.866   1.001   1.247
 8342SOL    HW125925   3.805   1.016   1.169
 8342SOL    HW225926   3.887   0.904   1.254
 8343SOL     OW25927   4.472   6.024   2.816
 8343SOL    HW125928   4.408   5.947   2.817
 8343SOL    HW225929   4.429   6.104   2.858
 8344SOL     OW25930   2.009   4.625   5.551
 8344SOL    HW125931   2.093   4.666   5.516
 8344SOL    HW225932   2.031   4.545   5.607
 8345SOL     OW25933   6.150   0.337   4.250
 8345SOL    HW125934   6.132   0.240   4.262
 8345SOL    HW225935   6.071   0.381   4.209
 8346SOL     OW25936   5.944   4.108   3.424
 8346SOL    HW125937   5.963   4.037   3.492
 8346SOL    HW225938   6.000   4.188   3.442
 8347SOL     OW25939   1.266   1.417   6.456
 8347SOL    HW125940   1.348   1.435   6.403
 8347SOL    HW225941   1.208   1.351   6.408
 8348SOL     OW25942   3.733   5.928   0.885
 8348SOL    HW125943   3.682   5.932   0.970
 8348SOL    HW225944   3.682   5.875   0.818
 8349SOL     OW25945   4.353   5.566   1.466
 8349SOL    HW125946   4.309   5.653   1.484
 8349SOL    HW225947   4.385   5.562   1.372
 8350SOL     OW25948   2.182   0.092   6.717
 8350SOL    HW125949   2.264   0.149   6.719
 8350SOL    HW225950   2.185   0.026   6.792
 8351SOL     OW25951   6.783   3.221   2.915
 8351SOL    HW125952   6.825   3.291   2.972
 8351SOL    HW225953   6.854   3.163   2.875
 8352SOL     OW25954   2.373   6.705   6.114
 8352SOL    HW125955   2.415   6.635   6.057
 8352SOL    HW225956   2.428   6.718   6.197
 8353SOL     OW25957   0.507   5.798   2.466
 8353SOL    HW125958   0.597   5.780   2.426
 8353SOL    HW225959   0.503   5.758   2.558
 8354SOL     OW25960   4.774   2.498   3.417
 8354SOL    HW125961   4.849   2.469   3.476
 8354SOL    HW225962   4.705   2.425   3.414
 8355SOL     OW25963   3.424   4.725   5.837
 8355SOL    HW125964   3.518   4.705   5.809
 8355SOL    HW225965   3.415   4.823   5.857
 8356SOL     OW25966   3.130   2.819   1.412
 8356SOL    HW125967   3.134   2.879   1.332
 8356SOL    HW225968   3.049   2.761   1.406
 8357SOL     OW25969   2.521   6.928   4.553
 8357SOL    HW125970   2.479   6.843   4.521
 8357SOL    HW225971   2.455   7.002   4.548
 8358SOL     OW25972   6.981   0.672   4.449
 8358SOL    HW125973   7.014   0.759   4.487
 8358SOL    HW225974   6.971   0.681   4.350
 8359SOL     OW25975   5.144   2.062   4.991
 8359SOL    HW125976   5.228   2.017   4.961
 8359SOL    HW225977   5.155   2.092   5.086
 8360SOL     OW25978   2.930   0.078   2.130
 8360SOL    HW125979   3.026   0.051   2.123
 8360SOL    HW225980   2.922   0.160   2.186
 8361SOL     OW25981   4.695   1.234   0.347
 8361SOL    HW125982   4.742   1.319   0.323
 8361SOL    HW225983   4.754   1.156   0.323
 8362SOL     OW25984   0.697   4.377   1.731
 8362SOL    HW125985   0.781   4.370   1.785
 8362SOL    HW225986   0.658   4.286   1.718
 8363SOL     OW25987   2.228   2.000   0.936
 8363SOL    HW125988   2.249   1.941   0.858
 8363SOL    HW225989   2.129   2.015   0.940
 8364SOL     OW25990   0.222   1.171   3.517
 8364SOL    HW125991   0.245   1.268   3.527
 8364SOL    HW225992   0.301   1.121   3.482
 8365SOL     OW25993   1.887   2.751   1.012
 8365SOL    HW125994   1.866   2.846   0.987
 8365SOL    HW225995   1.864   2.691   0.935
 8366SOL     OW25996   5.226   5.763   1.783
 8366SOL    HW125997   5.291   5.803   1.719
 8366SOL    HW225998   5.179   5.687   1.740
 8367SOL     OW25999   2.091   4.503   3.633
 8367SOL    HW126000   2.055   4.595   3.614
 8367SOL    HW226001   2.120   4.498   3.728
 8368SOL     OW26002   0.957   3.032   6.235
 8368SOL    HW126003   1.009   2.949   6.254
 8368SOL    HW226004   0.911   3.062   6.318
 8369SOL     OW26005   1.061   0.168   0.365
 8369SOL    HW126006   0.976   0.208   0.400
 8369SOL    HW226007   1.113   0.128   0.441
 8370SOL     OW26008   3.109   2.823   0.389
 8370SOL    HW126009   3.060   2.803   0.303
 8370SOL    HW226010   3.150   2.739   0.424
 8371SOL     OW26011   2.811   4.398   5.562
 8371SOL    HW126012   2.896   4.389   5.615
 8371SOL    HW226013   2.831   4.447   5.477
 8372SOL     OW26014   1.674   6.834   2.463
 8372SOL    HW126015   1.725   6.795   2.540
 8372SOL    HW226016   1.726   6.912   2.426
 8373SOL     OW26017   5.471   0.865   4.240
 8373SOL    HW126018   5.493   0.770   4.260
 8373SOL    HW226019   5.396   0.896   4.297
 8374SOL     OW26020   0.882   1.931   3.409
 8374SOL    HW126021   0.935   1.871   3.348
 8374SOL    HW226022   0.886   2.025   3.374
 8375SOL     OW26023   1.962   2.792   5.970
 8375SOL    HW126024   1.915   2.875   6.001
 8375SOL    HW226025   1.996   2.806   5.877
 8376SOL     OW26026   0.783   1.614   3.767
 8376SOL    HW126027   0.809   1.695   3.819
 8376SOL    HW226028   0.684   1.615   3.751
 8377SOL     OW26029   3.361   4.823   1.227
 8377SOL    HW126030   3.298   4.855   1.297
 8377SOL    HW226031   3.397   4.901   1.176
 8378SOL     OW26032   4.566   5.504   4.995
 8378SOL    HW126033   4.615   5.509   5.082
 8378SOL    HW226034   4.482   5.558   5.001
 8379SOL     OW26035   5.678   2.796   1.907
 8379SOL    HW126036   5.748   2.739   1.865
 8379SOL    HW226037   5.587   2.760   1.886
 8380SOL     OW26038   1.803   5.372   3.287
 8380SOL    HW126039   1.736   5.377   3.212
 8380SOL    HW226040   1.856   5.457   3.289
 8381SOL     OW26041   1.489   2.299   2.803
 8381SOL    HW126042   1.498   2.391   2.840
 8381SOL    HW226043   1.576   2.270   2.763
 8382SOL     OW26044   1.327   0.178   1.461
 8382SOL    HW126045   1.300   0.231   1.541
 8382SOL    HW226046   1.247   0.129   1.425
 8383SOL     OW26047   2.538   0.117   4.919
 8383SOL    HW126048   2.556   0.216   4.915
 8383SOL    HW226049   2.591   0.071   4.847
 8384SOL     OW26050   0.558   3.577   3.494
 8384SOL    HW126051   0.648   3.544   3.522
 8384SOL    HW226052   0.533   3.535   3.406
 8385SOL     OW26053   4.500   2.482   2.147
 8385SOL    HW126054   4.429   2.476   2.217
 8385SOL    HW226055   4.484   2.564   2.091
 8386SOL     OW26056   6.958   5.444   1.764
 8386SOL    HW126057   6.938   5.525   1.819
 8386SOL    HW226058   6.916   5.454   1.674
 8387SOL     OW26059   0.175   1.837   3.371
 8387SOL    HW126060   0.203   1.783   3.451
 8387SOL    HW226061   0.136   1.924   3.402
 8388SOL     OW26062   3.762   5.505   1.711
 8388SOL    HW126063   3.860   5.485   1.710
 8388SOL    HW226064   3.717   5.455   1.637
 8389SOL     OW26065   1.281   2.692   4.445
 8389SOL    HW126066   1.328   2.639   4.516
 8389SOL    HW226067   1.339   2.769   4.418
 8390SOL     OW26068   2.072   0.120   6.412
 8390SOL    HW126069   1.980   0.085   6.422
 8390SOL    HW226070   2.109   0.145   6.502
 8391SOL     OW26071   4.836   6.143   0.863
 8391SOL    HW126072   4.743   6.115   0.890
 8391SOL    HW226073   4.873   6.205   0.931
 8392SOL     OW26074   3.869   5.174   0.418
 8392SOL    HW126075   3.883   5.076   0.433
 8392SOL    HW226076   3.957   5.219   0.403
 8393SOL     OW26077   1.328   6.412   1.994
 8393SOL    HW126078   1.391   6.402   2.071
 8393SOL    HW226079   1.337   6.331   1.934
 8394SOL     OW26080   1.899   1.225   3.655
 8394SOL    HW126081   1.897   1.292   3.581
 8394SOL    HW226082   1.856   1.265   3.736
 8395SOL     OW26083   2.292   5.581   6.274
 8395SOL    HW126084   2.266   5.675   6.295
 8395SOL    HW226085   2.348   5.579   6.191
 8396SOL     OW26086   4.493   2.014   0.811
 8396SOL    HW126087   4.400   2.033   0.841
 8396SOL    HW226088   4.529   2.094   0.762
 8397SOL     OW26089   0.327   4.348   3.362
 8397SOL    HW126090   0.345   4.407   3.284
 8397SOL    HW226091   0.251   4.385   3.415
 8398SOL     OW26092   5.282   1.358   0.030
 8398SOL    HW126093   5.242   1.284   6.997
 8398SOL    HW226094   5.221   1.381   0.106
 8399SOL     OW26095   5.777   6.360   5.283
 8399SOL    HW126096   5.820   6.417   5.212
 8399SOL    HW226097   5.835   6.280   5.301
 8400SOL     OW26098   6.011   6.180   3.476
 8400SOL    HW126099   6.082   6.127   3.523
 8400SOL    HW226100   6.025   6.278   3.492
 8401SOL     OW26101   3.029   3.672   5.084
 8401SOL    HW126102   3.079   3.632   5.008
 8401SOL    HW226103   3.011   3.769   5.065
 8402SOL     OW26104   5.090   0.930   5.249
 8402SOL    HW126105   5.102   0.898   5.155
 8402SOL    HW226106   5.101   0.854   5.312
 8403SOL     OW26107   0.799   2.177   6.102
 8403SOL    HW126108   0.790   2.117   6.023
 8403SOL    HW226109   0.708   2.208   6.131
 8404SOL     OW26110   4.847   4.997   5.539
 8404SOL    HW126111   4.855   5.014   5.637
 8404SOL    HW226112   4.846   4.898   5.523
 8405SOL     OW26113   1.023   2.778   5.937
 8405SOL    HW126114   0.947   2.843   5.942
 8405SOL    HW226115   1.098   2.809   5.995
 8406SOL     OW26116   5.603   3.848   1.299
 8406SOL    HW126117   5.653   3.799   1.370
 8406SOL    HW226118   5.665   3.910   1.250
 8407SOL     OW26119   4.912   3.681   2.345
 8407SOL    HW126120   4.912   3.754   2.413
 8407SOL    HW226121   4.879   3.717   2.258
 8408SOL     OW26122   4.747   4.244   3.913
 8408SOL    HW126123   4.775   4.175   3.846
 8408SOL    HW226124   4.828   4.289   3.950
 8409SOL     OW26125   2.005   2.172   3.765
 8409SOL    HW126126   1.908   2.194   3.754
 8409SOL    HW226127   2.050   2.173   3.675
 8410SOL     OW26128   2.267   5.126   2.511
 8410SOL    HW126129   2.198   5.151   2.579
 8410SOL    HW226130   2.351   5.178   2.528
 8411SOL     OW26131   1.723   3.246   2.911
 8411SOL    HW126132   1.762   3.335   2.934
 8411SOL    HW226133   1.623   3.253   2.908
 8412SOL     OW26134   6.065   2.659   2.517
 8412SOL    HW126135   5.970   2.678   2.494
 8412SOL    HW226136   6.121   2.666   2.434
 8413SOL     OW26137   2.534   5.622   1.328
 8413SOL    HW126138   2.622   5.659   1.355
 8413SOL    HW226139   2.515   5.644   1.232
 8414SOL     OW26140   5.803   0.651   4.042
 8414SOL    HW126141   5.803   0.673   4.140
 8414SOL    HW226142   5.739   0.712   3.995
 8415SOL     OW26143   0.342   5.127   1.024
 8415SOL    HW126144   0.388   5.187   1.089
 8415SOL    HW226145   0.408   5.066   0.982
 8416SOL     OW26146   4.536   4.571   3.178
 8416SOL    HW126147   4.543   4.623   3.263
 8416SOL    HW226148   4.575   4.625   3.103
 8417SOL     OW26149   1.177   5.286   0.360
 8417SOL    HW126150   1.103   5.343   0.322
 8417SOL    HW226151   1.142   5.195   0.379
 8418SOL     OW26152   5.225   5.782   2.722
 8418SOL    HW126153   5.184   5.868   2.753
 8418SOL    HW226154   5.201   5.709   2.786
 8419SOL     OW26155   3.589   1.310   3.375
 8419SOL    HW126156   3.514   1.349   3.322
 8419SOL    HW226157   3.632   1.236   3.323
 8420SOL     OW26158   4.901   1.812   5.375
 8420SOL    HW126159   4.885   1.908   5.348
 8420SOL    HW226160   4.966   1.809   5.451
 8421SOL     OW26161   0.463   0.721   0.758
 8421SOL    HW126162   0.555   0.738   0.724
 8421SOL    HW226163   0.457   0.747   0.854
 8422SOL     OW26164   2.812   0.523   1.862
 8422SOL    HW126165   2.829   0.499   1.766
 8422SOL    HW226166   2.889   0.493   1.918
 8423SOL     OW26167   2.106   4.577   0.919
 8423SOL    HW126168   2.017   4.612   0.889
 8423SOL    HW226169   2.092   4.503   0.985
 8424SOL     OW26170   2.750   2.273   1.774
 8424SOL    HW126171   2.809   2.346   1.809
 8424SOL    HW226172   2.793   2.184   1.791
 8425SOL     OW26173   0.576   4.295   6.030
 8425SOL    HW126174   0.656   4.250   5.991
 8425SOL    HW226175   0.525   4.342   5.958
 8426SOL     OW26176   3.618   3.214   2.397
 8426SOL    HW126177   3.539   3.246   2.346
 8426SOL    HW226178   3.618   3.114   2.398
 8427SOL     OW26179   2.354   1.677   6.870
 8427SOL    HW126180   2.420   1.750   6.855
 8427SOL    HW226181   2.388   1.592   6.830
 8428SOL     OW26182   6.198   3.750   0.630
 8428SOL    HW126183   6.216   3.674   0.567
 8428SOL    HW226184   6.133   3.721   0.700
 8429SOL     OW26185   1.064   6.607   2.942
 8429SOL    HW126186   1.080   6.576   2.849
 8429SOL    HW226187   1.145   6.657   2.974
 8430SOL     OW26188   3.656   6.108   2.954
 8430SOL    HW126189   3.561   6.103   2.987
 8430SOL    HW226190   3.692   6.016   2.942
 8431SOL     OW26191   2.981   3.152   2.586
 8431SOL    HW126192   2.935   3.171   2.499
 8431SOL    HW226193   3.072   3.192   2.585
 8432SOL     OW26194   4.588   6.135   6.985
 8432SOL    HW126195   4.616   6.101   0.054
 8432SOL    HW226196   4.530   6.068   6.939
 8433SOL     OW26197   6.873   1.525   3.873
 8433SOL    HW126198   6.970   1.546   3.861
 8433SOL    HW226199   6.849   1.528   3.970
 8434SOL     OW26200   5.621   6.744   6.656
 8434SOL    HW126201   5.695   6.697   6.703
 8434SOL    HW226202   5.569   6.798   6.722
 8435SOL     OW26203   4.561   2.964   0.603
 8435SOL    HW126204   4.635   2.947   0.538
 8435SOL    HW226205   4.509   2.880   0.618
 8436SOL     OW26206   2.961   4.319   1.657
 8436SOL    HW126207   2.932   4.405   1.699
 8436SOL    HW226208   2.943   4.244   1.720
 8437SOL     OW26209   6.965   2.675   1.124
 8437SOL    HW126210   6.884   2.632   1.085
 8437SOL    HW226211   6.938   2.736   1.199
 8438SOL     OW26212   2.266   5.596   1.406
 8438SOL    HW126213   2.365   5.594   1.420
 8438SOL    HW226214   2.238   5.687   1.374
 8439SOL     OW26215   5.614   0.561   1.736
 8439SOL    HW126216   5.645   0.633   1.798
 8439SOL    HW226217   5.579   0.484   1.789
 8440SOL     OW26218   1.309   3.309   4.126
 8440SOL    HW126219   1.222   3.343   4.162
 8440SOL    HW226220   1.377   3.383   4.128
 8441SOL     OW26221   4.151   5.745   1.293
 8441SOL    HW126222   4.062   5.756   1.249
 8441SOL    HW226223   4.140   5.751   1.392
 8442SOL     OW26224   2.163   2.308   0.724
 8442SOL    HW126225   2.182   2.403   0.697
 8442SOL    HW226226   2.067   2.288   0.707
 8443SOL     OW26227   0.049   2.495   1.492
 8443SOL    HW126228   0.070   2.400   1.516
 8443SOL    HW226229   0.061   2.553   1.572
 8444SOL     OW26230   5.056   2.037   3.375
 8444SOL    HW126231   5.145   2.048   3.421
 8444SOL    HW226232   4.983   2.052   3.441
 8445SOL     OW26233   4.581   5.427   2.164
 8445SOL    HW126234   4.614   5.458   2.075
 8445SOL    HW226235   4.511   5.490   2.198
 8446SOL     OW26236   6.477   3.700   3.273
 8446SOL    HW126237   6.476   3.750   3.187
 8446SOL    HW226238   6.542   3.624   3.267
 8447SOL     OW26239   4.860   4.411   1.394
 8447SOL    HW126240   4.793   4.402   1.320
 8447SOL    HW226241   4.812   4.417   1.482
 8448SOL     OW26242   1.784   4.359   5.495
 8448SOL    HW126243   1.854   4.376   5.564
 8448SOL    HW226244   1.827   4.345   5.406
 8449SOL     OW26245   1.049   0.375   5.134
 8449SOL    HW126246   1.066   0.381   5.036
 8449SOL    HW226247   0.959   0.412   5.154
 8450SOL     OW26248   1.669   5.133   0.744
 8450SOL    HW126249   1.609   5.213   0.737
 8450SOL    HW226250   1.653   5.086   0.831
 8451SOL     OW26251   2.845   4.359   1.182
 8451SOL    HW126252   2.753   4.344   1.147
 8451SOL    HW226253   2.869   4.286   1.247
 8452SOL     OW26254   6.532   5.846   2.173
 8452SOL    HW126255   6.533   5.753   2.138
 8452SOL    HW226256   6.512   5.910   2.099
 8453SOL     OW26257   0.279   5.022   5.144
 8453SOL    HW126258   0.344   4.970   5.199
 8453SOL    HW226259   0.278   4.985   5.051
 8454SOL     OW26260   2.023   0.265   5.025
 8454SOL    HW126261   1.999   0.235   5.117
 8454SOL    HW226262   2.101   0.212   4.991
 8455SOL     OW26263   6.338   2.730   0.653
 8455SOL    HW126264   6.391   2.646   0.640
 8455SOL    HW226265   6.377   2.781   0.730
 8456SOL     OW26266   5.597   4.914   3.464
 8456SOL    HW126267   5.692   4.887   3.447
 8456SOL    HW226268   5.575   4.901   3.560
 8457SOL     OW26269   6.218   6.377   6.373
 8457SOL    HW126270   6.274   6.412   6.298
 8457SOL    HW226271   6.167   6.297   6.342
 8458SOL     OW26272   1.502   1.945   1.122
 8458SOL    HW126273   1.492   1.917   1.217
 8458SOL    HW226274   1.504   2.045   1.117
 8459SOL     OW26275   2.840   5.172   3.207
 8459SOL    HW126276   2.763   5.130   3.159
 8459SOL    HW226277   2.806   5.247   3.264
 8460SOL     OW26278   3.737   1.264   1.267
 8460SOL    HW126279   3.813   1.254   1.331
 8460SOL    HW226280   3.770   1.309   1.184
 8461SOL     OW26281   5.520   4.165   3.185
 8461SOL    HW126282   5.546   4.185   3.091
 8461SOL    HW226283   5.540   4.069   3.206
 8462SOL     OW26284   1.951   4.211   0.968
 8462SOL    HW126285   1.854   4.197   0.988
 8462SOL    HW226286   1.965   4.205   0.869
 8463SOL     OW26287   0.143   6.794   1.613
 8463SOL    HW126288   0.075   6.863   1.633
 8463SOL    HW226289   0.224   6.837   1.572
 8464SOL     OW26290   0.312   3.183   6.617
 8464SOL    HW126291   0.227   3.133   6.603
 8464SOL    HW226292   0.347   3.165   6.709
 8465SOL     OW26293   5.460   4.577   0.745
 8465SOL    HW126294   5.460   4.479   0.764
 8465SOL    HW226295   5.523   4.623   0.809
 8466SOL     OW26296   0.608   1.437   4.974
 8466SOL    HW126297   0.577   1.506   4.909
 8466SOL    HW226298   0.692   1.469   5.018
 8467SOL     OW26299   3.024   1.417   0.539
 8467SOL    HW126300   3.011   1.513   0.565
 8467SOL    HW226301   3.111   1.407   0.492
 8468SOL     OW26302   6.357   4.123   0.781
 8468SOL    HW126303   6.368   4.096   0.685
 8468SOL    HW226304   6.428   4.080   0.836
 8469SOL     OW26305   3.670   2.832   5.120
 8469SOL    HW126306   3.704   2.756   5.065
 8469SOL    HW226307   3.571   2.839   5.111
 8470SOL     OW26308   2.215   5.308   1.310
 8470SOL    HW126309   2.310   5.322   1.282
 8470SOL    HW226310   2.158   5.380   1.270
 8471SOL     OW26311   4.115   1.555   3.873
 8471SOL    HW126312   4.168   1.549   3.789
 8471SOL    HW226313   4.176   1.546   3.952
 8472SOL     OW26314   5.950   1.659   6.605
 8472SOL    HW126315   5.953   1.707   6.693
 8472SOL    HW226316   5.965   1.561   6.620
 8473SOL     OW26317   4.631   4.780   6.130
 8473SOL    HW126318   4.595   4.773   6.223
 8473SOL    HW226319   4.706   4.715   6.119
 8474SOL     OW26320   3.652   3.363   5.662
 8474SOL    HW126321   3.559   3.327   5.670
 8474SOL    HW226322   3.713   3.311   5.721
 8475SOL     OW26323   0.719   2.022   2.744
 8475SOL    HW126324   0.645   1.957   2.727
 8475SOL    HW226325   0.681   2.103   2.790
 8476SOL     OW26326   6.705   0.867   2.391
 8476SOL    HW126327   6.760   0.906   2.464
 8476SOL    HW226328   6.679   0.938   2.326
 8477SOL     OW26329   5.466   7.003   0.905
 8477SOL    HW126330   5.523   0.062   0.886
 8477SOL    HW226331   5.398   6.993   0.833
 8478SOL     OW26332   1.775   6.498   6.946
 8478SOL    HW126333   1.777   6.507   6.847
 8478SOL    HW226334   1.800   6.405   6.972
 8479SOL     OW26335   1.058   2.640   0.076
 8479SOL    HW126336   1.091   2.724   0.120
 8479SOL    HW226337   0.977   2.607   0.124
 8480SOL     OW26338   3.229   4.309   1.653
 8480SOL    HW126339   3.267   4.401   1.644
 8480SOL    HW226340   3.129   4.313   1.644
 8481SOL     OW26341   5.010   3.463   2.508
 8481SOL    HW126342   5.004   3.373   2.465
 8481SOL    HW226343   4.950   3.527   2.460
 8482SOL     OW26344   4.758   0.674   5.361
 8482SOL    HW126345   4.767   0.756   5.418
 8482SOL    HW226346   4.739   0.595   5.419
 8483SOL     OW26347   4.455   5.405   3.473
 8483SOL    HW126348   4.454   5.478   3.404
 8483SOL    HW226349   4.547   5.397   3.511
 8484SOL     OW26350   6.695   6.772   5.142
 8484SOL    HW126351   6.692   6.766   5.242
 8484SOL    HW226352   6.705   6.680   5.104
 8485SOL     OW26353   3.771   0.546   5.594
 8485SOL    HW126354   3.708   0.624   5.587
 8485SOL    HW226355   3.844   0.568   5.659
 8486SOL     OW26356   5.038   2.310   4.413
 8486SOL    HW126357   5.062   2.315   4.510
 8486SOL    HW226358   4.944   2.339   4.400
 8487SOL     OW26359   6.966   1.908   5.648
 8487SOL    HW126360   6.949   1.838   5.578
 8487SOL    HW226361   0.007   1.871   5.717
 8488SOL     OW26362   4.059   5.193   3.209
 8488SOL    HW126363   4.010   5.232   3.131
 8488SOL    HW226364   4.157   5.205   3.197
 8489SOL     OW26365   6.763   1.934   2.021
 8489SOL    HW126366   6.822   1.853   2.018
 8489SOL    HW226367   6.717   1.939   2.110
 8490SOL     OW26368   3.748   6.495   0.428
 8490SOL    HW126369   3.761   6.398   0.408
 8490SOL    HW226370   3.786   6.516   0.518
 8491SOL     OW26371   3.315   5.946   2.501
 8491SOL    HW126372   3.344   6.012   2.571
 8491SOL    HW226373   3.390   5.933   2.436
 8492SOL     OW26374   5.452   6.812   4.121
 8492SOL    HW126375   5.405   6.724   4.122
 8492SOL    HW226376   5.396   6.879   4.071
 8493SOL     OW26377   5.337   0.282   5.469
 8493SOL    HW126378   5.307   0.324   5.554
 8493SOL    HW226379   5.262   0.229   5.429
 8494SOL     OW26380   0.040   3.603   2.546
 8494SOL    HW126381   6.985   3.604   2.481
 8494SOL    HW226382   0.019   3.539   2.621
 8495SOL     OW26383   5.290   5.918   5.223
 8495SOL    HW126384   5.295   5.991   5.155
 8495SOL    HW226385   5.382   5.898   5.256
 8496SOL     OW26386   3.946   2.235   2.702
 8496SOL    HW126387   4.015   2.280   2.645
 8496SOL    HW226388   3.959   2.260   2.797
 8497SOL     OW26389   6.245   0.652   3.116
 8497SOL    HW126390   6.266   0.747   3.137
 8497SOL    HW226391   6.311   0.617   3.050
 8498SOL     OW26392   4.666   6.566   4.365
 8498SOL    HW126393   4.682   6.654   4.322
 8498SOL    HW226394   4.754   6.518   4.377
 8499SOL     OW26395   6.290   6.875   5.265
 8499SOL    HW126396   6.349   6.876   5.184
 8499SOL    HW226397   6.195   6.891   5.238
 8500SOL     OW26398   1.382   0.558   6.490
 8500SOL    HW126399   1.322   0.503   6.432
 8500SOL    HW226400   1.432   0.497   6.552
 8501SOL     OW26401   3.404   0.805   5.239
 8501SOL    HW126402   3.352   0.878   5.283
 8501SOL    HW226403   3.375   0.795   5.144
 8502SOL     OW26404   6.737   2.934   0.143
 8502SOL    HW126405   6.641   2.934   0.172
 8502SOL    HW226406   6.796   2.911   0.221
 8503SOL     OW26407   4.507   1.940   5.560
 8503SOL    HW126408   4.562   1.857   5.562
 8503SOL    HW226409   4.514   1.982   5.469
 8504SOL     OW26410   1.296   0.456   3.283
 8504SOL    HW126411   1.206   0.422   3.309
 8504SOL    HW226412   1.296   0.483   3.187
 8505SOL     OW26413   5.879   2.037   2.578
 8505SOL    HW126414   5.814   1.967   2.547
 8505SOL    HW226415   5.903   2.097   2.502
 8506SOL     OW26416   1.845   0.655   4.854
 8506SOL    HW126417   1.746   0.665   4.844
 8506SOL    HW226418   1.874   0.689   4.944
 8507SOL     OW26419   4.531   4.743   6.398
 8507SOL    HW126420   4.505   4.688   6.477
 8507SOL    HW226421   4.611   4.799   6.421
 8508SOL     OW26422   3.778   0.547   6.250
 8508SOL    HW126423   3.861   0.502   6.284
 8508SOL    HW226424   3.712   0.477   6.222
 8509SOL     OW26425   4.494   2.141   2.282
 8509SOL    HW126426   4.496   2.105   2.375
 8509SOL    HW226427   4.447   2.229   2.281
 8510SOL     OW26428   0.924   2.031   4.613
 8510SOL    HW126429   0.840   1.990   4.578
 8510SOL    HW226430   0.960   1.974   4.687
 8511SOL     OW26431   5.645   2.199   4.287
 8511SOL    HW126432   5.696   2.257   4.351
 8511SOL    HW226433   5.688   2.109   4.283
 8512SOL     OW26434   1.761   6.290   5.898
 8512SOL    HW126435   1.764   6.385   5.866
 8512SOL    HW226436   1.805   6.231   5.831
 8513SOL     OW26437   4.130   5.432   6.684
 8513SOL    HW126438   4.199   5.484   6.634
 8513SOL    HW226439   4.175   5.359   6.735
 8514SOL     OW26440   3.834   5.740   4.678
 8514SOL    HW126441   3.914   5.684   4.696
 8514SOL    HW226442   3.775   5.694   4.612
 8515SOL     OW26443   5.406   3.172   1.233
 8515SOL    HW126444   5.337   3.108   1.268
 8515SOL    HW226445   5.472   3.193   1.305
 8516SOL     OW26446   6.926   2.157   1.433
 8516SOL    HW126447   6.934   2.065   1.471
 8516SOL    HW226448   6.928   2.224   1.508
 8517SOL     OW26449   1.294   3.851   4.361
 8517SOL    HW126450   1.311   3.950   4.357
 8517SOL    HW226451   1.369   3.803   4.315
 8518SOL     OW26452   3.559   5.543   0.661
 8518SOL    HW126453   3.586   5.639   0.654
 8518SOL    HW226454   3.479   5.527   0.604
 8519SOL     OW26455   2.628   5.551   3.715
 8519SOL    HW126456   2.588   5.520   3.801
 8519SOL    HW226457   2.721   5.515   3.708
 8520SOL     OW26458   3.518   5.749   6.450
 8520SOL    HW126459   3.599   5.782   6.402
 8520SOL    HW226460   3.542   5.668   6.503
 8521SOL     OW26461   1.057   0.787   2.623
 8521SOL    HW126462   0.999   0.842   2.562
 8521SOL    HW226463   1.001   0.749   2.697
 8522SOL     OW26464   2.243   6.470   4.270
 8522SOL    HW126465   2.273   6.565   4.262
 8522SOL    HW226466   2.152   6.467   4.312
 8523SOL     OW26467   1.723   6.178   6.794
 8523SOL    HW126468   1.737   6.223   6.883
 8523SOL    HW226469   1.629   6.143   6.790
 8524SOL     OW26470   1.836   1.455   0.128
 8524SOL    HW126471   1.897   1.377   0.143
 8524SOL    HW226472   1.811   1.460   0.031
 8525SOL     OW26473   5.506   4.745   4.308
 8525SOL    HW126474   5.584   4.691   4.339
 8525SOL    HW226475   5.539   4.825   4.258
 8526SOL     OW26476   0.238   3.147   1.982
 8526SOL    HW126477   0.197   3.217   2.040
 8526SOL    HW226478   0.249   3.182   1.889
 8527SOL     OW26479   4.940   0.450   4.753
 8527SOL    HW126480   4.895   0.445   4.843
 8527SOL    HW226481   4.977   0.542   4.740
 8528SOL     OW26482   5.384   0.521   0.213
 8528SOL    HW126483   5.363   0.458   0.139
 8528SOL    HW226484   5.342   0.489   0.298
 8529SOL     OW26485   0.003   0.098   4.719
 8529SOL    HW126486   6.951   0.078   4.784
 8529SOL    HW226487   0.066   0.020   4.715
 8530SOL     OW26488   2.120   4.468   6.089
 8530SOL    HW126489   2.079   4.464   5.998
 8530SOL    HW226490   2.125   4.563   6.120
 8531SOL     OW26491   3.821   5.769   2.576
 8531SOL    HW126492   3.723   5.750   2.576
 8531SOL    HW226493   3.869   5.699   2.523
 8532SOL     OW26494   1.471   4.064   0.022
 8532SOL    HW126495   1.545   4.120   7.007
 8532SOL    HW226496   1.387   4.083   6.993
 8533SOL     OW26497   3.115   6.976   5.858
 8533SOL    HW126498   3.202   7.016   5.888
 8533SOL    HW226499   3.064   6.943   5.938
 8534SOL     OW26500   2.381   2.161   0.615
 8534SOL    HW126501   2.439   2.135   0.692
 8534SOL    HW226502   2.292   2.193   0.649
 8535SOL     OW26503   0.191   2.772   6.083
 8535SOL    HW126504   0.271   2.741   6.134
 8535SOL    HW226505   0.207   2.864   6.047
 8536SOL     OW26506   6.246   0.422   5.965
 8536SOL    HW126507   6.308   0.414   5.887
 8536SOL    HW226508   6.166   0.476   5.938
 8537SOL     OW26509   3.856   6.494   3.286
 8537SOL    HW126510   3.929   6.448   3.335
 8537SOL    HW226511   3.774   6.498   3.344
 8538SOL     OW26512   4.252   1.301   5.117
 8538SOL    HW126513   4.283   1.322   5.024
 8538SOL    HW226514   4.332   1.288   5.177
 8539SOL     OW26515   0.774   3.272   3.448
 8539SOL    HW126516   0.747   3.345   3.511
 8539SOL    HW226517   0.723   3.189   3.470
 8540SOL     OW26518   4.995   6.240   6.215
 8540SOL    HW126519   4.983   6.141   6.207
 8540SOL    HW226520   5.077   6.260   6.267
 8541SOL     OW26521   3.134   5.942   5.501
 8541SOL    HW126522   3.184   5.974   5.421
 8541SOL    HW226523   3.189   5.958   5.583
 8542SOL     OW26524   2.143   4.728   6.222
 8542SOL    HW126525   2.105   4.808   6.269
 8542SOL    HW226526   2.216   4.757   6.160
 8543SOL     OW26527   3.558   1.664   5.502
 8543SOL    HW126528   3.461   1.683   5.517
 8543SOL    HW226529   3.613   1.734   5.547
 8544SOL     OW26530   5.213   3.628   5.600
 8544SOL    HW126531   5.227   3.717   5.557
 8544SOL    HW226532   5.194   3.560   5.530
 8545SOL     OW26533   2.130   0.531   5.769
 8545SOL    HW126534   2.032   0.526   5.750
 8545SOL    HW226535   2.153   0.469   5.844
 8546SOL     OW26536   2.909   1.479   4.105
 8546SOL    HW126537   2.871   1.552   4.162
 8546SOL    HW226538   2.844   1.404   4.099
 8547SOL     OW26539   5.814   5.525   5.386
 8547SOL    HW126540   5.830   5.427   5.399
 8547SOL    HW226541   5.840   5.551   5.293
 8548SOL     OW26542   1.468   4.044   4.466
 8548SOL    HW126543   1.528   4.062   4.543
 8548SOL    HW226544   1.394   4.111   4.465
 8549SOL     OW26545   3.063   0.559   3.454
 8549SOL    HW126546   3.097   0.467   3.438
 8549SOL    HW226547   3.138   0.625   3.444
 8550SOL     OW26548   0.483   3.424   5.046
 8550SOL    HW126549   0.446   3.456   5.133
 8550SOL    HW226550   0.582   3.413   5.054
 8551SOL     OW26551   3.757   1.483   3.727
 8551SOL    HW126552   3.748   1.500   3.629
 8551SOL    HW226553   3.668   1.454   3.764
 8552SOL     OW26554   4.086   1.387   2.078
 8552SOL    HW126555   4.024   1.465   2.088
 8552SOL    HW226556   4.154   1.408   2.008
 8553SOL     OW26557   5.231   3.473   0.169
 8553SOL    HW126558   5.311   3.495   0.225
 8553SOL    HW226559   5.148   3.482   0.225
 8554SOL     OW26560   1.115   1.179   6.795
 8554SOL    HW126561   1.193   1.227   6.754
 8554SOL    HW226562   1.055   1.245   6.841
 8555SOL     OW26563   3.344   1.507   3.323
 8555SOL    HW126564   3.285   1.582   3.293
 8555SOL    HW226565   3.297   1.419   3.309
 8556SOL     OW26566   0.303   4.020   5.206
 8556SOL    HW126567   0.274   3.932   5.242
 8556SOL    HW226568   0.284   4.023   5.108
 8557SOL     OW26569   6.424   0.838   0.800
 8557SOL    HW126570   6.489   0.813   0.729
 8557SOL    HW226571   6.374   0.920   0.773
 8558SOL     OW26572   2.431   6.368   3.382
 8558SOL    HW126573   2.484   6.332   3.305
 8558SOL    HW226574   2.390   6.456   3.356
 8559SOL     OW26575   1.375   3.164   3.505
 8559SOL    HW126576   1.293   3.221   3.500
 8559SOL    HW226577   1.358   3.079   3.453
 8560SOL     OW26578   3.453   4.261   1.448
 8560SOL    HW126579   3.469   4.162   1.452
 8560SOL    HW226580   3.402   4.289   1.530
 8561SOL     OW26581   4.153   1.025   2.232
 8561SOL    HW126582   4.134   1.106   2.288
 8561SOL    HW226583   4.213   0.963   2.282
 8562SOL     OW26584   5.260   2.821   6.327
 8562SOL    HW126585   5.280   2.832   6.424
 8562SOL    HW226586   5.345   2.821   6.275
 8563SOL     OW26587   0.976   4.499   2.745
 8563SOL    HW126588   0.915   4.565   2.789
 8563SOL    HW226589   1.051   4.476   2.807
 8564SOL     OW26590   4.267   6.419   6.830
 8564SOL    HW126591   4.263   6.451   6.925
 8564SOL    HW226592   4.204   6.473   6.774
 8565SOL     OW26593   0.942   4.823   1.205
 8565SOL    HW126594   0.971   4.805   1.299
 8565SOL    HW226595   0.985   4.907   1.172
 8566SOL     OW26596   1.928   0.931   3.284
 8566SOL    HW126597   2.017   0.964   3.315
 8566SOL    HW226598   1.869   1.009   3.261
 8567SOL     OW26599   1.480   3.324   1.003
 8567SOL    HW126600   1.458   3.344   1.099
 8567SOL    HW226601   1.398   3.331   0.947
 8568SOL     OW26602   5.507   6.817   5.895
 8568SOL    HW126603   5.448   6.857   5.964
 8568SOL    HW226604   5.602   6.817   5.927
 8569SOL     OW26605   4.692   1.439   6.225
 8569SOL    HW126606   4.615   1.387   6.189
 8569SOL    HW226607   4.762   1.448   6.155
 8570SOL     OW26608   1.692   2.603   4.219
 8570SOL    HW126609   1.724   2.585   4.312
 8570SOL    HW226610   1.674   2.516   4.173
 8571SOL     OW26611   1.385   0.900   3.761
 8571SOL    HW126612   1.346   0.956   3.687
 8571SOL    HW226613   1.480   0.878   3.739
 8572SOL     OW26614   2.665   3.625   5.683
 8572SOL    HW126615   2.666   3.721   5.711
 8572SOL    HW226616   2.676   3.618   5.584
 8573SOL     OW26617   1.703   6.069   6.409
 8573SOL    HW126618   1.729   6.077   6.312
 8573SOL    HW226619   1.607   6.039   6.415
 8574SOL     OW26620   5.760   2.335   5.585
 8574SOL    HW126621   5.786   2.313   5.679
 8574SOL    HW226622   5.709   2.421   5.583
 8575SOL     OW26623   2.488   6.229   4.567
 8575SOL    HW126624   2.571   6.277   4.596
 8575SOL    HW226625   2.464   6.258   4.475
 8576SOL     OW26626   1.552   3.872   5.086
 8576SOL    HW126627   1.498   3.942   5.039
 8576SOL    HW226628   1.609   3.915   5.155
 8577SOL     OW26629   1.900   1.007   0.636
 8577SOL    HW126630   1.923   1.055   0.721
 8577SOL    HW226631   1.978   1.013   0.573
 8578SOL     OW26632   1.276   0.249   5.568
 8578SOL    HW126633   1.364   0.234   5.521
 8578SOL    HW226634   1.214   0.174   5.545
 8579SOL     OW26635   3.109   6.706   2.189
 8579SOL    HW126636   3.106   6.725   2.091
 8579SOL    HW226637   3.016   6.700   2.225
 8580SOL     OW26638   1.668   0.770   2.038
 8580SOL    HW126639   1.641   0.856   1.995
 8580SOL    HW226640   1.588   0.725   2.077
 8581SOL     OW26641   4.134   3.528   3.221
 8581SOL    HW126642   4.059   3.462   3.220
 8581SOL    HW226643   4.131   3.584   3.138
 8582SOL     OW26644   4.548   5.186   5.589
 8582SOL    HW126645   4.531   5.280   5.557
 8582SOL    HW226646   4.646   5.168   5.588
 8583SOL     OW26647   3.130   0.322   2.788
 8583SOL    HW126648   3.171   0.231   2.776
 8583SOL    HW226649   3.103   0.333   2.884
 8584SOL     OW26650   5.767   2.142   5.379
 8584SOL    HW126651   5.763   2.179   5.286
 8584SOL    HW226652   5.769   2.217   5.444
 8585SOL     OW26653   4.940   2.268   3.015
 8585SOL    HW126654   4.882   2.297   2.940
 8585SOL    HW226655   5.036   2.285   2.992
 8586SOL     OW26656   6.701   6.729   5.411
 8586SOL    HW126657   6.774   6.750   5.476
 8586SOL    HW226658   6.613   6.748   5.454
 8587SOL     OW26659   6.939   0.167   1.066
 8587SOL    HW126660   6.859   0.140   1.014
 8587SOL    HW226661   6.913   0.235   1.135
 8588SOL     OW26662   1.672   1.451   5.889
 8588SOL    HW126663   1.742   1.470   5.820
 8588SOL    HW226664   1.597   1.516   5.879
 8589SOL     OW26665   5.655   2.928   6.533
 8589SOL    HW126666   5.628   2.854   6.595
 8589SOL    HW226667   5.582   2.996   6.529
 8590SOL     OW26668   1.328   0.852   3.116
 8590SOL    HW126669   1.233   0.884   3.122
 8590SOL    HW226670   1.359   0.821   3.205
 8591SOL     OW26671   0.878   3.946   5.572
 8591SOL    HW126672   0.920   3.990   5.651
 8591SOL    HW226673   0.783   3.977   5.563
 8592SOL     OW26674   0.440   2.433   4.806
 8592SOL    HW126675   0.411   2.361   4.742
 8592SOL    HW226676   0.399   2.520   4.779
 8593SOL     OW26677   6.648   1.139   0.268
 8593SOL    HW126678   6.733   1.160   0.219
 8593SOL    HW226679   6.643   1.040   0.284
 8594SOL     OW26680   5.920   3.895   6.678
 8594SOL    HW126681   5.896   3.908   6.774
 8594SOL    HW226682   5.838   3.905   6.621
 8595SOL     OW26683   5.327   6.466   2.475
 8595SOL    HW126684   5.342   6.375   2.514
 8595SOL    HW226685   5.266   6.518   2.534
 8596SOL     OW26686   0.335   2.624   5.884
 8596SOL    HW126687   0.292   2.694   5.941
 8596SOL    HW226688   0.273   2.546   5.875
 8597SOL     OW26689   6.294   2.403   5.779
 8597SOL    HW126690   6.204   2.448   5.773
 8597SOL    HW226691   6.359   2.465   5.822
 8598SOL     OW26692   0.125   0.579   5.996
 8598SOL    HW126693   0.076   0.657   5.959
 8598SOL    HW226694   0.153   0.518   5.922
 8599SOL     OW26695   5.426   4.186   4.978
 8599SOL    HW126696   5.378   4.196   4.891
 8599SOL    HW226697   5.380   4.116   5.033
 8600SOL     OW26698   3.967   2.958   1.857
 8600SOL    HW126699   4.004   3.039   1.904
 8600SOL    HW226700   4.016   2.944   1.771
 8601SOL     OW26701   4.428   5.204   2.255
 8601SOL    HW126702   4.464   5.111   2.243
 8601SOL    HW226703   4.497   5.270   2.226
 8602SOL     OW26704   2.091   6.336   4.745
 8602SOL    HW126705   2.107   6.353   4.843
 8602SOL    HW226706   2.011   6.278   4.735
 8603SOL     OW26707   1.037   1.492   0.116
 8603SOL    HW126708   1.050   1.479   0.214
 8603SOL    HW226709   1.026   1.590   0.097
 8604SOL     OW26710   1.544   5.579   6.094
 8604SOL    HW126711   1.553   5.613   6.187
 8604SOL    HW226712   1.622   5.522   6.071
 8605SOL     OW26713   6.278   4.528   4.422
 8605SOL    HW126714   6.304   4.620   4.391
 8605SOL    HW226715   6.189   4.533   4.467
 8606SOL     OW26716   0.886   0.465   6.857
 8606SOL    HW126717   0.845   0.436   6.770
 8606SOL    HW226718   0.829   0.537   6.898
 8607SOL     OW26719   2.742   2.826   1.167
 8607SOL    HW126720   2.821   2.816   1.107
 8607SOL    HW226721   2.771   2.819   1.262
 8608SOL     OW26722   2.259   5.274   1.590
 8608SOL    HW126723   2.221   5.271   1.498
 8608SOL    HW226724   2.359   5.284   1.585
 8609SOL     OW26725   4.609   2.258   3.919
 8609SOL    HW126726   4.570   2.275   4.010
 8609SOL    HW226727   4.610   2.160   3.901
 8610SOL     OW26728   6.975   5.406   2.600
 8610SOL    HW126729   0.026   5.439   2.662
 8610SOL    HW226730   6.897   5.376   2.654
 8611SOL     OW26731   2.056   1.546   5.510
 8611SOL    HW126732   2.101   1.625   5.552
 8611SOL    HW226733   2.124   1.492   5.461
 8612SOL     OW26734   3.090   3.297   5.719
 8612SOL    HW126735   3.069   3.237   5.642
 8612SOL    HW226736   3.024   3.371   5.724
 8613SOL     OW26737   2.901   3.602   3.330
 8613SOL    HW126738   2.894   3.545   3.412
 8613SOL    HW226739   2.914   3.698   3.356
 8614SOL     OW26740   0.458   2.893   4.105
 8614SOL    HW126741   0.478   2.841   4.188
 8614SOL    HW226742   0.393   2.844   4.049
 8615SOL     OW26743   3.884   0.929   5.157
 8615SOL    HW126744   3.795   0.971   5.138
 8615SOL    HW226745   3.950   0.999   5.182
 8616SOL     OW26746   6.011   4.197   5.441
 8616SOL    HW126747   6.037   4.230   5.351
 8616SOL    HW226748   5.934   4.250   5.476
 8617SOL     OW26749   0.872   0.014   3.561
 8617SOL    HW126750   0.907   0.075   3.490
 8617SOL    HW226751   0.779   7.006   3.537
 8618SOL     OW26752   6.550   4.820   0.628
 8618SOL    HW126753   6.642   4.782   0.633
 8618SOL    HW226754   6.515   4.807   0.535
 8619SOL     OW26755   5.525   5.461   6.316
 8619SOL    HW126756   5.435   5.428   6.345
 8619SOL    HW226757   5.595   5.395   6.343
 8620SOL     OW26758   1.216   6.465   4.104
 8620SOL    HW126759   1.240   6.486   4.010
 8620SOL    HW226760   1.151   6.389   4.106
 8621SOL     OW26761   5.988   3.521   1.302
 8621SOL    HW126762   5.925   3.450   1.271
 8621SOL    HW226763   5.948   3.611   1.285
 8622SOL     OW26764   0.905   5.771   1.807
 8622SOL    HW126765   0.998   5.808   1.812
 8622SOL    HW226766   0.873   5.776   1.712
 8623SOL     OW26767   2.372   1.998   3.063
 8623SOL    HW126768   2.348   2.095   3.069
 8623SOL    HW226769   2.408   1.978   2.972
 8624SOL     OW26770   3.231   3.622   5.510
 8624SOL    HW126771   3.146   3.611   5.457
 8624SOL    HW226772   3.211   3.611   5.607
 8625SOL     OW26773   4.379   3.055   5.867
 8625SOL    HW126774   4.285   3.043   5.836
 8625SOL    HW226775   4.393   3.150   5.896
 8626SOL     OW26776   5.446   1.929   1.009
 8626SOL    HW126777   5.490   1.863   1.069
 8626SOL    HW226778   5.370   1.973   1.058
 8627SOL     OW26779   7.001   6.956   2.681
 8627SOL    HW126780   6.957   7.012   2.752
 8627SOL    HW226781   0.061   7.004   2.646
 8628SOL     OW26782   1.172   6.555   0.707
 8628SOL    HW126783   1.125   6.562   0.620
 8628SOL    HW226784   1.173   6.644   0.752
 8629SOL     OW26785   0.048   0.896   4.582
 8629SOL    HW126786   0.125   0.929   4.528
 8629SOL    HW226787   6.997   0.967   4.585
 8630SOL     OW26788   4.989   3.117   1.279
 8630SOL    HW126789   4.948   3.031   1.248
 8630SOL    HW226790   4.995   3.181   1.202
 8631SOL     OW26791   1.467   6.044   6.762
 8631SOL    HW126792   1.471   5.970   6.830
 8631SOL    HW226793   1.374   6.081   6.759
 8632SOL     OW26794   6.330   5.836   3.988
 8632SOL    HW126795   6.377   5.819   3.901
 8632SOL    HW226796   6.326   5.935   4.005
 8633SOL     OW26797   6.700   3.695   5.340
 8633SOL    HW126798   6.667   3.773   5.392
 8633SOL    HW226799   6.691   3.715   5.242
 8634SOL     OW26800   5.137   4.954   6.525
 8634SOL    HW126801   5.057   4.925   6.576
 8634SOL    HW226802   5.156   5.050   6.545
 8635SOL     OW26803   5.262   1.621   6.515
 8635SOL    HW126804   5.312   1.543   6.477
 8635SOL    HW226805   5.313   1.705   6.497
 8636SOL     OW26806   3.997   6.089   0.647
 8636SOL    HW126807   4.028   6.050   0.733
 8636SOL    HW226808   3.909   6.134   0.660
 8637SOL     OW26809   2.971   2.473   0.651
 8637SOL    HW126810   2.981   2.443   0.746
 8637SOL    HW226811   2.919   2.558   0.648
 8638SOL     OW26812   5.340   2.183   4.744
 8638SOL    HW126813   5.333   2.172   4.645
 8638SOL    HW226814   5.283   2.259   4.774
 8639SOL     OW26815   3.818   3.971   0.327
 8639SOL    HW126816   3.751   4.040   0.355
 8639SOL    HW226817   3.770   3.885   0.310
 8640SOL     OW26818   3.482   1.963   6.377
 8640SOL    HW126819   3.390   2.002   6.374
 8640SOL    HW226820   3.488   1.897   6.452
 8641SOL     OW26821   3.517   4.942   3.328
 8641SOL    HW126822   3.500   4.941   3.230
 8641SOL    HW226823   3.538   4.849   3.359
 8642SOL     OW26824   2.245   6.548   2.984
 8642SOL    HW126825   2.273   6.458   2.951
 8642SOL    HW226826   2.272   6.557   3.080
 8643SOL     OW26827   4.072   6.257   1.328
 8643SOL    HW126828   4.054   6.348   1.364
 8643SOL    HW226829   4.159   6.258   1.278
 8644SOL     OW26830   5.307   1.956   6.271
 8644SOL    HW126831   5.388   2.006   6.242
 8644SOL    HW226832   5.331   1.894   6.346
 8645SOL     OW26833   4.669   5.259   2.683
 8645SOL    HW126834   4.686   5.347   2.727
 8645SOL    HW226835   4.667   5.271   2.583
 8646SOL     OW26836   0.105   2.259   4.257
 8646SOL    HW126837   0.115   2.295   4.165
 8646SOL    HW226838   0.025   2.301   4.301
 8647SOL     OW26839   1.920   4.646   1.762
 8647SOL    HW126840   1.834   4.690   1.789
 8647SOL    HW226841   1.981   4.714   1.723
 8648SOL     OW26842   5.626   5.658   6.139
 8648SOL    HW126843   5.563   5.606   6.198
 8648SOL    HW226844   5.639   5.609   6.053
 8649SOL     OW26845   5.739   2.379   2.170
 8649SOL    HW126846   5.694   2.385   2.260
 8649SOL    HW226847   5.670   2.367   2.099
 8650SOL     OW26848   1.087   0.730   4.879
 8650SOL    HW126849   1.148   0.673   4.934
 8650SOL    HW226850   1.053   0.805   4.936
 8651SOL     OW26851   4.617   1.219   1.493
 8651SOL    HW126852   4.554   1.281   1.446
 8651SOL    HW226853   4.686   1.187   1.428
 8652SOL     OW26854   6.324   3.139   4.967
 8652SOL    HW126855   6.359   3.201   4.896
 8652SOL    HW226856   6.225   3.152   4.977
 8653SOL     OW26857   5.275   0.501   0.737
 8653SOL    HW126858   5.367   0.536   0.751
 8653SOL    HW226859   5.212   0.546   0.801
 8654SOL     OW26860   0.270   4.593   2.740
 8654SOL    HW126861   0.358   4.552   2.717
 8654SOL    HW226862   0.246   4.570   2.834
 8655SOL     OW26863   1.402   6.782   4.999
 8655SOL    HW126864   1.446   6.774   5.088
 8655SOL    HW226865   1.347   6.700   4.981
 8656SOL     OW26866   4.077   6.026   0.924
 8656SOL    HW126867   4.154   6.008   0.986
 8656SOL    HW226868   3.991   6.006   0.971
 8657SOL     OW26869   3.095   1.901   2.494
 8657SOL    HW126870   3.099   1.866   2.400
 8657SOL    HW226871   3.034   1.980   2.498
 8658SOL     OW26872   6.621   4.100   0.540
 8658SOL    HW126873   6.545   4.038   0.517
 8658SOL    HW226874   6.624   4.174   0.473
 8659SOL     OW26875   3.379   0.330   3.491
 8659SOL    HW126876   3.443   0.404   3.509
 8659SOL    HW226877   3.349   0.289   3.577
 8660SOL     OW26878   6.802   4.056   1.504
 8660SOL    HW126879   6.820   4.026   1.411
 8660SOL    HW226880   6.885   4.045   1.559
 8661SOL     OW26881   5.973   3.357   1.929
 8661SOL    HW126882   6.043   3.352   1.857
 8661SOL    HW226883   5.884   3.376   1.888
 8662SOL     OW26884   1.857   2.334   2.506
 8662SOL    HW126885   1.945   2.286   2.516
 8662SOL    HW226886   1.848   2.403   2.577
 8663SOL     OW26887   3.243   4.846   2.690
 8663SOL    HW126888   3.216   4.920   2.630
 8663SOL    HW226889   3.173   4.831   2.759
 8664SOL     OW26890   3.364   5.722   3.999
 8664SOL    HW126891   3.379   5.735   4.097
 8664SOL    HW226892   3.285   5.776   3.970
 8665SOL     OW26893   0.619   3.482   6.642
 8665SOL    HW126894   0.571   3.526   6.718
 8665SOL    HW226895   0.601   3.533   6.558
 8666SOL     OW26896   4.776   6.950   2.651
 8666SOL    HW126897   4.804   6.963   2.556
 8666SOL    HW226898   4.829   7.011   2.710
 8667SOL     OW26899   4.681   2.305   2.129
 8667SOL    HW126900   4.666   2.235   2.199
 8667SOL    HW226901   4.602   2.365   2.124
 8668SOL     OW26902   3.644   2.060   3.234
 8668SOL    HW126903   3.550   2.086   3.215
 8668SOL    HW226904   3.688   2.130   3.290
 8669SOL     OW26905   0.470   5.665   5.725
 8669SOL    HW126906   0.520   5.592   5.677
 8669SOL    HW226907   0.440   5.632   5.814
 8670SOL     OW26908   0.389   5.325   5.148
 8670SOL    HW126909   0.335   5.375   5.080
 8670SOL    HW226910   0.415   5.235   5.111
 8671SOL     OW26911   0.492   3.351   3.856
 8671SOL    HW126912   0.458   3.310   3.940
 8671SOL    HW226913   0.528   3.279   3.796
 8672SOL     OW26914   6.371   1.553   2.257
 8672SOL    HW126915   6.413   1.475   2.303
 8672SOL    HW226916   6.278   1.529   2.229
 8673SOL     OW26917   0.628   1.636   1.869
 8673SOL    HW126918   0.712   1.654   1.920
 8673SOL    HW226919   0.564   1.711   1.883
 8674SOL     OW26920   0.306   3.345   4.299
 8674SOL    HW126921   0.372   3.417   4.321
 8674SOL    HW226922   0.331   3.261   4.348
 8675SOL     OW26923   5.048   2.577   4.948
 8675SOL    HW126924   4.966   2.542   4.993
 8675SOL    HW226925   5.027   2.661   4.899
 8676SOL     OW26926   4.634   2.694   0.498
 8676SOL    HW126927   4.644   2.630   0.423
 8676SOL    HW226928   4.724   2.726   0.528
 8677SOL     OW26929   3.282   0.980   0.178
 8677SOL    HW126930   3.314   1.008   0.087
 8677SOL    HW226931   3.351   0.925   0.223
 8678SOL     OW26932   3.214   2.126   0.060
 8678SOL    HW126933   3.267   2.141   0.143
 8678SOL    HW226934   3.259   2.057   0.004
 8679SOL     OW26935   1.680   2.359   6.928
 8679SOL    HW126936   1.715   2.309   6.849
 8679SOL    HW226937   1.716   2.318   7.012
 8680SOL     OW26938   0.085   7.009   1.308
 8680SOL    HW126939   0.156   6.946   1.276
 8680SOL    HW226940   0.118   0.040   1.387
 8681SOL     OW26941   5.280   5.536   0.925
 8681SOL    HW126942   5.350   5.607   0.938
 8681SOL    HW226943   5.267   5.521   0.827
 8682SOL     OW26944   1.803   1.453   2.413
 8682SOL    HW126945   1.721   1.449   2.470
 8682SOL    HW226946   1.793   1.524   2.344
 8683SOL     OW26947   2.423   4.420   4.236
 8683SOL    HW126948   2.463   4.352   4.297
 8683SOL    HW226949   2.378   4.374   4.160
 8684SOL     OW26950   2.264   4.183   3.715
 8684SOL    HW126951   2.192   4.179   3.784
 8684SOL    HW226952   2.222   4.187   3.624
 8685SOL     OW26953   4.897   3.167   5.597
 8685SOL    HW126954   4.853   3.255   5.614
 8685SOL    HW226955   4.892   3.146   5.499
 8686SOL     OW26956   1.341   4.946   2.702
 8686SOL    HW126957   1.387   5.032   2.679
 8686SOL    HW226958   1.401   4.869   2.680
 8687SOL     OW26959   6.136   4.261   5.699
 8687SOL    HW126960   6.087   4.213   5.626
 8687SOL    HW226961   6.166   4.350   5.665
 8688SOL     OW26962   0.637   3.717   5.103
 8688SOL    HW126963   0.655   3.723   5.201
 8688SOL    HW226964   0.629   3.809   5.064
 8689SOL     OW26965   5.250   3.407   1.222
 8689SOL    HW126966   5.314   3.331   1.237
 8689SOL    HW226967   5.267   3.478   1.290
 8690SOL     OW26968   1.522   2.331   2.182
 8690SOL    HW126969   1.525   2.242   2.229
 8690SOL    HW226970   1.567   2.400   2.238
 8691SOL     OW26971   3.384   1.043   6.933
 8691SOL    HW126972   3.436   1.006   6.856
 8691SOL    HW226973   3.445   1.099   6.989
 8692SOL     OW26974   5.518   2.471   4.544
 8692SOL    HW126975   5.457   2.546   4.518
 8692SOL    HW226976   5.485   2.386   4.502
 8693SOL     OW26977   0.693   6.857   5.385
 8693SOL    HW126978   0.665   6.772   5.431
 8693SOL    HW226979   0.769   6.898   5.435
 8694SOL     OW26980   4.084   3.921   5.286
 8694SOL    HW126981   4.009   3.961   5.234
 8694SOL    HW226982   4.062   3.924   5.384
 8695SOL     OW26983   4.100   3.920   1.064
 8695SOL    HW126984   4.115   3.822   1.061
 8695SOL    HW226985   4.183   3.965   1.098
 8696SOL     OW26986   2.907   5.432   6.577
 8696SOL    HW126987   2.898   5.337   6.609
 8696SOL    HW226988   2.817   5.467   6.551
 8697SOL     OW26989   1.005   3.229   4.842
 8697SOL    HW126990   0.972   3.138   4.866
 8697SOL    HW226991   1.057   3.224   4.756
 8698SOL     OW26992   5.959   4.239   6.729
 8698SOL    HW126993   5.881   4.298   6.751
 8698SOL    HW226994   5.989   4.192   6.811
 8699SOL     OW26995   2.691   2.181   1.188
 8699SOL    HW126996   2.644   2.253   1.137
 8699SOL    HW226997   2.660   2.181   1.283
 8700SOL     OW26998   0.327   2.067   4.251
 8700SOL    HW126999   0.271   2.008   4.309
 8700SOL    HW227000   0.271   2.143   4.217
 8701SOL     OW27001   2.510   3.251   6.857
 8701SOL    HW127002   2.411   3.236   6.848
 8701SOL    HW227003   2.552   3.244   6.767
 8702SOL     OW27004   5.401   3.938   1.145
 8702SOL    HW127005   5.314   3.957   1.190
 8702SOL    HW227006   5.464   3.896   1.211
 8703SOL     OW27007   1.975   4.940   1.684
 8703SOL    HW127008   2.042   4.934   1.758
 8703SOL    HW227009   1.970   5.034   1.650
 8704SOL     OW27010   6.283   0.960   3.399
 8704SOL    HW127011   6.376   0.945   3.434
 8704SOL    HW227012   6.282   0.946   3.300
 8705SOL     OW27013   3.770   1.965   0.095
 8705SOL    HW127014   3.679   1.941   0.129
 8705SOL    HW227015   3.763   1.996   7.021
 8706SOL     OW27016   4.719   2.894   5.152
 8706SOL    HW127017   4.697   2.831   5.077
 8706SOL    HW227018   4.818   2.910   5.154
 8707SOL     OW27019   1.243   1.233   4.093
 8707SOL    HW127020   1.326   1.179   4.108
 8707SOL    HW227021   1.269   1.326   4.067
 8708SOL     OW27022   5.625   2.478   0.685
 8708SOL    HW127023   5.610   2.490   0.783
 8708SOL    HW227024   5.718   2.445   0.669
 8709SOL     OW27025   6.233   6.261   4.187
 8709SOL    HW127026   6.314   6.282   4.242
 8709SOL    HW227027   6.184   6.346   4.166
 8710SOL     OW27028   2.200   3.082   3.545
 8710SOL    HW127029   2.217   3.024   3.625
 8710SOL    HW227030   2.137   3.035   3.483
 8711SOL     OW27031   0.934   2.004   2.348
 8711SOL    HW127032   0.881   2.077   2.391
 8711SOL    HW227033   0.997   1.965   2.415
 8712SOL     OW27034   1.067   3.719   4.114
 8712SOL    HW127035   1.079   3.679   4.023
 8712SOL    HW227036   1.155   3.750   4.148
 8713SOL     OW27037   0.114   5.039   3.738
 8713SOL    HW127038   0.033   5.092   3.714
 8713SOL    HW227039   0.157   5.078   3.820
 8714SOL     OW27040   0.651   4.639   6.297
 8714SOL    HW127041   0.630   4.541   6.304
 8714SOL    HW227042   0.567   4.689   6.273
 8715SOL     OW27043   2.209   4.854   1.230
 8715SOL    HW127044   2.214   4.847   1.131
 8715SOL    HW227045   2.210   4.762   1.270
 8716SOL     OW27046   5.416   0.094   2.770
 8716SOL    HW127047   5.329   0.109   2.723
 8716SOL    HW227048   5.481   0.053   2.706
 8717SOL     OW27049   3.892   2.467   6.596
 8717SOL    HW127050   3.795   2.473   6.616
 8717SOL    HW227051   3.942   2.443   6.679
 8718SOL     OW27052   3.186   5.418   5.814
 8718SOL    HW127053   3.092   5.447   5.795
 8718SOL    HW227054   3.214   5.350   5.746
 8719SOL     OW27055   3.144   2.193   4.580
 8719SOL    HW127056   3.121   2.232   4.669
 8719SOL    HW227057   3.243   2.181   4.574
 8720SOL     OW27058   0.075   6.563   5.023
 8720SOL    HW127059   0.173   6.578   5.036
 8720SOL    HW227060   0.040   6.629   4.956
 8721SOL     OW27061   0.948   0.813   1.402
 8721SOL    HW127062   1.015   0.740   1.413
 8721SOL    HW227063   0.855   0.774   1.405
 8722SOL     OW27064   4.166   1.338   0.329
 8722SOL    HW127065   4.164   1.267   0.259
 8722SOL    HW227066   4.081   1.390   0.327
 8723SOL     OW27067   3.826   7.011   2.482
 8723SOL    HW127068   3.824   0.049   2.563
 8723SOL    HW227069   3.832   0.047   2.400
 8724SOL     OW27070   4.178   0.409   5.241
 8724SOL    HW127071   4.124   0.417   5.157
 8724SOL    HW227072   4.170   0.317   5.278
 8725SOL     OW27073   6.538   0.691   2.581
 8725SOL    HW127074   6.573   0.717   2.671
 8725SOL    HW227075   6.523   0.773   2.526
 8726SOL     OW27076   6.994   1.371   0.610
 8726SOL    HW127077   6.900   1.343   0.630
 8726SOL    HW227078   0.006   1.430   0.683
 8727SOL     OW27079   4.955   5.667   6.297
 8727SOL    HW127080   4.863   5.684   6.333
 8727SOL    HW227081   4.948   5.611   6.214
 8728SOL     OW27082   5.749   0.064   4.326
 8728SOL    HW127083   5.764   0.035   4.231
 8728SOL    HW227084   5.785   0.156   4.338
 8729SOL     OW27085   5.761   6.848   6.015
 8729SOL    HW127086   5.827   6.919   5.990
 8729SOL    HW227087   5.806   6.782   6.076
 8730SOL     OW27088   4.200   4.581   1.761
 8730SOL    HW127089   4.112   4.537   1.745
 8730SOL    HW227090   4.185   4.676   1.788
 8731SOL     OW27091   0.061   2.324   3.946
 8731SOL    HW127092   0.122   2.386   3.896
 8731SOL    HW227093   7.008   2.378   3.987
 8732SOL     OW27094   5.057   5.837   5.471
 8732SOL    HW127095   5.085   5.920   5.518
 8732SOL    HW227096   5.090   5.757   5.522
 8733SOL     OW27097   5.575   4.706   2.450
 8733SOL    HW127098   5.491   4.748   2.416
 8733SOL    HW227099   5.647   4.775   2.455
 8734SOL     OW27100   0.786   5.801   1.554
 8734SOL    HW127101   0.704   5.787   1.611
 8734SOL    HW227102   0.760   5.797   1.458
 8735SOL     OW27103   1.378   2.323   6.850
 8735SOL    HW127104   1.478   2.328   6.848
 8735SOL    HW227105   1.340   2.415   6.848
 8736SOL     OW27106   1.058   5.874   3.947
 8736SOL    HW127107   0.987   5.920   4.000
 8736SOL    HW227108   1.057   5.776   3.966
 8737SOL     OW27109   0.487   5.314   0.167
 8737SOL    HW127110   0.502   5.413   0.176
 8737SOL    HW227111   0.496   5.271   0.257
 8738SOL     OW27112   2.187   2.458   2.484
 8738SOL    HW127113   2.233   2.546   2.489
 8738SOL    HW227114   2.240   2.396   2.426
 8739SOL     OW27115   4.601   4.715   3.403
 8739SOL    HW127116   4.605   4.642   3.471
 8739SOL    HW227117   4.677   4.778   3.417
 8740SOL     OW27118   2.265   0.900   3.461
 8740SOL    HW127119   2.349   0.925   3.509
 8740SOL    HW227120   2.199   0.865   3.527
 8741SOL     OW27121   2.296   2.361   2.747
 8741SOL    HW127122   2.228   2.401   2.685
 8741SOL    HW227123   2.369   2.319   2.694
 8742SOL     OW27124   1.370   3.473   1.247
 8742SOL    HW127125   1.401   3.565   1.224
 8742SOL    HW227126   1.424   3.438   1.324
 8743SOL     OW27127   1.370   3.031   7.004
 8743SOL    HW127128   1.432   2.962   6.967
 8743SOL    HW227129   1.422   3.094   0.041
 8744SOL     OW27130   2.323   4.138   6.029
 8744SOL    HW127131   2.342   4.067   5.961
 8744SOL    HW227132   2.390   4.134   6.103
 8745SOL     OW27133   5.932   1.380   6.620
 8745SOL    HW127134   5.989   1.320   6.678
 8745SOL    HW227135   5.840   1.383   6.658
 8746SOL     OW27136   4.780   4.615   4.656
 8746SOL    HW127137   4.692   4.663   4.652
 8746SOL    HW227138   4.766   4.519   4.631
 8747SOL     OW27139   0.565   6.879   1.800
 8747SOL    HW127140   0.664   6.897   1.808
 8747SOL    HW227141   0.550   6.781   1.789
 8748SOL     OW27142   5.921   1.197   4.821
 8748SOL    HW127143   6.006   1.191   4.767
 8748SOL    HW227144   5.906   1.111   4.869
 8749SOL     OW27145   2.373   1.460   3.858
 8749SOL    HW127146   2.354   1.506   3.771
 8749SOL    HW227147   2.452   1.503   3.902
 8750SOL     OW27148   3.779   3.296   1.983
 8750SOL    HW127149   3.792   3.368   1.915
 8750SOL    HW227150   3.769   3.337   2.074
 8751SOL     OW27151   1.993   6.762   6.746
 8751SOL    HW127152   1.951   6.849   6.720
 8751SOL    HW227153   2.005   6.705   6.664
 8752SOL     OW27154   0.963   3.270   6.438
 8752SOL    HW127155   0.915   3.276   6.526
 8752SOL    HW227156   1.043   3.210   6.447
 8753SOL     OW27157   1.639   1.728   0.995
 8753SOL    HW127158   1.581   1.702   0.918
 8753SOL    HW227159   1.604   1.812   1.036
 8754SOL     OW27160   1.261   6.164   6.394
 8754SOL    HW127161   1.282   6.077   6.349
 8754SOL    HW227162   1.333   6.230   6.374
 8755SOL     OW27163   0.267   1.969   1.971
 8755SOL    HW127164   0.247   1.978   1.873
 8755SOL    HW227165   0.218   2.039   2.022
 8756SOL     OW27166   1.852   1.691   2.229
 8756SOL    HW127167   1.820   1.685   2.135
 8756SOL    HW227168   1.887   1.783   2.247
 8757SOL     OW27169   5.333   5.840   4.648
 8757SOL    HW127170   5.349   5.799   4.738
 8757SOL    HW227171   5.379   5.928   4.642
 8758SOL     OW27172   3.452   4.776   6.425
 8758SOL    HW127173   3.415   4.814   6.340
 8758SOL    HW227174   3.465   4.849   6.491
 8759SOL     OW27175   6.780   1.472   1.503
 8759SOL    HW127176   6.872   1.438   1.522
 8759SOL    HW227177   6.725   1.399   1.462
 8760SOL     OW27178   1.442   2.935   4.403
 8760SOL    HW127179   1.509   2.935   4.478
 8760SOL    HW227180   1.425   3.028   4.374
 8761SOL     OW27181   5.407   2.888   3.356
 8761SOL    HW127182   5.390   2.816   3.289
 8761SOL    HW227183   5.367   2.974   3.325
 8762SOL     OW27184   4.089   6.150   2.589
 8762SOL    HW127185   4.107   6.163   2.686
 8762SOL    HW227186   4.012   6.208   2.562
 8763SOL     OW27187   6.958   1.881   5.313
 8763SOL    HW127188   6.871   1.883   5.265
 8763SOL    HW227189   6.991   1.787   5.321
 8764SOL     OW27190   2.614   5.430   6.065
 8764SOL    HW127191   2.546   5.502   6.075
 8764SOL    HW227192   2.654   5.409   6.154
 8765SOL     OW27193   4.313   0.004   3.707
 8765SOL    HW127194   4.350   6.992   3.794
 8765SOL    HW227195   4.298   0.103   3.712
 8766SOL     OW27196   6.108   6.919   4.595
 8766SOL    HW127197   6.156   6.876   4.671
 8766SOL    HW227198   6.111   7.018   4.605
 8767SOL     OW27199   1.834   1.366   4.607
 8767SOL    HW127200   1.820   1.368   4.706
 8767SOL    HW227201   1.747   1.380   4.561
 8768SOL     OW27202   0.058   2.362   1.097
 8768SOL    HW127203   0.103   2.434   1.149
 8768SOL    HW227204   6.988   2.344   1.135
 8769SOL     OW27205   6.905   6.901   6.935
 8769SOL    HW127206   6.858   6.982   6.901
 8769SOL    HW227207   7.004   6.913   6.926
 8770SOL     OW27208   4.587   1.820   0.619
 8770SOL    HW127209   4.525   1.840   0.543
 8770SOL    HW227210   4.558   1.870   0.700
 8771SOL     OW27211   1.214   2.801   6.721
 8771SOL    HW127212   1.126   2.795   6.673
 8771SOL    HW227213   1.212   2.878   6.784
 8772SOL     OW27214   0.545   6.395   3.680
 8772SOL    HW127215   0.531   6.307   3.635
 8772SOL    HW227216   0.498   6.467   3.628
 8773SOL     OW27217   6.771   1.649   4.131
 8773SOL    HW127218   6.735   1.706   4.057
 8773SOL    HW227219   6.761   1.698   4.218
 8774SOL     OW27220   1.431   2.334   0.173
 8774SOL    HW127221   1.333   2.348   0.161
 8774SOL    HW227222   1.478   2.355   0.087
 8775SOL     OW27223   4.852   2.059   2.318
 8775SOL    HW127224   4.803   2.145   2.330
 8775SOL    HW227225   4.788   1.983   2.330
 8776SOL     OW27226   5.296   3.609   1.420
 8776SOL    HW127227   5.272   3.531   1.478
 8776SOL    HW227228   5.324   3.685   1.478
 8777SOL     OW27229   6.382   2.162   3.984
 8777SOL    HW127230   6.295   2.157   4.035
 8777SOL    HW227231   6.364   2.197   3.892
 8778SOL     OW27232   1.591   4.445   6.438
 8778SOL    HW127233   1.646   4.376   6.389
 8778SOL    HW227234   1.593   4.425   6.536
 8779SOL     OW27235   3.784   6.626   2.593
 8779SOL    HW127236   3.756   6.622   2.689
 8779SOL    HW227237   3.842   6.706   2.579
 8780SOL     OW27238   0.952   3.604   4.704
 8780SOL    HW127239   0.866   3.611   4.755
 8780SOL    HW227240   1.027   3.634   4.762
 8781SOL     OW27241   4.047   1.769   1.897
 8781SOL    HW127242   4.010   1.812   1.978
 8781SOL    HW227243   4.147   1.767   1.903
 8782SOL     OW27244   6.493   2.704   0.039
 8782SOL    HW127245   6.473   2.606   0.045
 8782SOL    HW227246   6.453   2.751   0.118
 8783SOL     OW27247   3.834   3.924   5.997
 8783SOL    HW127248   3.769   3.850   6.013
 8783SOL    HW227249   3.793   4.011   6.025
 8784SOL     OW27250   4.456   1.093   5.767
 8784SOL    HW127251   4.366   1.124   5.799
 8784SOL    HW227252   4.482   1.146   5.686
 8785SOL     OW27253   6.844   6.099   6.512
 8785SOL    HW127254   6.871   6.003   6.508
 8785SOL    HW227255   6.750   6.108   6.481
 8786SOL     OW27256   5.749   2.345   3.065
 8786SOL    HW127257   5.770   2.254   3.029
 8786SOL    HW227258   5.650   2.356   3.074
 8787SOL     OW27259   3.497   4.948   2.718
 8787SOL    HW127260   3.410   4.904   2.693
 8787SOL    HW227261   3.480   5.020   2.785
 8788SOL     OW27262   7.018   6.778   3.547
 8788SOL    HW127263   6.976   6.844   3.609
 8788SOL    HW227264   6.963   6.771   3.464
 8789SOL     OW27265   1.927   3.166   0.041
 8789SOL    HW127266   1.976   3.079   0.037
 8789SOL    HW227267   1.863   3.172   6.985
 8790SOL     OW27268   4.828   3.147   5.294
 8790SOL    HW127269   4.925   3.142   5.271
 8790SOL    HW227270   4.785   3.059   5.274
 8791SOL     OW27271   4.043   6.638   5.349
 8791SOL    HW127272   4.103   6.632   5.429
 8791SOL    HW227273   4.096   6.616   5.267
 8792SOL     OW27274   5.604   4.704   0.952
 8792SOL    HW127275   5.693   4.697   0.906
 8792SOL    HW227276   5.597   4.635   1.023
 8793SOL     OW27277   6.616   0.535   5.647
 8793SOL    HW127278   6.701   0.515   5.696
 8793SOL    HW227279   6.632   0.607   5.580
 8794SOL     OW27280   0.128   2.875   3.416
 8794SOL    HW127281   0.166   2.967   3.401
 8794SOL    HW227282   0.056   2.880   3.484
 8795SOL     OW27283   1.194   0.760   6.907
 8795SOL    HW127284   1.222   0.853   6.930
 8795SOL    HW227285   1.121   0.762   6.839
 8796SOL     OW27286   5.690   5.420   4.561
 8796SOL    HW127287   5.677   5.327   4.593
 8796SOL    HW227288   5.657   5.429   4.467
 8797SOL     OW27289   5.648   6.063   5.120
 8797SOL    HW127290   5.724   6.045   5.058
 8797SOL    HW227291   5.562   6.059   5.069
 8798SOL     OW27292   1.817   5.626   0.049
 8798SOL    HW127293   1.842   5.554   7.005
 8798SOL    HW227294   1.871   5.615   0.133
 8799SOL     OW27295   1.556   6.357   2.139
 8799SOL    HW127296   1.577   6.273   2.089
 8799SOL    HW227297   1.591   6.350   2.232
 8800SOL     OW27298   6.491   6.250   4.299
 8800SOL    HW127299   6.499   6.153   4.323
 8800SOL    HW227300   6.535   6.266   4.210
 8801SOL     OW27301   4.844   3.092   5.936
 8801SOL    HW127302   4.934   3.070   5.899
 8801SOL    HW227303   4.783   3.014   5.924
 8802SOL     OW27304   1.105   6.940   0.215
 8802SOL    HW127305   1.167   6.924   0.292
 8802SOL    HW227306   1.142   7.013   0.157
 8803SOL     OW27307   4.769   4.566   5.263
 8803SOL    HW127308   4.730   4.640   5.209
 8803SOL    HW227309   4.849   4.529   5.216
 8804SOL     OW27310   2.506   6.403   1.637
 8804SOL    HW127311   2.595   6.411   1.591
 8804SOL    HW227312   2.491   6.485   1.693
 8805SOL     OW27313   4.436   5.000   1.229
 8805SOL    HW127314   4.371   5.076   1.218
 8805SOL    HW227315   4.394   4.929   1.286
 8806SOL     OW27316   1.612   1.574   1.987
 8806SOL    HW127317   1.703   1.596   1.953
 8806SOL    HW227318   1.560   1.658   2.002
 8807SOL     OW27319   5.799   2.251   1.764
 8807SOL    HW127320   5.802   2.271   1.862
 8807SOL    HW227321   5.814   2.153   1.750
 8808SOL     OW27322   1.812   1.382   0.745
 8808SOL    HW127323   1.794   1.369   0.648
 8808SOL    HW227324   1.814   1.294   0.791
 8809SOL     OW27325   0.579   3.158   2.964
 8809SOL    HW127326   0.592   3.163   3.063
 8809SOL    HW227327   0.577   3.061   2.936
 8810SOL     OW27328   6.093   2.319   3.930
 8810SOL    HW127329   6.133   2.358   3.847
 8810SOL    HW227330   6.034   2.386   3.973
 8811SOL     OW27331   3.979   5.392   2.975
 8811SOL    HW127332   4.054   5.351   2.923
 8811SOL    HW227333   3.891   5.367   2.933
 8812SOL     OW27334   5.518   0.778   0.285
 8812SOL    HW127335   5.533   0.690   0.329
 8812SOL    HW227336   5.434   0.774   0.230
 8813SOL     OW27337   1.158   2.746   1.900
 8813SOL    HW127338   1.105   2.804   1.838
 8813SOL    HW227339   1.188   2.664   1.852
 8814SOL     OW27340   6.238   6.541   5.108
 8814SOL    HW127341   6.208   6.571   5.198
 8814SOL    HW227342   6.158   6.524   5.050
 8815SOL     OW27343   4.756   0.184   1.019
 8815SOL    HW127344   4.817   0.201   1.097
 8815SOL    HW227345   4.722   0.271   0.983
 8816SOL     OW27346   0.341   0.754   2.556
 8816SOL    HW127347   0.247   0.781   2.576
 8816SOL    HW227348   0.380   0.706   2.635
 8817SOL     OW27349   0.951   2.398   4.211
 8817SOL    HW127350   0.892   2.390   4.130
 8817SOL    HW227351   0.901   2.369   4.292
 8818SOL     OW27352   1.193   5.798   6.494
 8818SOL    HW127353   1.231   5.781   6.585
 8818SOL    HW227354   1.097   5.823   6.502
 8819SOL     OW27355   5.255   6.412   6.125
 8819SOL    HW127356   5.261   6.459   6.037
 8819SOL    HW227357   5.314   6.331   6.123
 8820SOL     OW27358   3.452   6.516   5.922
 8820SOL    HW127359   3.503   6.552   5.999
 8820SOL    HW227360   3.511   6.458   5.866
 8821SOL     OW27361   1.600   5.500   5.413
 8821SOL    HW127362   1.665   5.573   5.433
 8821SOL    HW227363   1.622   5.458   5.325
 8822SOL     OW27364   6.783   0.507   5.017
 8822SOL    HW127365   6.700   0.559   4.998
 8822SOL    HW227366   6.856   0.569   5.043
 8823SOL     OW27367   3.993   2.172   3.278
 8823SOL    HW127368   3.995   2.077   3.247
 8823SOL    HW227369   4.068   2.222   3.236
 8824SOL     OW27370   1.818   0.569   4.213
 8824SOL    HW127371   1.914   0.578   4.186
 8824SOL    HW227372   1.800   0.630   4.291
 8825SOL     OW27373   1.450   6.602   0.666
 8825SOL    HW127374   1.377   6.534   0.673
 8825SOL    HW227375   1.457   6.634   0.572
 8826SOL     OW27376   0.444   3.900   0.303
 8826SOL    HW127377   0.467   3.806   0.279
 8826SOL    HW227378   0.485   3.923   0.391
 8827SOL     OW27379   5.125   5.842   4.234
 8827SOL    HW127380   5.048   5.885   4.187
 8827SOL    HW227381   5.123   5.744   4.218
 8828SOL     OW27382   5.366   2.269   5.716
 8828SOL    HW127383   5.369   2.174   5.749
 8828SOL    HW227384   5.357   2.269   5.617
 8829SOL     OW27385   6.517   0.833   2.845
 8829SOL    HW127386   6.451   0.758   2.846
 8829SOL    HW227387   6.540   0.860   2.939
 8830SOL     OW27388   2.557   0.811   2.405
 8830SOL    HW127389   2.583   0.857   2.491
 8830SOL    HW227390   2.479   0.859   2.364
 8831SOL     OW27391   1.145   2.475   3.065
 8831SOL    HW127392   1.069   2.488   3.129
 8831SOL    HW227393   1.157   2.558   3.010
 8832SOL     OW27394   6.026   0.220   4.627
 8832SOL    HW127395   5.983   0.177   4.707
 8832SOL    HW227396   5.955   0.264   4.571
 8833SOL     OW27397   4.706   3.266   0.966
 8833SOL    HW127398   4.777   3.284   1.035
 8833SOL    HW227399   4.730   3.184   0.915
 8834SOL     OW27400   6.437   4.753   5.739
 8834SOL    HW127401   6.530   4.791   5.728
 8834SOL    HW227402   6.442   4.665   5.787
 8835SOL     OW27403   6.838   1.093   5.623
 8835SOL    HW127404   6.877   1.113   5.713
 8835SOL    HW227405   6.743   1.124   5.620
 8836SOL     OW27406   4.485   1.868   1.047
 8836SOL    HW127407   4.493   1.924   0.964
 8836SOL    HW227408   4.408   1.805   1.037
 8837SOL     OW27409   5.697   4.790   0.208
 8837SOL    HW127410   5.665   4.807   0.302
 8837SOL    HW227411   5.664   4.701   0.178
 8838SOL     OW27412   1.588   3.462   2.032
 8838SOL    HW127413   1.601   3.374   1.986
 8838SOL    HW227414   1.549   3.446   2.123
 8839SOL     OW27415   4.527   4.496   1.347
 8839SOL    HW127416   4.533   4.418   1.285
 8839SOL    HW227417   4.435   4.499   1.389
 8840SOL     OW27418   0.304   0.400   1.502
 8840SOL    HW127419   0.283   0.355   1.416
 8840SOL    HW227420   0.226   0.392   1.564
 8841SOL     OW27421   4.625   2.120   0.282
 8841SOL    HW127422   4.528   2.118   0.305
 8841SOL    HW227423   4.674   2.172   0.351
 8842SOL     OW27424   3.204   2.999   3.764
 8842SOL    HW127425   3.251   2.979   3.850
 8842SOL    HW227426   3.264   2.977   3.687
 8843SOL     OW27427   2.707   6.459   4.949
 8843SOL    HW127428   2.693   6.423   4.857
 8843SOL    HW227429   2.801   6.490   4.960
 8844SOL     OW27430   4.074   2.744   5.285
 8844SOL    HW127431   4.112   2.658   5.252
 8844SOL    HW227432   3.976   2.747   5.268
 8845SOL     OW27433   0.616   4.107   2.533
 8845SOL    HW127434   0.612   4.168   2.454
 8845SOL    HW227435   0.589   4.156   2.616
 8846SOL     OW27436   6.199   5.491   4.979
 8846SOL    HW127437   6.231   5.580   4.946
 8846SOL    HW227438   6.100   5.492   4.989
 8847SOL     OW27439   0.943   2.457   3.797
 8847SOL    HW127440   0.974   2.538   3.847
 8847SOL    HW227441   1.010   2.383   3.807
 8848SOL     OW27442   5.704   2.539   1.193
 8848SOL    HW127443   5.775   2.606   1.170
 8848SOL    HW227444   5.620   2.587   1.218
 8849SOL     OW27445   3.561   5.018   4.485
 8849SOL    HW127446   3.566   5.027   4.584
 8849SOL    HW227447   3.553   4.921   4.461
 8850SOL     OW27448   4.013   2.294   0.923
 8850SOL    HW127449   3.920   2.325   0.942
 8850SOL    HW227450   4.079   2.358   0.963
 8851SOL     OW27451   6.786   5.839   2.978
 8851SOL    HW127452   6.878   5.862   3.008
 8851SOL    HW227453   6.778   5.740   2.967
 8852SOL     OW27454   5.796   4.025   4.814
 8852SOL    HW127455   5.728   3.964   4.774
 8852SOL    HW227456   5.767   4.120   4.804
 8853SOL     OW27457   4.892   1.879   4.468
 8853SOL    HW127458   4.915   1.924   4.554
 8853SOL    HW227459   4.975   1.837   4.430
 8854SOL     OW27460   3.143   0.436   6.447
 8854SOL    HW127461   3.141   0.535   6.454
 8854SOL    HW227462   3.149   0.409   6.351
 8855SOL     OW27463   6.531   4.802   6.173
 8855SOL    HW127464   6.531   4.864   6.251
 8855SOL    HW227465   6.587   4.721   6.195
 8856SOL     OW27466   5.246   1.928   5.409
 8856SOL    HW127467   5.346   1.938   5.405
 8856SOL    HW227468   5.218   1.916   5.504
 8857SOL     OW27469   1.982   3.165   4.265
 8857SOL    HW127470   1.930   3.215   4.334
 8857SOL    HW227471   1.920   3.130   4.195
 8858SOL     OW27472   0.551   3.420   5.596
 8858SOL    HW127473   0.528   3.461   5.684
 8858SOL    HW227474   0.619   3.347   5.610
 8859SOL     OW27475   2.595   6.291   5.121
 8859SOL    HW127476   2.619   6.196   5.103
 8859SOL    HW227477   2.643   6.350   5.056
 8860SOL     OW27478   1.949   1.486   1.965
 8860SOL    HW127479   1.988   1.573   1.935
 8860SOL    HW227480   2.005   1.447   2.038
 8861SOL     OW27481   1.921   1.706   0.178
 8861SOL    HW127482   1.913   1.608   0.156
 8861SOL    HW227483   2.007   1.741   0.141
 8862SOL     OW27484   6.514   2.649   4.461
 8862SOL    HW127485   6.581   2.575   4.465
 8862SOL    HW227486   6.552   2.731   4.504
 8863SOL     OW27487   1.961   5.603   4.978
 8863SOL    HW127488   1.865   5.609   4.948
 8863SOL    HW227489   1.980   5.677   5.042
 8864SOL     OW27490   1.765   4.790   5.579
 8864SOL    HW127491   1.800   4.723   5.514
 8864SOL    HW227492   1.790   4.763   5.672
 8865SOL     OW27493   2.559   1.965   5.750
 8865SOL    HW127494   2.467   1.970   5.711
 8865SOL    HW227495   2.604   2.053   5.741
 8866SOL     OW27496   4.766   0.271   5.624
 8866SOL    HW127497   4.683   0.278   5.568
 8866SOL    HW227498   4.740   0.247   5.718
 8867SOL     OW27499   5.749   0.640   3.416
 8867SOL    HW127500   5.756   0.665   3.320
 8867SOL    HW227501   5.781   0.717   3.473
 8868SOL     OW27502   5.604   2.810   0.102
 8868SOL    HW127503   5.690   2.850   0.132
 8868SOL    HW227504   5.536   2.816   0.175
 8869SOL     OW27505   3.076   1.869   2.980
 8869SOL    HW127506   3.004   1.935   3.001
 8869SOL    HW227507   3.116   1.889   2.890
 8870SOL     OW27508   4.158   7.016   1.747
 8870SOL    HW127509   4.155   6.917   1.764
 8870SOL    HW227510   4.220   0.014   1.671
 8871SOL     OW27511   1.632   2.261   4.355
 8871SOL    HW127512   1.589   2.323   4.421
 8871SOL    HW227513   1.704   2.310   4.305
 8872SOL     OW27514   1.079   1.833   2.511
 8872SOL    HW127515   1.177   1.848   2.516
 8872SOL    HW227516   1.042   1.822   2.603
 8873SOL     OW27517   6.807   5.392   5.249
 8873SOL    HW127518   6.903   5.378   5.272
 8873SOL    HW227519   6.768   5.307   5.213
 8874SOL     OW27520   1.514   1.174   6.139
 8874SOL    HW127521   1.445   1.235   6.100
 8874SOL    HW227522   1.469   1.106   6.197
 8875SOL     OW27523   1.393   1.469   3.979
 8875SOL    HW127524   1.457   1.393   3.993
 8875SOL    HW227525   1.418   1.544   4.040
 8876SOL     OW27526   2.555   1.162   4.984
 8876SOL    HW127527   2.599   1.235   5.037
 8876SOL    HW227528   2.458   1.184   4.972
 8877SOL     OW27529   3.267   6.508   4.631
 8877SOL    HW127530   3.228   6.448   4.561
 8877SOL    HW227531   3.195   6.563   4.672
 8878SOL     OW27532   5.817   4.632   5.598
 8878SOL    HW127533   5.747   4.642   5.527
 8878SOL    HW227534   5.827   4.536   5.623
 8879SOL     OW27535   5.871   5.749   4.763
 8879SOL    HW127536   5.937   5.709   4.826
 8879SOL    HW227537   5.778   5.734   4.798
 8880SOL     OW27538   1.099   6.683   4.948
 8880SOL    HW127539   1.064   6.597   4.910
 8880SOL    HW227540   1.094   6.755   4.878
 8881SOL     OW27541   6.937   2.065   2.623
 8881SOL    HW127542   6.844   2.072   2.588
 8881SOL    HW227543   6.974   1.974   2.604
 8882SOL     OW27544   5.563   2.143   0.433
 8882SOL    HW127545   5.663   2.134   0.433
 8882SOL    HW227546   5.539   2.239   0.416
 8883SOL     OW27547   5.886   1.674   5.335
 8883SOL    HW127548   5.863   1.686   5.432
 8883SOL    HW227549   5.803   1.654   5.283
 8884SOL     OW27550   0.161   1.427   6.262
 8884SOL    HW127551   0.072   1.420   6.309
 8884SOL    HW227552   0.227   1.369   6.308
 8885SOL     OW27553   6.106   3.863   1.019
 8885SOL    HW127554   6.065   3.905   0.938
 8885SOL    HW227555   6.205   3.876   1.018
 8886SOL     OW27556   3.038   5.888   5.930
 8886SOL    HW127557   2.958   5.836   5.900
 8886SOL    HW227558   3.121   5.843   5.896
 8887SOL     OW27559   1.220   1.275   1.204
 8887SOL    HW127560   1.122   1.294   1.196
 8887SOL    HW227561   1.237   1.217   1.284
 8888SOL     OW27562   2.553   2.409   2.908
 8888SOL    HW127563   2.466   2.382   2.866
 8888SOL    HW227564   2.537   2.436   3.003
 8889SOL     OW27565   3.519   1.429   4.691
 8889SOL    HW127566   3.531   1.409   4.788
 8889SOL    HW227567   3.608   1.445   4.649
 8890SOL     OW27568   6.813   5.047   3.829
 8890SOL    HW127569   6.871   4.965   3.827
 8890SOL    HW227570   6.753   5.047   3.749
 8891SOL     OW27571   3.657   1.549   6.349
 8891SOL    HW127572   3.715   1.615   6.397
 8891SOL    HW227573   3.655   1.463   6.400
 8892SOL     OW27574   1.176   6.897   3.044
 8892SOL    HW127575   1.146   6.943   2.960
 8892SOL    HW227576   1.209   6.965   3.110
 8893SOL     OW27577   0.334   0.953   0.332
 8893SOL    HW127578   0.241   0.918   0.317
 8893SOL    HW227579   0.400   0.880   0.318
 8894SOL     OW27580   4.545   1.880   5.813
 8894SOL    HW127581   4.604   1.947   5.857
 8894SOL    HW227582   4.506   1.919   5.729
 8895SOL     OW27583   1.336   0.861   3.393
 8895SOL    HW127584   1.281   0.786   3.431
 8895SOL    HW227585   1.304   0.948   3.431
 8896SOL     OW27586   1.427   4.288   5.151
 8896SOL    HW127587   1.429   4.265   5.248
 8896SOL    HW227588   1.514   4.328   5.124
 8897SOL     OW27589   1.125   2.262   1.955
 8897SOL    HW127590   1.215   2.218   1.957
 8897SOL    HW227591   1.101   2.294   2.047
 8898SOL     OW27592   6.627   2.844   5.400
 8898SOL    HW127593   6.581   2.760   5.370
 8898SOL    HW227594   6.561   2.908   5.438
 8899SOL     OW27595   3.572   5.728   2.242
 8899SOL    HW127596   3.488   5.730   2.188
 8899SOL    HW227597   3.593   5.633   2.266
 8900SOL     OW27598   6.601   1.865   3.573
 8900SOL    HW127599   6.566   1.868   3.667
 8900SOL    HW227600   6.538   1.811   3.517
 8901SOL     OW27601   1.915   0.068   1.878
 8901SOL    HW127602   1.889   0.155   1.836
 8901SOL    HW227603   1.852   7.018   1.849
 8902SOL     OW27604   3.658   6.632   6.059
 8902SOL    HW127605   3.697   6.547   6.095
 8902SOL    HW227606   3.688   6.646   5.965
 8903SOL     OW27607   6.848   1.156   2.839
 8903SOL    HW127608   6.777   1.209   2.886
 8903SOL    HW227609   6.824   1.059   2.841
 8904SOL     OW27610   1.381   3.653   3.879
 8904SOL    HW127611   1.449   3.624   3.945
 8904SOL    HW227612   1.341   3.573   3.834
 8905SOL     OW27613   1.882   4.252   4.857
 8905SOL    HW127614   1.943   4.232   4.933
 8905SOL    HW227615   1.879   4.351   4.842
 8906SOL     OW27616   2.344   5.348   4.551
 8906SOL    HW127617   2.381   5.429   4.505
 8906SOL    HW227618   2.413   5.310   4.612
 8907SOL     OW27619   3.542   2.507   6.328
 8907SOL    HW127620   3.633   2.465   6.330
 8907SOL    HW227621   3.477   2.445   6.286
 8908SOL     OW27622   0.472   3.418   2.941
 8908SOL    HW127623   0.537   3.484   2.978
 8908SOL    HW227624   0.513   3.327   2.941
 8909SOL     OW27625   3.570   6.667   5.545
 8909SOL    HW127626   3.549   6.765   5.543
 8909SOL    HW227627   3.620   6.645   5.629
 8910SOL     OW27628   4.365   2.625   0.191
 8910SOL    HW127629   4.417   2.680   0.125
 8910SOL    HW227630   4.303   2.684   0.242
 8911SOL     OW27631   4.909   2.585   4.297
 8911SOL    HW127632   4.949   2.565   4.207
 8911SOL    HW227633   4.859   2.504   4.329
 8912SOL     OW27634   4.210   1.090   0.170
 8912SOL    HW127635   4.207   1.064   0.073
 8912SOL    HW227636   4.128   1.054   0.216
 8913SOL     OW27637   4.169   4.248   0.784
 8913SOL    HW127638   4.197   4.202   0.700
 8913SOL    HW227639   4.168   4.347   0.769
 8914SOL     OW27640   4.897   2.809   4.035
 8914SOL    HW127641   4.901   2.897   4.084
 8914SOL    HW227642   4.987   2.788   3.998
 8915SOL     OW27643   0.837   5.384   2.111
 8915SOL    HW127644   0.751   5.366   2.158
 8915SOL    HW227645   0.863   5.480   2.122
 8916SOL     OW27646   5.742   3.437   1.792
 8916SOL    HW127647   5.789   3.425   1.705
 8916SOL    HW227648   5.645   3.413   1.781
 8917SOL     OW27649   5.547   4.258   5.734
 8917SOL    HW127650   5.579   4.237   5.826
 8917SOL    HW227651   5.512   4.352   5.731
 8918SOL     OW27652   4.727   4.025   5.946
 8918SOL    HW127653   4.721   4.067   6.036
 8918SOL    HW227654   4.806   3.964   5.942
 8919SOL     OW27655   1.949   3.299   1.488
 8919SOL    HW127656   1.954   3.206   1.451
 8919SOL    HW227657   1.867   3.344   1.454
 8920SOL     OW27658   6.384   5.654   6.044
 8920SOL    HW127659   6.329   5.578   6.010
 8920SOL    HW227660   6.434   5.625   6.126
 8921SOL     OW27661   0.939   5.683   3.674
 8921SOL    HW127662   1.027   5.636   3.661
 8921SOL    HW227663   0.936   5.764   3.617
 8922SOL     OW27664   0.752   2.785   6.622
 8922SOL    HW127665   0.837   2.767   6.572
 8922SOL    HW227666   0.747   2.727   6.703
 8923SOL     OW27667   1.921   4.827   4.263
 8923SOL    HW127668   1.868   4.756   4.310
 8923SOL    HW227669   1.892   4.917   4.295
 8924SOL     OW27670   2.173   6.779   4.351
 8924SOL    HW127671   2.100   6.804   4.415
 8924SOL    HW227672   2.261   6.790   4.396
 8925SOL     OW27673   4.319   5.455   0.715
 8925SOL    HW127674   4.256   5.390   0.672
 8925SOL    HW227675   4.268   5.537   0.742
 8926SOL     OW27676   5.614   0.165   6.993
 8926SOL    HW127677   5.585   0.253   6.958
 8926SOL    HW227678   5.711   0.168   7.015
 8927SOL     OW27679   2.668   2.259   4.922
 8927SOL    HW127680   2.629   2.313   4.847
 8927SOL    HW227681   2.750   2.212   4.890
 8928SOL     OW27682   1.254   0.409   5.303
 8928SOL    HW127683   1.275   0.322   5.349
 8928SOL    HW227684   1.175   0.397   5.243
 8929SOL     OW27685   4.873   4.263   3.036
 8929SOL    HW127686   4.887   4.169   3.068
 8929SOL    HW227687   4.913   4.273   2.945
 8930SOL     OW27688   0.396   5.489   5.349
 8930SOL    HW127689   0.379   5.429   5.271
 8930SOL    HW227690   0.482   5.463   5.394
 8931SOL     OW27691   4.715   0.872   1.938
 8931SOL    HW127692   4.705   0.855   1.840
 8931SOL    HW227693   4.696   0.968   1.958
 8932SOL     OW27694   4.482   0.852   0.450
 8932SOL    HW127695   4.433   0.836   0.536
 8932SOL    HW227696   4.461   0.944   0.416
 8933SOL     OW27697   1.909   6.766   5.464
 8933SOL    HW127698   1.919   6.675   5.423
 8933SOL    HW227699   1.969   6.830   5.415
 8934SOL     OW27700   3.399   6.462   4.244
 8934SOL    HW127701   3.448   6.535   4.292
 8934SOL    HW227702   3.415   6.468   4.146
 8935SOL     OW27703   5.545   2.256   2.513
 8935SOL    HW127704   5.573   2.337   2.463
 8935SOL    HW227705   5.476   2.280   2.581
 8936SOL     OW27706   1.382   3.970   1.799
 8936SOL    HW127707   1.346   3.925   1.880
 8936SOL    HW227708   1.474   3.936   1.780
 8937SOL     OW27709   3.042   6.509   5.245
 8937SOL    HW127710   2.982   6.441   5.288
 8937SOL    HW227711   3.116   6.532   5.308
 8938SOL     OW27712   5.182   6.888   1.910
 8938SOL    HW127713   5.129   6.838   1.842
 8938SOL    HW227714   5.160   6.985   1.905
 8939SOL     OW27715   6.391   3.115   4.669
 8939SOL    HW127716   6.291   3.105   4.661
 8939SOL    HW227717   6.433   3.098   4.580
 8940SOL     OW27718   6.096   3.591   2.637
 8940SOL    HW127719   6.059   3.620   2.549
 8940SOL    HW227720   6.026   3.544   2.690
 8941SOL     OW27721   5.809   2.391   3.334
 8941SOL    HW127722   5.783   2.361   3.243
 8941SOL    HW227723   5.727   2.410   3.388
 8942SOL     OW27724   4.917   5.888   4.543
 8942SOL    HW127725   4.863   5.920   4.465
 8942SOL    HW227726   4.933   5.789   4.535
 8943SOL     OW27727   4.058   3.892   0.631
 8943SOL    HW127728   4.049   3.811   0.689
 8943SOL    HW227729   3.968   3.923   0.601
 8944SOL     OW27730   4.583   5.753   5.426
 8944SOL    HW127731   4.605   5.851   5.424
 8944SOL    HW227732   4.589   5.716   5.333
 8945SOL     OW27733   6.693   4.875   2.166
 8945SOL    HW127734   6.595   4.870   2.185
 8945SOL    HW227735   6.720   4.794   2.113
 8946SOL     OW27736   3.570   2.134   3.941
 8946SOL    HW127737   3.641   2.157   4.008
 8946SOL    HW227738   3.614   2.099   3.858
 8947SOL     OW27739   2.552   5.632   0.634
 8947SOL    HW127740   2.648   5.652   0.617
 8947SOL    HW227741   2.544   5.559   0.702
 8948SOL     OW27742   5.636   0.573   2.584
 8948SOL    HW127743   5.545   0.604   2.612
 8948SOL    HW227744   5.632   0.539   2.490
 8949SOL     OW27745   4.210   6.293   0.658
 8949SOL    HW127746   4.186   6.311   0.562
 8949SOL    HW227747   4.164   6.210   0.688
 8950SOL     OW27748   3.800   3.719   3.600
 8950SOL    HW127749   3.854   3.795   3.564
 8950SOL    HW227750   3.746   3.678   3.527
 8951SOL     OW27751   0.949   0.695   3.924
 8951SOL    HW127752   0.928   0.763   3.855
 8951SOL    HW227753   1.038   0.654   3.906
 8952SOL     OW27754   1.496   3.658   4.873
 8952SOL    HW127755   1.546   3.720   4.813
 8952SOL    HW227756   1.478   3.703   4.960
 8953SOL     OW27757   0.688   5.795   1.024
 8953SOL    HW127758   0.750   5.717   1.022
 8953SOL    HW227759   0.740   5.879   1.032
 8954SOL     OW27760   2.335   4.447   5.595
 8954SOL    HW127761   2.294   4.499   5.520
 8954SOL    HW227762   2.310   4.351   5.588
 8955SOL     OW27763   5.849   3.277   5.737
 8955SOL    HW127764   5.835   3.208   5.808
 8955SOL    HW227765   5.879   3.233   5.653
 8956SOL     OW27766   0.807   6.320   1.446
 8956SOL    HW127767   0.785   6.227   1.418
 8956SOL    HW227768   0.900   6.324   1.480
 8957SOL     OW27769   0.608   6.979   3.497
 8957SOL    HW127770   0.576   0.002   3.413
 8957SOL    HW227771   0.534   6.978   3.564
 8958SOL     OW27772   6.842   3.264   4.980
 8958SOL    HW127773   6.924   3.317   4.998
 8958SOL    HW227774   6.812   3.278   4.886
 8959SOL     OW27775   5.084   1.226   3.767
 8959SOL    HW127776   5.101   1.242   3.864
 8959SOL    HW227777   5.068   1.129   3.751
 8960SOL     OW27778   4.369   6.016   2.259
 8960SOL    HW127779   4.416   6.052   2.339
 8960SOL    HW227780   4.271   6.012   2.278
 8961SOL     OW27781   2.269   1.774   5.557
 8961SOL    HW127782   2.271   1.753   5.654
 8961SOL    HW227783   2.253   1.871   5.543
 8962SOL     OW27784   6.865   6.060   1.375
 8962SOL    HW127785   6.871   6.019   1.466
 8962SOL    HW227786   6.800   6.009   1.319
 8963SOL     OW27787   2.484   5.185   6.062
 8963SOL    HW127788   2.529   5.103   6.097
 8963SOL    HW227789   2.549   5.260   6.056
 8964SOL     OW27790   1.140   2.970   4.286
 8964SOL    HW127791   1.172   2.891   4.235
 8964SOL    HW227792   1.132   2.947   4.383
 8965SOL     OW27793   3.064   5.820   6.790
 8965SOL    HW127794   3.116   5.844   6.708
 8965SOL    HW227795   3.079   5.723   6.811
 8966SOL     OW27796   5.042   0.338   5.513
 8966SOL    HW127797   4.951   0.354   5.551
 8966SOL    HW227798   5.036   0.333   5.414
 8967SOL     OW27799   2.462   0.574   3.488
 8967SOL    HW127800   2.409   0.603   3.408
 8967SOL    HW227801   2.511   0.489   3.467
 8968SOL     OW27802   2.926   5.529   2.173
 8968SOL    HW127803   2.954   5.492   2.262
 8968SOL    HW227804   2.835   5.569   2.181
 8969SOL     OW27805   6.918   1.375   2.181
 8969SOL    HW127806   6.934   1.402   2.086
 8969SOL    HW227807   6.996   1.320   2.213
 8970SOL     OW27808   2.398   1.839   4.497
 8970SOL    HW127809   2.478   1.895   4.515
 8970SOL    HW227810   2.332   1.891   4.442
 8971SOL     OW27811   3.421   5.082   1.424
 8971SOL    HW127812   3.439   5.091   1.326
 8971SOL    HW227813   3.399   5.172   1.462
 8972SOL     OW27814   5.913   3.928   5.855
 8972SOL    HW127815   5.849   3.854   5.876
 8972SOL    HW227816   6.005   3.890   5.844
 8973SOL     OW27817   2.421   1.731   3.360
 8973SOL    HW127818   2.506   1.772   3.327
 8973SOL    HW227819   2.383   1.671   3.290
 8974SOL     OW27820   1.571   4.865   5.041
 8974SOL    HW127821   1.610   4.842   4.952
 8974SOL    HW227822   1.561   4.782   5.095
 8975SOL     OW27823   0.684   3.943   6.265
 8975SOL    HW127824   0.711   3.879   6.337
 8975SOL    HW227825   0.587   3.931   6.243
 8976SOL     OW27826   5.795   0.198   1.258
 8976SOL    HW127827   5.702   0.192   1.292
 8976SOL    HW227828   5.849   0.257   1.319
 8977SOL     OW27829   0.528   5.174   5.633
 8977SOL    HW127830   0.430   5.162   5.651
 8977SOL    HW227831   0.576   5.088   5.654
 8978SOL     OW27832   6.676   5.152   5.215
 8978SOL    HW127833   6.648   5.057   5.229
 8978SOL    HW227834   6.598   5.213   5.231
 8979SOL     OW27835   1.916   4.120   3.650
 8979SOL    HW127836   1.958   4.181   3.583
 8979SOL    HW227837   1.954   4.028   3.638
 8980SOL     OW27838   5.243   0.756   0.420
 8980SOL    HW127839   5.240   0.668   0.467
 8980SOL    HW227840   5.307   0.817   0.467
 8981SOL     OW27841   4.119   2.216   6.509
 8981SOL    HW127842   4.147   2.304   6.546
 8981SOL    HW227843   4.195   2.151   6.517
 8982SOL     OW27844   0.715   0.590   2.847
 8982SOL    HW127845   0.750   0.568   2.756
 8982SOL    HW227846   0.619   0.616   2.841
 8983SOL     OW27847   1.473   6.495   2.536
 8983SOL    HW127848   1.512   6.490   2.627
 8983SOL    HW227849   1.438   6.588   2.520
 8984SOL     OW27850   5.998   0.771   3.748
 8984SOL    HW127851   5.901   0.767   3.771
 8984SOL    HW227852   6.016   0.853   3.693
 8985SOL     OW27853   5.057   0.364   1.601
 8985SOL    HW127854   5.096   0.277   1.570
 8985SOL    HW227855   5.126   0.436   1.593
 8986SOL     OW27856   1.174   6.804   6.404
 8986SOL    HW127857   1.161   6.719   6.455
 8986SOL    HW227858   1.248   6.792   6.338
 8987SOL     OW27859   2.665   6.459   2.178
 8987SOL    HW127860   2.604   6.498   2.247
 8987SOL    HW227861   2.631   6.480   2.087
 8988SOL     OW27862   2.274   6.889   0.794
 8988SOL    HW127863   2.303   6.901   0.699
 8988SOL    HW227864   2.224   6.803   0.803
 8989SOL     OW27865   6.486   1.304   2.322
 8989SOL    HW127866   6.511   1.284   2.417
 8989SOL    HW227867   6.567   1.294   2.264
 8990SOL     OW27868   3.895   1.229   2.949
 8990SOL    HW127869   3.971   1.168   2.928
 8990SOL    HW227870   3.858   1.206   3.039
 8991SOL     OW27871   1.482   2.248   0.829
 8991SOL    HW127872   1.508   2.253   0.926
 8991SOL    HW227873   1.428   2.329   0.805
 8992SOL     OW27874   1.022   5.391   5.206
 8992SOL    HW127875   1.067   5.458   5.148
 8992SOL    HW227876   1.074   5.306   5.206
 8993SOL     OW27877   5.744   4.110   3.976
 8993SOL    HW127878   5.742   4.209   3.957
 8993SOL    HW227879   5.799   4.064   3.906
 8994SOL     OW27880   1.636   6.112   2.010
 8994SOL    HW127881   1.588   6.025   1.996
 8994SOL    HW227882   1.699   6.104   2.087
 8995SOL     OW27883   2.074   4.189   3.892
 8995SOL    HW127884   2.007   4.117   3.911
 8995SOL    HW227885   2.027   4.277   3.885
 8996SOL     OW27886   2.559   3.346   1.112
 8996SOL    HW127887   2.610   3.432   1.108
 8996SOL    HW227888   2.564   3.308   1.204
 8997SOL     OW27889   4.453   1.725   4.642
 8997SOL    HW127890   4.525   1.751   4.705
 8997SOL    HW227891   4.377   1.790   4.649
 8998SOL     OW27892   0.934   1.389   6.876
 8998SOL    HW127893   0.976   1.475   6.845
 8998SOL    HW227894   0.936   1.386   6.976
 8999SOL     OW27895   5.662   2.875   5.816
 8999SOL    HW127896   5.581   2.888   5.875
 8999SOL    HW227897   5.655   2.937   5.738
 9000SOL     OW27898   4.900   4.941   1.326
 9000SOL    HW127899   4.849   4.887   1.259
 9000SOL    HW227900   4.873   4.915   1.418
 9001SOL     OW27901   0.592   3.047   4.317
 9001SOL    HW127902   0.577   3.017   4.222
 9001SOL    HW227903   0.686   3.025   4.344
 9002SOL     OW27904   4.895   2.730   5.452
 9002SOL    HW127905   4.905   2.672   5.532
 9002SOL    HW227906   4.838   2.809   5.474
 9003SOL     OW27907   0.239   3.444   6.863
 9003SOL    HW127908   0.337   3.466   6.867
 9003SOL    HW227909   0.227   3.345   6.875
 9004SOL     OW27910   4.521   5.602   0.319
 9004SOL    HW127911   4.508   5.547   0.402
 9004SOL    HW227912   4.617   5.628   0.312
 9005SOL     OW27913   4.868   3.753   3.733
 9005SOL    HW127914   4.862   3.741   3.634
 9005SOL    HW227915   4.881   3.664   3.776
 9006SOL     OW27916   3.015   6.423   2.003
 9006SOL    HW127917   3.071   6.343   2.025
 9006SOL    HW227918   2.980   6.463   2.087
 9007SOL     OW27919   1.847   6.134   5.710
 9007SOL    HW127920   1.879   6.060   5.768
 9007SOL    HW227921   1.925   6.172   5.659
 9008SOL     OW27922   0.053   4.596   2.182
 9008SOL    HW127923   6.981   4.558   2.183
 9008SOL    HW227924   0.057   4.674   2.244
 9009SOL     OW27925   4.025   6.576   0.176
 9009SOL    HW127926   3.947   6.513   0.176
 9009SOL    HW227927   4.013   6.644   0.248
 9010SOL     OW27928   6.904   5.823   4.608
 9010SOL    HW127929   6.947   5.838   4.519
 9010SOL    HW227930   6.812   5.786   4.596
 9011SOL     OW27931   4.533   2.605   1.880
 9011SOL    HW127932   4.453   2.583   1.823
 9011SOL    HW227933   4.603   2.535   1.867
 9012SOL     OW27934   4.352   5.185   2.996
 9012SOL    HW127935   4.349   5.135   3.082
 9012SOL    HW227936   4.291   5.142   2.930
 9013SOL     OW27937   3.798   5.901   2.020
 9013SOL    HW127938   3.710   5.936   1.990
 9013SOL    HW227939   3.853   5.976   2.057
 9014SOL     OW27940   2.506   1.096   1.926
 9014SOL    HW127941   2.437   1.158   1.891
 9014SOL    HW227942   2.542   1.131   2.013
 9015SOL     OW27943   6.123   2.334   4.661
 9015SOL    HW127944   6.076   2.288   4.586
 9015SOL    HW227945   6.180   2.407   4.625
 9016SOL     OW27946   6.994   5.386   6.476
 9016SOL    HW127947   0.010   5.475   6.500
 9016SOL    HW227948   6.933   5.353   6.548
 9017SOL     OW27949   6.029   3.071   2.615
 9017SOL    HW127950   6.039   3.142   2.685
 9017SOL    HW227951   6.116   3.060   2.567
 9018SOL     OW27952   4.895   1.538   6.975
 9018SOL    HW127953   4.827   1.486   6.922
 9018SOL    HW227954   4.936   1.608   6.917
 9019SOL     OW27955   1.991   5.674   0.326
 9019SOL    HW127956   1.932   5.636   0.397
 9019SOL    HW227957   1.989   5.774   0.331
 9020SOL     OW27958   1.034   5.149   4.539
 9020SOL    HW127959   1.063   5.197   4.456
 9020SOL    HW227960   1.007   5.215   4.608
 9021SOL     OW27961   6.329   5.373   5.517
 9021SOL    HW127962   6.277   5.288   5.517
 9021SOL    HW227963   6.306   5.427   5.437
 9022SOL     OW27964   1.575   0.078   6.136
 9022SOL    HW127965   1.611   0.011   6.071
 9022SOL    HW227966   1.647   0.106   6.199
 9023SOL     OW27967   3.644   3.785   4.324
 9023SOL    HW127968   3.564   3.798   4.382
 9023SOL    HW227969   3.724   3.828   4.366
 9024SOL     OW27970   0.865   0.070   0.191
 9024SOL    HW127971   0.952   0.054   0.239
 9024SOL    HW227972   0.882   0.079   0.093
 9025SOL     OW27973   0.512   2.957   0.181
 9025SOL    HW127974   0.434   2.986   0.237
 9025SOL    HW227975   0.564   3.038   0.153
 9026SOL     OW27976   2.949   3.819   5.978
 9026SOL    HW127977   3.024   3.863   5.927
 9026SOL    HW227978   2.988   3.764   6.052
 9027SOL     OW27979   1.737   3.175   2.460
 9027SOL    HW127980   1.759   3.267   2.492
 9027SOL    HW227981   1.737   3.174   2.360
 9028SOL     OW27982   1.879   4.521   4.847
 9028SOL    HW127983   1.937   4.553   4.772
 9028SOL    HW227984   1.806   4.587   4.863
 9029SOL     OW27985   5.443   5.488   2.973
 9029SOL    HW127986   5.528   5.486   3.025
 9029SOL    HW227987   5.414   5.394   2.952
 9030SOL     OW27988   4.898   2.594   2.946
 9030SOL    HW127989   4.811   2.549   2.925
 9030SOL    HW227990   4.907   2.676   2.889
 9031SOL     OW27991   2.534   0.835   2.069
 9031SOL    HW127992   2.518   0.922   2.022
 9031SOL    HW227993   2.630   0.810   2.060
 9032SOL     OW27994   0.382   3.844   2.832
 9032SOL    HW127995   0.328   3.928   2.845
 9032SOL    HW227996   0.327   3.778   2.781
 9033SOL     OW27997   1.306   3.833   2.354
 9033SOL    HW127998   1.225   3.776   2.365
 9033SOL    HW227999   1.318   3.890   2.435
 9034SOL     OW28000   1.365   6.695   0.145
 9034SOL    HW128001   1.400   6.639   0.070
 9034SOL    HW228002   1.328   6.635   0.216
 9035SOL     OW28003   6.362   1.088   4.128
 9035SOL    HW128004   6.326   1.110   4.038
 9035SOL    HW228005   6.297   1.029   4.176
 9036SOL     OW28006   0.186   1.520   4.933
 9036SOL    HW128007   0.236   1.595   4.889
 9036SOL    HW228008   0.230   1.433   4.910
 9037SOL     OW28009   2.601   4.548   5.673
 9037SOL    HW128010   2.519   4.531   5.619
 9037SOL    HW228011   2.681   4.515   5.624
 9038SOL     OW28012   3.933   5.512   5.594
 9038SOL    HW128013   3.959   5.417   5.609
 9038SOL    HW228014   3.874   5.518   5.514
 9039SOL     OW28015   2.749   4.911   6.984
 9039SOL    HW128016   2.680   4.838   6.981
 9039SOL    HW228017   2.706   4.995   7.016
 9040SOL     OW28018   3.165   1.001   2.354
 9040SOL    HW128019   3.218   1.007   2.270
 9040SOL    HW228020   3.204   0.930   2.413
 9041SOL     OW28021   2.051   2.517   5.645
 9041SOL    HW128022   2.096   2.600   5.677
 9041SOL    HW228023   1.966   2.541   5.598
 9042SOL     OW28024   1.964   5.361   2.164
 9042SOL    HW128025   1.947   5.396   2.072
 9042SOL    HW228026   2.059   5.376   2.189
 9043SOL     OW28027   0.551   1.559   0.262
 9043SOL    HW128028   0.567   1.650   0.226
 9043SOL    HW228029   0.588   1.491   0.198
 9044SOL     OW28030   0.631   4.261   0.543
 9044SOL    HW128031   0.637   4.202   0.624
 9044SOL    HW228032   0.534   4.273   0.518
 9045SOL     OW28033   2.163   4.924   4.673
 9045SOL    HW128034   2.262   4.910   4.683
 9045SOL    HW228035   2.139   4.918   4.576
 9046SOL     OW28036   3.294   3.930   5.759
 9046SOL    HW128037   3.203   3.963   5.734
 9046SOL    HW228038   3.316   3.960   5.851
 9047SOL     OW28039   0.695   4.020   4.425
 9047SOL    HW128040   0.722   4.008   4.521
 9047SOL    HW228041   0.691   3.931   4.380
 9048SOL     OW28042   1.688   2.774   5.103
 9048SOL    HW128043   1.591   2.794   5.089
 9048SOL    HW228044   1.724   2.726   5.023
 9049SOL     OW28045   4.773   6.156   5.911
 9049SOL    HW128046   4.841   6.082   5.914
 9049SOL    HW228047   4.732   6.158   5.820
 9050SOL     OW28048   0.013   3.989   6.225
 9050SOL    HW128049   0.086   3.928   6.193
 9050SOL    HW228050   6.947   3.939   6.228
 9051SOL     OW28051   6.619   6.525   6.583
 9051SOL    HW128052   6.616   6.585   6.503
 9051SOL    HW228053   6.713   6.492   6.595
 9052SOL     OW28054   2.440   4.809   4.663
 9052SOL    HW128055   2.470   4.765   4.578
 9052SOL    HW228056   2.485   4.764   4.741
 9053SOL     OW28057   1.592   0.770   2.711
 9053SOL    HW128058   1.648   0.702   2.759
 9053SOL    HW228059   1.517   0.799   2.771
 9054SOL     OW28060   1.610   0.147   1.489
 9054SOL    HW128061   1.512   0.128   1.494
 9054SOL    HW228062   1.630   0.196   1.404
 9055SOL     OW28063   1.611   2.316   5.321
 9055SOL    HW128064   1.671   2.269   5.256
 9055SOL    HW228065   1.525   2.341   5.275
 9056SOL     OW28066   5.449   2.159   1.778
 9056SOL    HW128067   5.517   2.226   1.748
 9056SOL    HW228068   5.358   2.200   1.774
 9057SOL     OW28069   3.516   6.740   6.494
 9057SOL    HW128070   3.542   6.654   6.449
 9057SOL    HW228071   3.579   6.813   6.466
 9058SOL     OW28072   2.245   2.902   3.770
 9058SOL    HW128073   2.300   2.839   3.824
 9058SOL    HW228074   2.220   2.981   3.826
 9059SOL     OW28075   7.015   0.670   2.288
 9059SOL    HW128076   6.993   0.765   2.306
 9059SOL    HW228077   7.017   0.619   2.374
 9060SOL     OW28078   0.187   4.842   0.064
 9060SOL    HW128079   0.163   4.870   6.992
 9060SOL    HW228080   0.191   4.743   0.070
 9061SOL     OW28081   4.545   4.405   2.789
 9061SOL    HW128082   4.460   4.454   2.811
 9061SOL    HW228083   4.584   4.367   2.873
 9062SOL     OW28084   0.294   5.729   2.857
 9062SOL    HW128085   0.276   5.786   2.777
 9062SOL    HW228086   0.207   5.709   2.904
 9063SOL     OW28087   5.693   6.580   0.739
 9063SOL    HW128088   5.724   6.636   0.662
 9063SOL    HW228089   5.672   6.639   0.817
 9064SOL     OW28090   1.629   5.595   3.026
 9064SOL    HW128091   1.640   5.550   2.938
 9064SOL    HW228092   1.715   5.639   3.052
 9065SOL     OW28093   3.077   4.452   6.944
 9065SOL    HW128094   3.146   4.490   6.884
 9065SOL    HW228095   2.990   4.500   6.930
 9066SOL     OW28096   5.154   4.666   3.887
 9066SOL    HW128097   5.186   4.698   3.976
 9066SOL    HW228098   5.126   4.744   3.831
 9067SOL     OW28099   2.024   6.861   3.907
 9067SOL    HW128100   2.044   6.765   3.887
 9067SOL    HW228101   2.097   6.900   3.963
 9068SOL     OW28102   4.852   0.495   5.771
 9068SOL    HW128103   4.853   0.543   5.683
 9068SOL    HW228104   4.797   0.412   5.763
 9069SOL     OW28105   4.460   2.133   1.953
 9069SOL    HW128106   4.492   2.141   2.048
 9069SOL    HW228107   4.376   2.187   1.942
 9070SOL     OW28108   1.621   0.883   6.620
 9070SOL    HW128109   1.525   0.899   6.643
 9070SOL    HW228110   1.627   0.841   6.529
 9071SOL     OW28111   4.973   2.852   6.651
 9071SOL    HW128112   5.024   2.776   6.610
 9071SOL    HW228113   5.023   2.938   6.635
 9072SOL     OW28114   6.724   1.028   2.157
 9072SOL    HW128115   6.696   1.124   2.152
 9072SOL    HW228116   6.719   0.986   2.067
 9073SOL     OW28117   4.836   2.580   5.736
 9073SOL    HW128118   4.826   2.605   5.832
 9073SOL    HW228119   4.904   2.507   5.727
 9074SOL     OW28120   2.141   1.106   3.346
 9074SOL    HW128121   2.191   1.029   3.386
 9074SOL    HW228122   2.114   1.170   3.418
 9075SOL     OW28123   5.107   5.405   0.661
 9075SOL    HW128124   5.080   5.501   0.666
 9075SOL    HW228125   5.026   5.347   0.667
 9076SOL     OW28126   1.354   6.100   2.271
 9076SOL    HW128127   1.417   6.176   2.257
 9076SOL    HW228128   1.400   6.027   2.321
 9077SOL     OW28129   6.671   1.444   6.344
 9077SOL    HW128130   6.694   1.389   6.263
 9077SOL    HW228131   6.585   1.411   6.383
 9078SOL     OW28132   5.241   6.806   6.374
 9078SOL    HW128133   5.188   6.809   6.459
 9078SOL    HW228134   5.307   6.731   6.379
 9079SOL     OW28135   1.818   1.558   6.404
 9079SOL    HW128136   1.843   1.629   6.338
 9079SOL    HW228137   1.762   1.488   6.359
 9080SOL     OW28138   6.384   4.330   1.046
 9080SOL    HW128139   6.319   4.354   1.118
 9080SOL    HW228140   6.335   4.308   0.962
 9081SOL     OW28141   4.835   1.425   0.196
 9081SOL    HW128142   4.748   1.469   0.220
 9081SOL    HW228143   4.872   1.468   0.114
 9082SOL     OW28144   3.148   4.756   6.761
 9082SOL    HW128145   3.050   4.772   6.767
 9082SOL    HW228146   3.198   4.837   6.791
 9083SOL     OW28147   4.181   0.474   0.871
 9083SOL    HW128148   4.140   0.550   0.920
 9083SOL    HW228149   4.110   0.421   0.825
 9084SOL     OW28150   6.855   4.831   4.476
 9084SOL    HW128151   6.920   4.868   4.411
 9084SOL    HW228152   6.798   4.905   4.512
 9085SOL     OW28153   3.105   4.602   1.204
 9085SOL    HW128154   3.083   4.697   1.182
 9085SOL    HW228155   3.126   4.553   1.119
 9086SOL     OW28156   6.606   2.116   0.672
 9086SOL    HW128157   6.600   2.200   0.727
 9086SOL    HW228158   6.569   2.133   0.581
 9087SOL     OW28159   5.004   1.432   1.211
 9087SOL    HW128160   5.102   1.441   1.191
 9087SOL    HW228161   4.978   1.498   1.281
 9088SOL     OW28162   5.248   6.461   6.604
 9088SOL    HW128163   5.259   6.542   6.661
 9088SOL    HW228164   5.151   6.437   6.600
 9089SOL     OW28165   5.085   5.743   3.096
 9089SOL    HW128166   5.116   5.697   3.012
 9089SOL    HW228167   5.056   5.674   3.162
 9090SOL     OW28168   5.944   5.619   5.011
 9090SOL    HW128169   5.987   5.680   5.077
 9090SOL    HW228170   5.863   5.578   5.051
 9091SOL     OW28171   2.505   2.367   1.655
 9091SOL    HW128172   2.436   2.343   1.723
 9091SOL    HW228173   2.594   2.331   1.684
 9092SOL     OW28174   2.914   2.074   5.148
 9092SOL    HW128175   2.868   2.162   5.161
 9092SOL    HW228176   2.907   2.046   5.052
 9093SOL     OW28177   2.125   3.333   0.437
 9093SOL    HW128178   2.031   3.348   0.467
 9093SOL    HW228179   2.153   3.408   0.377
 9094SOL     OW28180   6.684   2.273   0.186
 9094SOL    HW128181   6.690   2.306   0.092
 9094SOL    HW228182   6.739   2.331   0.246
 9095SOL     OW28183   2.192   2.596   0.376
 9095SOL    HW128184   2.274   2.583   0.432
 9095SOL    HW228185   2.114   2.614   0.435
 9096SOL     OW28186   6.787   4.288   2.690
 9096SOL    HW128187   6.860   4.346   2.652
 9096SOL    HW228188   6.809   4.192   2.672
 9097SOL     OW28189   6.876   5.765   5.895
 9097SOL    HW128190   6.973   5.743   5.887
 9097SOL    HW228191   6.835   5.714   5.970
 9098SOL     OW28192   4.107   3.334   5.191
 9098SOL    HW128193   4.088   3.295   5.101
 9098SOL    HW228194   4.089   3.265   5.262
 9099SOL     OW28195   2.222   2.604   6.476
 9099SOL    HW128196   2.316   2.623   6.447
 9099SOL    HW228197   2.203   2.651   6.562
 9100SOL     OW28198   1.346   2.963   0.620
 9100SOL    HW128199   1.300   2.877   0.639
 9100SOL    HW228200   1.312   3.000   0.533
 9101SOL     OW28201   2.215   2.449   6.942
 9101SOL    HW128202   2.155   2.393   6.999
 9101SOL    HW228203   2.305   2.407   6.937
 9102SOL     OW28204   4.560   6.370   2.454
 9102SOL    HW128205   4.556   6.360   2.354
 9102SOL    HW228206   4.633   6.435   2.478
 9103SOL     OW28207   1.117   4.261   5.905
 9103SOL    HW128208   1.140   4.315   5.823
 9103SOL    HW228209   1.089   4.323   5.978
 9104SOL     OW28210   4.549   0.199   3.085
 9104SOL    HW128211   4.483   0.148   3.030
 9104SOL    HW228212   4.621   0.235   3.026
 9105SOL     OW28213   3.228   2.240   5.988
 9105SOL    HW128214   3.300   2.172   6.005
 9105SOL    HW228215   3.213   2.249   5.889
 9106SOL     OW28216   6.360   5.464   1.875
 9106SOL    HW128217   6.372   5.391   1.808
 9106SOL    HW228218   6.372   5.427   1.967
 9107SOL     OW28219   5.030   6.059   6.504
 9107SOL    HW128220   5.011   6.038   6.408
 9107SOL    HW228221   5.116   6.109   6.511
 9108SOL     OW28222   3.177   5.536   0.269
 9108SOL    HW128223   3.179   5.634   0.288
 9108SOL    HW228224   3.267   5.506   0.236
 9109SOL     OW28225   3.469   1.573   3.740
 9109SOL    HW128226   3.443   1.652   3.795
 9109SOL    HW228227   3.521   1.604   3.660
 9110SOL     OW28228   0.774   3.460   3.640
 9110SOL    HW128229   0.857   3.408   3.660
 9110SOL    HW228230   0.747   3.513   3.721
 9111SOL     OW28231   3.780   4.193   1.425
 9111SOL    HW128232   3.850   4.144   1.372
 9111SOL    HW228233   3.698   4.136   1.430
 9112SOL     OW28234   1.093   5.908   2.445
 9112SOL    HW128235   1.147   5.914   2.362
 9112SOL    HW228236   0.995   5.909   2.422
 9113SOL     OW28237   2.719   5.561   6.830
 9113SOL    HW128238   2.669   5.477   6.852
 9113SOL    HW228239   2.663   5.617   6.769
 9114SOL     OW28240   2.613   3.490   1.782
 9114SOL    HW128241   2.607   3.581   1.742
 9114SOL    HW228242   2.522   3.458   1.807
 9115SOL     OW28243   1.656   3.855   4.769
 9115SOL    HW128244   1.648   3.935   4.710
 9115SOL    HW228245   1.701   3.881   4.855
 9116SOL     OW28246   2.727   2.243   6.102
 9116SOL    HW128247   2.750   2.340   6.094
 9116SOL    HW228248   2.806   2.188   6.077
 9117SOL     OW28249   0.895   2.858   0.400
 9117SOL    HW128250   0.830   2.782   0.398
 9117SOL    HW228251   0.980   2.830   0.356
 9118SOL     OW28252   0.609   6.669   2.048
 9118SOL    HW128253   0.594   6.631   1.957
 9118SOL    HW228254   0.707   6.684   2.061
 9119SOL     OW28255   6.319   0.056   1.028
 9119SOL    HW128256   6.293   0.065   1.124
 9119SOL    HW228257   6.253   7.018   0.981
 9120SOL     OW28258   6.263   0.368   6.948
 9120SOL    HW128259   6.210   0.448   6.976
 9120SOL    HW228260   6.266   0.364   6.848
 9121SOL     OW28261   1.363   1.633   6.735
 9121SOL    HW128262   1.265   1.622   6.754
 9121SOL    HW228263   1.375   1.660   6.640
 9122SOL     OW28264   0.442   2.862   1.377
 9122SOL    HW128265   0.360   2.843   1.432
 9122SOL    HW228266   0.523   2.836   1.429
 9123SOL     OW28267   1.757   6.587   6.381
 9123SOL    HW128268   1.839   6.623   6.427
 9123SOL    HW228269   1.762   6.487   6.378
 9124SOL     OW28270   0.319   4.295   5.365
 9124SOL    HW128271   0.392   4.245   5.319
 9124SOL    HW228272   0.232   4.276   5.321
 9125SOL     OW28273   4.913   5.721   1.057
 9125SOL    HW128274   4.958   5.651   1.113
 9125SOL    HW228275   4.832   5.754   1.105
 9126SOL     OW28276   5.467   0.249   3.470
 9126SOL    HW128277   5.498   0.341   3.492
 9126SOL    HW228278   5.370   0.240   3.491
 9127SOL     OW28279   5.715   5.616   5.858
 9127SOL    HW128280   5.779   5.573   5.795
 9127SOL    HW228281   5.689   5.706   5.822
 9128SOL     OW28282   4.579   2.539   5.602
 9128SOL    HW128283   4.550   2.607   5.535
 9128SOL    HW228284   4.675   2.556   5.627
 9129SOL     OW28285   2.976   1.234   0.106
 9129SOL    HW128286   2.911   1.280   0.167
 9129SOL    HW228287   2.978   1.281   0.018
 9130SOL     OW28288   5.738   5.787   0.858
 9130SOL    HW128289   5.801   5.709   0.860
 9130SOL    HW228290   5.776   5.860   0.802
 9131SOL     OW28291   1.544   4.799   3.905
 9131SOL    HW128292   1.455   4.761   3.933
 9131SOL    HW228293   1.603   4.808   3.985
 9132SOL     OW28294   1.617   2.865   4.192
 9132SOL    HW128295   1.648   2.770   4.195
 9132SOL    HW228296   1.554   2.882   4.268
 9133SOL     OW28297   1.533   5.153   1.295
 9133SOL    HW128298   1.582   5.148   1.382
 9133SOL    HW228299   1.567   5.082   1.233
 9134SOL     OW28300   2.564   4.963   6.210
 9134SOL    HW128301   2.587   4.866   6.205
 9134SOL    HW228302   2.599   5.002   6.296
 9135SOL     OW28303   1.176   6.494   3.842
 9135SOL    HW128304   1.087   6.505   3.887
 9135SOL    HW228305   1.186   6.564   3.771
 9136SOL     OW28306   3.224   5.179   5.026
 9136SOL    HW128307   3.151   5.174   5.094
 9136SOL    HW228308   3.283   5.098   5.035
 9137SOL     OW28309   4.242   0.737   2.155
 9137SOL    HW128310   4.158   0.789   2.144
 9137SOL    HW228311   4.226   0.659   2.214
 9138SOL     OW28312   3.116   4.115   0.953
 9138SOL    HW128313   3.130   4.211   0.928
 9138SOL    HW228314   3.132   4.058   0.872
 9139SOL     OW28315   3.558   0.741   5.854
 9139SOL    HW128316   3.562   0.667   5.787
 9139SOL    HW228317   3.651   0.772   5.875
 9140SOL     OW28318   6.228   2.884   3.238
 9140SOL    HW128319   6.176   2.969   3.244
 9140SOL    HW228320   6.272   2.878   3.148
 9141SOL     OW28321   5.453   0.758   5.922
 9141SOL    HW128322   5.540   0.796   5.891
 9141SOL    HW228323   5.470   0.688   5.991
 9142SOL     OW28324   1.293   4.175   6.859
 9142SOL    HW128325   1.207   4.226   6.854
 9142SOL    HW228326   1.329   4.160   6.767
 9143SOL     OW28327   5.668   4.265   0.729
 9143SOL    HW128328   5.572   4.275   0.703
 9143SOL    HW228329   5.694   4.169   0.724
 9144SOL     OW28330   1.359   5.404   4.677
 9144SOL    HW128331   1.433   5.436   4.618
 9144SOL    HW228332   1.372   5.307   4.697
 9145SOL     OW28333   0.738   3.648   6.092
 9145SOL    HW128334   0.787   3.565   6.066
 9145SOL    HW228335   0.801   3.711   6.139
 9146SOL     OW28336   0.540   1.528   1.116
 9146SOL    HW128337   0.538   1.432   1.144
 9146SOL    HW228338   0.578   1.535   1.024
 9147SOL     OW28339   4.271   5.468   6.181
 9147SOL    HW128340   4.277   5.432   6.088
 9147SOL    HW228341   4.349   5.530   6.198
 9148SOL     OW28342   3.694   5.210   3.232
 9148SOL    HW128343   3.718   5.250   3.144
 9148SOL    HW228344   3.596   5.220   3.248
 9149SOL     OW28345   6.388   3.171   5.252
 9149SOL    HW128346   6.396   3.147   5.155
 9149SOL    HW228347   6.479   3.182   5.291
 9150SOL     OW28348   4.137   1.346   2.770
 9150SOL    HW128349   4.145   1.440   2.735
 9150SOL    HW228350   4.134   1.348   2.870
 9151SOL     OW28351   7.021   2.935   2.138
 9151SOL    HW128352   0.045   3.014   2.179
 9151SOL    HW228353   6.972   2.964   2.055
 9152SOL     OW28354   2.356   5.005   3.363
 9152SOL    HW128355   2.295   4.962   3.430
 9152SOL    HW228356   2.426   5.059   3.410
 9153SOL     OW28357   2.020   2.902   0.052
 9153SOL    HW128358   2.054   2.821   0.004
 9153SOL    HW228359   2.016   2.883   0.150
 9154SOL     OW28360   1.009   5.528   0.787
 9154SOL    HW128361   0.933   5.464   0.793
 9154SOL    HW228362   1.094   5.481   0.811
 9155SOL     OW28363   1.712   4.613   0.111
 9155SOL    HW128364   1.688   4.516   0.105
 9155SOL    HW228365   1.634   4.668   0.084
 9156SOL     OW28366   4.631   2.663   1.538
 9156SOL    HW128367   4.642   2.711   1.626
 9156SOL    HW228368   4.699   2.697   1.473
 9157SOL     OW28369   5.313   3.395   5.411
 9157SOL    HW128370   5.286   3.372   5.318
 9157SOL    HW228371   5.263   3.338   5.476
 9158SOL     OW28372   0.904   3.865   3.724
 9158SOL    HW128373   0.952   3.945   3.688
 9158SOL    HW228374   0.806   3.878   3.714
 9159SOL     OW28375   6.781   4.632   2.029
 9159SOL    HW128376   6.721   4.597   1.957
 9159SOL    HW228377   6.792   4.564   2.101
 9160SOL     OW28378   0.471   0.204   0.904
 9160SOL    HW128379   0.402   0.164   0.844
 9160SOL    HW228380   0.462   0.304   0.904
 9161SOL     OW28381   5.010   4.321   2.365
 9161SOL    HW128382   4.951   4.402   2.360
 9161SOL    HW228383   4.976   4.259   2.435
 9162SOL     OW28384   5.150   2.462   2.975
 9162SOL    HW128385   5.208   2.505   3.044
 9162SOL    HW228386   5.065   2.513   2.966
 9163SOL     OW28387   3.644   0.941   4.985
 9163SOL    HW128388   3.628   0.850   5.022
 9163SOL    HW228389   3.601   0.949   4.895
 9164SOL     OW28390   2.865   0.374   0.931
 9164SOL    HW128391   2.900   0.281   0.930
 9164SOL    HW228392   2.808   0.387   1.012
 9165SOL     OW28393   4.808   5.926   0.520
 9165SOL    HW128394   4.826   6.023   0.536
 9165SOL    HW228395   4.803   5.878   0.608
 9166SOL     OW28396   3.605   5.858   1.152
 9166SOL    HW128397   3.698   5.896   1.159
 9166SOL    HW228398   3.578   5.818   1.239
 9167SOL     OW28399   0.398   3.638   4.868
 9167SOL    HW128400   0.312   3.615   4.823
 9167SOL    HW228401   0.435   3.557   4.913
 9168SOL     OW28402   3.453   0.503   0.293
 9168SOL    HW128403   3.522   0.461   0.235
 9168SOL    HW228404   3.455   0.461   0.383
 9169SOL     OW28405   0.280   6.773   3.520
 9169SOL    HW128406   0.320   6.834   3.588
 9169SOL    HW228407   0.181   6.772   3.531
 9170SOL     OW28408   6.509   6.244   0.269
 9170SOL    HW128409   6.466   6.327   0.303
 9170SOL    HW228410   6.439   6.186   0.225
 9171SOL     OW28411   3.539   5.587   5.213
 9171SOL    HW128412   3.555   5.536   5.128
 9171SOL    HW228413   3.503   5.678   5.191
 9172SOL     OW28414   2.513   2.512   3.988
 9172SOL    HW128415   2.567   2.459   3.922
 9172SOL    HW228416   2.539   2.485   4.081
 9173SOL     OW28417   0.508   5.163   5.348
 9173SOL    HW128418   0.504   5.187   5.445
 9173SOL    HW228419   0.436   5.210   5.299
 9174SOL     OW28420   0.358   5.608   6.430
 9174SOL    HW128421   0.314   5.528   6.472
 9174SOL    HW228422   0.394   5.667   6.502
 9175SOL     OW28423   2.297   6.117   5.637
 9175SOL    HW128424   2.224   6.132   5.569
 9175SOL    HW228425   2.260   6.131   5.729
 9176SOL     OW28426   1.571   2.054   5.835
 9176SOL    HW128427   1.614   1.968   5.860
 9176SOL    HW228428   1.562   2.060   5.736
 9177SOL     OW28429   1.126   4.802   3.181
 9177SOL    HW128430   1.142   4.863   3.259
 9177SOL    HW228431   1.164   4.843   3.099
 9178SOL     OW28432   2.170   4.171   0.331
 9178SOL    HW128433   2.223   4.111   0.390
 9178SOL    HW228434   2.181   4.143   0.235
 9179SOL     OW28435   2.721   5.030   4.958
 9179SOL    HW128436   2.767   5.022   4.870
 9179SOL    HW228437   2.731   4.944   5.009
 9180SOL     OW28438   5.505   2.013   2.712
 9180SOL    HW128439   5.563   1.936   2.685
 9180SOL    HW228440   5.560   2.081   2.759
 9181SOL     OW28441   3.819   1.266   2.286
 9181SOL    HW128442   3.847   1.224   2.200
 9181SOL    HW228443   3.731   1.311   2.275
 9182SOL     OW28444   2.394   6.502   1.892
 9182SOL    HW128445   2.381   6.403   1.898
 9182SOL    HW228446   2.490   6.525   1.908
 9183SOL     OW28447   5.269   5.524   6.014
 9183SOL    HW128448   5.368   5.519   6.005
 9183SOL    HW228449   5.226   5.481   5.934
 9184SOL     OW28450   5.003   6.623   6.765
 9184SOL    HW128451   5.096   6.634   6.801
 9184SOL    HW228452   5.000   6.544   6.705
 9185SOL     OW28453   4.795   1.668   4.604
 9185SOL    HW128454   4.831   1.660   4.697
 9185SOL    HW228455   4.824   1.755   4.565
 9186SOL     OW28456   5.136   0.257   6.386
 9186SOL    HW128457   5.188   0.198   6.324
 9186SOL    HW228458   5.052   0.288   6.340
 9187SOL     OW28459   2.575   6.397   2.748
 9187SOL    HW128460   2.640   6.467   2.779
 9187SOL    HW228461   2.625   6.323   2.703
 9188SOL     OW28462   2.311   5.567   1.019
 9188SOL    HW128463   2.352   5.488   1.065
 9188SOL    HW228464   2.288   5.542   0.924
 9189SOL     OW28465   5.276   5.439   2.261
 9189SOL    HW128466   5.205   5.467   2.325
 9189SOL    HW228467   5.249   5.354   2.215
 9190SOL     OW28468   1.249   5.682   0.180
 9190SOL    HW128469   1.218   5.741   0.106
 9190SOL    HW228470   1.170   5.637   0.221
 9191SOL     OW28471   0.060   0.952   5.725
 9191SOL    HW128472   0.056   0.862   5.682
 9191SOL    HW228473   0.127   1.009   5.676
 9192SOL     OW28474   1.131   3.662   5.220
 9192SOL    HW128475   1.060   3.620   5.163
 9192SOL    HW228476   1.100   3.666   5.314
 9193SOL     OW28477   2.853   3.900   0.478
 9193SOL    HW128478   2.813   3.911   0.388
 9193SOL    HW228479   2.900   3.811   0.483
 9194SOL     OW28480   2.978   1.126   4.338
 9194SOL    HW128481   3.007   1.032   4.321
 9194SOL    HW228482   3.049   1.174   4.389
 9195SOL     OW28483   1.521   1.143   4.323
 9195SOL    HW128484   1.523   1.213   4.251
 9195SOL    HW228485   1.612   1.101   4.330
 9196SOL     OW28486   5.260   1.338   5.928
 9196SOL    HW128487   5.276   1.383   5.840
 9196SOL    HW228488   5.306   1.389   6.000
 9197SOL     OW28489   2.306   3.789   0.341
 9197SOL    HW128490   2.219   3.771   0.387
 9197SOL    HW228491   2.333   3.884   0.357
 9198SOL     OW28492   0.814   4.581   4.408
 9198SOL    HW128493   0.786   4.532   4.326
 9198SOL    HW228494   0.753   4.557   4.484
 9199SOL     OW28495   5.876   4.211   5.071
 9199SOL    HW128496   5.783   4.239   5.047
 9199SOL    HW228497   5.920   4.282   5.125
 9200SOL     OW28498   3.123   0.188   0.219
 9200SOL    HW128499   3.070   0.272   0.231
 9200SOL    HW228500   3.140   0.173   0.122
 9201SOL     OW28501   2.219   4.212   0.699
 9201SOL    HW128502   2.253   4.135   0.645
 9201SOL    HW228503   2.120   4.216   0.694
 9202SOL     OW28504   2.363   1.163   3.866
 9202SOL    HW128505   2.435   1.148   3.933
 9202SOL    HW228506   2.354   1.261   3.847
 9203SOL     OW28507   6.511   6.467   0.776
 9203SOL    HW128508   6.529   6.385   0.722
 9203SOL    HW228509   6.589   6.528   0.770
 9204SOL     OW28510   6.242   0.647   5.087
 9204SOL    HW128511   6.183   0.676   5.163
 9204SOL    HW228512   6.334   0.628   5.121
 9205SOL     OW28513   0.038   5.426   2.159
 9205SOL    HW128514   0.120   5.457   2.111
 9205SOL    HW228515   0.009   5.338   2.121
 9206SOL     OW28516   3.837   6.814   6.812
 9206SOL    HW128517   3.889   6.815   6.897
 9206SOL    HW228518   3.739   6.822   6.832
 9207SOL     OW28519   5.653   6.069   5.940
 9207SOL    HW128520   5.684   5.993   5.998
 9207SOL    HW228521   5.730   6.104   5.888
 9208SOL     OW28522   1.091   4.026   2.459
 9208SOL    HW128523   1.026   3.953   2.438
 9208SOL    HW228524   1.162   3.992   2.520
 9209SOL     OW28525   2.267   6.706   6.846
 9209SOL    HW128526   2.217   6.626   6.812
 9209SOL    HW228527   2.215   6.788   6.825
 9210SOL     OW28528   6.283   0.473   3.755
 9210SOL    HW128529   6.324   0.550   3.804
 9210SOL    HW228530   6.349   0.434   3.691
 9211SOL     OW28531   0.529   1.804   2.681
 9211SOL    HW128532   0.567   1.752   2.604
 9211SOL    HW228533   0.443   1.762   2.710
 9212SOL     OW28534   3.798   5.445   4.347
 9212SOL    HW128535   3.779   5.353   4.312
 9212SOL    HW228536   3.895   5.454   4.370
 9213SOL     OW28537   6.086   4.101   6.516
 9213SOL    HW128538   6.036   4.015   6.507
 9213SOL    HW228539   6.037   4.161   6.580
 9214SOL     OW28540   0.271   5.098   0.277
 9214SOL    HW128541   0.242   5.148   0.358
 9214SOL    HW228542   0.309   5.009   0.305
 9215SOL     OW28543   1.550   1.430   0.835
 9215SOL    HW128544   1.638   1.395   0.805
 9215SOL    HW228545   1.511   1.369   0.904
 9216SOL     OW28546   2.271   0.599   3.679
 9216SOL    HW128547   2.249   0.524   3.617
 9216SOL    HW228548   2.368   0.594   3.705
 9217SOL     OW28549   0.480   2.589   0.626
 9217SOL    HW128550   0.465   2.496   0.661
 9217SOL    HW228551   0.473   2.589   0.526
 9218SOL     OW28552   2.097   1.027   0.436
 9218SOL    HW128553   2.065   1.051   0.344
 9218SOL    HW228554   2.143   1.106   0.477
 9219SOL     OW28555   6.068   1.909   0.434
 9219SOL    HW128556   5.999   1.845   0.398
 9219SOL    HW228557   6.159   1.881   0.403
 9220SOL     OW28558   3.477   6.304   0.755
 9220SOL    HW128559   3.470   6.215   0.800
 9220SOL    HW228560   3.407   6.311   0.684
 9221SOL     OW28561   2.600   4.675   4.813
 9221SOL    HW128562   2.678   4.669   4.875
 9221SOL    HW228563   2.545   4.592   4.820
 9222SOL     OW28564   3.023   2.035   6.556
 9222SOL    HW128565   2.950   1.987   6.605
 9222SOL    HW228566   3.009   2.133   6.564
 9223SOL     OW28567   2.938   3.130   5.133
 9223SOL    HW128568   2.945   3.229   5.130
 9223SOL    HW228569   2.894   3.097   5.050
 9224SOL     OW28570   2.250   4.713   5.449
 9224SOL    HW128571   2.250   4.802   5.496
 9224SOL    HW228572   2.307   4.719   5.367
 9225SOL     OW28573   1.812   6.257   0.050
 9225SOL    HW128574   1.761   6.250   0.136
 9225SOL    HW228575   1.909   6.239   0.067
 9226SOL     OW28576   4.508   6.579   0.928
 9226SOL    HW128577   4.476   6.673   0.936
 9226SOL    HW228578   4.468   6.537   0.846
 9227SOL     OW28579   1.161   6.563   1.837
 9227SOL    HW128580   1.236   6.518   1.884
 9227SOL    HW228581   1.114   6.625   1.901
 9228SOL     OW28582   0.601   6.672   7.003
 9228SOL    HW128583   0.525   6.635   6.949
 9228SOL    HW228584   0.674   6.702   6.942
 9229SOL     OW28585   0.906   5.808   5.632
 9229SOL    HW128586   0.848   5.817   5.551
 9229SOL    HW228587   0.873   5.732   5.688
 9230SOL     OW28588   4.707   1.579   3.667
 9230SOL    HW128589   4.789   1.523   3.670
 9230SOL    HW228590   4.646   1.546   3.595
 9231SOL     OW28591   2.074   3.600   3.525
 9231SOL    HW128592   2.090   3.637   3.434
 9231SOL    HW228593   2.091   3.501   3.525
 9232SOL     OW28594   4.161   5.151   1.540
 9232SOL    HW128595   4.071   5.196   1.540
 9232SOL    HW228596   4.233   5.219   1.528
 9233SOL     OW28597   5.571   4.634   0.498
 9233SOL    HW128598   5.626   4.716   0.507
 9233SOL    HW228599   5.521   4.617   0.583
 9234SOL     OW28600   1.435   6.357   3.756
 9234SOL    HW128601   1.338   6.372   3.778
 9234SOL    HW228602   1.460   6.263   3.777
 9235SOL     OW28603   0.948   2.668   3.450
 9235SOL    HW128604   0.916   2.762   3.461
 9235SOL    HW228605   0.870   2.605   3.456
 9236SOL     OW28606   3.714   2.654   5.667
 9236SOL    HW128607   3.655   2.623   5.592
 9236SOL    HW228608   3.676   2.738   5.706
 9237SOL     OW28609   1.720   3.618   3.122
 9237SOL    HW128610   1.656   3.691   3.096
 9237SOL    HW228611   1.682   3.566   3.199
 9238SOL     OW28612   4.306   3.475   6.613
 9238SOL    HW128613   4.295   3.414   6.691
 9238SOL    HW228614   4.398   3.515   6.615
 9239SOL     OW28615   2.098   3.269   6.271
 9239SOL    HW128616   2.015   3.299   6.317
 9239SOL    HW228617   2.082   3.180   6.229
 9240SOL     OW28618   4.755   0.829   2.405
 9240SOL    HW128619   4.808   0.848   2.488
 9240SOL    HW228620   4.771   0.901   2.338
 9241SOL     OW28621   0.721   5.354   6.122
 9241SOL    HW128622   0.668   5.427   6.079
 9241SOL    HW228623   0.817   5.362   6.095
 9242SOL     OW28624   5.644   6.499   1.451
 9242SOL    HW128625   5.628   6.418   1.394
 9242SOL    HW228626   5.702   6.475   1.528
 9243SOL     OW28627   5.496   6.966   4.334
 9243SOL    HW128628   5.491   6.907   4.253
 9243SOL    HW228629   5.573   0.008   4.323
 9244SOL     OW28630   3.871   5.587   0.451
 9244SOL    HW128631   3.850   5.507   0.508
 9244SOL    HW228632   3.950   5.636   0.491
 9245SOL     OW28633   0.309   6.827   2.172
 9245SOL    HW128634   0.333   6.900   2.108
 9245SOL    HW228635   0.324   6.738   2.128
 9246SOL     OW28636   6.729   5.210   4.039
 9246SOL    HW128637   6.770   5.175   3.955
 9246SOL    HW228638   6.713   5.135   4.103
 9247SOL     OW28639   1.379   0.207   3.413
 9247SOL    HW128640   1.446   0.181   3.483
 9247SOL    HW228641   1.376   0.306   3.404
 9248SOL     OW28642   3.948   1.574   6.068
 9248SOL    HW128643   3.904   1.492   6.030
 9248SOL    HW228644   3.902   1.656   6.035
 9249SOL     OW28645   4.146   6.798   3.615
 9249SOL    HW128646   4.202   6.877   3.638
 9249SOL    HW228647   4.072   6.787   3.681
 9250SOL     OW28648   5.211   3.906   3.124
 9250SOL    HW128649   5.158   3.911   3.209
 9250SOL    HW228650   5.214   3.997   3.081
 9251SOL     OW28651   3.876   1.872   2.342
 9251SOL    HW128652   3.849   1.868   2.438
 9251SOL    HW228653   3.850   1.788   2.296
 9252SOL     OW28654   1.303   6.884   4.324
 9252SOL    HW128655   1.306   6.861   4.227
 9252SOL    HW228656   1.288   6.983   4.335
 9253SOL     OW28657   1.417   6.851   6.238
 9253SOL    HW128658   1.396   6.932   6.183
 9253SOL    HW228659   1.488   6.874   6.304
 9254SOL     OW28660   5.276   2.356   1.007
 9254SOL    HW128661   5.230   2.283   0.956
 9254SOL    HW228662   5.324   2.318   1.085
 9255SOL     OW28663   6.971   5.588   0.750
 9255SOL    HW128664   0.034   5.539   0.727
 9255SOL    HW228665   6.961   5.594   0.849
 9256SOL     OW28666   3.792   5.332   2.656
 9256SOL    HW128667   3.744   5.370   2.576
 9256SOL    HW228668   3.890   5.326   2.635
 9257SOL     OW28669   0.801   3.311   0.860
 9257SOL    HW128670   0.832   3.406   0.853
 9257SOL    HW228671   0.730   3.294   0.792
 9258SOL     OW28672   3.077   3.249   4.101
 9258SOL    HW128673   3.058   3.277   4.007
 9258SOL    HW228674   3.040   3.318   4.164
 9259SOL     OW28675   1.648   2.392   0.566
 9259SOL    HW128676   1.695   2.396   0.478
 9259SOL    HW228677   1.555   2.360   0.553
 9260SOL     OW28678   6.472   3.870   6.531
 9260SOL    HW128679   6.563   3.876   6.491
 9260SOL    HW228680   6.424   3.791   6.492
 9261SOL     OW28681   3.210   6.652   6.159
 9261SOL    HW128682   3.289   6.705   6.129
 9261SOL    HW228683   3.209   6.647   6.259
 9262SOL     OW28684   5.649   0.581   6.175
 9262SOL    HW128685   5.629   0.489   6.211
 9262SOL    HW228686   5.649   0.647   6.251
 9263SOL     OW28687   5.889   3.996   2.064
 9263SOL    HW128688   5.982   4.000   2.101
 9263SOL    HW228689   5.841   4.081   2.085
 9264SOL     OW28690   5.631   2.544   0.028
 9264SOL    HW128691   5.582   2.470   0.076
 9264SOL    HW228692   5.619   2.629   0.078
 9265SOL     OW28693   1.556   2.110   5.545
 9265SOL    HW128694   1.564   2.199   5.502
 9265SOL    HW228695   1.498   2.050   5.489
 9266SOL     OW28696   2.553   6.122   2.078
 9266SOL    HW128697   2.625   6.149   2.014
 9266SOL    HW228698   2.470   6.175   2.059
 9267SOL     OW28699   2.789   4.950   5.860
 9267SOL    HW128700   2.775   4.986   5.952
 9267SOL    HW228701   2.710   4.896   5.833
 9268SOL     OW28702   1.404   1.677   3.132
 9268SOL    HW128703   1.312   1.653   3.104
 9268SOL    HW228704   1.458   1.594   3.146
 9269SOL     OW28705   4.399   1.690   5.355
 9269SOL    HW128706   4.490   1.688   5.397
 9269SOL    HW228707   4.331   1.716   5.423
 9270SOL     OW28708   1.396   0.582   5.610
 9270SOL    HW128709   1.484   0.599   5.565
 9270SOL    HW228710   1.322   0.606   5.548
 9271SOL     OW28711   0.556   4.968   6.062
 9271SOL    HW128712   0.551   4.875   6.027
 9271SOL    HW228713   0.648   5.005   6.048
 9272SOL     OW28714   2.321   5.374   6.809
 9272SOL    HW128715   2.370   5.377   6.721
 9272SOL    HW228716   2.254   5.448   6.812
 9273SOL     OW28717   4.162   5.828   5.892
 9273SOL    HW128718   4.153   5.776   5.807
 9273SOL    HW228719   4.097   5.794   5.960
 9274SOL     OW28720   5.515   2.467   1.734
 9274SOL    HW128721   5.601   2.458   1.684
 9274SOL    HW228722   5.457   2.536   1.690
 9275SOL     OW28723   0.401   0.330   6.036
 9275SOL    HW128724   0.377   0.388   6.114
 9275SOL    HW228725   0.383   0.380   5.951
 9276SOL     OW28726   4.370   6.907   3.943
 9276SOL    HW128727   4.386   6.835   3.876
 9276SOL    HW228728   4.284   6.889   3.991
 9277SOL     OW28729   3.846   2.761   0.158
 9277SOL    HW128730   3.877   2.807   0.242
 9277SOL    HW228731   3.795   2.827   0.102
 9278SOL     OW28732   1.481   2.387   1.318
 9278SOL    HW128733   1.417   2.458   1.346
 9278SOL    HW228734   1.574   2.424   1.319
 9279SOL     OW28735   1.920   6.403   0.798
 9279SOL    HW128736   1.829   6.432   0.829
 9279SOL    HW228737   1.928   6.421   0.700
 9280SOL     OW28738   1.476   0.416   2.788
 9280SOL    HW128739   1.559   0.431   2.841
 9280SOL    HW228740   1.493   0.438   2.692
 9281SOL     OW28741   2.389   2.368   0.400
 9281SOL    HW128742   2.372   2.319   0.486
 9281SOL    HW228743   2.318   2.343   0.334
 9282SOL     OW28744   4.283   1.204   6.592
 9282SOL    HW128745   4.202   1.243   6.635
 9282SOL    HW228746   4.264   1.110   6.563
 9283SOL     OW28747   5.381   2.730   2.790
 9283SOL    HW128748   5.434   2.800   2.743
 9283SOL    HW228749   5.333   2.673   2.722
 9284SOL     OW28750   3.524   4.018   1.795
 9284SOL    HW128751   3.506   4.107   1.753
 9284SOL    HW228752   3.520   3.946   1.725
 9285SOL     OW28753   6.790   2.924   6.117
 9285SOL    HW128754   6.848   2.852   6.154
 9285SOL    HW228755   6.844   3.006   6.100
 9286SOL     OW28756   5.464   5.470   4.701
 9286SOL    HW128757   5.477   5.555   4.752
 9286SOL    HW228758   5.537   5.461   4.634
 9287SOL     OW28759   2.667   6.938   2.170
 9287SOL    HW128760   2.650   6.913   2.266
 9287SOL    HW228761   2.730   7.016   2.167
 9288SOL     OW28762   4.805   2.149   6.107
 9288SOL    HW128763   4.781   2.246   6.103
 9288SOL    HW228764   4.774   2.110   6.194
 9289SOL     OW28765   5.774   4.470   2.672
 9289SOL    HW128766   5.769   4.433   2.764
 9289SOL    HW228767   5.684   4.469   2.630
 9290SOL     OW28768   4.601   1.986   3.945
 9290SOL    HW128769   4.556   1.916   3.889
 9290SOL    HW228770   4.541   2.012   4.021
 9291SOL     OW28771   0.854   1.928   4.983
 9291SOL    HW128772   0.787   1.958   4.915
 9291SOL    HW228773   0.865   1.998   5.053
 9292SOL     OW28774   0.248   4.076   0.267
 9292SOL    HW128775   0.203   4.087   0.355
 9292SOL    HW228776   0.325   4.012   0.277
 9293SOL     OW28777   6.163   3.716   5.869
 9293SOL    HW128778   6.108   3.639   5.838
 9293SOL    HW228779   6.253   3.713   5.824
 9294SOL     OW28780   5.433   6.228   6.092
 9294SOL    HW128781   5.455   6.253   5.997
 9294SOL    HW228782   5.517   6.203   6.140
 9295SOL     OW28783   4.966   2.408   3.243
 9295SOL    HW128784   4.882   2.444   3.285
 9295SOL    HW228785   4.943   2.367   3.154
 9296SOL     OW28786   6.865   0.007   4.962
 9296SOL    HW128787   6.815   0.086   4.998
 9296SOL    HW228788   6.912   6.981   5.037
 9297SOL     OW28789   0.999   0.700   1.702
 9297SOL    HW128790   1.031   0.787   1.665
 9297SOL    HW228791   0.900   0.703   1.714
 9298SOL     OW28792   0.655   6.083   5.051
 9298SOL    HW128793   0.651   6.085   4.951
 9298SOL    HW228794   0.580   6.028   5.087
 9299SOL     OW28795   1.732   3.108   4.132
 9299SOL    HW128796   1.673   3.143   4.059
 9299SOL    HW228797   1.688   3.030   4.176
 9300SOL     OW28798   5.440   4.318   3.592
 9300SOL    HW128799   5.520   4.280   3.637
 9300SOL    HW228800   5.372   4.247   3.578
 9301SOL     OW28801   6.288   4.512   1.558
 9301SOL    HW128802   6.199   4.527   1.601
 9301SOL    HW228803   6.300   4.578   1.483
 9302SOL     OW28804   1.602   2.152   2.378
 9302SOL    HW128805   1.565   2.229   2.429
 9302SOL    HW228806   1.602   2.070   2.435
 9303SOL     OW28807   4.749   4.012   0.624
 9303SOL    HW128808   4.772   4.096   0.673
 9303SOL    HW228809   4.787   3.933   0.673
 9304SOL     OW28810   4.285   3.569   0.411
 9304SOL    HW128811   4.244   3.593   0.323
 9304SOL    HW228812   4.214   3.549   0.477
 9305SOL     OW28813   4.886   3.779   2.071
 9305SOL    HW128814   4.835   3.790   1.986
 9305SOL    HW228815   4.924   3.868   2.098
 9306SOL     OW28816   6.268   5.657   4.197
 9306SOL    HW128817   6.275   5.743   4.146
 9306SOL    HW228818   6.183   5.656   4.250
 9307SOL     OW28819   2.515   0.668   5.720
 9307SOL    HW128820   2.611   0.657   5.745
 9307SOL    HW228821   2.463   0.697   5.800
 9308SOL     OW28822   0.028   2.201   0.733
 9308SOL    HW128823   0.097   2.265   0.767
 9308SOL    HW228824   6.972   2.199   0.797
 9309SOL     OW28825   5.001   2.483   6.259
 9309SOL    HW128826   5.099   2.503   6.264
 9309SOL    HW228827   4.950   2.551   6.311
 9310SOL     OW28828   4.168   6.836   1.455
 9310SOL    HW128829   4.177   6.936   1.451
 9310SOL    HW228830   4.187   6.804   1.547
 9311SOL     OW28831   6.865   3.616   1.401
 9311SOL    HW128832   6.769   3.609   1.430
 9311SOL    HW228833   6.925   3.600   1.479
 9312SOL     OW28834   1.961   4.112   4.614
 9312SOL    HW128835   2.049   4.064   4.615
 9312SOL    HW228836   1.936   4.138   4.707
 9313SOL     OW28837   5.857   6.778   2.547
 9313SOL    HW128838   5.868   6.696   2.490
 9313SOL    HW228839   5.775   6.767   2.604
 9314SOL     OW28840   6.639   3.985   0.142
 9314SOL    HW128841   6.712   3.937   0.191
 9314SOL    HW228842   6.560   3.925   0.132
 9315SOL     OW28843   0.383   6.539   6.645
 9315SOL    HW128844   0.433   6.594   6.578
 9315SOL    HW228845   0.286   6.565   6.643
 9316SOL     OW28846   3.272   5.480   4.575
 9316SOL    HW128847   3.308   5.566   4.610
 9316SOL    HW228848   3.234   5.426   4.650
 9317SOL     OW28849   4.371   3.899   5.380
 9317SOL    HW128850   4.365   3.853   5.469
 9317SOL    HW228851   4.281   3.897   5.336
 9318SOL     OW28852   6.921   6.587   6.015
 9318SOL    HW128853   6.862   6.634   6.080
 9318SOL    HW228854   6.877   6.503   5.985
 9319SOL     OW28855   6.174   3.471   4.601
 9319SOL    HW128856   6.118   3.520   4.534
 9319SOL    HW228857   6.126   3.465   4.688
 9320SOL     OW28858   4.325   2.916   6.098
 9320SOL    HW128859   4.327   2.818   6.080
 9320SOL    HW228860   4.362   2.965   6.019
 9321SOL     OW28861   5.793   5.999   4.279
 9321SOL    HW128862   5.780   5.929   4.349
 9321SOL    HW228863   5.856   6.070   4.313
 9322SOL     OW28864   1.087   6.161   0.642
 9322SOL    HW128865   1.187   6.162   0.633
 9322SOL    HW228866   1.062   6.148   0.738
 9323SOL     OW28867   0.590   1.214   6.342
 9323SOL    HW128868   0.646   1.159   6.280
 9323SOL    HW228869   0.598   1.178   6.435
 9324SOL     OW28870   1.646   5.268   6.704
 9324SOL    HW128871   1.611   5.336   6.768
 9324SOL    HW228872   1.681   5.189   6.755
 9325SOL     OW28873   6.923   2.576   0.696
 9325SOL    HW128874   7.018   2.601   0.711
 9325SOL    HW228875   6.913   2.537   0.604
 9326SOL     OW28876   2.765   5.734   1.461
 9326SOL    HW128877   2.802   5.642   1.471
 9326SOL    HW228878   2.792   5.790   1.540
 9327SOL     OW28879   2.801   1.568   3.546
 9327SOL    HW128880   2.777   1.511   3.467
 9327SOL    HW228881   2.774   1.663   3.527
 9328SOL     OW28882   2.476   0.612   2.196
 9328SOL    HW128883   2.484   0.617   2.295
 9328SOL    HW228884   2.496   0.702   2.156
 9329SOL     OW28885   0.885   4.088   2.056
 9329SOL    HW128886   0.888   4.005   2.112
 9329SOL    HW228887   0.824   4.155   2.099
 9330SOL     OW28888   5.454   6.646   6.420
 9330SOL    HW128889   5.522   6.698   6.472
 9330SOL    HW228890   5.429   6.564   6.473
 9331SOL     OW28891   0.844   1.809   0.233
 9331SOL    HW128892   0.900   1.866   0.172
 9331SOL    HW228893   0.748   1.820   0.209
 9332SOL     OW28894   3.798   3.657   5.350
 9332SOL    HW128895   3.731   3.593   5.388
 9332SOL    HW228896   3.890   3.625   5.371
 9333SOL     OW28897   5.058   5.682   0.686
 9333SOL    HW128898   4.960   5.667   0.704
 9333SOL    HW228899   5.099   5.728   0.764
 9334SOL     OW28900   2.703   0.050   4.700
 9334SOL    HW128901   2.622   7.016   4.683
 9334SOL    HW228902   2.733   0.093   4.615
 9335SOL     OW28903   0.898   1.679   2.025
 9335SOL    HW128904   0.851   1.767   2.027
 9335SOL    HW228905   0.862   1.620   2.098
 9336SOL     OW28906   3.389   0.313   5.268
 9336SOL    HW128907   3.449   0.376   5.316
 9336SOL    HW228908   3.324   0.273   5.333
 9337SOL     OW28909   4.521   0.260   2.761
 9337SOL    HW128910   4.487   0.178   2.807
 9337SOL    HW228911   4.620   0.267   2.774
 9338SOL     OW28912   3.565   6.913   1.942
 9338SOL    HW128913   3.544   6.996   1.891
 9338SOL    HW228914   3.489   6.891   2.003
 9339SOL     OW28915   3.845   5.433   1.395
 9339SOL    HW128916   3.805   5.408   1.307
 9339SOL    HW228917   3.825   5.362   1.462
 9340SOL     OW28918   6.494   3.091   0.981
 9340SOL    HW128919   6.420   3.115   0.917
 9340SOL    HW228920   6.541   3.174   1.010
 9341SOL     OW28921   0.573   4.220   5.697
 9341SOL    HW128922   0.513   4.300   5.688
 9341SOL    HW228923   0.645   4.241   5.764
 9342SOL     OW28924   1.621   0.486   6.845
 9342SOL    HW128925   1.549   0.545   6.881
 9342SOL    HW228926   1.586   0.436   6.766
 9343SOL     OW28927   5.743   6.527   3.958
 9343SOL    HW128928   5.747   6.617   4.001
 9343SOL    HW228929   5.834   6.486   3.959
 9344SOL     OW28930   5.069   6.405   0.779
 9344SOL    HW128931   4.993   6.394   0.715
 9344SOL    HW228932   5.110   6.496   0.767
 9345SOL     OW28933   0.456   3.019   0.638
 9345SOL    HW128934   0.433   3.000   0.543
 9345SOL    HW228935   0.517   2.948   0.673
 9346SOL     OW28936   6.100   0.867   0.629
 9346SOL    HW128937   6.050   0.880   0.544
 9346SOL    HW228938   6.179   0.928   0.631
 9347SOL     OW28939   2.050   6.745   2.275
 9347SOL    HW128940   2.120   6.755   2.204
 9347SOL    HW228941   2.011   6.653   2.269
 9348SOL     OW28942   2.912   4.851   0.387
 9348SOL    HW128943   2.908   4.800   0.472
 9348SOL    HW228944   2.847   4.927   0.391
 9349SOL     OW28945   1.570   6.105   2.505
 9349SOL    HW128946   1.595   6.123   2.600
 9349SOL    HW228947   1.537   6.010   2.497
 9350SOL     OW28948   0.314   3.000   5.942
 9350SOL    HW128949   0.270   3.067   5.883
 9350SOL    HW228950   0.410   2.991   5.916
 9351SOL     OW28951   3.250   0.245   6.621
 9351SOL    HW128952   3.192   0.164   6.616
 9351SOL    HW228953   3.220   0.313   6.554
 9352SOL     OW28954   2.848   5.134   6.079
 9352SOL    HW128955   2.912   5.210   6.066
 9352SOL    HW228956   2.843   5.110   6.176
 9353SOL     OW28957   6.096   1.007   0.952
 9353SOL    HW128958   6.020   1.066   0.921
 9353SOL    HW228959   6.182   1.046   0.920
 9354SOL     OW28960   0.965   1.080   6.333
 9354SOL    HW128961   0.873   1.065   6.297
 9354SOL    HW228962   0.979   1.023   6.414
 9355SOL     OW28963   0.811   1.592   5.080
 9355SOL    HW128964   0.901   1.566   5.045
 9355SOL    HW228965   0.791   1.686   5.055
 9356SOL     OW28966   4.106   0.004   4.125
 9356SOL    HW128967   4.008   0.006   4.147
 9356SOL    HW228968   4.149   6.949   4.172
 9357SOL     OW28969   1.580   2.098   0.134
 9357SOL    HW128970   1.579   2.077   0.232
 9357SOL    HW228971   1.574   2.013   0.082
 9358SOL     OW28972   1.076   2.005   1.225
 9358SOL    HW128973   0.999   1.941   1.220
 9358SOL    HW228974   1.042   2.098   1.212
 9359SOL     OW28975   0.804   0.495   5.162
 9359SOL    HW128976   0.806   0.583   5.113
 9359SOL    HW228977   0.736   0.436   5.120
 9360SOL     OW28978   0.395   0.644   6.030
 9360SOL    HW128979   0.298   0.627   6.016
 9360SOL    HW228980   0.409   0.694   6.115
 9361SOL     OW28981   2.161   5.600   4.268
 9361SOL    HW128982   2.209   5.628   4.184
 9361SOL    HW228983   2.070   5.566   4.244
 9362SOL     OW28984   1.717   0.599   2.345
 9362SOL    HW128985   1.690   0.540   2.269
 9362SOL    HW228986   1.756   0.684   2.309
 9363SOL     OW28987   1.796   3.196   2.185
 9363SOL    HW128988   1.879   3.155   2.223
 9363SOL    HW228989   1.819   3.244   2.100
 9364SOL     OW28990   0.078   2.435   0.138
 9364SOL    HW128991   0.051   2.347   0.178
 9364SOL    HW228992   0.069   2.429   0.038
 9365SOL     OW28993   2.266   0.770   5.254
 9365SOL    HW128994   2.290   0.738   5.346
 9365SOL    HW228995   2.175   0.810   5.255
 9366SOL     OW28996   3.603   0.262   2.272
 9366SOL    HW128997   3.652   0.195   2.217
 9366SOL    HW228998   3.505   0.243   2.268
 9367SOL     OW28999   6.952   0.722   1.376
 9367SOL    HW129000   6.919   0.640   1.329
 9367SOL    HW229001   0.024   0.705   1.408
 9368SOL     OW29002   2.405   0.385   3.051
 9368SOL    HW129003   2.492   0.411   3.095
 9368SOL    HW229004   2.351   0.467   3.033
 9369SOL     OW29005   3.786   5.210   1.021
 9369SOL    HW129006   3.854   5.270   0.978
 9369SOL    HW229007   3.798   5.210   1.120
 9370SOL     OW29008   4.392   2.248   5.102
 9370SOL    HW129009   4.393   2.150   5.081
 9370SOL    HW229010   4.395   2.300   5.017
 9371SOL     OW29011   3.918   4.699   0.827
 9371SOL    HW129012   3.960   4.658   0.746
 9371SOL    HW229013   3.818   4.692   0.821
 9372SOL     OW29014   4.311   6.726   1.271
 9372SOL    HW129015   4.300   6.626   1.269
 9372SOL    HW229016   4.242   6.766   1.330
 9373SOL     OW29017   0.407   2.612   1.611
 9373SOL    HW129018   0.384   2.525   1.654
 9373SOL    HW229019   0.324   2.664   1.593
 9374SOL     OW29020   6.972   5.167   6.285
 9374SOL    HW129021   6.985   5.101   6.359
 9374SOL    HW229022   7.004   5.257   6.314
 9375SOL     OW29023   1.434   1.175   0.161
 9375SOL    HW129024   1.399   1.217   0.244
 9375SOL    HW229025   1.433   1.242   0.087
 9376SOL     OW29026   3.148   3.342   0.565
 9376SOL    HW129027   3.074   3.274   0.570
 9376SOL    HW229028   3.123   3.422   0.619
 9377SOL     OW29029   1.027   0.419   3.374
 9377SOL    HW129030   0.928   0.415   3.370
 9377SOL    HW229031   1.058   0.391   3.464
 9378SOL     OW29032   3.930   1.589   4.917
 9378SOL    HW129033   3.903   1.494   4.903
 9378SOL    HW229034   4.028   1.598   4.898
 9379SOL     OW29035   4.154   0.371   4.674
 9379SOL    HW129036   4.218   0.359   4.750
 9379SOL    HW229037   4.067   0.329   4.698
 9380SOL     OW29038   4.873   5.389   1.096
 9380SOL    HW129039   4.971   5.408   1.093
 9380SOL    HW229040   4.858   5.300   1.140
 9381SOL     OW29041   5.537   1.125   4.797
 9381SOL    HW129042   5.562   1.127   4.894
 9381SOL    HW229043   5.614   1.158   4.742
 9382SOL     OW29044   3.541   5.297   6.035
 9382SOL    HW129045   3.534   5.198   6.050
 9382SOL    HW229046   3.449   5.336   6.029
 9383SOL     OW29047   5.982   3.732   1.841
 9383SOL    HW129048   6.075   3.695   1.851
 9383SOL    HW229049   5.935   3.728   1.929
 9384SOL     OW29050   3.776   7.000   0.749
 9384SOL    HW129051   3.806   6.923   0.692
 9384SOL    HW229052   3.855   0.021   0.793
 9385SOL     OW29053   4.129   2.269   3.797
 9385SOL    HW129054   4.222   2.307   3.791
 9385SOL    HW229055   4.104   2.258   3.893
 9386SOL     OW29056   5.619   6.773   0.957
 9386SOL    HW129057   5.633   6.738   1.049
 9386SOL    HW229058   5.567   6.859   0.961
 9387SOL     OW29059   2.372   1.942   6.514
 9387SOL    HW129060   2.386   2.035   6.548
 9387SOL    HW229061   2.313   1.945   6.433
 9388SOL     OW29062   2.340   0.132   4.606
 9388SOL    HW129063   2.341   0.211   4.544
 9388SOL    HW229064   2.339   0.165   4.700
 9389SOL     OW29065   2.235   4.197   2.217
 9389SOL    HW129066   2.183   4.115   2.240
 9389SOL    HW229067   2.271   4.237   2.301
 9390SOL     OW29068   5.739   4.740   4.096
 9390SOL    HW129069   5.684   4.823   4.105
 9390SOL    HW229070   5.835   4.765   4.081
 9391SOL     OW29071   1.245   4.225   4.463
 9391SOL    HW129072   1.215   4.314   4.496
 9391SOL    HW229073   1.184   4.154   4.500
 9392SOL     OW29074   4.199   4.692   2.408
 9392SOL    HW129075   4.174   4.595   2.406
 9392SOL    HW229076   4.282   4.704   2.463
 9393SOL     OW29077   1.931   5.156   6.872
 9393SOL    HW129078   1.997   5.187   6.804
 9393SOL    HW229079   1.973   5.084   6.929
 9394SOL     OW29080   4.578   0.342   6.941
 9394SOL    HW129081   4.553   0.369   0.012
 9394SOL    HW229082   4.575   0.421   6.880
 9395SOL     OW29083   1.104   1.668   1.413
 9395SOL    HW129084   1.135   1.751   1.458
 9395SOL    HW229085   1.006   1.675   1.393
 9396SOL     OW29086   1.138   0.740   6.281
 9396SOL    HW129087   1.193   0.674   6.231
 9396SOL    HW229088   1.134   0.826   6.230
 9397SOL     OW29089   3.284   1.575   4.662
 9397SOL    HW129090   3.373   1.532   4.673
 9397SOL    HW229091   3.239   1.583   4.751
 9398SOL     OW29092   6.896   1.854   6.514
 9398SOL    HW129093   6.819   1.916   6.503
 9398SOL    HW229094   6.982   1.906   6.513
 9399SOL     OW29095   1.261   2.139   4.681
 9399SOL    HW129096   1.230   2.225   4.641
 9399SOL    HW229097   1.234   2.136   4.777
 9400SOL     OW29098   5.750   1.492   1.378
 9400SOL    HW129099   5.813   1.469   1.452
 9400SOL    HW229100   5.712   1.408   1.339
 9401SOL     OW29101   0.268   2.512   3.447
 9401SOL    HW129102   0.178   2.475   3.424
 9401SOL    HW229103   0.325   2.440   3.487
 9402SOL     OW29104   3.487   6.229   5.545
 9402SOL    HW129105   3.555   6.301   5.529
 9402SOL    HW229106   3.408   6.245   5.486
 9403SOL     OW29107   5.379   2.130   1.489
 9403SOL    HW129108   5.380   2.040   1.444
 9403SOL    HW229109   5.420   2.122   1.579
 9404SOL     OW29110   2.415   2.587   0.546
 9404SOL    HW129111   2.421   2.563   0.643
 9404SOL    HW229112   2.473   2.525   0.493
 9405SOL     OW29113   6.247   5.886   5.128
 9405SOL    HW129114   6.320   5.838   5.176
 9405SOL    HW229115   6.279   5.915   5.038
 9406SOL     OW29116   1.424   1.264   1.012
 9406SOL    HW129117   1.346   1.277   1.073
 9406SOL    HW229118   1.501   1.227   1.064
 9407SOL     OW29119   1.603   4.442   4.596
 9407SOL    HW129120   1.519   4.496   4.603
 9407SOL    HW229121   1.630   4.411   4.687
 9408SOL     OW29122   5.358   4.452   4.138
 9408SOL    HW129123   5.453   4.482   4.149
 9408SOL    HW229124   5.357   4.360   4.100
 9409SOL     OW29125   5.625   5.801   1.432
 9409SOL    HW129126   5.694   5.729   1.437
 9409SOL    HW229127   5.555   5.775   1.365
 9410SOL     OW29128   4.751   0.033   0.564
 9410SOL    HW129129   4.814   0.097   0.609
 9410SOL    HW229130   4.685   0.000   0.631
 9411SOL     OW29131   3.454   4.025   4.175
 9411SOL    HW129132   3.372   4.071   4.141
 9411SOL    HW229133   3.465   4.045   4.272
 9412SOL     OW29134   4.181   0.095   1.420
 9412SOL    HW129135   4.122   0.176   1.418
 9412SOL    HW229136   4.275   0.124   1.438
 9413SOL     OW29137   3.869   4.825   3.474
 9413SOL    HW129138   3.962   4.788   3.475
 9413SOL    HW229139   3.853   4.873   3.387
 9414SOL     OW29140   1.694   1.254   2.263
 9414SOL    HW129141   1.750   1.313   2.321
 9414SOL    HW229142   1.631   1.309   2.209
 9415SOL     OW29143   4.952   0.223   1.214
 9415SOL    HW129144   5.024   0.155   1.222
 9415SOL    HW229145   4.901   0.228   1.300
 9416SOL     OW29146   6.278   4.965   5.642
 9416SOL    HW129147   6.357   4.912   5.673
 9416SOL    HW229148   6.253   5.032   5.712
 9417SOL     OW29149   3.703   6.268   2.753
 9417SOL    HW129150   3.724   6.365   2.764
 9417SOL    HW229151   3.683   6.228   2.842
 9418SOL     OW29152   2.905   2.160   4.850
 9418SOL    HW129153   2.987   2.214   4.871
 9418SOL    HW229154   2.932   2.068   4.822
 9419SOL     OW29155   2.190   2.381   6.109
 9419SOL    HW129156   2.272   2.430   6.139
 9419SOL    HW229157   2.141   2.436   6.042
 9420SOL     OW29158   5.548   3.329   5.752
 9420SOL    HW129159   5.648   3.327   5.745
 9420SOL    HW229160   5.517   3.424   5.749
 9421SOL     OW29161   3.973   6.794   0.022
 9421SOL    HW129162   4.061   6.840   0.028
 9421SOL    HW229163   3.983   6.698   0.048
 9422SOL     OW29164   2.129   6.570   6.115
 9422SOL    HW129165   2.050   6.604   6.167
 9422SOL    HW229166   2.206   6.633   6.125
 9423SOL     OW29167   4.260   4.828   1.005
 9423SOL    HW129168   4.338   4.885   0.980
 9423SOL    HW229169   4.177   4.864   0.961
 9424SOL     OW29170   6.071   0.314   3.854
 9424SOL    HW129171   6.131   0.387   3.821
 9424SOL    HW229172   6.124   0.251   3.910
 9425SOL     OW29173   0.144   5.339   1.099
 9425SOL    HW129174   0.224   5.295   1.059
 9425SOL    HW229175   0.161   5.358   1.196
 9426SOL     OW29176   4.361   2.044   6.047
 9426SOL    HW129177   4.368   1.951   6.010
 9426SOL    HW229178   4.342   2.038   6.145
 9427SOL     OW29179   3.892   5.210   2.277
 9427SOL    HW129180   3.836   5.177   2.353
 9427SOL    HW229181   3.870   5.305   2.257
 9428SOL     OW29182   0.673   6.240   5.282
 9428SOL    HW129183   0.708   6.164   5.336
 9428SOL    HW229184   0.683   6.218   5.184
 9429SOL     OW29185   3.012   2.147   3.795
 9429SOL    HW129186   3.095   2.129   3.849
 9429SOL    HW229187   2.938   2.174   3.856
 9430SOL     OW29188   0.851   6.817   4.206
 9430SOL    HW129189   0.943   6.777   4.213
 9430SOL    HW229190   0.838   6.854   4.114
 9431SOL     OW29191   1.367   5.119   4.714
 9431SOL    HW129192   1.302   5.055   4.754
 9431SOL    HW229193   1.399   5.084   4.626
 9432SOL     OW29194   6.707   1.160   3.346
 9432SOL    HW129195   6.760   1.241   3.322
 9432SOL    HW229196   6.770   1.083   3.360
 9433SOL     OW29197   4.364   5.220   1.938
 9433SOL    HW129198   4.267   5.198   1.955
 9433SOL    HW229199   4.393   5.178   1.853
 9434SOL     OW29200   4.138   5.814   5.286
 9434SOL    HW129201   4.166   5.854   5.374
 9434SOL    HW229202   4.171   5.720   5.280
 9435SOL     OW29203   6.426   4.252   6.821
 9435SOL    HW129204   6.523   4.262   6.841
 9435SOL    HW229205   6.411   4.170   6.765
 9436SOL     OW29206   2.982   1.576   2.437
 9436SOL    HW129207   3.049   1.632   2.388
 9436SOL    HW229208   2.919   1.635   2.486
 9437SOL     OW29209   5.141   1.504   4.183
 9437SOL    HW129210   5.053   1.548   4.204
 9437SOL    HW229211   5.211   1.540   4.246
 9438SOL     OW29212   4.956   0.065   2.815
 9438SOL    HW129213   5.014   0.142   2.790
 9438SOL    HW229214   5.000   0.012   2.888
 9439SOL     OW29215   2.292   4.821   0.973
 9439SOL    HW129216   2.266   4.728   0.948
 9439SOL    HW229217   2.383   4.840   0.935
 9440SOL     OW29218   2.146   5.503   5.420
 9440SOL    HW129219   2.182   5.596   5.416
 9440SOL    HW229220   2.056   5.504   5.465
 9441SOL     OW29221   6.852   6.185   3.933
 9441SOL    HW129222   6.927   6.145   3.986
 9441SOL    HW229223   6.782   6.219   3.995
 9442SOL     OW29224   6.203   2.892   1.298
 9442SOL    HW129225   6.265   2.816   1.278
 9442SOL    HW229226   6.150   2.871   1.379
 9443SOL     OW29227   2.183   4.657   1.413
 9443SOL    HW129228   2.192   4.607   1.499
 9443SOL    HW229229   2.092   4.698   1.408
 9444SOL     OW29230   2.045   5.786   6.141
 9444SOL    HW129231   1.955   5.813   6.108
 9444SOL    HW229232   2.059   5.688   6.122
 9445SOL     OW29233   0.650   0.909   4.226
 9445SOL    HW129234   0.649   0.842   4.300
 9445SOL    HW229235   0.743   0.943   4.211
 9446SOL     OW29236   5.684   5.487   4.270
 9446SOL    HW129237   5.606   5.459   4.216
 9446SOL    HW229238   5.666   5.577   4.310
 9447SOL     OW29239   5.528   5.596   2.340
 9447SOL    HW129240   5.463   5.525   2.315
 9447SOL    HW229241   5.531   5.605   2.440
 9448SOL     OW29242   4.647   2.415   6.445
 9448SOL    HW129243   4.703   2.359   6.506
 9448SOL    HW229244   4.589   2.475   6.499
 9449SOL     OW29245   4.897   6.483   2.691
 9449SOL    HW129246   4.942   6.560   2.736
 9449SOL    HW229247   4.840   6.517   2.616
 9450SOL     OW29248   0.968   0.361   2.131
 9450SOL    HW129249   0.945   0.430   2.062
 9450SOL    HW229250   0.978   0.272   2.088
 9451SOL     OW29251   4.130   5.038   0.662
 9451SOL    HW129252   4.220   4.999   0.643
 9451SOL    HW229253   4.066   5.012   0.590
 9452SOL     OW29254   6.398   3.173   6.298
 9452SOL    HW129255   6.348   3.096   6.259
 9452SOL    HW229256   6.449   3.142   6.378
 9453SOL     OW29257   6.847   5.035   2.301
 9453SOL    HW129258   6.812   4.990   2.219
 9453SOL    HW229259   6.906   4.972   2.351
 9454SOL     OW29260   5.304   5.238   0.609
 9454SOL    HW129261   5.230   5.303   0.630
 9454SOL    HW229262   5.335   5.195   0.694
 9455SOL     OW29263   4.786   0.366   1.621
 9455SOL    HW129264   4.883   0.384   1.636
 9455SOL    HW229265   4.775   0.291   1.556
 9456SOL     OW29266   6.979   2.795   2.660
 9456SOL    HW129267   6.914   2.846   2.603
 9456SOL    HW229268   6.928   2.742   2.728
 9457SOL     OW29269   6.506   6.536   4.494
 9457SOL    HW129270   6.568   6.563   4.419
 9457SOL    HW229271   6.433   6.479   4.457
 9458SOL     OW29272   0.146   4.187   0.032
 9458SOL    HW129273   0.212   4.144   0.094
 9458SOL    HW229274   0.125   4.279   0.064
 9459SOL     OW29275   5.346   4.612   4.876
 9459SOL    HW129276   5.397   4.580   4.796
 9459SOL    HW229277   5.294   4.695   4.851
 9460SOL     OW29278   1.946   2.777   2.931
 9460SOL    HW129279   1.919   2.801   2.838
 9460SOL    HW229280   2.032   2.725   2.929
 9461SOL     OW29281   2.312   1.646   1.470
 9461SOL    HW129282   2.239   1.589   1.433
 9461SOL    HW229283   2.401   1.604   1.451
 9462SOL     OW29284   0.112   1.293   5.375
 9462SOL    HW129285   0.182   1.362   5.356
 9462SOL    HW229286   0.031   1.310   5.319
 9463SOL     OW29287   6.655   5.188   0.593
 9463SOL    HW129288   6.714   5.232   0.660
 9463SOL    HW229289   6.579   5.142   0.639
 9464SOL     OW29290   1.456   0.307   2.318
 9464SOL    HW129291   1.479   0.373   2.390
 9464SOL    HW229292   1.422   0.356   2.238
 9465SOL     OW29293   0.327   5.660   0.544
 9465SOL    HW129294   0.298   5.672   0.449
 9465SOL    HW229295   0.294   5.573   0.578
 9466SOL     OW29296   4.250   3.982   5.786
 9466SOL    HW129297   4.249   3.920   5.708
 9466SOL    HW229298   4.292   4.069   5.759
 9467SOL     OW29299   1.279   4.065   1.213
 9467SOL    HW129300   1.292   4.053   1.312
 9467SOL    HW229301   1.225   3.989   1.177
 9468SOL     OW29302   6.590   1.609   1.324
 9468SOL    HW129303   6.667   1.555   1.358
 9468SOL    HW229304   6.528   1.631   1.400
 9469SOL     OW29305   5.952   6.687   2.105
 9469SOL    HW129306   6.015   6.764   2.101
 9469SOL    HW229307   5.860   6.718   2.083
 9470SOL     OW29308   3.770   3.417   1.368
 9470SOL    HW129309   3.808   3.358   1.439
 9470SOL    HW229310   3.720   3.492   1.410
 9471SOL     OW29311   6.321   3.589   4.309
 9471SOL    HW129312   6.353   3.495   4.299
 9471SOL    HW229313   6.229   3.588   4.348
 9472SOL     OW29314   2.383   3.623   6.539
 9472SOL    HW129315   2.415   3.681   6.464
 9472SOL    HW229316   2.447   3.629   6.616
 9473SOL     OW29317   2.960   3.024   1.183
 9473SOL    HW129318   3.052   3.036   1.220
 9473SOL    HW229319   2.959   2.943   1.124
 9474SOL     OW29320   5.867   4.415   0.581
 9474SOL    HW129321   5.902   4.508   0.593
 9474SOL    HW229322   5.799   4.394   0.651
 9475SOL     OW29323   6.058   3.445   6.893
 9475SOL    HW129324   6.003   3.386   6.833
 9475SOL    HW229325   6.012   3.533   6.905
 9476SOL     OW29326   3.473   4.000   0.794
 9476SOL    HW129327   3.474   3.973   0.890
 9476SOL    HW229328   3.549   4.063   0.777
 9477SOL     OW29329   1.651   5.150   0.451
 9477SOL    HW129330   1.735   5.105   0.420
 9477SOL    HW229331   1.646   5.147   0.551
 9478SOL     OW29332   6.946   3.292   5.572
 9478SOL    HW129333   6.939   3.358   5.498
 9478SOL    HW229334   6.867   3.231   5.571
 9479SOL     OW29335   4.447   1.041   2.005
 9479SOL    HW129336   4.469   1.050   2.102
 9479SOL    HW229337   4.366   0.983   1.994
 9480SOL     OW29338   5.610   0.342   0.573
 9480SOL    HW129339   5.705   0.336   0.543
 9480SOL    HW229340   5.586   0.438   0.589
 9481SOL     OW29341   4.707   0.182   4.087
 9481SOL    HW129342   4.734   0.196   4.182
 9481SOL    HW229343   4.625   0.236   4.067
 9482SOL     OW29344   6.243   4.491   5.614
 9482SOL    HW129345   6.298   4.491   5.530
 9482SOL    HW229346   6.300   4.519   5.691
 9483SOL     OW29347   6.073   5.000   6.798
 9483SOL    HW129348   6.058   4.968   6.704
 9483SOL    HW229349   6.033   5.091   6.809
 9484SOL     OW29350   1.658   6.066   4.099
 9484SOL    HW129351   1.633   5.987   4.155
 9484SOL    HW229352   1.691   6.034   4.010
 9485SOL     OW29353   0.341   1.271   4.834
 9485SOL    HW129354   0.437   1.291   4.854
 9485SOL    HW229355   0.328   1.267   4.735
 9486SOL     OW29356   6.841   5.709   6.762
 9486SOL    HW129357   6.898   5.782   6.799
 9486SOL    HW229358   6.815   5.646   6.836
 9487SOL     OW29359   3.022   3.752   3.587
 9487SOL    HW129360   3.033   3.653   3.594
 9487SOL    HW229361   3.006   3.791   3.677
 9488SOL     OW29362   0.906   1.234   2.416
 9488SOL    HW129363   0.962   1.263   2.339
 9488SOL    HW229364   0.882   1.313   2.472
 9489SOL     OW29365   6.506   4.279   6.453
 9489SOL    HW129366   6.470   4.239   6.369
 9489SOL    HW229367   6.455   4.242   6.532
 9490SOL     OW29368   5.605   3.626   4.644
 9490SOL    HW129369   5.680   3.598   4.704
 9490SOL    HW229370   5.613   3.724   4.624
 9491SOL     OW29371   5.338   0.030   2.470
 9491SOL    HW129372   5.417   0.039   2.409
 9491SOL    HW229373   5.319   6.954   2.487
 9492SOL     OW29374   4.635   2.692   4.051
 9492SOL    HW129375   4.719   2.741   4.074
 9492SOL    HW229376   4.654   2.628   3.976
 9493SOL     OW29377   2.592   6.197   2.358
 9493SOL    HW129378   2.537   6.117   2.384
 9493SOL    HW229379   2.615   6.191   2.261
 9494SOL     OW29380   4.714   2.704   2.538
 9494SOL    HW129381   4.811   2.698   2.558
 9494SOL    HW229382   4.701   2.721   2.440
 9495SOL     OW29383   5.037   3.307   1.070
 9495SOL    HW129384   5.099   3.351   1.135
 9495SOL    HW229385   5.089   3.259   1.000
 9496SOL     OW29386   5.952   3.122   0.999
 9496SOL    HW129387   5.883   3.164   0.940
 9496SOL    HW229388   6.010   3.061   0.945
 9497SOL     OW29389   4.830   4.157   5.303
 9497SOL    HW129390   4.750   4.107   5.336
 9497SOL    HW229391   4.839   4.242   5.354
 9498SOL     OW29392   0.846   5.910   6.072
 9498SOL    HW129393   0.764   5.963   6.093
 9498SOL    HW229394   0.892   5.951   5.992
 9499SOL     OW29395   5.233   6.630   4.162
 9499SOL    HW129396   5.152   6.674   4.125
 9499SOL    HW229397   5.244   6.539   4.122
 9500SOL     OW29398   2.976   1.570   0.924
 9500SOL    HW129399   3.054   1.555   0.985
 9500SOL    HW229400   2.982   1.506   0.846
 9501SOL     OW29401   1.737   3.282   5.347
 9501SOL    HW129402   1.782   3.290   5.258
 9501SOL    HW229403   1.656   3.340   5.349
 9502SOL     OW29404   5.787   4.322   3.783
 9502SOL    HW129405   5.880   4.306   3.818
 9502SOL    HW229406   5.748   4.401   3.830
 9503SOL     OW29407   6.168   1.135   0.055
 9503SOL    HW129408   6.266   1.146   0.070
 9503SOL    HW229409   6.151   1.055   7.018
 9504SOL     OW29410   6.513   5.291   2.511
 9504SOL    HW129411   6.518   5.228   2.433
 9504SOL    HW229412   6.468   5.375   2.482
 9505SOL     OW29413   4.561   3.278   6.692
 9505SOL    HW129414   4.569   3.377   6.678
 9505SOL    HW229415   4.600   3.230   6.613
 9506SOL     OW29416   3.639   1.642   1.725
 9506SOL    HW129417   3.627   1.543   1.714
 9506SOL    HW229418   3.591   1.689   1.651
 9507SOL     OW29419   6.854   6.204   1.626
 9507SOL    HW129420   6.773   6.255   1.596
 9507SOL    HW229421   6.903   6.255   1.696
 9508SOL     OW29422   4.899   1.359   1.979
 9508SOL    HW129423   4.877   1.457   1.977
 9508SOL    HW229424   4.814   1.306   1.981
 9509SOL     OW29425   6.338   1.453   4.054
 9509SOL    HW129426   6.279   1.437   4.133
 9509SOL    HW229427   6.310   1.394   3.979
 9510SOL     OW29428   1.465   3.540   2.274
 9510SOL    HW129429   1.371   3.565   2.297
 9510SOL    HW229430   1.526   3.616   2.296
 9511SOL     OW29431   1.100   1.938   0.846
 9511SOL    HW129432   1.156   1.877   0.902
 9511SOL    HW229433   1.030   1.981   0.902
 9512SOL     OW29434   6.409   2.682   1.375
 9512SOL    HW129435   6.439   2.737   1.453
 9512SOL    HW229436   6.486   2.627   1.341
 9513SOL     OW29437   4.979   4.067   4.880
 9513SOL    HW129438   4.978   4.163   4.908
 9513SOL    HW229439   4.895   4.046   4.830
 9514SOL     OW29440   3.462   3.349   1.340
 9514SOL    HW129441   3.524   3.281   1.301
 9514SOL    HW229442   3.373   3.343   1.295
 9515SOL     OW29443   6.807   6.321   2.791
 9515SOL    HW129444   6.860   6.247   2.750
 9515SOL    HW229445   6.729   6.343   2.731
 9516SOL     OW29446   0.504   3.328   6.226
 9516SOL    HW129447   0.426   3.310   6.286
 9516SOL    HW229448   0.588   3.293   6.267
 9517SOL     OW29449   1.170   5.990   2.068
 9517SOL    HW129450   1.255   6.034   2.096
 9517SOL    HW229451   1.172   5.893   2.094
 9518SOL     OW29452   0.678   1.000   1.126
 9518SOL    HW129453   0.668   0.910   1.168
 9518SOL    HW229454   0.681   0.991   1.027
 9519SOL     OW29455   1.590   2.850   5.963
 9519SOL    HW129456   1.656   2.865   5.889
 9519SOL    HW229457   1.576   2.752   5.976
 9520SOL     OW29458   4.456   6.826   2.003
 9520SOL    HW129459   4.416   6.826   2.095
 9520SOL    HW229460   4.423   6.906   1.953
 9521SOL     OW29461   5.235   4.543   3.132
 9521SOL    HW129462   5.249   4.458   3.184
 9521SOL    HW229463   5.316   4.562   3.076
 9522SOL     OW29464   3.526   5.274   5.694
 9522SOL    HW129465   3.439   5.290   5.645
 9522SOL    HW229466   3.506   5.242   5.786
 9523SOL     OW29467   1.710   6.946   5.105
 9523SOL    HW129468   1.752   6.858   5.127
 9523SOL    HW229469   1.710   6.959   5.006
 9524SOL     OW29470   5.935   3.401   0.515
 9524SOL    HW129471   5.977   3.331   0.573
 9524SOL    HW229472   5.995   3.419   0.437
 9525SOL     OW29473   4.074   0.611   4.502
 9525SOL    HW129474   4.104   0.522   4.537
 9525SOL    HW229475   4.057   0.672   4.579
 9526SOL     OW29476   4.965   5.020   0.382
 9526SOL    HW129477   4.985   5.016   0.480
 9526SOL    HW229478   5.010   5.100   0.342
 9527SOL     OW29479   7.007   2.197   0.238
 9527SOL    HW129480   7.018   2.252   0.321
 9527SOL    HW229481   6.963   2.110   0.262
 9528SOL     OW29482   5.969   1.123   1.700
 9528SOL    HW129483   6.066   1.098   1.698
 9528SOL    HW229484   5.960   1.221   1.716
 9529SOL     OW29485   1.731   2.348   5.803
 9529SOL    HW129486   1.714   2.251   5.788
 9529SOL    HW229487   1.705   2.400   5.721
 9530SOL     OW29488   2.081   1.408   3.955
 9530SOL    HW129489   2.145   1.412   3.878
 9530SOL    HW229490   2.111   1.336   4.018
 9531SOL     OW29491   2.713   6.716   4.005
 9531SOL    HW129492   2.756   6.627   4.019
 9531SOL    HW229493   2.774   6.776   3.954
 9532SOL     OW29494   3.528   1.411   1.613
 9532SOL    HW129495   3.516   1.316   1.642
 9532SOL    HW229496   3.561   1.413   1.518
 9533SOL     OW29497   0.309   1.911   4.027
 9533SOL    HW129498   0.231   1.957   3.984
 9533SOL    HW229499   0.332   1.958   4.113
 9534SOL     OW29500   5.646   1.398   3.929
 9534SOL    HW129501   5.624   1.365   4.021
 9534SOL    HW229502   5.565   1.442   3.889
 9535SOL     OW29503   2.906   1.420   4.596
 9535SOL    HW129504   2.902   1.425   4.696
 9535SOL    HW229505   2.815   1.438   4.558
 9536SOL     OW29506   2.314   6.255   6.647
 9536SOL    HW129507   2.298   6.301   6.559
 9536SOL    HW229508   2.400   6.286   6.686
 9537SOL     OW29509   2.274   0.796   0.774
 9537SOL    HW129510   2.221   0.723   0.816
 9537SOL    HW229511   2.329   0.758   0.699
 9538SOL     OW29512   6.223   4.051   2.486
 9538SOL    HW129513   6.215   4.145   2.517
 9538SOL    HW229514   6.317   4.019   2.499
 9539SOL     OW29515   0.519   3.600   6.874
 9539SOL    HW129516   0.436   3.626   6.923
 9539SOL    HW229517   0.595   3.658   6.905
 9540SOL     OW29518   5.465   3.120   5.599
 9540SOL    HW129519   5.466   3.207   5.649
 9540SOL    HW229520   5.559   3.090   5.582
 9541SOL     OW29521   6.348   2.180   3.433
 9541SOL    HW129522   6.263   2.139   3.398
 9541SOL    HW229523   6.418   2.177   3.363
 9542SOL     OW29524   4.993   3.706   4.480
 9542SOL    HW129525   5.091   3.726   4.479
 9542SOL    HW229526   4.962   3.694   4.574
 9543SOL     OW29527   4.081   1.939   0.507
 9543SOL    HW129528   4.072   1.953   0.409
 9543SOL    HW229529   4.006   1.986   0.555
 9544SOL     OW29530   5.456   0.711   1.551
 9544SOL    HW129531   5.537   0.692   1.607
 9544SOL    HW229532   5.484   0.748   1.462
 9545SOL     OW29533   1.289   6.711   4.560
 9545SOL    HW129534   1.252   6.757   4.640
 9545SOL    HW229535   1.304   6.778   4.487
 9546SOL     OW29536   2.922   4.024   1.812
 9546SOL    HW129537   2.891   3.937   1.851
 9546SOL    HW229538   3.016   4.042   1.841
 9547SOL     OW29539   5.092   6.177   2.438
 9547SOL    HW129540   5.036   6.253   2.407
 9547SOL    HW229541   5.115   6.190   2.535
 9548SOL     OW29542   5.711   6.794   2.037
 9548SOL    HW129543   5.614   6.770   2.051
 9548SOL    HW229544   5.739   6.860   2.106
 9549SOL     OW29545   1.952   5.990   0.078
 9549SOL    HW129546   2.011   5.921   0.036
 9549SOL    HW229547   1.997   6.079   0.075
 9550SOL     OW29548   1.655   0.651   0.347
 9550SOL    HW129549   1.677   0.714   0.422
 9550SOL    HW229550   1.735   0.641   0.288
 9551SOL     OW29551   1.268   5.660   4.806
 9551SOL    HW129552   1.292   5.644   4.902
 9551SOL    HW229553   1.266   5.573   4.757
 9552SOL     OW29554   6.898   5.519   2.922
 9552SOL    HW129555   6.849   5.555   2.843
 9552SOL    HW229556   6.992   5.554   2.921
 9553SOL     OW29557   6.153   4.405   6.616
 9553SOL    HW129558   6.086   4.332   6.632
 9553SOL    HW229559   6.202   4.424   6.700
 9554SOL     OW29560   1.612   2.257   1.932
 9554SOL    HW129561   1.594   2.273   2.029
 9554SOL    HW229562   1.701   2.293   1.907
 9555SOL     OW29563   6.942   2.793   6.516
 9555SOL    HW129564   6.940   2.800   6.416
 9555SOL    HW229565   6.996   2.713   6.542
 9556SOL     OW29566   6.725   0.363   1.060
 9556SOL    HW129567   6.709   0.273   1.102
 9556SOL    HW229568   6.682   0.365   0.970
 9557SOL     OW29569   5.031   1.807   1.919
 9557SOL    HW129570   5.088   1.827   1.840
 9557SOL    HW229571   5.036   1.883   1.984
 9558SOL     OW29572   6.666   3.824   1.252
 9558SOL    HW129573   6.588   3.761   1.255
 9558SOL    HW229574   6.689   3.852   1.345
 9559SOL     OW29575   0.504   4.770   3.142
 9559SOL    HW129576   0.590   4.820   3.136
 9559SOL    HW229577   0.428   4.835   3.139
 9560SOL     OW29578   3.999   1.847   5.692
 9560SOL    HW129579   4.052   1.889   5.619
 9560SOL    HW229580   4.056   1.779   5.739
 9561SOL     OW29581   3.597   4.773   6.854
 9561SOL    HW129582   3.589   4.816   6.943
 9561SOL    HW229583   3.688   4.733   6.845
 9562SOL     OW29584   6.503   5.584   3.818
 9562SOL    HW129585   6.467   5.515   3.756
 9562SOL    HW229586   6.522   5.668   3.766
 9563SOL     OW29587   0.968   6.964   6.059
 9563SOL    HW129588   0.985   0.040   6.042
 9563SOL    HW229589   0.944   6.950   6.155
 9564SOL     OW29590   0.783   0.374   6.040
 9564SOL    HW129591   0.699   0.325   6.063
 9564SOL    HW229592   0.816   0.341   5.951
 9565SOL     OW29593   2.640   5.628   5.098
 9565SOL    HW129594   2.628   5.662   5.191
 9565SOL    HW229595   2.551   5.600   5.062
 9566SOL     OW29596   2.558   6.130   4.861
 9566SOL    HW129597   2.633   6.078   4.821
 9566SOL    HW229598   2.492   6.154   4.790
 9567SOL     OW29599   5.923   5.553   4.563
 9567SOL    HW129600   5.832   5.512   4.562
 9567SOL    HW229601   5.928   5.624   4.633
 9568SOL     OW29602   5.678   3.196   5.297
 9568SOL    HW129603   5.702   3.101   5.317
 9568SOL    HW229604   5.586   3.200   5.258
 9569SOL     OW29605   5.001   6.773   1.634
 9569SOL    HW129606   4.975   6.694   1.578
 9569SOL    HW229607   5.042   6.843   1.576
 9570SOL     OW29608   0.529   2.530   6.743
 9570SOL    HW129609   0.510   2.513   6.646
 9570SOL    HW229610   0.447   2.566   6.787
 9571SOL     OW29611   3.742   1.834   0.375
 9571SOL    HW129612   3.805   1.848   0.298
 9571SOL    HW229613   3.677   1.763   0.352
 9572SOL     OW29614   0.857   3.579   0.934
 9572SOL    HW129615   0.849   3.678   0.946
 9572SOL    HW229616   0.911   3.541   1.009
 9573SOL     OW29617   5.162   2.231   1.795
 9573SOL    HW129618   5.153   2.133   1.777
 9573SOL    HW229619   5.123   2.252   1.885
 9574SOL     OW29620   2.198   1.655   4.065
 9574SOL    HW129621   2.218   1.608   3.979
 9574SOL    HW229622   2.180   1.588   4.137
 9575SOL     OW29623   3.285   1.537   2.568
 9575SOL    HW129624   3.240   1.619   2.603
 9575SOL    HW229625   3.258   1.457   2.621
 9576SOL     OW29626   4.116   3.365   5.960
 9576SOL    HW129627   4.103   3.312   5.876
 9576SOL    HW229628   4.041   3.430   5.971
 9577SOL     OW29629   0.330   5.585   3.916
 9577SOL    HW129630   0.315   5.502   3.862
 9577SOL    HW229631   0.413   5.574   3.971
 9578SOL     OW29632   6.731   4.331   1.403
 9578SOL    HW129633   6.747   4.264   1.475
 9578SOL    HW229634   6.817   4.377   1.379
 9579SOL     OW29635   1.330   4.629   2.759
 9579SOL    HW129636   1.349   4.620   2.857
 9579SOL    HW229637   1.233   4.650   2.746
 9580SOL     OW29638   3.907   4.049   5.125
 9580SOL    HW129639   3.839   4.121   5.113
 9580SOL    HW229640   3.926   4.005   5.037
 9581SOL     OW29641   1.339   6.990   6.527
 9581SOL    HW129642   1.336   6.937   6.612
 9581SOL    HW229643   1.308   6.934   6.451
 9582SOL     OW29644   4.198   6.110   3.658
 9582SOL    HW129645   4.298   6.118   3.659
 9582SOL    HW229646   4.159   6.180   3.718
 9583SOL     OW29647   1.271   4.776   2.489
 9583SOL    HW129648   1.353   4.831   2.473
 9583SOL    HW229649   1.192   4.836   2.500
 9584SOL     OW29650   5.431   3.960   6.912
 9584SOL    HW129651   5.447   4.025   6.837
 9584SOL    HW229652   5.428   3.867   6.875
 9585SOL     OW29653   6.081   1.334   2.903
 9585SOL    HW129654   6.042   1.403   2.964
 9585SOL    HW229655   6.097   1.374   2.813
 9586SOL     OW29656   4.706   4.172   2.681
 9586SOL    HW129657   4.638   4.238   2.714
 9586SOL    HW229658   4.699   4.163   2.582
 9587SOL     OW29659   4.320   6.272   1.671
 9587SOL    HW129660   4.409   6.296   1.710
 9587SOL    HW229661   4.283   6.350   1.621
 9588SOL     OW29662   5.908   1.364   3.486
 9588SOL    HW129663   5.952   1.302   3.422
 9588SOL    HW229664   5.956   1.452   3.487
 9589SOL     OW29665   4.076   1.888   5.166
 9589SOL    HW129666   4.140   1.817   5.136
 9589SOL    HW229667   3.990   1.845   5.195
 9590SOL     OW29668   0.188   4.811   4.554
 9590SOL    HW129669   0.135   4.792   4.637
 9590SOL    HW229670   0.284   4.787   4.570
 9591SOL     OW29671   6.797   4.432   2.248
 9591SOL    HW129672   6.860   4.375   2.301
 9591SOL    HW229673   6.754   4.377   2.177
 9592SOL     OW29674   4.102   5.515   0.298
 9592SOL    HW129675   4.022   5.548   0.349
 9592SOL    HW229676   4.097   5.415   0.290
 9593SOL     OW29677   1.852   2.500   3.818
 9593SOL    HW129678   1.952   2.500   3.819
 9593SOL    HW229679   1.819   2.586   3.780
 9594SOL     OW29680   5.649   0.194   0.837
 9594SOL    HW129681   5.676   0.227   0.747
 9594SOL    HW229682   5.699   0.244   0.908
 9595SOL     OW29683   2.667   5.173   5.688
 9595SOL    HW129684   2.658   5.263   5.731
 9595SOL    HW229685   2.681   5.103   5.759
 9596SOL     OW29686   5.492   5.065   2.312
 9596SOL    HW129687   5.519   5.127   2.386
 9596SOL    HW229688   5.574   5.028   2.269
 9597SOL     OW29689   2.009   4.189   1.886
 9597SOL    HW129690   1.950   4.209   1.808
 9597SOL    HW229691   1.953   4.166   1.966
 9598SOL     OW29692   0.699   6.014   5.490
 9598SOL    HW129693   0.765   6.084   5.518
 9598SOL    HW229694   0.653   5.977   5.571
 9599SOL     OW29695   3.666   2.037   5.589
 9599SOL    HW129696   3.586   2.069   5.539
 9599SOL    HW229697   3.699   1.951   5.550
 9600SOL     OW29698   1.428   5.847   6.942
 9600SOL    HW129699   1.404   5.788   6.865
 9600SOL    HW229700   1.523   5.829   6.970
 9601SOL     OW29701   1.450   6.966   4.790
 9601SOL    HW129702   1.411   6.902   4.856
 9601SOL    HW229703   1.417   0.037   4.808
 9602SOL     OW29704   1.279   5.717   6.264
 9602SOL    HW129705   1.247   5.750   6.353
 9602SOL    HW229706   1.205   5.667   6.218
 9603SOL     OW29707   1.295   5.311   1.849
 9603SOL    HW129708   1.224   5.304   1.919
 9603SOL    HW229709   1.381   5.275   1.885
 9604SOL     OW29710   0.055   0.360   6.132
 9604SOL    HW129711   0.097   0.281   6.087
 9604SOL    HW229712   0.080   0.443   6.082
 9605SOL     OW29713   3.674   4.565   0.921
 9605SOL    HW129714   3.753   4.533   0.973
 9605SOL    HW229715   3.653   4.660   0.946
 9606SOL     OW29716   6.910   1.712   4.894
 9606SOL    HW129717   6.963   1.649   4.950
 9606SOL    HW229718   6.905   1.678   4.800
 9607SOL     OW29719   6.908   2.843   3.567
 9607SOL    HW129720   6.831   2.835   3.630
 9607SOL    HW229721   6.904   2.768   3.500
 9608SOL     OW29722   5.863   0.772   1.264
 9608SOL    HW129723   5.835   0.683   1.301
 9608SOL    HW229724   5.920   0.757   1.183
 9609SOL     OW29725   1.316   2.152   4.326
 9609SOL    HW129726   1.398   2.209   4.317
 9609SOL    HW229727   1.283   2.156   4.421
 9610SOL     OW29728   5.133   0.804   6.060
 9610SOL    HW129729   5.063   0.874   6.068
 9610SOL    HW229730   5.214   0.843   6.017
 9611SOL     OW29731   4.635   5.644   1.556
 9611SOL    HW129732   4.696   5.614   1.629
 9611SOL    HW229733   4.541   5.649   1.591
 9612SOL     OW29734   5.204   3.958   3.681
 9612SOL    HW129735   5.282   3.999   3.633
 9612SOL    HW229736   5.121   4.010   3.658
 9613SOL     OW29737   5.442   0.856   4.809
 9613SOL    HW129738   5.462   0.953   4.819
 9613SOL    HW229739   5.368   0.830   4.871
 9614SOL     OW29740   3.042   2.331   0.432
 9614SOL    HW129741   3.028   2.395   0.357
 9614SOL    HW229742   3.013   2.374   0.518
 9615SOL     OW29743   6.315   6.145   3.367
 9615SOL    HW129744   6.370   6.210   3.314
 9615SOL    HW229745   6.322   6.054   3.325
 9616SOL     OW29746   0.351   2.226   1.180
 9616SOL    HW129747   0.381   2.313   1.142
 9616SOL    HW229748   0.355   2.155   1.108
 9617SOL     OW29749   0.300   3.443   3.597
 9617SOL    HW129750   0.309   3.528   3.649
 9617SOL    HW229751   0.380   3.386   3.613
 9618SOL     OW29752   5.171   3.940   2.254
 9618SOL    HW129753   5.263   3.974   2.271
 9618SOL    HW229754   5.119   4.008   2.202
 9619SOL     OW29755   1.228   0.813   1.047
 9619SOL    HW129756   1.325   0.835   1.035
 9619SOL    HW229757   1.191   0.864   1.124
 9620SOL     OW29758   4.223   0.891   6.292
 9620SOL    HW129759   4.136   0.897   6.243
 9620SOL    HW229760   4.256   0.796   6.289
 9621SOL     OW29761   6.721   1.366   0.971
 9621SOL    HW129762   6.643   1.305   0.982
 9621SOL    HW229763   6.757   1.391   1.061
 9622SOL     OW29764   6.681   6.491   4.721
 9622SOL    HW129765   6.618   6.496   4.644
 9622SOL    HW229766   6.726   6.579   4.735
 9623SOL     OW29767   2.345   5.968   6.063
 9623SOL    HW129768   2.301   5.935   6.146
 9623SOL    HW229769   2.430   6.015   6.087
 9624SOL     OW29770   4.187   4.499   6.740
 9624SOL    HW129771   4.248   4.433   6.784
 9624SOL    HW229772   4.233   4.588   6.734
 9625SOL     OW29773   5.301   4.799   6.021
 9625SOL    HW129774   5.235   4.875   6.029
 9625SOL    HW229775   5.277   4.728   6.087
 9626SOL     OW29776   2.561   2.815   6.612
 9626SOL    HW129777   2.508   2.875   6.551
 9626SOL    HW229778   2.658   2.831   6.598
 9627SOL     OW29779   6.570   5.977   0.538
 9627SOL    HW129780   6.601   6.039   0.610
 9627SOL    HW229781   6.471   5.986   0.528
 9628SOL     OW29782   6.125   1.513   5.241
 9628SOL    HW129783   6.043   1.561   5.271
 9628SOL    HW229784   6.191   1.509   5.316
 9629SOL     OW29785   0.531   5.312   4.337
 9629SOL    HW129786   0.618   5.291   4.380
 9629SOL    HW229787   0.535   5.288   4.240
 9630SOL     OW29788   6.242   0.204   6.144
 9630SOL    HW129789   6.232   0.286   6.088
 9630SOL    HW229790   6.289   0.133   6.091
 9631SOL     OW29791   4.780   5.708   0.350
 9631SOL    HW129792   4.806   5.779   0.416
 9631SOL    HW229793   4.828   5.724   0.264
 9632SOL     OW29794   3.050   5.462   2.419
 9632SOL    HW129795   3.062   5.414   2.506
 9632SOL    HW229796   3.093   5.409   2.346
 9633SOL     OW29797   3.329   3.026   5.173
 9633SOL    HW129798   3.353   3.069   5.086
 9633SOL    HW229799   3.320   3.096   5.244
 9634SOL     OW29800   6.129   4.793   2.606
 9634SOL    HW129801   6.203   4.809   2.541
 9634SOL    HW229802   6.145   4.845   2.689
 9635SOL     OW29803   0.738   5.505   4.224
 9635SOL    HW129804   0.728   5.438   4.297
 9635SOL    HW229805   0.734   5.598   4.262
 9636SOL     OW29806   5.262   3.543   3.912
 9636SOL    HW129807   5.290   3.516   4.004
 9636SOL    HW229808   5.237   3.462   3.859
 9637SOL     OW29809   3.029   2.440   6.377
 9637SOL    HW129810   3.056   2.513   6.441
 9637SOL    HW229811   2.937   2.409   6.400
 9638SOL     OW29812   0.401   4.447   5.814
 9638SOL    HW129813   0.310   4.462   5.852
 9638SOL    HW229814   0.440   4.535   5.787
 9639SOL     OW29815   5.235   3.042   1.396
 9639SOL    HW129816   5.154   3.047   1.337
 9639SOL    HW229817   5.213   2.995   1.481
 9640SOL     OW29818   3.038   0.098   3.395
 9640SOL    HW129819   3.074   0.015   3.352
 9640SOL    HW229820   3.011   0.078   3.489
 9641SOL     OW29821   0.817   2.656   4.638
 9641SOL    HW129822   0.822   2.633   4.541
 9641SOL    HW229823   0.731   2.703   4.657
 9642SOL     OW29824   0.648   2.728   5.351
 9642SOL    HW129825   0.737   2.737   5.396
 9642SOL    HW229826   0.577   2.712   5.420
 9643SOL     OW29827   6.136   5.381   4.750
 9643SOL    HW129828   6.167   5.403   4.843
 9643SOL    HW229829   6.143   5.463   4.693
 9644SOL     OW29830   0.543   4.721   3.533
 9644SOL    HW129831   0.458   4.713   3.481
 9644SOL    HW229832   0.577   4.630   3.557
 9645SOL     OW29833   1.217   4.754   0.373
 9645SOL    HW129834   1.162   4.679   0.337
 9645SOL    HW229835   1.169   4.841   0.358
 9646SOL     OW29836   2.824   4.742   0.624
 9646SOL    HW129837   2.743   4.690   0.596
 9646SOL    HW229838   2.881   4.685   0.683
 9647SOL     OW29839   5.534   0.286   2.951
 9647SOL    HW129840   5.590   0.344   2.893
 9647SOL    HW229841   5.501   0.207   2.898
 9648SOL     OW29842   3.624   2.556   0.786
 9648SOL    HW129843   3.698   2.623   0.789
 9648SOL    HW229844   3.656   2.469   0.823
 9649SOL     OW29845   0.095   6.080   0.703
 9649SOL    HW129846   0.150   6.149   0.751
 9649SOL    HW229847   0.141   5.991   0.711
 9650SOL     OW29848   0.174   5.533   5.060
 9650SOL    HW129849   0.077   5.550   5.045
 9650SOL    HW229850   0.211   5.603   5.121
 9651SOL     OW29851   4.073   1.310   6.740
 9651SOL    HW129852   4.060   1.285   6.835
 9651SOL    HW229853   4.078   1.410   6.732
 9652SOL     OW29854   6.901   3.721   0.529
 9652SOL    HW129855   6.883   3.755   0.437
 9652SOL    HW229856   6.943   3.794   0.584
 9653SOL     OW29857   5.407   3.699   5.026
 9653SOL    HW129858   5.473   3.676   5.098
 9653SOL    HW229859   5.410   3.629   4.954
 9654SOL     OW29860   4.077   3.245   4.468
 9654SOL    HW129861   4.083   3.319   4.401
 9654SOL    HW229862   4.122   3.273   4.553
 9655SOL     OW29863   4.931   0.035   0.894
 9655SOL    HW129864   4.947   0.080   0.806
 9655SOL    HW229865   4.857   0.082   0.941
 9656SOL     OW29866   5.416   4.779   5.771
 9656SOL    HW129867   5.394   4.789   5.868
 9656SOL    HW229868   5.508   4.813   5.754
 9657SOL     OW29869   5.063   5.327   2.989
 9657SOL    HW129870   4.983   5.335   3.049
 9657SOL    HW229871   5.093   5.232   2.986
 9658SOL     OW29872   5.355   0.746   2.590
 9658SOL    HW129873   5.343   0.804   2.510
 9658SOL    HW229874   5.348   0.803   2.673
 9659SOL     OW29875   3.648   2.752   0.575
 9659SOL    HW129876   3.590   2.733   0.654
 9659SOL    HW229877   3.729   2.694   0.578
 9660SOL     OW29878   2.849   6.818   1.556
 9660SOL    HW129879   2.789   6.807   1.636
 9660SOL    HW229880   2.814   6.762   1.481
 9661SOL     OW29881   3.976   3.506   2.247
 9661SOL    HW129882   3.879   3.485   2.233
 9661SOL    HW229883   4.003   3.477   2.338
 9662SOL     OW29884   4.222   0.616   4.921
 9662SOL    HW129885   4.164   0.546   4.963
 9662SOL    HW229886   4.180   0.706   4.933
 9663SOL     OW29887   1.387   5.811   2.744
 9663SOL    HW129888   1.318   5.877   2.714
 9663SOL    HW229889   1.448   5.856   2.809
 9664SOL     OW29890   2.312   4.474   3.461
 9664SOL    HW129891   2.239   4.454   3.527
 9664SOL    HW229892   2.272   4.490   3.371
 9665SOL     OW29893   6.063   3.908   6.256
 9665SOL    HW129894   6.023   3.832   6.204
 9665SOL    HW229895   6.162   3.898   6.259
 9666SOL     OW29896   5.143   3.747   0.693
 9666SOL    HW129897   5.055   3.754   0.646
 9666SOL    HW229898   5.144   3.807   0.773
 9667SOL     OW29899   5.966   6.438   6.592
 9667SOL    HW129900   5.941   6.355   6.541
 9667SOL    HW229901   6.038   6.486   6.543
 9668SOL     OW29902   2.299   0.145   0.007
 9668SOL    HW129903   2.267   0.101   6.944
 9668SOL    HW229904   2.364   0.217   7.005
 9669SOL     OW29905   3.597   0.096   0.402
 9669SOL    HW129906   3.589   0.044   0.487
 9669SOL    HW229907   3.674   0.060   0.349
 9670SOL     OW29908   0.854   6.905   2.423
 9670SOL    HW129909   0.917   6.980   2.403
 9670SOL    HW229910   0.776   6.908   2.361
 9671SOL     OW29911   0.750   6.356   6.241
 9671SOL    HW129912   0.798   6.439   6.214
 9671SOL    HW229913   0.810   6.300   6.299
 9672SOL     OW29914   0.946   4.498   4.863
 9672SOL    HW129915   0.971   4.515   4.958
 9672SOL    HW229916   1.020   4.530   4.803
 9673SOL     OW29917   2.078   3.287   5.785
 9673SOL    HW129918   2.164   3.294   5.734
 9673SOL    HW229919   2.003   3.268   5.722
 9674SOL     OW29920   1.625   0.129   3.596
 9674SOL    HW129921   1.715   0.155   3.631
 9674SOL    HW229922   1.592   0.049   3.645
 9675SOL     OW29923   5.832   4.203   5.895
 9675SOL    HW129924   5.913   4.215   5.953
 9675SOL    HW229925   5.828   4.109   5.861
 9676SOL     OW29926   0.895   3.031   5.933
 9676SOL    HW129927   0.943   3.081   5.861
 9676SOL    HW229928   0.923   3.067   6.022
 9677SOL     OW29929   0.612   4.805   2.698
 9677SOL    HW129930   0.523   4.846   2.715
 9677SOL    HW229931   0.646   4.762   2.782
 9678SOL     OW29932   4.674   2.883   6.140
 9678SOL    HW129933   4.640   2.912   6.051
 9678SOL    HW229934   4.617   2.923   6.212
 9679SOL     OW29935   1.165   1.138   4.569
 9679SOL    HW129936   1.193   1.201   4.496
 9679SOL    HW229937   1.245   1.087   4.602
 9680SOL     OW29938   4.513   0.230   2.084
 9680SOL    HW129939   4.497   0.322   2.050
 9680SOL    HW229940   4.497   0.227   2.182
 9681SOL     OW29941   0.185   3.084   1.529
 9681SOL    HW129942   0.137   3.119   1.448
 9681SOL    HW229943   0.130   3.103   1.611
 9682SOL     OW29944   3.696   6.417   5.223
 9682SOL    HW129945   3.707   6.321   5.199
 9682SOL    HW229946   3.758   6.472   5.167
 9683SOL     OW29947   3.347   5.651   3.639
 9683SOL    HW129948   3.295   5.681   3.718
 9683SOL    HW229949   3.439   5.623   3.668
 9684SOL     OW29950   1.017   2.752   6.542
 9684SOL    HW129951   1.049   2.782   6.452
 9684SOL    HW229952   1.045   2.657   6.558
 9685SOL     OW29953   3.513   4.336   1.715
 9685SOL    HW129954   3.514   4.435   1.731
 9685SOL    HW229955   3.418   4.306   1.703
 9686SOL     OW29956   0.622   1.901   6.051
 9686SOL    HW129957   0.717   1.870   6.060
 9686SOL    HW229958   0.601   1.917   5.955
 9687SOL     OW29959   5.418   0.614   3.739
 9687SOL    HW129960   5.459   0.537   3.789
 9687SOL    HW229961   5.326   0.630   3.772
 9688SOL     OW29962   0.541   5.142   2.539
 9688SOL    HW129963   0.480   5.174   2.611
 9688SOL    HW229964   0.563   5.219   2.478
 9689SOL     OW29965   2.018   5.595   1.522
 9689SOL    HW129966   2.115   5.578   1.503
 9689SOL    HW229967   1.962   5.545   1.456
 9690SOL     OW29968   6.372   4.628   4.784
 9690SOL    HW129969   6.387   4.715   4.738
 9690SOL    HW229970   6.427   4.557   4.740
 9691SOL     OW29971   3.715   3.417   2.226
 9691SOL    HW129972   3.652   3.494   2.219
 9691SOL    HW229973   3.688   3.358   2.302
 9692SOL     OW29974   5.212   4.951   0.683
 9692SOL    HW129975   5.290   4.991   0.731
 9692SOL    HW229976   5.195   4.859   0.719
 9693SOL     OW29977   4.341   3.076   6.583
 9693SOL    HW129978   4.318   3.169   6.610
 9693SOL    HW229979   4.267   3.014   6.610
 9694SOL     OW29980   2.739   6.422   0.933
 9694SOL    HW129981   2.766   6.432   0.837
 9694SOL    HW229982   2.705   6.329   0.949
 9695SOL     OW29983   2.123   2.660   3.549
 9695SOL    HW129984   2.114   2.619   3.640
 9695SOL    HW229985   2.218   2.691   3.537
 9696SOL     OW29986   4.886   3.737   3.275
 9696SOL    HW129987   4.900   3.823   3.324
 9696SOL    HW229988   4.893   3.660   3.339
 9697SOL     OW29989   6.540   6.906   2.139
 9697SOL    HW129990   6.585   6.827   2.096
 9697SOL    HW229991   6.554   6.903   2.237
 9698SOL     OW29992   6.662   3.002   1.808
 9698SOL    HW129993   6.619   2.936   1.869
 9698SOL    HW229994   6.643   3.095   1.841
 9699SOL     OW29995   1.654   6.986   2.160
 9699SOL    HW129996   1.706   6.908   2.125
 9699SOL    HW229997   1.603   0.007   2.085
 9700SOL     OW29998   6.417   0.371   5.760
 9700SOL    HW129999   6.385   0.312   5.686
 9700SOL    HW230000   6.488   0.433   5.725
 9701SOL     OW30001   5.443   3.745   6.744
 9701SOL    HW130002   5.458   3.689   6.826
 9701SOL    HW230003   5.527   3.746   6.690
 9702SOL     OW30004   2.892   3.742   1.816
 9702SOL    HW130005   2.906   3.701   1.726
 9702SOL    HW230006   2.869   3.670   1.882
 9703SOL     OW30007   6.640   5.268   2.979
 9703SOL    HW130008   6.727   5.317   2.987
 9703SOL    HW230009   6.605   5.247   3.071
 9704SOL     OW30010   0.757   4.577   2.232
 9704SOL    HW130011   0.756   4.510   2.307
 9704SOL    HW230012   0.702   4.543   2.156
 9705SOL     OW30013   6.876   3.841   6.029
 9705SOL    HW130014   6.853   3.751   5.991
 9705SOL    HW230015   6.936   3.889   5.966
 9706SOL     OW30016   0.883   6.459   1.894
 9706SOL    HW130017   0.805   6.452   1.833
 9706SOL    HW230018   0.897   6.373   1.942
 9707SOL     OW30019   1.287   5.059   2.158
 9707SOL    HW130020   1.330   5.033   2.244
 9707SOL    HW230021   1.357   5.095   2.096
 9708SOL     OW30022   2.796   1.309   1.741
 9708SOL    HW130023   2.756   1.241   1.803
 9708SOL    HW230024   2.882   1.342   1.780
 9709SOL     OW30025   4.409   1.689   2.299
 9709SOL    HW130026   4.483   1.651   2.245
 9709SOL    HW230027   4.332   1.625   2.300
 9710SOL     OW30028   4.634   4.336   4.155
 9710SOL    HW130029   4.670   4.307   4.067
 9710SOL    HW230030   4.551   4.391   4.140
 9711SOL     OW30031   2.986   0.403   0.125
 9711SOL    HW130032   2.898   0.367   0.095
 9711SOL    HW230033   2.992   0.500   0.102
 9712SOL     OW30034   4.932   6.774   5.305
 9712SOL    HW130035   4.915   6.816   5.393
 9712SOL    HW230036   4.929   6.843   5.233
 9713SOL     OW30037   1.149   0.748   2.898
 9713SOL    HW130038   1.202   0.794   2.968
 9713SOL    HW230039   1.062   0.796   2.885
 9714SOL     OW30040   2.361   2.735   3.931
 9714SOL    HW130041   2.357   2.795   4.011
 9714SOL    HW230042   2.425   2.661   3.949
 9715SOL     OW30043   0.129   1.714   6.312
 9715SOL    HW130044   0.078   1.777   6.253
 9715SOL    HW230045   0.102   1.620   6.291
 9716SOL     OW30046   1.672   6.456   0.869
 9716SOL    HW130047   1.653   6.465   0.966
 9716SOL    HW230048   1.588   6.474   0.817
 9717SOL     OW30049   4.462   2.287   6.132
 9717SOL    HW130050   4.470   2.193   6.100
 9717SOL    HW230051   4.384   2.295   6.194
 9718SOL     OW30052   3.205   1.735   6.411
 9718SOL    HW130053   3.124   1.689   6.377
 9718SOL    HW230054   3.205   1.830   6.381
 9719SOL     OW30055   3.947   0.168   5.296
 9719SOL    HW130056   3.938   0.162   5.395
 9719SOL    HW230057   3.875   0.114   5.252
 9720SOL     OW30058   1.953   2.816   2.100
 9720SOL    HW130059   1.882   2.748   2.081
 9720SOL    HW230060   1.988   2.853   2.014
 9721SOL     OW30061   0.767   2.374   1.409
 9721SOL    HW130062   0.676   2.416   1.407
 9721SOL    HW230063   0.831   2.435   1.456
 9722SOL     OW30064   3.275   2.923   5.606
 9722SOL    HW130065   3.305   2.853   5.541
 9722SOL    HW230066   3.180   2.906   5.632
 9723SOL     OW30067   5.778   0.583   5.364
 9723SOL    HW130068   5.714   0.581   5.441
 9723SOL    HW230069   5.826   0.496   5.358
 9724SOL     OW30070   2.084   5.082   1.257
 9724SOL    HW130071   2.155   5.011   1.252
 9724SOL    HW230072   2.126   5.167   1.291
 9725SOL     OW30073   5.361   5.471   4.057
 9725SOL    HW130074   5.271   5.477   4.014
 9725SOL    HW230075   5.415   5.401   4.012
 9726SOL     OW30076   0.001   0.267   3.410
 9726SOL    HW130077   0.097   0.243   3.421
 9726SOL    HW230078   6.965   0.187   3.426
 9727SOL     OW30079   6.558   2.683   1.711
 9727SOL    HW130080   6.533   2.754   1.645
 9727SOL    HW230081   6.483   2.618   1.721
 9728SOL     OW30082   6.210   1.745   4.912
 9728SOL    HW130083   6.125   1.715   4.870
 9728SOL    HW230084   6.251   1.670   4.964
 9729SOL     OW30085   0.127   3.827   2.686
 9729SOL    HW130086   0.107   3.903   2.624
 9729SOL    HW230087   0.082   3.744   2.653
 9730SOL     OW30088   0.621   5.768   3.717
 9730SOL    HW130089   0.690   5.834   3.746
 9730SOL    HW230090   0.616   5.768   3.617
 9731SOL     OW30091   6.707   1.856   1.461
 9731SOL    HW130092   6.668   1.942   1.428
 9731SOL    HW230093   6.701   1.787   1.388
 9732SOL     OW30094   0.435   2.857   3.254
 9732SOL    HW130095   0.428   2.841   3.353
 9732SOL    HW230096   0.345   2.843   3.212
 9733SOL     OW30097   5.616   5.549   0.701
 9733SOL    HW130098   5.536   5.608   0.688
 9733SOL    HW230099   5.681   5.596   0.761
 9734SOL     OW30100   3.986   3.740   0.010
 9734SOL    HW130101   4.018   3.736   6.936
 9734SOL    HW230102   3.923   3.664   0.027
 9735SOL     OW30103   1.032   1.556   0.599
 9735SOL    HW130104   1.114   1.612   0.590
 9735SOL    HW230105   0.965   1.584   0.530
 9736SOL     OW30106   5.123   1.988   5.671
 9736SOL    HW130107   5.057   1.917   5.695
 9736SOL    HW230108   5.201   1.983   5.733
 9737SOL     OW30109   5.205   3.385   4.623
 9737SOL    HW130110   5.295   3.420   4.597
 9737SOL    HW230111   5.174   3.431   4.706
 9738SOL     OW30112   2.903   5.909   1.293
 9738SOL    HW130113   2.945   5.976   1.354
 9738SOL    HW230114   2.855   5.840   1.347
 9739SOL     OW30115   5.715   6.657   0.451
 9739SOL    HW130116   5.673   6.570   0.428
 9739SOL    HW230117   5.804   6.665   0.407
 9740SOL     OW30118   6.626   1.146   0.711
 9740SOL    HW130119   6.707   1.111   0.759
 9740SOL    HW230120   6.638   1.131   0.612
 9741SOL     OW30121   2.330   2.731   3.013
 9741SOL    HW130122   2.322   2.720   3.112
 9741SOL    HW230123   2.263   2.798   2.982
 9742SOL     OW30124   4.104   0.507   6.968
 9742SOL    HW130125   4.187   0.518   6.914
 9742SOL    HW230126   4.025   0.539   6.914
 9743SOL     OW30127   6.685   3.902   4.571
 9743SOL    HW130128   6.633   3.823   4.536
 9743SOL    HW230129   6.771   3.910   4.521
 9744SOL     OW30130   1.763   2.617   2.107
 9744SOL    HW130131   1.751   2.593   2.204
 9744SOL    HW230132   1.774   2.533   2.054
 9745SOL     OW30133   1.394   6.588   5.968
 9745SOL    HW130134   1.363   6.683   5.970
 9745SOL    HW230135   1.314   6.527   5.968
 9746SOL     OW30136   3.625   6.264   6.153
 9746SOL    HW130137   3.647   6.203   6.076
 9746SOL    HW230138   3.706   6.318   6.176
 9747SOL     OW30139   4.119   1.699   3.295
 9747SOL    HW130140   4.102   1.768   3.225
 9747SOL    HW230141   4.077   1.727   3.381
 9748SOL     OW30142   0.264   2.194   2.854
 9748SOL    HW130143   0.308   2.192   2.944
 9748SOL    HW230144   0.324   2.150   2.787
 9749SOL     OW30145   6.854   0.233   1.333
 9749SOL    HW130146   6.824   0.245   1.428
 9749SOL    HW230147   6.892   0.141   1.321
 9750SOL     OW30148   5.966   2.093   5.018
 9750SOL    HW130149   5.940   2.058   5.108
 9750SOL    HW230150   6.007   2.019   4.964
 9751SOL     OW30151   2.817   5.906   1.042
 9751SOL    HW130152   2.855   5.821   1.006
 9751SOL    HW230153   2.835   5.912   1.140
 9752SOL     OW30154   3.866   3.823   0.899
 9752SOL    HW130155   3.814   3.770   0.966
 9752SOL    HW230156   3.938   3.873   0.945
 9753SOL     OW30157   6.073   6.507   3.178
 9753SOL    HW130158   6.152   6.495   3.239
 9753SOL    HW230159   6.085   6.450   3.097
 9754SOL     OW30160   3.292   0.498   1.617
 9754SOL    HW130161   3.227   0.457   1.682
 9754SOL    HW230162   3.244   0.563   1.559
 9755SOL     OW30163   2.761   3.900   1.341
 9755SOL    HW130164   2.774   3.933   1.435
 9755SOL    HW230165   2.831   3.941   1.282
 9756SOL     OW30166   5.090   6.818   6.584
 9756SOL    HW130167   5.011   6.762   6.609
 9756SOL    HW230168   5.116   6.876   6.661
 9757SOL     OW30169   5.022   4.176   4.111
 9757SOL    HW130170   4.952   4.151   4.178
 9757SOL    HW230171   5.079   4.097   4.091
 9758SOL     OW30172   3.567   1.151   1.819
 9758SOL    HW130173   3.666   1.143   1.805
 9758SOL    HW230174   3.527   1.061   1.833
 9759SOL     OW30175   6.808   2.202   1.184
 9759SOL    HW130176   6.846   2.180   1.274
 9759SOL    HW230177   6.756   2.287   1.189
 9760SOL     OW30178   4.725   0.558   6.626
 9760SOL    HW130179   4.746   0.507   6.543
 9760SOL    HW230180   4.811   0.587   6.670
 9761SOL     OW30181   0.945   2.038   2.058
 9761SOL    HW130182   0.938   2.031   2.157
 9761SOL    HW230183   1.013   2.108   2.034
 9762SOL     OW30184   3.787   0.917   5.927
 9762SOL    HW130185   3.812   0.889   6.020
 9762SOL    HW230186   3.853   0.985   5.893
 9763SOL     OW30187   5.944   1.899   1.067
 9763SOL    HW130188   5.912   1.881   0.974
 9763SOL    HW230189   5.937   1.815   1.122
 9764SOL     OW30190   0.476   2.604   3.285
 9764SOL    HW130191   0.399   2.589   3.347
 9764SOL    HW230192   0.484   2.702   3.264
 9765SOL     OW30193   6.428   2.327   1.271
 9765SOL    HW130194   6.355   2.277   1.224
 9765SOL    HW230195   6.469   2.393   1.207
 9766SOL     OW30196   0.248   2.577   2.883
 9766SOL    HW130197   0.244   2.676   2.869
 9766SOL    HW230198   0.267   2.532   2.797
 9767SOL     OW30199   3.767   1.885   4.475
 9767SOL    HW130200   3.866   1.882   4.486
 9767SOL    HW230201   3.739   1.815   4.408
 9768SOL     OW30202   4.727   2.017   6.706
 9768SOL    HW130203   4.683   1.965   6.632
 9768SOL    HW230204   4.727   1.964   6.790
 9769SOL     OW30205   3.972   1.158   5.392
 9769SOL    HW130206   3.877   1.142   5.420
 9769SOL    HW230207   3.973   1.211   5.307
 9770SOL     OW30208   2.037   3.090   5.413
 9770SOL    HW130209   2.040   3.190   5.413
 9770SOL    HW230210   2.047   3.056   5.319
 9771SOL     OW30211   3.348   1.025   2.111
 9771SOL    HW130212   3.357   1.124   2.095
 9771SOL    HW230213   3.328   0.979   2.025
 9772SOL     OW30214   0.147   0.373   1.955
 9772SOL    HW130215   0.199   0.445   2.002
 9772SOL    HW230216   0.209   0.319   1.899
 9773SOL     OW30217   4.984   6.054   1.839
 9773SOL    HW130218   5.056   5.987   1.825
 9773SOL    HW230219   5.000   6.132   1.778
 9774SOL     OW30220   1.718   5.699   4.650
 9774SOL    HW130221   1.695   5.602   4.639
 9774SOL    HW230222   1.813   5.707   4.680
 9775SOL     OW30223   1.600   0.918   3.341
 9775SOL    HW130224   1.510   0.897   3.379
 9775SOL    HW230225   1.635   0.839   3.291
 9776SOL     OW30226   1.503   5.907   1.702
 9776SOL    HW130227   1.541   5.857   1.624
 9776SOL    HW230228   1.549   5.996   1.710
 9777SOL     OW30229   4.289   1.739   5.077
 9777SOL    HW130230   4.329   1.686   5.152
 9777SOL    HW230231   4.347   1.818   5.056
 9778SOL     OW30232   1.404   3.753   2.801
 9778SOL    HW130233   1.477   3.782   2.862
 9778SOL    HW230234   1.317   3.751   2.850
 9779SOL     OW30235   2.595   0.932   2.921
 9779SOL    HW130236   2.501   0.934   2.957
 9779SOL    HW230237   2.628   1.025   2.908
 9780SOL     OW30238   1.240   1.717   0.539
 9780SOL    HW130239   1.326   1.722   0.591
 9780SOL    HW230240   1.183   1.795   0.563
 9781SOL     OW30241   1.157   1.407   2.142
 9781SOL    HW130242   1.163   1.328   2.203
 9781SOL    HW230243   1.163   1.491   2.196
 9782SOL     OW30244   6.826   2.448   0.326
 9782SOL    HW130245   6.765   2.516   0.366
 9782SOL    HW230246   6.891   2.417   0.396
 9783SOL     OW30247   4.970   1.717   2.485
 9783SOL    HW130248   4.887   1.752   2.441
 9783SOL    HW230249   5.012   1.647   2.428
 9784SOL     OW30250   2.173   1.303   0.569
 9784SOL    HW130251   2.142   1.383   0.517
 9784SOL    HW230252   2.150   1.315   0.666
 9785SOL     OW30253   1.416   3.477   4.694
 9785SOL    HW130254   1.434   3.533   4.775
 9785SOL    HW230255   1.346   3.521   4.638
 9786SOL     OW30256   3.044   4.425   6.493
 9786SOL    HW130257   2.977   4.422   6.567
 9786SOL    HW230258   2.997   4.423   6.405
 9787SOL     OW30259   2.496   3.297   0.814
 9787SOL    HW130260   2.426   3.338   0.755
 9787SOL    HW230261   2.498   3.346   0.901
 9788SOL     OW30262   2.549   0.023   2.706
 9788SOL    HW130263   2.535   6.972   2.773
 9788SOL    HW230264   2.556   0.112   2.752
 9789SOL     OW30265   4.362   1.953   0.462
 9789SOL    HW130266   4.270   1.919   0.482
 9789SOL    HW230267   4.358   2.017   0.386
 9790SOL     OW30268   4.882   5.722   5.081
 9790SOL    HW130269   4.917   5.793   5.143
 9790SOL    HW230270   4.894   5.632   5.124
 9791SOL     OW30271   0.323   1.403   1.671
 9791SOL    HW130272   0.371   1.445   1.594
 9791SOL    HW230273   0.385   1.343   1.721
 9792SOL     OW30274   3.097   3.511   0.778
 9792SOL    HW130275   2.998   3.500   0.791
 9792SOL    HW230276   3.116   3.603   0.746
 9793SOL     OW30277   6.035   1.405   1.760
 9793SOL    HW130278   6.127   1.414   1.797
 9793SOL    HW230279   5.968   1.413   1.834
 9794SOL     OW30280   4.168   5.866   4.606
 9794SOL    HW130281   4.098   5.936   4.590
 9794SOL    HW230282   4.173   5.844   4.703
 9795SOL     OW30283   1.908   4.349   3.220
 9795SOL    HW130284   1.844   4.274   3.237
 9795SOL    HW230285   1.857   4.434   3.210
 9796SOL     OW30286   3.719   3.427   4.661
 9796SOL    HW130287   3.762   3.426   4.571
 9796SOL    HW230288   3.629   3.384   4.655
 9797SOL     OW30289   3.412   5.590   6.717
 9797SOL    HW130290   3.365   5.660   6.662
 9797SOL    HW230291   3.365   5.503   6.707
 9798SOL     OW30292   0.081   4.234   6.337
 9798SOL    HW130293   0.069   4.144   6.296
 9798SOL    HW230294   7.015   4.267   6.373
 9799SOL     OW30295   3.925   6.440   6.907
 9799SOL    HW130296   3.979   6.507   6.857
 9799SOL    HW230297   3.902   6.364   6.845
 9800SOL     OW30298   6.835   4.339   5.101
 9800SOL    HW130299   6.843   4.429   5.059
 9800SOL    HW230300   6.748   4.333   5.151
 9801SOL     OW30301   4.394   0.473   0.674
 9801SOL    HW130302   4.328   0.480   0.749
 9801SOL    HW230303   4.476   0.425   0.706
 9802SOL     OW30304   3.857   3.096   0.472
 9802SOL    HW130305   3.758   3.084   0.480
 9802SOL    HW230306   3.889   3.161   0.541
 9803SOL     OW30307   2.632   3.640   0.412
 9803SOL    HW130308   2.548   3.608   0.369
 9803SOL    HW230309   2.643   3.738   0.394
 9804SOL     OW30310   1.084   4.076   3.137
 9804SOL    HW130311   1.136   4.143   3.190
 9804SOL    HW230312   1.090   4.097   3.040
 9805SOL     OW30313   0.471   5.475   4.795
 9805SOL    HW130314   0.404   5.520   4.736
 9805SOL    HW230315   0.520   5.405   4.743
 9806SOL     OW30316   3.255   0.931   6.557
 9806SOL    HW130317   3.247   0.911   6.459
 9806SOL    HW230318   3.214   1.020   6.576
 9807SOL     OW30319   3.379   3.259   4.064
 9807SOL    HW130320   3.288   3.244   4.103
 9807SOL    HW230321   3.371   3.276   3.966
 9808SOL     OW30322   2.920   5.853   2.615
 9808SOL    HW130323   2.951   5.850   2.710
 9808SOL    HW230324   2.990   5.812   2.556
 9809SOL     OW30325   6.081   3.166   1.500
 9809SOL    HW130326   6.138   3.237   1.459
 9809SOL    HW230327   6.041   3.109   1.427
 9810SOL     OW30328   3.873   2.943   1.158
 9810SOL    HW130329   3.900   3.014   1.093
 9810SOL    HW230330   3.948   2.928   1.224
 9811SOL     OW30331   5.121   3.753   4.069
 9811SOL    HW130332   5.022   3.763   4.061
 9811SOL    HW230333   5.150   3.669   4.024
 9812SOL     OW30334   3.576   4.957   6.636
 9812SOL    HW130335   3.583   4.885   6.705
 9812SOL    HW230336   3.553   5.044   6.680
 9813SOL     OW30337   4.500   1.096   2.279
 9813SOL    HW130338   4.462   1.185   2.304
 9813SOL    HW230339   4.457   1.024   2.334
 9814SOL     OW30340   6.826   1.894   5.942
 9814SOL    HW130341   6.741   1.937   5.972
 9814SOL    HW230342   6.832   1.897   5.842
 9815SOL     OW30343   5.314   2.676   4.479
 9815SOL    HW130344   5.384   2.725   4.428
 9815SOL    HW230345   5.231   2.671   4.425
 9816SOL     OW30346   3.409   0.756   0.393
 9816SOL    HW130347   3.311   0.759   0.409
 9816SOL    HW230348   3.434   0.670   0.350
 9817SOL     OW30349   6.459   0.237   1.602
 9817SOL    HW130350   6.441   0.325   1.645
 9817SOL    HW230351   6.378   0.179   1.609
 9818SOL     OW30352   3.788   2.441   5.337
 9818SOL    HW130353   3.835   2.522   5.373
 9818SOL    HW230354   3.853   2.365   5.332
 9819SOL     OW30355   2.494   0.514   1.571
 9819SOL    HW130356   2.578   0.479   1.530
 9819SOL    HW230357   2.516   0.586   1.637
 9820SOL     OW30358   3.633   2.421   6.684
 9820SOL    HW130359   3.646   2.348   6.750
 9820SOL    HW230360   3.579   2.495   6.726
 9821SOL     OW30361   0.222   5.831   0.021
 9821SOL    HW130362   0.234   5.763   6.970
 9821SOL    HW230363   0.125   5.855   0.028
 9822SOL     OW30364   0.214   0.626   2.135
 9822SOL    HW130365   0.133   0.643   2.191
 9822SOL    HW230366   0.284   0.695   2.156
 9823SOL     OW30367   3.639   6.740   1.752
 9823SOL    HW130368   3.647   6.827   1.801
 9823SOL    HW230369   3.616   6.667   1.817
 9824SOL     OW30370   1.959   4.060   5.355
 9824SOL    HW130371   1.999   4.046   5.446
 9824SOL    HW230372   2.010   4.007   5.288
 9825SOL     OW30373   3.780   5.262   5.069
 9825SOL    HW130374   3.697   5.252   5.014
 9825SOL    HW230375   3.781   5.193   5.141
 9826SOL     OW30376   5.725   6.811   5.435
 9826SOL    HW130377   5.672   6.895   5.444
 9826SOL    HW230378   5.666   6.737   5.405
 9827SOL     OW30379   0.851   5.132   4.828
 9827SOL    HW130380   0.925   5.198   4.833
 9827SOL    HW230381   0.865   5.061   4.897
 9828SOL     OW30382   2.694   1.370   6.952
 9828SOL    HW130383   2.677   1.463   6.984
 9828SOL    HW230384   2.791   1.358   6.933
 9829SOL     OW30385   2.708   3.985   1.622
 9829SOL    HW130386   2.649   4.064   1.604
 9829SOL    HW230387   2.788   4.015   1.673
 9830SOL     OW30388   6.346   1.511   0.886
 9830SOL    HW130389   6.358   1.524   0.787
 9830SOL    HW230390   6.278   1.576   0.921
 9831SOL     OW30391   5.918   6.320   1.379
 9831SOL    HW130392   5.991   6.278   1.325
 9831SOL    HW230393   5.829   6.296   1.339
 9832SOL     OW30394   3.138   3.754   0.705
 9832SOL    HW130395   3.222   3.747   0.650
 9832SOL    HW230396   3.105   3.849   0.703
 9833SOL     OW30397   4.846   4.552   6.463
 9833SOL    HW130398   4.790   4.545   6.546
 9833SOL    HW230399   4.923   4.489   6.470
 9834SOL     OW30400   2.250   2.482   4.092
 9834SOL    HW130401   2.252   2.430   4.178
 9834SOL    HW230402   2.340   2.477   4.048
 9835SOL     OW30403   5.488   1.724   4.665
 9835SOL    HW130404   5.498   1.665   4.745
 9835SOL    HW230405   5.529   1.679   4.585
 9836SOL     OW30406   5.356   5.502   1.454
 9836SOL    HW130407   5.409   5.570   1.403
 9836SOL    HW230408   5.410   5.469   1.532
 9837SOL     OW30409   2.416   5.849   5.708
 9837SOL    HW130410   2.352   5.826   5.781
 9837SOL    HW230411   2.381   5.927   5.656
 9838SOL     OW30412   6.884   5.948   4.957
 9838SOL    HW130413   6.938   5.917   5.035
 9838SOL    HW230414   6.787   5.945   4.979
 9839SOL     OW30415   5.708   3.053   2.543
 9839SOL    HW130416   5.748   3.126   2.597
 9839SOL    HW230417   5.700   3.082   2.447
 9840SOL     OW30418   5.663   0.526   0.284
 9840SOL    HW130419   5.678   0.560   0.377
 9840SOL    HW230420   5.565   0.527   0.264
 9841SOL     OW30421   2.236   3.111   4.642
 9841SOL    HW130422   2.283   3.173   4.705
 9841SOL    HW230423   2.186   3.042   4.695
 9842SOL     OW30424   3.428   3.622   4.062
 9842SOL    HW130425   3.484   3.704   4.046
 9842SOL    HW230426   3.418   3.571   3.977
 9843SOL     OW30427   5.919   4.785   3.274
 9843SOL    HW130428   5.988   4.713   3.278
 9843SOL    HW230429   5.921   4.838   3.359
 9844SOL     OW30430   5.107   0.247   2.162
 9844SOL    HW130431   5.024   0.295   2.189
 9844SOL    HW230432   5.110   0.239   2.062
 9845SOL     OW30433   1.691   1.877   3.639
 9845SOL    HW130434   1.684   1.910   3.734
 9845SOL    HW230435   1.628   1.929   3.582
 9846SOL     OW30436   2.916   3.556   3.870
 9846SOL    HW130437   2.950   3.529   3.780
 9846SOL    HW230438   2.963   3.502   3.940
 9847SOL     OW30439   2.213   4.270   4.728
 9847SOL    HW130440   2.127   4.260   4.779
 9847SOL    HW230441   2.257   4.180   4.721
 9848SOL     OW30442   6.400   3.811   0.178
 9848SOL    HW130443   6.475   3.761   0.219
 9848SOL    HW230444   6.313   3.771   0.207
 9849SOL     OW30445   6.912   6.247   5.426
 9849SOL    HW130446   6.931   6.261   5.524
 9849SOL    HW230447   6.846   6.315   5.395
 9850SOL     OW30448   4.716   0.533   3.017
 9850SOL    HW130449   4.812   0.525   3.042
 9850SOL    HW230450   4.671   0.598   3.077
 9851SOL     OW30451   5.090   2.486   5.499
 9851SOL    HW130452   5.032   2.479   5.418
 9851SOL    HW230453   5.065   2.414   5.564
 9852SOL     OW30454   5.653   1.620   4.435
 9852SOL    HW130455   5.681   1.539   4.488
 9852SOL    HW230456   5.730   1.651   4.379
 9853SOL     OW30457   0.493   4.828   1.282
 9853SOL    HW130458   0.455   4.820   1.374
 9853SOL    HW230459   0.421   4.852   1.217
 9854SOL     OW30460   3.661   6.658   3.725
 9854SOL    HW130461   3.624   6.747   3.702
 9854SOL    HW230462   3.646   6.594   3.650
 9855SOL     OW30463   1.961   4.216   0.690
 9855SOL    HW130464   1.917   4.162   0.617
 9855SOL    HW230465   1.948   4.313   0.672
 9856SOL     OW30466   3.660   3.116   1.752
 9856SOL    HW130467   3.676   3.152   1.844
 9856SOL    HW230468   3.586   3.049   1.754
 9857SOL     OW30469   6.208   4.863   2.865
 9857SOL    HW130470   6.211   4.870   2.964
 9857SOL    HW230471   6.297   4.887   2.827
 9858SOL     OW30472   3.707   1.691   1.392
 9858SOL    HW130473   3.655   1.611   1.361
 9858SOL    HW230474   3.649   1.748   1.449
 9859SOL     OW30475   0.392   6.898   1.559
 9859SOL    HW130476   0.444   6.939   1.633
 9859SOL    HW230477   0.451   6.838   1.506
 9860SOL     OW30478   0.706   0.995   2.771
 9860SOL    HW130479   0.681   1.037   2.858
 9860SOL    HW230480   0.773   1.053   2.724
 9861SOL     OW30481   3.062   6.565   4.235
 9861SOL    HW130482   3.131   6.520   4.291
 9861SOL    HW230483   3.091   6.659   4.214
 9862SOL     OW30484   0.516   2.060   0.997
 9862SOL    HW130485   0.545   2.090   1.088
 9862SOL    HW230486   0.484   1.965   1.002
 9863SOL     OW30487   3.646   0.322   0.239
 9863SOL    HW130488   3.676   0.281   0.153
 9863SOL    HW230489   3.620   0.249   0.303
 9864SOL     OW30490   4.492   6.370   3.383
 9864SOL    HW130491   4.526   6.285   3.423
 9864SOL    HW230492   4.509   6.370   3.285
 9865SOL     OW30493   1.875   3.154   3.880
 9865SOL    HW130494   1.891   3.124   3.786
 9865SOL    HW230495   1.832   3.081   3.932
 9866SOL     OW30496   3.192   4.880   3.396
 9866SOL    HW130497   3.200   4.826   3.480
 9866SOL    HW230498   3.281   4.887   3.352
 9867SOL     OW30499   3.997   6.866   6.338
 9867SOL    HW130500   4.079   6.902   6.383
 9867SOL    HW230501   4.006   6.877   6.239
 9868SOL     OW30502   1.552   5.095   5.487
 9868SOL    HW130503   1.452   5.089   5.480
 9868SOL    HW230504   1.593   5.061   5.403
 9869SOL     OW30505   1.570   4.083   2.993
 9869SOL    HW130506   1.622   4.045   3.070
 9869SOL    HW230507   1.558   4.181   3.005
 9870SOL     OW30508   4.173   4.901   1.644
 9870SOL    HW130509   4.260   4.855   1.627
 9870SOL    HW230510   4.173   4.990   1.598
 9871SOL     OW30511   1.697   1.777   5.862
 9871SOL    HW130512   1.675   1.719   5.784
 9871SOL    HW230513   1.791   1.808   5.855
 9872SOL     OW30514   1.394   4.241   3.456
 9872SOL    HW130515   1.323   4.288   3.509
 9872SOL    HW230516   1.363   4.148   3.435
 9873SOL     OW30517   1.753   1.619   0.467
 9873SOL    HW130518   1.815   1.642   0.393
 9873SOL    HW230519   1.753   1.520   0.482
 9874SOL     OW30520   1.179   3.926   4.879
 9874SOL    HW130521   1.216   3.947   4.969
 9874SOL    HW230522   1.254   3.901   4.817
 9875SOL     OW30523   1.315   1.376   2.896
 9875SOL    HW130524   1.389   1.401   2.958
 9875SOL    HW230525   1.235   1.348   2.948
 9876SOL     OW30526   6.954   5.600   2.329
 9876SOL    HW130527   6.863   5.578   2.364
 9876SOL    HW230528   6.985   5.528   2.266
 9877SOL     OW30529   3.973   0.282   1.336
 9877SOL    HW130530   4.038   0.256   1.265
 9877SOL    HW230531   3.897   0.218   1.337
 9878SOL     OW30532   6.963   0.688   5.158
 9878SOL    HW130533   0.018   0.672   5.221
 9878SOL    HW230534   6.958   0.785   5.137
 9879SOL     OW30535   5.330   5.696   4.889
 9879SOL    HW130536   5.346   5.632   4.964
 9879SOL    HW230537   5.239   5.738   4.900
 9880SOL     OW30538   1.707   2.048   4.070
 9880SOL    HW130539   1.772   1.999   4.012
 9880SOL    HW230540   1.743   2.140   4.089
 9881SOL     OW30541   0.085   1.483   6.001
 9881SOL    HW130542   0.128   1.479   6.091
 9881SOL    HW230543   0.099   1.396   5.954
 9882SOL     OW30544   2.484   2.197   3.337
 9882SOL    HW130545   2.495   2.214   3.435
 9882SOL    HW230546   2.388   2.183   3.316
 9883SOL     OW30547   2.905   1.014   2.436
 9883SOL    HW130548   2.987   1.030   2.382
 9883SOL    HW230549   2.890   0.915   2.445
 9884SOL     OW30550   3.467   0.527   4.072
 9884SOL    HW130551   3.546   0.567   4.118
 9884SOL    HW230552   3.384   0.573   4.100
 9885SOL     OW30553   6.726   4.033   4.168
 9885SOL    HW130554   6.800   4.046   4.102
 9885SOL    HW230555   6.718   4.113   4.227
 9886SOL     OW30556   0.357   2.908   1.985
 9886SOL    HW130557   0.281   2.843   1.990
 9886SOL    HW230558   0.320   3.001   1.992
 9887SOL     OW30559   4.599   6.582   6.129
 9887SOL    HW130560   4.550   6.526   6.063
 9887SOL    HW230561   4.584   6.679   6.108
 9888SOL     OW30562   6.645   5.254   6.905
 9888SOL    HW130563   6.545   5.258   6.901
 9888SOL    HW230564   6.674   5.159   6.918
 9889SOL     OW30565   0.277   5.589   0.904
 9889SOL    HW130566   0.307   5.550   0.818
 9889SOL    HW230567   0.188   5.550   0.929
 9890SOL     OW30568   0.884   3.071   0.592
 9890SOL    HW130569   0.868   3.017   0.509
 9890SOL    HW230570   0.798   3.114   0.619
 9891SOL     OW30571   4.665   1.174   1.971
 9891SOL    HW130572   4.697   1.191   1.878
 9891SOL    HW230573   4.577   1.126   1.968
 9892SOL     OW30574   0.864   6.808   6.908
 9892SOL    HW130575   0.893   6.904   6.910
 9892SOL    HW230576   0.839   6.784   6.814
 9893SOL     OW30577   2.428   1.031   6.690
 9893SOL    HW130578   2.432   1.127   6.661
 9893SOL    HW230579   2.348   1.017   6.748
 9894SOL     OW30580   2.059   0.771   1.506
 9894SOL    HW130581   2.018   0.785   1.416
 9894SOL    HW230582   2.086   0.859   1.544
 9895SOL     OW30583   4.457   2.719   5.440
 9895SOL    HW130584   4.364   2.738   5.472
 9895SOL    HW230585   4.499   2.805   5.408
 9896SOL     OW30586   6.685   6.339   5.818
 9896SOL    HW130587   6.733   6.321   5.904
 9896SOL    HW230588   6.680   6.438   5.802
 9897SOL     OW30589   5.229   5.325   4.671
 9897SOL    HW130590   5.185   5.311   4.759
 9897SOL    HW230591   5.296   5.399   4.678
 9898SOL     OW30592   2.558   6.651   5.744
 9898SOL    HW130593   2.654   6.675   5.731
 9898SOL    HW230594   2.504   6.735   5.755
 9899SOL     OW30595   0.446   4.850   0.224
 9899SOL    HW130596   0.352   4.836   0.190
 9899SOL    HW230597   0.510   4.801   0.164
 9900SOL     OW30598   2.376   4.354   3.911
 9900SOL    HW130599   2.470   4.386   3.921
 9900SOL    HW230600   2.365   4.312   3.820
 9901SOL     OW30601   1.843   3.283   5.611
 9901SOL    HW130602   1.799   3.266   5.523
 9901SOL    HW230603   1.797   3.231   5.683
 9902SOL     OW30604   2.651   4.542   0.720
 9902SOL    HW130605   2.565   4.492   0.710
 9902SOL    HW230606   2.720   4.482   0.762
 9903SOL     OW30607   5.676   1.116   4.522
 9903SOL    HW130608   5.620   1.043   4.561
 9903SOL    HW230609   5.731   1.079   4.447
 9904SOL     OW30610   6.286   2.162   0.804
 9904SOL    HW130611   6.334   2.111   0.875
 9904SOL    HW230612   6.198   2.117   0.786
 9905SOL     OW30613   4.975   0.392   0.362
 9905SOL    HW130614   5.064   0.345   0.362
 9905SOL    HW230615   4.985   0.482   0.318
 9906SOL     OW30616   3.392   3.103   4.925
 9906SOL    HW130617   3.409   3.052   4.840
 9906SOL    HW230618   3.352   3.192   4.903
 9907SOL     OW30619   1.233   6.645   1.572
 9907SOL    HW130620   1.213   6.629   1.668
 9907SOL    HW230621   1.332   6.638   1.557
 9908SOL     OW30622   5.112   3.616   2.082
 9908SOL    HW130623   5.027   3.667   2.098
 9908SOL    HW230624   5.140   3.629   1.986
 9909SOL     OW30625   2.060   0.457   4.750
 9909SOL    HW130626   1.999   0.499   4.817
 9909SOL    HW230627   2.005   0.420   4.675
 9910SOL     OW30628   6.944   5.292   3.688
 9910SOL    HW130629   6.884   5.231   3.637
 9910SOL    HW230630   6.892   5.373   3.717
 9911SOL     OW30631   2.809   5.604   2.508
 9911SOL    HW130632   2.860   5.684   2.540
 9911SOL    HW230633   2.869   5.544   2.455
 9912SOL     OW30634   4.570   0.652   6.382
 9912SOL    HW130635   4.579   0.745   6.420
 9912SOL    HW230636   4.661   0.617   6.360
 9913SOL     OW30637   4.937   3.431   0.330
 9913SOL    HW130638   4.947   3.511   0.389
 9913SOL    HW230639   4.856   3.441   0.272
 9914SOL     OW30640   0.295   4.306   4.815
 9914SOL    HW130641   0.230   4.382   4.830
 9914SOL    HW230642   0.280   4.236   4.884
 9915SOL     OW30643   4.955   1.357   3.590
 9915SOL    HW130644   4.997   1.317   3.671
 9915SOL    HW230645   4.875   1.302   3.564
 9916SOL     OW30646   1.599   3.045   2.034
 9916SOL    HW130647   1.638   3.122   2.085
 9916SOL    HW230648   1.500   3.055   2.031
 9917SOL     OW30649   5.931   4.629   4.857
 9917SOL    HW130650   5.970   4.706   4.807
 9917SOL    HW230651   6.000   4.557   4.868
 9918SOL     OW30652   4.842   2.966   2.257
 9918SOL    HW130653   4.808   2.877   2.286
 9918SOL    HW230654   4.804   2.988   2.167
 9919SOL     OW30655   5.864   5.983   0.700
 9919SOL    HW130656   5.946   5.930   0.680
 9919SOL    HW230657   5.826   6.018   0.614
 9920SOL     OW30658   4.782   2.220   2.763
 9920SOL    HW130659   4.775   2.254   2.670
 9920SOL    HW230660   4.721   2.142   2.775
 9921SOL     OW30661   4.117   4.917   6.567
 9921SOL    HW130662   4.201   4.944   6.520
 9921SOL    HW230663   4.131   4.924   6.666
 9922SOL     OW30664   0.233   6.249   1.310
 9922SOL    HW130665   0.243   6.196   1.225
 9922SOL    HW230666   0.203   6.189   1.383
 9923SOL     OW30667   5.887   4.358   0.924
 9923SOL    HW130668   5.977   4.315   0.909
 9923SOL    HW230669   5.830   4.342   0.844
 9924SOL     OW30670   1.147   3.625   4.921
 9924SOL    HW130671   1.184   3.686   4.991
 9924SOL    HW230672   1.150   3.531   4.954
 9925SOL     OW30673   5.418   2.119   3.955
 9925SOL    HW130674   5.379   2.046   4.012
 9925SOL    HW230675   5.453   2.192   4.014
 9926SOL     OW30676   3.135   5.114   0.795
 9926SOL    HW130677   3.223   5.158   0.776
 9926SOL    HW230678   3.149   5.016   0.810
 9927SOL     OW30679   5.054   6.821   4.038
 9927SOL    HW130680   5.067   6.799   3.941
 9927SOL    HW230681   5.107   6.903   4.061
 9928SOL     OW30682   4.900   4.651   1.961
 9928SOL    HW130683   4.925   4.721   2.028
 9928SOL    HW230684   4.959   4.571   1.973
 9929SOL     OW30685   1.169   4.420   2.936
 9929SOL    HW130686   1.250   4.470   2.968
 9929SOL    HW230687   1.194   4.362   2.859
 9930SOL     OW30688   5.550   0.929   3.354
 9930SOL    HW130689   5.515   0.912   3.261
 9930SOL    HW230690   5.538   1.025   3.377
 9931SOL     OW30691   1.040   5.281   5.643
 9931SOL    HW130692   1.065   5.337   5.722
 9931SOL    HW230693   1.032   5.339   5.562
 9932SOL     OW30694   1.287   5.978   4.911
 9932SOL    HW130695   1.335   5.929   4.984
 9932SOL    HW230696   1.274   6.073   4.937
 9933SOL     OW30697   0.228   6.478   2.401
 9933SOL    HW130698   0.236   6.398   2.460
 9933SOL    HW230699   0.161   6.460   2.329
 9934SOL     OW30700   0.253   2.202   5.120
 9934SOL    HW130701   0.314   2.281   5.111
 9934SOL    HW230702   0.179   2.223   5.183
 9935SOL     OW30703   2.275   0.596   6.327
 9935SOL    HW130704   2.187   0.620   6.367
 9935SOL    HW230705   2.274   0.499   6.302
 9936SOL     OW30706   1.044   4.008   4.060
 9936SOL    HW130707   1.039   3.908   4.068
 9936SOL    HW230708   1.118   4.033   3.998
 9937SOL     OW30709   6.601   2.720   6.264
 9937SOL    HW130710   6.630   2.671   6.346
 9937SOL    HW230711   6.676   2.777   6.232
 9938SOL     OW30712   6.724   6.256   2.494
 9938SOL    HW130713   6.652   6.223   2.433
 9938SOL    HW230714   6.774   6.330   2.450
 9939SOL     OW30715   3.183   3.576   3.143
 9939SOL    HW130716   3.198   3.659   3.090
 9939SOL    HW230717   3.090   3.543   3.126
 9940SOL     OW30718   0.495   1.223   1.187
 9940SOL    HW130719   0.406   1.220   1.140
 9940SOL    HW230720   0.554   1.152   1.151
 9941SOL     OW30721   3.036   5.587   4.418
 9941SOL    HW130722   2.960   5.648   4.442
 9941SOL    HW230723   3.092   5.572   4.500
 9942SOL     OW30724   2.527   5.270   3.775
 9942SOL    HW130725   2.520   5.322   3.860
 9942SOL    HW230726   2.467   5.190   3.779
 9943SOL     OW30727   0.222   0.128   5.044
 9943SOL    HW130728   0.124   0.130   5.028
 9943SOL    HW230729   0.247   0.203   5.106
 9944SOL     OW30730   1.569   4.913   6.388
 9944SOL    HW130731   1.632   4.961   6.327
 9944SOL    HW230732   1.583   4.944   6.482
 9945SOL     OW30733   0.247   5.639   6.836
 9945SOL    HW130734   0.327   5.584   6.812
 9945SOL    HW230735   0.168   5.579   6.851
 9946SOL     OW30736   5.847   1.163   4.171
 9946SOL    HW130737   5.840   1.140   4.074
 9946SOL    HW230738   5.807   1.089   4.225
 9947SOL     OW30739   6.169   4.674   3.330
 9947SOL    HW130740   6.150   4.627   3.416
 9947SOL    HW230741   6.267   4.685   3.318
 9948SOL     OW30742   5.653   3.842   3.708
 9948SOL    HW130743   5.554   3.833   3.717
 9948SOL    HW230744   5.683   3.796   3.624
 9949SOL     OW30745   5.831   5.452   1.716
 9949SOL    HW130746   5.783   5.404   1.789
 9949SOL    HW230747   5.821   5.551   1.729
 9950SOL     OW30748   3.427   6.234   6.905
 9950SOL    HW130749   3.487   6.243   6.985
 9950SOL    HW230750   3.375   6.149   6.912
 9951SOL     OW30751   6.569   2.688   2.848
 9951SOL    HW130752   6.568   2.596   2.808
 9951SOL    HW230753   6.663   2.712   2.874
 9952SOL     OW30754   7.005   4.107   5.993
 9952SOL    HW130755   0.007   4.079   6.086
 9952SOL    HW230756   0.042   4.058   5.928
 9953SOL     OW30757   5.327   2.852   3.702
 9953SOL    HW130758   5.408   2.804   3.736
 9953SOL    HW230759   5.300   2.814   3.614
 9954SOL     OW30760   4.091   0.847   4.625
 9954SOL    HW130761   4.082   0.864   4.724
 9954SOL    HW230762   4.132   0.927   4.581
 9955SOL     OW30763   0.497   4.664   4.101
 9955SOL    HW130764   0.570   4.605   4.136
 9955SOL    HW230765   0.415   4.651   4.158
 9956SOL     OW30766   1.044   6.067   0.149
 9956SOL    HW130767   0.947   6.081   0.170
 9956SOL    HW230768   1.077   6.143   0.092
 9957SOL     OW30769   5.652   5.625   2.086
 9957SOL    HW130770   5.732   5.684   2.097
 9957SOL    HW230771   5.609   5.610   2.175
 9958SOL     OW30772   3.029   4.441   0.983
 9958SOL    HW130773   2.961   4.438   0.909
 9958SOL    HW230774   2.995   4.391   1.062
 9959SOL     OW30775   3.264   3.895   1.450
 9959SOL    HW130776   3.200   3.964   1.484
 9959SOL    HW230777   3.259   3.814   1.508
 9960SOL     OW30778   0.617   0.723   2.328
 9960SOL    HW130779   0.696   0.766   2.284
 9960SOL    HW230780   0.646   0.638   2.373
 9961SOL     OW30781   2.137   3.688   4.822
 9961SOL    HW130782   2.147   3.627   4.744
 9961SOL    HW230783   2.132   3.635   4.906
 9962SOL     OW30784   4.990   6.650   4.848
 9962SOL    HW130785   5.029   6.559   4.844
 9962SOL    HW230786   4.915   6.652   4.914
 9963SOL     OW30787   3.295   1.411   0.709
 9963SOL    HW130788   3.267   1.315   0.708
 9963SOL    HW230789   3.328   1.435   0.800
 9964SOL     OW30790   5.690   6.755   4.821
 9964SOL    HW130791   5.650   6.759   4.729
 9964SOL    HW230792   5.630   6.704   4.882
 9965SOL     OW30793   5.322   6.697   0.441
 9965SOL    HW130794   5.288   6.698   0.347
 9965SOL    HW230795   5.399   6.761   0.450
 9966SOL     OW30796   6.159   0.947   2.696
 9966SOL    HW130797   6.082   0.993   2.651
 9966SOL    HW230798   6.205   1.011   2.758
 9967SOL     OW30799   1.393   5.422   0.438
 9967SOL    HW130800   1.311   5.372   0.408
 9967SOL    HW230801   1.374   5.520   0.440
 9968SOL     OW30802   3.548   3.539   2.864
 9968SOL    HW130803   3.617   3.599   2.824
 9968SOL    HW230804   3.481   3.593   2.915
 9969SOL     OW30805   1.470   3.281   1.440
 9969SOL    HW130806   1.568   3.299   1.432
 9969SOL    HW230807   1.444   3.208   1.376
 9970SOL     OW30808   6.073   4.890   1.712
 9970SOL    HW130809   6.026   4.963   1.762
 9970SOL    HW230810   6.007   4.822   1.682
 9971SOL     OW30811   2.925   6.881   6.975
 9971SOL    HW130812   2.845   6.823   6.962
 9971SOL    HW230813   3.008   6.827   6.962
 9972SOL     OW30814   6.592   5.064   1.521
 9972SOL    HW130815   6.620   4.969   1.536
 9972SOL    HW230816   6.573   5.079   1.424
 9973SOL     OW30817   4.973   6.659   3.816
 9973SOL    HW130818   4.899   6.653   3.884
 9973SOL    HW230819   4.990   6.568   3.778
 9974SOL     OW30820   2.076   0.553   4.093
 9974SOL    HW130821   2.111   0.646   4.083
 9974SOL    HW230822   2.055   0.515   4.003
 9975SOL     OW30823   6.998   4.196   1.096
 9975SOL    HW130824   0.056   4.140   1.072
 9975SOL    HW230825   6.937   4.143   1.156
 9976SOL     OW30826   2.816   6.613   4.333
 9976SOL    HW130827   2.905   6.589   4.294
 9976SOL    HW230828   2.744   6.596   4.266
 9977SOL     OW30829   6.373   4.666   3.857
 9977SOL    HW130830   6.399   4.752   3.902
 9977SOL    HW230831   6.455   4.620   3.822
 9978SOL     OW30832   6.656   2.827   4.644
 9978SOL    HW130833   6.626   2.894   4.711
 9978SOL    HW230834   6.756   2.817   4.648
 9979SOL     OW30835   0.546   4.124   5.277
 9979SOL    HW130836   0.464   4.072   5.252
 9979SOL    HW230837   0.613   4.117   5.203
 9980SOL     OW30838   2.773   6.395   5.510
 9980SOL    HW130839   2.833   6.321   5.542
 9980SOL    HW230840   2.686   6.356   5.482
 9981SOL     OW30841   4.229   2.278   3.442
 9981SOL    HW130842   4.161   2.333   3.490
 9981SOL    HW230843   4.214   2.181   3.462
 9982SOL     OW30844   6.627   6.609   2.812
 9982SOL    HW130845   6.624   6.686   2.750
 9982SOL    HW230846   6.554   6.618   2.880
 9983SOL     OW30847   6.513   0.599   1.068
 9983SOL    HW130848   6.469   0.584   0.979
 9983SOL    HW230849   6.609   0.574   1.061
 9984SOL     OW30850   3.106   0.717   6.480
 9984SOL    HW130851   3.137   0.808   6.510
 9984SOL    HW230852   3.033   0.728   6.412
 9985SOL     OW30853   2.097   1.292   1.645
 9985SOL    HW130854   2.038   1.282   1.565
 9985SOL    HW230855   2.080   1.381   1.688
 9986SOL     OW30856   4.869   4.032   4.569
 9986SOL    HW130857   4.921   3.946   4.575
 9986SOL    HW230858   4.828   4.040   4.478
 9987SOL     OW30859   0.182   4.005   5.516
 9987SOL    HW130860   0.191   4.079   5.583
 9987SOL    HW230861   0.110   4.028   5.451
 9988SOL     OW30862   6.594   0.504   4.270
 9988SOL    HW130863   6.548   0.584   4.310
 9988SOL    HW230864   6.526   0.436   4.244
 9989SOL     OW30865   2.159   2.617   4.638
 9989SOL    HW130866   2.237   2.675   4.615
 9989SOL    HW230867   2.074   2.666   4.617
 9990SOL     OW30868   1.437   4.508   1.533
 9990SOL    HW130869   1.375   4.477   1.461
 9990SOL    HW230870   1.389   4.571   1.594
 9991SOL     OW30871   3.743   1.824   3.358
 9991SOL    HW130872   3.796   1.831   3.443
 9991SOL    HW230873   3.695   1.911   3.342
 9992SOL     OW30874   5.970   5.398   6.602
 9992SOL    HW130875   5.971   5.370   6.506
 9992SOL    HW230876   5.936   5.491   6.609
 9993SOL     OW30877   1.205   0.529   2.124
 9993SOL    HW130878   1.170   0.600   2.063
 9993SOL    HW230879   1.127   0.478   2.163
 9994SOL     OW30880   6.476   4.734   3.479
 9994SOL    HW130881   6.529   4.713   3.561
 9994SOL    HW230882   6.524   4.699   3.398
 9995SOL     OW30883   5.819   1.823   4.671
 9995SOL    HW130884   5.875   1.755   4.719
 9995SOL    HW230885   5.724   1.815   4.702
 9996SOL     OW30886   3.226   3.065   0.276
 9996SOL    HW130887   3.325   3.070   0.266
 9996SOL    HW230888   3.202   2.982   0.326
 9997SOL     OW30889   2.128   0.794   4.337
 9997SOL    HW130890   2.130   0.719   4.403
 9997SOL    HW230891   2.050   0.783   4.276
 9998SOL     OW30892   6.149   6.085   4.756
 9998SOL    HW130893   6.071   6.128   4.710
 9998SOL    HW230894   6.220   6.153   4.772
 9999SOL     OW30895   0.167   1.095   4.969
 9999SOL    HW130896   0.221   1.146   4.901
 9999SOL    HW230897   0.222   1.082   5.052
10000SOL     OW30898   6.803   4.728   0.636
10000SOL    HW130899   6.840   4.815   0.606
10000SOL    HW230900   6.873   4.677   0.686
10001SOL     OW30901   4.153   0.766   3.786
10001SOL    HW130902   4.092   0.774   3.865
10001SOL    HW230903   4.174   0.670   3.769
10002SOL     OW30904   1.273   1.931   1.414
10002SOL    HW130905   1.197   1.926   1.350
10002SOL    HW230906   1.303   2.026   1.423
10003SOL     OW30907   5.207   3.709   2.416
10003SOL    HW130908   5.129   3.646   2.427
10003SOL    HW230909   5.177   3.790   2.365
10004SOL     OW30910   6.864   3.373   4.068
10004SOL    HW130911   6.894   3.344   3.977
10004SOL    HW230912   6.827   3.466   4.064
10005SOL     OW30913   4.286   0.266   3.627
10005SOL    HW130914   4.332   0.266   3.538
10005SOL    HW230915   4.266   0.360   3.654
10006SOL     OW30916   4.736   2.419   3.742
10006SOL    HW130917   4.715   2.342   3.802
10006SOL    HW230918   4.787   2.387   3.662
10007SOL     OW30919   5.484   5.221   4.260
10007SOL    HW130920   5.394   5.245   4.296
10007SOL    HW230921   5.554   5.255   4.323
10008SOL     OW30922   2.881   0.248   3.980
10008SOL    HW130923   2.824   0.169   4.004
10008SOL    HW230924   2.827   0.332   3.990
10009SOL     OW30925   2.557   4.361   1.351
10009SOL    HW130926   2.529   4.457   1.360
10009SOL    HW230927   2.545   4.331   1.256
10010SOL     OW30928   6.146   0.765   6.621
10010SOL    HW130929   6.136   0.863   6.635
10010SOL    HW230930   6.164   0.747   6.524
10011SOL     OW30931   6.948   6.514   3.621
10011SOL    HW130932   6.981   6.608   3.622
10011SOL    HW230933   6.996   6.463   3.549
10012SOL     OW30934   5.218   0.552   5.196
10012SOL    HW130935   5.201   0.493   5.117
10012SOL    HW230936   5.309   0.535   5.232
10013SOL     OW30937   0.889   0.466   1.557
10013SOL    HW130938   0.972   0.519   1.541
10013SOL    HW230939   0.911   0.368   1.561
10014SOL     OW30940   1.597   4.614   5.901
10014SOL    HW130941   1.672   4.650   5.958
10014SOL    HW230942   1.554   4.537   5.948
10015SOL     OW30943   2.591   6.064   6.139
10015SOL    HW130944   2.657   6.107   6.077
10015SOL    HW230945   2.601   6.103   6.230
10016SOL     OW30946   2.324   1.366   4.899
10016SOL    HW130947   2.260   1.362   4.823
10016SOL    HW230948   2.371   1.454   4.899
10017SOL     OW30949   0.002   2.031   3.453
10017SOL    HW130950   6.974   2.076   3.378
10017SOL    HW230951   6.961   2.017   3.529
10018SOL     OW30952   5.427   0.007   6.405
10018SOL    HW130953   5.521   6.997   6.399
10018SOL    HW230954   5.365   6.952   6.382
10019SOL     OW30955   1.060   0.940   3.160
10019SOL    HW130956   0.970   0.902   3.137
10019SOL    HW230957   1.050   1.036   3.185
10020SOL     OW30958   0.295   3.747   0.517
10020SOL    HW130959   0.221   3.695   0.475
10020SOL    HW230960   0.382   3.721   0.475
10021SOL     OW30961   4.823   2.921   1.169
10021SOL    HW130962   4.772   2.855   1.225
10021SOL    HW230963   4.761   2.993   1.138
10022SOL     OW30964   1.909   0.934   6.234
10022SOL    HW130965   1.882   1.010   6.294
10022SOL    HW230966   1.990   0.960   6.182
10023SOL     OW30967   0.545   3.698   0.709
10023SOL    HW130968   0.622   3.639   0.686
10023SOL    HW230969   0.556   3.732   0.803
10024SOL     OW30970   0.876   3.823   2.833
10024SOL    HW130971   0.898   3.727   2.846
10024SOL    HW230972   0.789   3.832   2.785
10025SOL     OW30973   0.670   1.608   0.821
10025SOL    HW130974   0.749   1.630   0.879
10025SOL    HW230975   0.696   1.538   0.755
10026SOL     OW30976   6.241   0.874   4.467
10026SOL    HW130977   6.198   0.943   4.408
10026SOL    HW230978   6.302   0.919   4.532
10027SOL     OW30979   5.904   2.792   5.886
10027SOL    HW130980   5.978   2.836   5.835
10027SOL    HW230981   5.821   2.847   5.877
10028SOL     OW30982   1.817   1.439   1.718
10028SOL    HW130983   1.769   1.525   1.702
10028SOL    HW230984   1.887   1.453   1.787
10029SOL     OW30985   3.817   1.278   4.268
10029SOL    HW130986   3.905   1.234   4.288
10029SOL    HW230987   3.745   1.233   4.321
10030SOL     OW30988   0.884   1.192   2.731
10030SOL    HW130989   0.970   1.194   2.680
10030SOL    HW230990   0.879   1.271   2.792
10031SOL     OW30991   0.199   4.761   3.076
10031SOL    HW130992   0.107   4.780   3.042
10031SOL    HW230993   0.239   4.844   3.114
10032SOL     OW30994   3.708   2.129   5.194
10032SOL    HW130995   3.721   2.066   5.271
10032SOL    HW230996   3.793   2.179   5.176
10033SOL     OW30997   6.159   2.926   3.674
10033SOL    HW130998   6.186   2.859   3.743
10033SOL    HW230999   6.060   2.942   3.680
10034SOL     OW31000   4.172   6.238   6.032
10034SOL    HW131001   4.194   6.184   5.951
10034SOL    HW231002   4.115   6.184   6.094
10035SOL     OW31003   0.439   6.697   3.862
10035SOL    HW131004   0.358   6.643   3.836
10035SOL    HW231005   0.515   6.636   3.880
10036SOL     OW31006   6.332   0.718   0.379
10036SOL    HW131007   6.385   0.730   0.463
10036SOL    HW231008   6.377   0.768   0.304
10037SOL     OW31009   6.687   6.697   1.448
10037SOL    HW131010   6.697   6.770   1.381
10037SOL    HW231011   6.777   6.655   1.465
10038SOL     OW31012   6.153   0.153   1.265
10038SOL    HW131013   6.081   0.180   1.329
10038SOL    HW231014   6.153   0.216   1.187
10039SOL     OW31015   4.373   1.076   2.808
10039SOL    HW131016   4.378   1.143   2.734
10039SOL    HW231017   4.341   1.121   2.892
10040SOL     OW31018   0.727   2.243   0.478
10040SOL    HW131019   0.759   2.191   0.557
10040SOL    HW231020   0.702   2.336   0.507
10041SOL     OW31021   1.282   6.492   0.312
10041SOL    HW131022   1.348   6.453   0.376
10041SOL    HW231023   1.191   6.455   0.331
10042SOL     OW31024   6.449   1.578   3.831
10042SOL    HW131025   6.449   1.676   3.849
10042SOL    HW231026   6.428   1.529   3.916
10043SOL     OW31027   2.001   2.541   5.953
10043SOL    HW131028   1.998   2.512   5.857
10043SOL    HW231029   1.975   2.637   5.960
10044SOL     OW31030   4.476   1.026   0.052
10044SOL    HW131031   4.396   1.038   0.110
10044SOL    HW231032   4.481   1.101   7.007
10045SOL     OW31033   2.236   0.566   1.192
10045SOL    HW131034   2.230   0.566   1.292
10045SOL    HW231035   2.172   0.498   1.155
10046SOL     OW31036   0.546   5.595   0.144
10046SOL    HW131037   0.627   5.612   0.200
10046SOL    HW231038   0.550   5.653   0.062
10047SOL     OW31039   1.580   3.669   0.922
10047SOL    HW131040   1.603   3.601   0.991
10047SOL    HW231041   1.583   3.760   0.963
10048SOL     OW31042   5.616   3.605   1.536
10048SOL    HW131043   5.679   3.669   1.580
10048SOL    HW231044   5.581   3.541   1.605
10049SOL     OW31045   6.967   1.985   4.892
10049SOL    HW131046   6.965   1.885   4.884
10049SOL    HW231047   6.879   2.018   4.925
10050SOL     OW31048   6.939   2.717   6.212
10050SOL    HW131049   0.016   2.734   6.202
10050SOL    HW231050   6.913   2.634   6.163
10051SOL     OW31051   1.749   0.420   3.173
10051SOL    HW131052   1.717   0.367   3.252
10051SOL    HW231053   1.845   0.445   3.186
10052SOL     OW31054   1.290   0.220   3.795
10052SOL    HW131055   1.221   0.289   3.774
10052SOL    HW231056   1.252   0.129   3.775
10053SOL     OW31057   6.051   5.556   2.400
10053SOL    HW131058   6.013   5.595   2.316
10053SOL    HW231059   6.025   5.613   2.478
10054SOL     OW31060   5.448   4.025   3.554
10054SOL    HW131061   5.537   4.064   3.577
10054SOL    HW231062   5.457   3.964   3.476
10055SOL     OW31063   1.722   1.864   0.080
10055SOL    HW131064   1.675   1.817   0.005
10055SOL    HW231065   1.797   1.806   0.113
10056SOL     OW31066   5.154   2.073   4.286
10056SOL    HW131067   5.157   2.101   4.190
10056SOL    HW231068   5.120   2.148   4.342
10057SOL     OW31069   5.716   4.274   4.753
10057SOL    HW131070   5.634   4.263   4.697
10057SOL    HW231071   5.693   4.328   4.834
10058SOL     OW31072   6.262   4.120   3.654
10058SOL    HW131073   6.181   4.167   3.617
10058SOL    HW231074   6.234   4.055   3.724
10059SOL     OW31075   5.409   5.668   5.765
10059SOL    HW131076   5.360   5.667   5.852
10059SOL    HW231077   5.449   5.758   5.749
10060SOL     OW31078   2.862   1.937   2.214
10060SOL    HW131079   2.932   1.865   2.213
10060SOL    HW231080   2.785   1.907   2.270
10061SOL     OW31081   3.586   6.866   3.509
10061SOL    HW131082   3.522   6.938   3.486
10061SOL    HW231083   3.679   6.902   3.507
10062SOL     OW31084   6.606   6.793   4.597
10062SOL    HW131085   6.644   6.836   4.515
10062SOL    HW231086   6.539   6.723   4.569
10063SOL     OW31087   3.875   2.166   3.726
10063SOL    HW131088   3.956   2.222   3.742
10063SOL    HW231089   3.902   2.070   3.721
10064SOL     OW31090   2.356   6.280   2.219
10064SOL    HW131091   2.360   6.371   2.176
10064SOL    HW231092   2.430   6.272   2.285
10065SOL     OW31093   6.481   2.038   1.626
10065SOL    HW131094   6.508   2.044   1.530
10065SOL    HW231095   6.556   2.069   1.684
10066SOL     OW31096   6.468   4.127   3.484
10066SOL    HW131097   6.404   4.125   3.561
10066SOL    HW231098   6.562   4.123   3.519
10067SOL     OW31099   5.361   3.243   4.852
10067SOL    HW131100   5.359   3.206   4.759
10067SOL    HW231101   5.378   3.170   4.917
10068SOL     OW31102   1.915   3.469   3.020
10068SOL    HW131103   1.847   3.523   3.070
10068SOL    HW231104   1.938   3.388   3.073
10069SOL     OW31105   3.117   5.158   1.988
10069SOL    HW131106   3.157   5.206   1.909
10069SOL    HW231107   3.021   5.139   1.969
10070SOL     OW31108   5.196   6.996   0.162
10070SOL    HW131109   5.215   6.911   0.211
10070SOL    HW231110   5.280   0.028   0.155
10071SOL     OW31111   4.932   0.654   5.149
10071SOL    HW131112   4.869   0.679   5.222
10071SOL    HW231113   5.026   0.653   5.184
10072SOL     OW31114   5.528   3.210   1.846
10072SOL    HW131115   5.438   3.176   1.873
10072SOL    HW231116   5.597   3.171   1.907
10073SOL     OW31117   5.872   6.062   5.311
10073SOL    HW131118   5.854   6.094   5.218
10073SOL    HW231119   5.904   5.967   5.309
10074SOL     OW31120   1.638   4.694   1.003
10074SOL    HW131121   1.593   4.618   0.956
10074SOL    HW231122   1.652   4.670   1.099
10075SOL     OW31123   0.842   3.322   2.072
10075SOL    HW131124   0.844   3.242   2.131
10075SOL    HW231125   0.889   3.302   1.986
10076SOL     OW31126   6.024   4.682   3.558
10076SOL    HW131127   5.943   4.624   3.557
10076SOL    HW231128   6.074   4.669   3.644
10077SOL     OW31129   4.150   3.713   6.507
10077SOL    HW131130   4.203   3.638   6.547
10077SOL    HW231131   4.197   3.800   6.525
10078SOL     OW31132   6.083   5.776   3.904
10078SOL    HW131133   6.088   5.709   3.830
10078SOL    HW231134   6.176   5.807   3.927
10079SOL     OW31135   5.738   5.506   3.079
10079SOL    HW131136   5.806   5.437   3.055
10079SOL    HW231137   5.723   5.505   3.178
10080SOL     OW31138   5.190   2.743   5.165
10080SOL    HW131139   5.117   2.808   5.142
10080SOL    HW231140   5.150   2.652   5.179
10081SOL     OW31141   1.392   4.844   0.834
10081SOL    HW131142   1.358   4.769   0.891
10081SOL    HW231143   1.467   4.811   0.777
10082SOL     OW31144   0.387   4.745   1.521
10082SOL    HW131145   0.438   4.734   1.607
10082SOL    HW231146   0.335   4.661   1.502
10083SOL     OW31147   2.991   6.174   2.623
10083SOL    HW131148   2.986   6.091   2.679
10083SOL    HW231149   3.070   6.229   2.651
10084SOL     OW31150   1.732   2.386   4.974
10084SOL    HW131151   1.797   2.311   4.967
10084SOL    HW231152   1.777   2.472   4.950
10085SOL     OW31153   3.888   6.725   1.356
10085SOL    HW131154   3.852   6.775   1.435
10085SOL    HW231155   3.930   6.790   1.292
10086SOL     OW31156   2.836   0.978   3.128
10086SOL    HW131157   2.889   1.031   3.194
10086SOL    HW231158   2.744   0.961   3.164
10087SOL     OW31159   1.812   5.540   6.388
10087SOL    HW131160   1.897   5.507   6.348
10087SOL    HW231161   1.744   5.466   6.386
10088SOL     OW31162   5.877   1.856   0.790
10088SOL    HW131163   5.837   1.774   0.749
10088SOL    HW231164   5.816   1.933   0.775
10089SOL     OW31165   3.355   6.831   2.109
10089SOL    HW131166   3.268   6.788   2.133
10089SOL    HW231167   3.407   6.848   2.192
10090SOL     OW31168   3.093   5.752   2.179
10090SOL    HW131169   3.115   5.778   2.273
10090SOL    HW231170   3.039   5.668   2.180
10091SOL     OW31171   5.511   6.111   3.020
10091SOL    HW131172   5.461   6.038   3.068
10091SOL    HW231173   5.514   6.193   3.077
10092SOL     OW31174   7.017   1.540   2.541
10092SOL    HW131175   6.967   1.455   2.555
10092SOL    HW231176   0.028   1.545   2.447
10093SOL     OW31177   4.596   4.423   6.245
10093SOL    HW131178   4.535   4.401   6.321
10093SOL    HW231179   4.541   4.440   6.163
10094SOL     OW31180   3.662   2.425   0.287
10094SOL    HW131181   3.713   2.378   0.215
10094SOL    HW231182   3.566   2.400   0.281
10095SOL     OW31183   4.472   2.589   5.180
10095SOL    HW131184   4.380   2.574   5.144
10095SOL    HW231185   4.468   2.648   5.260
10096SOL     OW31186   7.010   5.200   1.934
10096SOL    HW131187   6.968   5.130   1.876
10096SOL    HW231188   6.990   5.291   1.897
10097SOL     OW31189   1.405   1.203   1.577
10097SOL    HW131190   1.381   1.299   1.564
10097SOL    HW231191   1.479   1.197   1.645
10098SOL     OW31192   4.406   5.121   0.387
10098SOL    HW131193   4.396   5.026   0.415
10098SOL    HW231194   4.497   5.154   0.411
10099SOL     OW31195   6.867   6.168   3.247
10099SOL    HW131196   6.816   6.231   3.187
10099SOL    HW231197   6.925   6.109   3.191
10100SOL     OW31198   5.088   5.562   4.247
10100SOL    HW131199   5.096   5.573   4.346
10100SOL    HW231200   5.102   5.466   4.223
10101SOL     OW31201   0.119   2.447   6.784
10101SOL    HW131202   0.182   2.369   6.782
10101SOL    HW231203   0.161   2.522   6.836
10102SOL     OW31204   0.374   4.937   2.775
10102SOL    HW131205   0.347   4.951   2.871
10102SOL    HW231206   0.294   4.949   2.717
10103SOL     OW31207   0.486   0.105   0.060
10103SOL    HW131208   0.451   0.013   0.077
10103SOL    HW231209   0.504   0.117   6.984
10104SOL     OW31210   2.535   1.399   4.679
10104SOL    HW131211   2.510   1.303   4.693
10104SOL    HW231212   2.614   1.405   4.619
10105SOL     OW31213   3.343   1.634   4.094
10105SOL    HW131214   3.263   1.591   4.052
10105SOL    HW231215   3.355   1.598   4.187
10106SOL     OW31216   6.478   3.966   1.002
10106SOL    HW131217   6.441   3.881   0.965
10106SOL    HW231218   6.446   3.979   1.095
10107SOL     OW31219   5.009   5.791   5.884
10107SOL    HW131220   5.075   5.793   5.808
10107SOL    HW231221   5.059   5.780   5.970
10108SOL     OW31222   3.011   1.920   4.749
10108SOL    HW131223   3.047   1.914   4.656
10108SOL    HW231224   3.081   1.891   4.814
10109SOL     OW31225   1.019   3.007   1.057
10109SOL    HW131226   1.073   2.935   1.100
10109SOL    HW231227   0.951   3.041   1.121
10110SOL     OW31228   5.816   6.328   1.661
10110SOL    HW131229   5.881   6.298   1.591
10110SOL    HW231230   5.754   6.253   1.684
10111SOL     OW31231   6.429   2.437   1.985
10111SOL    HW131232   6.396   2.487   1.905
10111SOL    HW231233   6.393   2.480   2.068
10112SOL     OW31234   0.100   2.784   3.978
10112SOL    HW131235   0.036   2.719   3.938
10112SOL    HW231236   0.050   2.863   4.015
10113SOL     OW31237   7.001   6.882   6.335
10113SOL    HW131238   6.950   6.797   6.322
10113SOL    HW231239   0.017   6.885   6.428
10114SOL     OW31240   5.896   4.500   1.181
10114SOL    HW131241   5.907   4.588   1.135
10114SOL    HW231242   5.885   4.428   1.113
10115SOL     OW31243   3.798   1.765   6.444
10115SOL    HW131244   3.810   1.824   6.364
10115SOL    HW231245   3.867   1.789   6.513
10116SOL     OW31246   0.820   6.755   6.640
10116SOL    HW131247   0.866   6.667   6.632
10116SOL    HW231248   0.886   6.829   6.625
10117SOL     OW31249   0.486   4.217   1.215
10117SOL    HW131250   0.454   4.262   1.131
10117SOL    HW231251   0.486   4.283   1.290
10118SOL     OW31252   4.086   5.186   3.625
10118SOL    HW131253   4.096   5.257   3.556
10118SOL    HW231254   3.992   5.183   3.657
10119SOL     OW31255   5.698   6.118   6.602
10119SOL    HW131256   5.710   6.019   6.611
10119SOL    HW231257   5.730   6.164   6.685
10120SOL     OW31258   2.430   2.626   2.763
10120SOL    HW131259   2.402   2.672   2.847
10120SOL    HW231260   2.488   2.548   2.786
10121SOL     OW31261   6.812   5.694   1.290
10121SOL    HW131262   6.785   5.787   1.264
10121SOL    HW231263   6.766   5.628   1.231
10122SOL     OW31264   2.098   0.139   3.503
10122SOL    HW131265   2.052   0.101   3.423
10122SOL    HW231266   2.114   0.237   3.489
10123SOL     OW31267   6.225   6.907   6.493
10123SOL    HW131268   6.138   6.862   6.512
10123SOL    HW231269   6.266   6.938   6.580
10124SOL     OW31270   0.657   5.032   3.395
10124SOL    HW131271   0.654   5.044   3.296
10124SOL    HW231272   0.565   5.014   3.429
10125SOL     OW31273   1.922   2.420   4.674
10125SOL    HW131274   2.020   2.419   4.695
10125SOL    HW231275   1.874   2.361   4.739
10126SOL     OW31276   6.899   6.195   4.564
10126SOL    HW131277   6.925   6.289   4.588
10126SOL    HW231278   6.880   6.190   4.466
10127SOL     OW31279   2.154   0.988   4.568
10127SOL    HW131280   2.239   1.041   4.569
10127SOL    HW231281   2.155   0.926   4.490
10128SOL     OW31282   3.172   0.801   0.480
10128SOL    HW131283   3.109   0.747   0.534
10128SOL    HW231284   3.169   0.897   0.510
10129SOL     OW31285   6.646   1.712   5.661
10129SOL    HW131286   6.654   1.784   5.592
10129SOL    HW231287   6.710   1.638   5.639
10130SOL     OW31288   1.588   2.925   3.302
10130SOL    HW131289   1.621   2.868   3.377
10130SOL    HW231290   1.647   2.912   3.222
10131SOL     OW31291   2.298   0.952   5.066
10131SOL    HW131292   2.280   0.923   4.972
10131SOL    HW231293   2.281   0.875   5.128
10132SOL     OW31294   6.172   0.495   2.149
10132SOL    HW131295   6.160   0.575   2.091
10132SOL    HW231296   6.132   0.415   2.105
10133SOL     OW31297   4.609   5.474   1.101
10133SOL    HW131298   4.708   5.464   1.107
10133SOL    HW231299   4.567   5.442   1.186
10134SOL     OW31300   6.453   1.015   2.643
10134SOL    HW131301   6.392   0.972   2.577
10134SOL    HW231302   6.505   0.944   2.691
10135SOL     OW31303   6.728   6.631   3.105
10135SOL    HW131304   6.768   6.692   3.037
10135SOL    HW231305   6.628   6.634   3.098
10136SOL     OW31306   4.933   0.704   3.112
10136SOL    HW131307   4.874   0.784   3.120
10136SOL    HW231308   5.012   0.714   3.173
10137SOL     OW31309   6.051   6.275   2.772
10137SOL    HW131310   6.048   6.334   2.691
10137SOL    HW231311   6.096   6.189   2.748
10138SOL     OW31312   0.401   2.083   2.660
10138SOL    HW131313   0.364   2.106   2.570
10138SOL    HW231314   0.439   1.991   2.659
10139SOL     OW31315   4.264   2.828   1.042
10139SOL    HW131316   4.313   2.912   1.016
10139SOL    HW231317   4.174   2.828   0.999
10140SOL     OW31318   6.004   6.426   4.095
10140SOL    HW131319   6.047   6.444   4.007
10140SOL    HW231320   5.959   6.509   4.128
10141SOL     OW31321   0.839   2.028   4.276
10141SOL    HW131322   0.910   2.011   4.207
10141SOL    HW231323   0.760   2.072   4.233
10142SOL     OW31324   4.597   6.486   1.469
10142SOL    HW131325   4.593   6.579   1.430
10142SOL    HW231326   4.535   6.480   1.547
10143SOL     OW31327   6.843   3.536   0.146
10143SOL    HW131328   6.770   3.493   0.093
10143SOL    HW231329   6.921   3.555   0.086
10144SOL     OW31330   4.748   0.431   2.347
10144SOL    HW131331   4.712   0.441   2.254
10144SOL    HW231332   4.726   0.512   2.401
10145SOL     OW31333   6.407   0.112   4.982
10145SOL    HW131334   6.445   0.095   4.891
10145SOL    HW231335   6.453   0.191   5.023
10146SOL     OW31336   1.607   1.475   5.380
10146SOL    HW131337   1.523   1.425   5.400
10146SOL    HW231338   1.586   1.559   5.330
10147SOL     OW31339   3.409   4.749   0.404
10147SOL    HW131340   3.386   4.661   0.446
10147SOL    HW231341   3.346   4.768   0.329
10148SOL     OW31342   0.061   5.642   6.447
10148SOL    HW131343   0.145   5.636   6.393
10148SOL    HW231344   0.081   5.683   6.536
10149SOL     OW31345   3.016   3.261   3.828
10149SOL    HW131346   3.065   3.174   3.819
10149SOL    HW231347   2.942   3.265   3.761
10150SOL     OW31348   6.047   4.452   0.183
10150SOL    HW131349   6.048   4.403   0.270
10150SOL    HW231350   6.137   4.495   0.168
10151SOL     OW31351   0.441   0.565   0.535
10151SOL    HW131352   0.410   0.613   0.616
10151SOL    HW231353   0.537   0.537   0.547
10152SOL     OW31354   3.538   6.146   3.951
10152SOL    HW131355   3.498   6.181   3.866
10152SOL    HW231356   3.512   6.050   3.963
10153SOL     OW31357   4.824   4.015   1.263
10153SOL    HW131358   4.789   4.056   1.347
10153SOL    HW231359   4.748   4.002   1.199
10154SOL     OW31360   4.971   5.110   6.297
10154SOL    HW131361   5.000   5.205   6.284
10154SOL    HW231362   5.032   5.066   6.363
10155SOL     OW31363   4.966   2.461   4.681
10155SOL    HW131364   5.034   2.418   4.740
10155SOL    HW231365   4.951   2.556   4.710
10156SOL     OW31366   3.490   1.464   6.739
10156SOL    HW131367   3.468   1.519   6.659
10156SOL    HW231368   3.585   1.435   6.734
10157SOL     OW31369   0.069   5.798   2.084
10157SOL    HW131370   0.135   5.723   2.082
10157SOL    HW231371   0.053   5.827   2.178
10158SOL     OW31372   6.713   5.049   6.476
10158SOL    HW131373   6.665   5.086   6.397
10158SOL    HW231374   6.724   4.951   6.466
10159SOL     OW31375   3.774   2.835   1.716
10159SOL    HW131376   3.751   2.911   1.655
10159SOL    HW231377   3.843   2.865   1.782
10160SOL     OW31378   6.850   4.098   2.311
10160SOL    HW131379   6.881   4.020   2.256
10160SOL    HW231380   6.782   4.066   2.377
10161SOL     OW31381   6.351   2.754   0.324
10161SOL    HW131382   6.340   2.852   0.309
10161SOL    HW231383   6.265   2.707   0.300
10162SOL     OW31384   2.274   2.302   1.843
10162SOL    HW131385   2.229   2.381   1.801
10162SOL    HW231386   2.243   2.292   1.937
10163SOL     OW31387   3.530   5.271   4.982
10163SOL    HW131388   3.430   5.276   4.982
10163SOL    HW231389   3.564   5.282   4.889
10164SOL     OW31390   0.605   0.939   3.855
10164SOL    HW131391   0.687   0.916   3.803
10164SOL    HW231392   0.575   0.860   3.909
10165SOL     OW31393   2.012   3.400   3.784
10165SOL    HW131394   1.947   3.470   3.755
10165SOL    HW231395   1.966   3.334   3.843
10166SOL     OW31396   3.069   6.175   3.201
10166SOL    HW131397   3.099   6.254   3.148
10166SOL    HW231398   3.136   6.155   3.272
10167SOL     OW31399   4.030   1.904   6.903
10167SOL    HW131400   4.074   1.857   6.979
10167SOL    HW231401   3.950   1.955   6.936
10168SOL     OW31402   0.659   1.079   6.574
10168SOL    HW131403   0.713   1.001   6.544
10168SOL    HW231404   0.696   1.115   6.659
10169SOL     OW31405   4.610   5.293   2.997
10169SOL    HW131406   4.513   5.268   2.991
10169SOL    HW231407   4.657   5.260   2.915
10170SOL     OW31408   4.901   6.451   6.938
10170SOL    HW131409   4.911   6.486   0.010
10170SOL    HW231410   4.920   6.524   6.873
10171SOL     OW31411   1.556   4.119   2.703
10171SOL    HW131412   1.577   4.106   2.800
10171SOL    HW231413   1.550   4.217   2.684
10172SOL     OW31414   0.808   1.332   3.327
10172SOL    HW131415   0.896   1.377   3.311
10172SOL    HW231416   0.793   1.321   3.425
10173SOL     OW31417   4.415   2.341   4.843
10173SOL    HW131418   4.409   2.417   4.778
10173SOL    HW231419   4.421   2.255   4.792
10174SOL     OW31420   4.782   4.793   1.137
10174SOL    HW131421   4.694   4.758   1.170
10174SOL    HW231422   4.852   4.722   1.149
10175SOL     OW31423   6.412   6.862   3.607
10175SOL    HW131424   6.451   6.920   3.678
10175SOL    HW231425   6.395   6.916   3.525
10176SOL     OW31426   6.567   1.481   5.252
10176SOL    HW131427   6.612   1.445   5.334
10176SOL    HW231428   6.541   1.576   5.268
10177SOL     OW31429   3.127   0.985   4.620
10177SOL    HW131430   3.058   1.043   4.575
10177SOL    HW231431   3.218   1.013   4.590
10178SOL     OW31432   6.455   1.686   2.041
10178SOL    HW131433   6.437   1.633   2.124
10178SOL    HW231434   6.524   1.756   2.061
10179SOL     OW31435   0.294   6.236   0.893
10179SOL    HW131436   0.293   6.174   0.972
10179SOL    HW231437   0.203   6.272   0.877
10180SOL     OW31438   1.830   0.384   6.338
10180SOL    HW131439   1.818   0.465   6.396
10180SOL    HW231440   1.861   0.413   6.247
10181SOL     OW31441   0.159   4.164   2.098
10181SOL    HW131442   0.188   4.132   2.008
10181SOL    HW231443   0.133   4.085   2.154
10182SOL     OW31444   3.040   6.820   6.608
10182SOL    HW131445   3.065   6.759   6.534
10182SOL    HW231446   3.061   6.777   6.696
10183SOL     OW31447   3.716   5.706   6.091
10183SOL    HW131448   3.813   5.722   6.112
10183SOL    HW231449   3.706   5.614   6.053
10184SOL     OW31450   4.983   2.667   3.599
10184SOL    HW131451   5.006   2.750   3.549
10184SOL    HW231452   5.005   2.679   3.696
10185SOL     OW31453   3.035   4.758   1.876
10185SOL    HW131454   2.977   4.676   1.876
10185SOL    HW231455   3.069   4.775   1.968
10186SOL     OW31456   3.331   2.799   1.830
10186SOL    HW131457   3.313   2.739   1.752
10186SOL    HW231458   3.428   2.793   1.854
10187SOL     OW31459   1.489   3.478   5.490
10187SOL    HW131460   1.456   3.560   5.538
10187SOL    HW231461   1.478   3.491   5.391
10188SOL     OW31462   2.109   6.965   6.927
10188SOL    HW131463   2.076   7.010   7.010
10188SOL    HW231464   2.068   6.874   6.920
10189SOL     OW31465   2.078   1.620   4.939
10189SOL    HW131466   2.163   1.667   4.915
10189SOL    HW231467   2.071   1.536   4.885
10190SOL     OW31468   2.738   4.044   0.982
10190SOL    HW131469   2.758   4.018   0.887
10190SOL    HW231470   2.816   4.022   1.040
10191SOL     OW31471   6.129   0.571   0.020
10191SOL    HW131472   6.057   0.579   0.089
10191SOL    HW231473   6.108   0.630   6.964
10192SOL     OW31474   2.823   0.430   4.566
10192SOL    HW131475   2.821   0.508   4.504
10192SOL    HW231476   2.739   0.429   4.620
10193SOL     OW31477   3.709   2.951   3.843
10193SOL    HW131478   3.688   2.935   3.940
10193SOL    HW231479   3.630   2.991   3.797
10194SOL     OW31480   3.020   5.755   3.238
10194SOL    HW131481   2.967   5.694   3.296
10194SOL    HW231482   3.097   5.705   3.199
10195SOL     OW31483   5.189   0.416   2.388
10195SOL    HW131484   5.167   0.493   2.329
10195SOL    HW231485   5.213   0.337   2.331
10196SOL     OW31486   4.539   4.910   3.851
10196SOL    HW131487   4.498   4.889   3.763
10196SOL    HW231488   4.600   4.835   3.878
10197SOL     OW31489   5.204   1.567   2.983
10197SOL    HW131490   5.287   1.518   3.011
10197SOL    HW231491   5.231   1.653   2.938
10198SOL     OW31492   3.843   1.180   1.829
10198SOL    HW131493   3.889   1.235   1.759
10198SOL    HW231494   3.909   1.153   1.899
10199SOL     OW31495   1.164   1.739   0.260
10199SOL    HW131496   1.224   1.730   0.340
10199SOL    HW231497   1.217   1.777   0.184
10200SOL     OW31498   5.225   6.937   3.720
10200SOL    HW131499   5.126   6.924   3.723
10200SOL    HW231500   5.269   6.856   3.682
10201SOL     OW31501   0.879   5.201   3.401
10201SOL    HW131502   0.792   5.151   3.398
10201SOL    HW231503   0.867   5.285   3.455
10202SOL     OW31504   1.458   2.550   3.435
10202SOL    HW131505   1.546   2.595   3.420
10202SOL    HW231506   1.394   2.616   3.475
10203SOL     OW31507   6.322   2.458   0.913
10203SOL    HW131508   6.248   2.394   0.896
10203SOL    HW231509   6.406   2.423   0.872
10204SOL     OW31510   1.619   6.294   4.292
10204SOL    HW131511   1.669   6.246   4.219
10204SOL    HW231512   1.542   6.344   4.253
10205SOL     OW31513   3.938   6.772   0.733
10205SOL    HW131514   3.925   6.675   0.710
10205SOL    HW231515   3.990   6.817   0.660
10206SOL     OW31516   5.960   6.073   0.063
10206SOL    HW131517   5.972   6.049   6.988
10206SOL    HW231518   5.955   5.989   0.118
10207SOL     OW31519   3.578   1.375   2.240
10207SOL    HW131520   3.522   1.369   2.157
10207SOL    HW231521   3.521   1.361   2.320
10208SOL     OW31522   0.265   2.459   6.408
10208SOL    HW131523   0.352   2.504   6.429
10208SOL    HW231524   0.190   2.515   6.445
10209SOL     OW31525   3.624   6.194   0.137
10209SOL    HW131526   3.596   6.101   0.114
10209SOL    HW231527   3.559   6.234   0.202
10210SOL     OW31528   4.646   6.545   0.058
10210SOL    HW131529   4.592   6.474   0.104
10210SOL    HW231530   4.722   6.502   0.009
10211SOL     OW31531   3.653   4.954   5.013
10211SOL    HW131532   3.740   4.914   5.042
10211SOL    HW231533   3.581   4.927   5.077
10212SOL     OW31534   6.157   6.195   5.777
10212SOL    HW131535   6.138   6.097   5.774
10212SOL    HW231536   6.253   6.211   5.755
10213SOL     OW31537   3.927   0.206   4.766
10213SOL    HW131538   3.878   0.224   4.851
10213SOL    HW231539   4.014   0.161   4.787
10214SOL     OW31540   6.941   0.670   0.557
10214SOL    HW131541   6.866   0.634   0.613
10214SOL    HW231542   7.015   0.701   0.617
10215SOL     OW31543   4.715   2.478   0.233
10215SOL    HW131544   4.656   2.428   0.169
10215SOL    HW231545   4.747   2.562   0.190
10216SOL     OW31546   5.163   0.278   2.680
10216SOL    HW131547   5.192   0.341   2.752
10216SOL    HW231548   5.196   0.310   2.592
10217SOL     OW31549   3.156   1.853   6.044
10217SOL    HW131550   3.196   1.868   5.953
10217SOL    HW231551   3.225   1.869   6.114
10218SOL     OW31552   3.627   0.837   6.486
10218SOL    HW131553   3.560   0.774   6.448
10218SOL    HW231554   3.589   0.882   6.567
10219SOL     OW31555   7.014   5.062   0.774
10219SOL    HW131556   0.058   5.127   0.735
10219SOL    HW231557   6.947   5.036   0.704
10220SOL     OW31558   4.082   2.558   6.137
10220SOL    HW131559   4.063   2.575   6.234
10220SOL    HW231560   4.173   2.590   6.115
10221SOL     OW31561   2.345   0.438   4.769
10221SOL    HW131562   2.370   0.418   4.674
10221SOL    HW231563   2.251   0.409   4.786
10222SOL     OW31564   2.488   4.848   5.287
10222SOL    HW131565   2.576   4.831   5.242
10222SOL    HW231566   2.498   4.922   5.353
10223SOL     OW31567   1.756   5.401   6.056
10223SOL    HW131568   1.707   5.318   6.029
10223SOL    HW231569   1.811   5.435   5.980
10224SOL     OW31570   3.875   5.965   5.520
10224SOL    HW131571   3.844   5.906   5.594
10224SOL    HW231572   3.796   6.002   5.471
10225SOL     OW31573   5.390   0.143   4.645
10225SOL    HW131574   5.432   0.122   4.733
10225SOL    HW231575   5.346   0.061   4.608
10226SOL     OW31576   6.550   2.428   6.541
10226SOL    HW131577   6.599   2.514   6.525
10226SOL    HW231578   6.617   2.356   6.562
10227SOL     OW31579   4.494   4.487   5.356
10227SOL    HW131580   4.448   4.398   5.359
10227SOL    HW231581   4.592   4.474   5.339
10228SOL     OW31582   1.280   2.639   1.518
10228SOL    HW131583   1.361   2.698   1.524
10228SOL    HW231584   1.253   2.611   1.610
10229SOL     OW31585   2.988   0.757   1.740
10229SOL    HW131586   2.917   0.785   1.675
10229SOL    HW231587   2.946   0.741   1.829
10230SOL     OW31588   5.234   0.028   3.330
10230SOL    HW131589   5.154   0.037   3.389
10230SOL    HW231590   5.275   0.118   3.315
10231SOL     OW31591   5.143   6.411   4.751
10231SOL    HW131592   5.163   6.323   4.707
10231SOL    HW231593   5.068   6.457   4.703
10232SOL     OW31594   4.024   2.196   2.974
10232SOL    HW131595   3.948   2.141   3.007
10232SOL    HW231596   4.067   2.243   3.051
10233SOL     OW31597   4.815   6.256   5.536
10233SOL    HW131598   4.726   6.285   5.570
10233SOL    HW231599   4.829   6.292   5.444
10234SOL     OW31600   3.990   4.148   0.941
10234SOL    HW131601   4.015   4.082   1.012
10234SOL    HW231602   4.070   4.173   0.888
10235SOL     OW31603   4.862   0.303   6.857
10235SOL    HW131604   4.856   0.296   6.758
10235SOL    HW231605   4.773   0.282   6.898
10236SOL     OW31606   1.268   4.801   1.252
10236SOL    HW131607   1.192   4.754   1.298
10236SOL    HW231608   1.284   4.889   1.296
10237SOL     OW31609   5.968   2.566   3.050
10237SOL    HW131610   5.879   2.522   3.056
10237SOL    HW231611   5.957   2.658   3.013
10238SOL     OW31612   5.340   5.165   6.232
10238SOL    HW131613   5.300   5.232   6.295
10238SOL    HW231614   5.348   5.076   6.278
10239SOL     OW31615   5.538   3.619   4.263
10239SOL    HW131616   5.540   3.693   4.196
10239SOL    HW231617   5.617   3.627   4.325
10240SOL     OW31618   5.095   3.818   2.781
10240SOL    HW131619   5.040   3.791   2.861
10240SOL    HW231620   5.035   3.827   2.702
10241SOL     OW31621   1.469   2.613   2.471
10241SOL    HW131622   1.448   2.670   2.392
10241SOL    HW231623   1.446   2.663   2.555
10242SOL     OW31624   0.960   5.432   6.775
10242SOL    HW131625   0.958   5.376   6.858
10242SOL    HW231626   0.883   5.407   6.716
10243SOL     OW31627   0.091   5.662   3.530
10243SOL    HW131628   0.022   5.662   3.604
10243SOL    HW231629   0.181   5.681   3.569
10244SOL     OW31630   2.697   5.939   0.055
10244SOL    HW131631   2.720   5.999   0.132
10244SOL    HW231632   2.610   5.894   0.074
10245SOL     OW31633   3.671   3.373   1.115
10245SOL    HW131634   3.741   3.403   1.050
10245SOL    HW231635   3.699   3.399   1.208
10246SOL     OW31636   3.444   4.128   5.030
10246SOL    HW131637   3.414   4.103   5.122
10246SOL    HW231638   3.528   4.182   5.035
10247SOL     OW31639   0.967   5.406   6.479
10247SOL    HW131640   1.000   5.434   6.569
10247SOL    HW231641   0.870   5.432   6.470
10248SOL     OW31642   5.798   0.408   3.813
10248SOL    HW131643   5.888   0.391   3.854
10248SOL    HW231644   5.771   0.502   3.831
10249SOL     OW31645   4.479   0.933   6.147
10249SOL    HW131646   4.385   0.937   6.182
10249SOL    HW231647   4.480   0.882   6.061
10250SOL     OW31648   4.478   5.834   0.724
10250SOL    HW131649   4.542   5.908   0.743
10250SOL    HW231650   4.414   5.863   0.653
10251SOL     OW31651   3.660   4.391   1.205
10251SOL    HW131652   3.691   4.324   1.272
10251SOL    HW231653   3.738   4.425   1.153
10252SOL     OW31654   6.958   3.921   0.735
10252SOL    HW131655   6.859   3.935   0.730
10252SOL    HW231656   6.981   3.869   0.818
10253SOL     OW31657   4.828   4.406   6.776
10253SOL    HW131658   4.844   4.314   6.812
10253SOL    HW231659   4.808   4.469   6.851
10254SOL     OW31660   3.143   2.188   5.611
10254SOL    HW131661   3.161   2.231   5.522
10254SOL    HW231662   3.115   2.093   5.597
10255SOL     OW31663   3.274   5.001   4.022
10255SOL    HW131664   3.191   4.969   4.067
10255SOL    HW231665   3.268   5.100   4.006
10256SOL     OW31666   5.387   5.745   0.231
10256SOL    HW131667   5.298   5.741   0.276
10256SOL    HW231668   5.459   5.755   0.300
10257SOL     OW31669   1.712   4.280   5.084
10257SOL    HW131670   1.786   4.306   5.147
10257SOL    HW231671   1.735   4.310   4.991
10258SOL     OW31672   4.909   1.210   2.401
10258SOL    HW131673   4.918   1.128   2.345
10258SOL    HW231674   4.849   1.192   2.479
10259SOL     OW31675   6.054   3.618   4.410
10259SOL    HW131676   6.030   3.697   4.466
10259SOL    HW231677   6.013   3.627   4.319
10260SOL     OW31678   7.008   5.801   2.613
10260SOL    HW131679   6.951   5.833   2.689
10260SOL    HW231680   6.957   5.735   2.558
10261SOL     OW31681   2.270   0.182   1.843
10261SOL    HW131682   2.253   0.273   1.883
10261SOL    HW231683   2.368   0.161   1.851
10262SOL     OW31684   6.666   6.445   3.585
10262SOL    HW131685   6.760   6.454   3.617
10262SOL    HW231686   6.648   6.349   3.562
10263SOL     OW31687   6.365   3.428   5.226
10263SOL    HW131688   6.379   3.332   5.247
10263SOL    HW231689   6.411   3.450   5.139
10264SOL     OW31690   0.713   0.528   0.561
10264SOL    HW131691   0.776   0.468   0.512
10264SOL    HW231692   0.762   0.578   0.632
10265SOL     OW31693   5.265   2.409   4.264
10265SOL    HW131694   5.197   2.378   4.329
10265SOL    HW231695   5.233   2.393   4.170
10266SOL     OW31696   3.105   3.437   6.869
10266SOL    HW131697   3.138   3.397   6.954
10266SOL    HW231698   3.015   3.400   6.847
10267SOL     OW31699   7.012   0.350   6.388
10267SOL    HW131700   6.932   0.411   6.388
10267SOL    HW231701   0.034   0.352   6.298
10268SOL     OW31702   0.064   4.383   0.220
10268SOL    HW131703   0.021   4.360   0.307
10268SOL    HW231704   0.004   4.444   0.168
10269SOL     OW31705   4.503   1.502   5.606
10269SOL    HW131706   4.480   1.576   5.669
10269SOL    HW231707   4.421   1.477   5.553
10270SOL     OW31708   3.757   6.505   2.860
10270SOL    HW131709   3.670   6.493   2.907
10270SOL    HW231710   3.830   6.465   2.914
10271SOL     OW31711   1.905   4.870   1.062
10271SOL    HW131712   1.862   4.785   1.092
10271SOL    HW231713   1.957   4.909   1.138
10272SOL     OW31714   2.191   3.122   3.936
10272SOL    HW131715   2.097   3.155   3.941
10272SOL    HW231716   2.254   3.199   3.930
10273SOL     OW31717   4.216   6.769   4.199
10273SOL    HW131718   4.287   6.767   4.269
10273SOL    HW231719   4.221   6.685   4.145
10274SOL     OW31720   2.019   4.516   6.526
10274SOL    HW131721   2.005   4.610   6.556
10274SOL    HW231722   2.095   4.476   6.578
10275SOL     OW31723   0.726   5.953   1.945
10275SOL    HW131724   0.769   5.870   1.911
10275SOL    HW231725   0.753   6.031   1.888
10276SOL     OW31726   1.713   6.993   0.312
10276SOL    HW131727   1.740   0.067   0.296
10276SOL    HW231728   1.789   6.932   0.288
10277SOL     OW31729   6.538   5.595   2.077
10277SOL    HW131730   6.527   5.583   1.978
10277SOL    HW231731   6.581   5.513   2.116
10278SOL     OW31732   6.366   1.177   5.449
10278SOL    HW131733   6.383   1.212   5.357
10278SOL    HW231734   6.270   1.193   5.473
10279SOL     OW31735   3.879   6.043   4.339
10279SOL    HW131736   3.834   5.988   4.410
10279SOL    HW231737   3.810   6.095   4.289
10280SOL     OW31738   2.747   2.489   0.279
10280SOL    HW131739   2.839   2.481   0.239
10280SOL    HW231740   2.697   2.404   0.266
10281SOL     OW31741   4.275   0.964   4.394
10281SOL    HW131742   4.198   0.910   4.360
10281SOL    HW231743   4.337   0.905   4.444
10282SOL     OW31744   1.730   3.383   4.130
10282SOL    HW131745   1.747   3.287   4.151
10282SOL    HW231746   1.774   3.440   4.200
10283SOL     OW31747   1.433   5.258   6.338
10283SOL    HW131748   1.426   5.189   6.266
10283SOL    HW231749   1.343   5.298   6.353
10284SOL     OW31750   5.126   3.009   0.157
10284SOL    HW131751   5.184   2.939   0.116
10284SOL    HW231752   5.030   2.981   0.151
10285SOL     OW31753   5.008   1.667   1.337
10285SOL    HW131754   5.033   1.744   1.278
10285SOL    HW231755   5.090   1.629   1.378
10286SOL     OW31756   3.599   0.290   4.096
10286SOL    HW131757   3.557   0.380   4.103
10286SOL    HW231758   3.542   0.231   4.038
10287SOL     OW31759   2.184   3.901   2.787
10287SOL    HW131760   2.131   3.932   2.866
10287SOL    HW231761   2.138   3.824   2.744
10288SOL     OW31762   4.093   6.439   4.335
10288SOL    HW131763   4.167   6.499   4.306
10288SOL    HW231764   4.115   6.345   4.310
10289SOL     OW31765   2.468   1.691   1.710
10289SOL    HW131766   2.515   1.608   1.739
10289SOL    HW231767   2.422   1.675   1.623
10290SOL     OW31768   2.915   3.328   3.438
10290SOL    HW131769   2.995   3.325   3.379
10290SOL    HW231770   2.870   3.238   3.438
10291SOL     OW31771   3.832   7.009   4.157
10291SOL    HW131772   3.801   0.044   4.234
10291SOL    HW231773   3.853   6.917   4.189
10292SOL     OW31774   6.483   3.046   4.424
10292SOL    HW131775   6.425   2.980   4.376
10292SOL    HW231776   6.577   3.012   4.429
10293SOL     OW31777   1.409   4.518   3.014
10293SOL    HW131778   1.476   4.447   2.990
10293SOL    HW231779   1.415   4.536   3.113
10294SOL     OW31780   5.737   0.883   3.020
10294SOL    HW131781   5.676   0.805   3.031
10294SOL    HW231782   5.754   0.898   2.922
10295SOL     OW31783   1.677   3.909   3.466
10295SOL    HW131784   1.755   3.848   3.448
10295SOL    HW231785   1.645   3.893   3.560
10296SOL     OW31786   6.208   3.528   1.460
10296SOL    HW131787   6.252   3.575   1.384
10296SOL    HW231788   6.117   3.496   1.432
10297SOL     OW31789   3.696   4.876   5.325
10297SOL    HW131790   3.715   4.780   5.341
10297SOL    HW231791   3.658   4.917   5.407
10298SOL     OW31792   5.765   3.402   3.037
10298SOL    HW131793   5.725   3.315   3.008
10298SOL    HW231794   5.836   3.385   3.105
10299SOL     OW31795   4.180   4.911   2.259
10299SOL    HW131796   4.158   4.823   2.302
10299SOL    HW231797   4.112   4.931   2.188
10300SOL     OW31798   0.419   5.963   2.269
10300SOL    HW131799   0.418   5.887   2.334
10300SOL    HW231800   0.514   5.987   2.246
10301SOL     OW31801   4.469   0.389   1.612
10301SOL    HW131802   4.385   0.365   1.661
10301SOL    HW231803   4.548   0.368   1.669
10302SOL     OW31804   0.598   3.883   3.371
10302SOL    HW131805   0.568   3.800   3.326
10302SOL    HW231806   0.698   3.888   3.368
10303SOL     OW31807   4.826   3.500   0.840
10303SOL    HW131808   4.756   3.438   0.877
10303SOL    HW231809   4.909   3.448   0.821
10304SOL     OW31810   5.627   5.841   4.141
10304SOL    HW131811   5.702   5.900   4.173
10304SOL    HW231812   5.647   5.809   4.048
10305SOL     OW31813   2.541   5.358   1.473
10305SOL    HW131814   2.640   5.361   1.485
10305SOL    HW231815   2.516   5.411   1.392
10306SOL     OW31816   4.953   3.909   6.994
10306SOL    HW131817   5.044   3.878   6.967
10306SOL    HW231818   4.884   3.859   6.942
10307SOL     OW31819   2.719   2.169   5.696
10307SOL    HW131820   2.723   2.211   5.605
10307SOL    HW231821   2.726   2.240   5.766
10308SOL     OW31822   2.798   5.071   4.210
10308SOL    HW131823   2.790   4.985   4.160
10308SOL    HW231824   2.875   5.124   4.174
10309SOL     OW31825   0.095   6.362   3.482
10309SOL    HW131826   0.131   6.307   3.407
10309SOL    HW231827   0.079   6.304   3.561
10310SOL     OW31828   3.902   3.862   4.386
10310SOL    HW131829   3.915   3.927   4.310
10310SOL    HW231830   3.991   3.826   4.414
10311SOL     OW31831   1.159   6.757   0.897
10311SOL    HW131832   1.210   6.839   0.872
10311SOL    HW231833   1.062   6.779   0.908
10312SOL     OW31834   2.812   4.547   0.217
10312SOL    HW131835   2.724   4.559   0.263
10312SOL    HW231836   2.825   4.450   0.195
10313SOL     OW31837   6.406   5.881   3.726
10313SOL    HW131838   6.363   5.817   3.661
10313SOL    HW231839   6.471   5.939   3.677
10314SOL     OW31840   0.051   5.389   5.296
10314SOL    HW131841   0.057   5.380   5.395
10314SOL    HW231842   0.142   5.399   5.257
10315SOL     OW31843   4.120   6.340   5.399
10315SOL    HW131844   4.092   6.346   5.495
10315SOL    HW231845   4.220   6.331   5.394
10316SOL     OW31846   0.153   2.988   4.284
10316SOL    HW131847   0.085   3.029   4.345
10316SOL    HW231848   0.125   3.002   4.189
10317SOL     OW31849   6.161   4.198   6.278
10317SOL    HW131850   6.140   4.172   6.373
10317SOL    HW231851   6.171   4.297   6.272
10318SOL     OW31852   4.915   4.865   2.794
10318SOL    HW131853   4.908   4.769   2.767
10318SOL    HW231854   4.927   4.870   2.893
10319SOL     OW31855   4.601   6.555   3.623
10319SOL    HW131856   4.660   6.499   3.682
10319SOL    HW231857   4.581   6.504   3.539
10320SOL     OW31858   3.506   6.544   1.907
10320SOL    HW131859   3.446   6.509   1.835
10320SOL    HW231860   3.465   6.525   1.996
10321SOL     OW31861   4.681   6.163   4.999
10321SOL    HW131862   4.780   6.180   4.995
10321SOL    HW231863   4.665   6.064   5.004
10322SOL     OW31864   6.954   1.483   6.394
10322SOL    HW131865   6.940   1.528   6.482
10322SOL    HW231866   6.865   1.466   6.351
10323SOL     OW31867   0.622   2.041   4.852
10323SOL    HW131868   0.568   2.005   4.776
10323SOL    HW231869   0.663   2.129   4.826
10324SOL     OW31870   3.180   3.650   4.658
10324SOL    HW131871   3.239   3.631   4.579
10324SOL    HW231872   3.235   3.659   4.740
10325SOL     OW31873   0.584   3.166   3.657
10325SOL    HW131874   0.651   3.126   3.719
10325SOL    HW231875   0.537   3.094   3.607
10326SOL     OW31876   5.928   1.667   1.256
10326SOL    HW131877   5.848   1.623   1.295
10326SOL    HW231878   6.011   1.633   1.301
10327SOL     OW31879   5.808   1.808   3.681
10327SOL    HW131880   5.869   1.878   3.643
10327SOL    HW231881   5.861   1.727   3.706
10328SOL     OW31882   7.019   3.773   2.060
10328SOL    HW131883   6.928   3.809   2.038
10328SOL    HW231884   0.004   3.677   2.032
10329SOL     OW31885   2.951   5.516   2.958
10329SOL    HW131886   2.967   5.520   3.057
10329SOL    HW231887   2.941   5.421   2.929
10330SOL     OW31888   3.322   3.594   0.966
10330SOL    HW131889   3.246   3.561   0.910
10330SOL    HW231890   3.375   3.516   0.999
10331SOL     OW31891   5.272   1.880   4.763
10331SOL    HW131892   5.346   1.823   4.727
10331SOL    HW231893   5.298   1.976   4.760
10332SOL     OW31894   1.566   2.860   6.804
10332SOL    HW131895   1.619   2.788   6.847
10332SOL    HW231896   1.506   2.821   6.734
10333SOL     OW31897   0.321   4.561   5.300
10333SOL    HW131898   0.302   4.471   5.339
10333SOL    HW231899   0.348   4.624   5.373
10334SOL     OW31900   1.134   4.730   5.609
10334SOL    HW131901   1.099   4.779   5.689
10334SOL    HW231902   1.228   4.699   5.628
10335SOL     OW31903   3.111   5.045   2.881
10335SOL    HW131904   3.015   5.020   2.897
10335SOL    HW231905   3.137   5.119   2.943
10336SOL     OW31906   3.938   0.012   2.985
10336SOL    HW131907   3.888   0.008   3.071
10336SOL    HW231908   3.895   6.972   2.918
10337SOL     OW31909   1.386   4.168   6.612
10337SOL    HW131910   1.477   4.129   6.598
10337SOL    HW231911   1.327   4.141   6.536
10338SOL     OW31912   2.372   4.231   2.690
10338SOL    HW131913   2.339   4.136   2.683
10338SOL    HW231914   2.351   4.267   2.780
10339SOL     OW31915   3.283   6.006   6.944
10339SOL    HW131916   3.201   6.019   6.888
10339SOL    HW231917   3.284   5.913   6.980
10340SOL     OW31918   1.821   6.234   1.162
10340SOL    HW131919   1.893   6.210   1.097
10340SOL    HW231920   1.736   6.187   1.135
10341SOL     OW31921   6.813   3.411   1.794
10341SOL    HW131922   6.762   3.490   1.760
10341SOL    HW231923   6.761   3.365   1.866
10342SOL     OW31924   2.994   5.258   3.997
10342SOL    HW131925   3.066   5.225   3.937
10342SOL    HW231926   3.034   5.297   4.080
10343SOL     OW31927   2.258   2.166   4.684
10343SOL    HW131928   2.162   2.141   4.670
10343SOL    HW231929   2.298   2.108   4.755
10344SOL     OW31930   5.030   3.821   1.272
10344SOL    HW131931   4.974   3.896   1.237
10344SOL    HW231932   5.074   3.774   1.194
10345SOL     OW31933   3.377   1.348   6.490
10345SOL    HW131934   3.467   1.357   6.532
10345SOL    HW231935   3.386   1.347   6.390
10346SOL     OW31936   6.297   5.987   0.468
10346SOL    HW131937   6.308   5.891   0.439
10346SOL    HW231938   6.251   6.038   0.396
10347SOL     OW31939   3.818   0.105   2.154
10347SOL    HW131940   3.843   0.013   2.124
10347SOL    HW231941   3.899   0.163   2.152
10348SOL     OW31942   0.021   3.774   5.228
10348SOL    HW131943   0.025   3.702   5.297
10348SOL    HW231944   0.109   3.779   5.181
10349SOL     OW31945   6.138   2.237   0.124
10349SOL    HW131946   6.063   2.278   0.073
10349SOL    HW231947   6.223   2.286   0.103
10350SOL     OW31948   2.088   5.258   4.276
10350SOL    HW131949   2.128   5.341   4.238
10350SOL    HW231950   2.029   5.281   4.353
10351SOL     OW31951   3.714   5.537   4.943
10351SOL    HW131952   3.811   5.531   4.965
10351SOL    HW231953   3.691   5.467   4.875
10352SOL     OW31954   0.310   1.244   1.919
10352SOL    HW131955   0.228   1.248   1.976
10352SOL    HW231956   0.377   1.310   1.953
10353SOL     OW31957   5.572   2.724   3.477
10353SOL    HW131958   5.653   2.736   3.419
10353SOL    HW231959   5.494   2.771   3.435
10354SOL     OW31960   6.831   2.502   1.960
10354SOL    HW131961   6.921   2.464   1.938
10354SOL    HW231962   6.840   2.570   2.033
10355SOL     OW31963   6.775   2.240   0.892
10355SOL    HW131964   6.769   2.232   0.991
10355SOL    HW231965   6.766   2.149   0.850
10356SOL     OW31966   5.913   2.447   6.720
10356SOL    HW131967   5.964   2.370   6.682
10356SOL    HW231968   5.824   2.414   6.753
10357SOL     OW31969   0.444   6.913   6.460
10357SOL    HW131970   0.387   6.938   6.539
10357SOL    HW231971   0.509   6.986   6.441
10358SOL     OW31972   0.669   3.317   4.156
10358SOL    HW131973   0.618   3.249   4.104
10358SOL    HW231974   0.766   3.292   4.157
10359SOL     OW31975   1.075   2.552   2.477
10359SOL    HW131976   1.093   2.454   2.467
10359SOL    HW231977   1.111   2.601   2.398
10360SOL     OW31978   5.850   4.669   0.830
10360SOL    HW131979   5.882   4.677   0.735
10360SOL    HW231980   5.922   4.627   0.886
10361SOL     OW31981   5.515   1.975   3.292
10361SOL    HW131982   5.588   1.970   3.359
10361SOL    HW231983   5.549   1.947   3.202
10362SOL     OW31984   0.042   6.635   2.026
10362SOL    HW131985   0.048   6.571   2.103
10362SOL    HW231986   0.116   6.702   2.033
10363SOL     OW31987   5.983   4.916   6.100
10363SOL    HW131988   6.063   4.946   6.049
10363SOL    HW231989   6.010   4.847   6.167
10364SOL     OW31990   5.928   5.397   1.113
10364SOL    HW131991   5.983   5.397   1.197
10364SOL    HW231992   5.836   5.430   1.133
10365SOL     OW31993   6.248   6.000   6.911
10365SOL    HW131994   6.169   5.999   6.848
10365SOL    HW231995   6.272   6.095   6.931
10366SOL     OW31996   2.857   6.867   3.512
10366SOL    HW131997   2.776   6.913   3.475
10366SOL    HW231998   2.919   6.935   3.551
10367SOL     OW31999   4.713   6.178   2.234
10367SOL    HW132000   4.651   6.244   2.193
10367SOL    HW232001   4.665   6.092   2.249
10368SOL     OW32002   1.570   5.346   1.553
10368SOL    HW132003   1.606   5.253   1.564
10368SOL    HW232004   1.476   5.342   1.520
10369SOL     OW32005   2.468   0.793   5.481
10369SOL    HW132006   2.538   0.767   5.548
10369SOL    HW232007   2.436   0.885   5.500
10370SOL     OW32008   2.005   2.128   6.485
10370SOL    HW132009   2.051   2.212   6.456
10370SOL    HW232010   2.008   2.121   6.585
10371SOL     OW32011   3.687   5.602   3.260
10371SOL    HW132012   3.769   5.555   3.292
10371SOL    HW232013   3.681   5.692   3.303
10372SOL     OW32014   0.796   6.211   1.743
10372SOL    HW132015   0.788   6.216   1.644
10372SOL    HW232016   0.892   6.222   1.770
10373SOL     OW32017   6.571   0.203   5.919
10373SOL    HW132018   6.515   0.257   5.857
10373SOL    HW232019   6.550   0.106   5.906
10374SOL     OW32020   2.521   5.221   2.602
10374SOL    HW132021   2.594   5.209   2.535
10374SOL    HW232022   2.546   5.175   2.687
10375SOL     OW32023   2.489   5.783   6.695
10375SOL    HW132024   2.501   5.882   6.701
10375SOL    HW232025   2.513   5.752   6.602
10376SOL     OW32026   1.690   4.523   4.091
10376SOL    HW132027   1.775   4.504   4.140
10376SOL    HW232028   1.698   4.492   3.997
10377SOL     OW32029   3.011   0.771   4.026
10377SOL    HW132030   2.936   0.725   3.977
10377SOL    HW232031   3.022   0.864   3.991
10378SOL     OW32032   0.336   6.765   5.486
10378SOL    HW132033   0.318   6.789   5.391
10378SOL    HW232034   0.426   6.721   5.493
10379SOL     OW32035   1.032   5.552   3.388
10379SOL    HW132036   1.098   5.587   3.455
10379SOL    HW232037   0.952   5.516   3.436
10380SOL     OW32038   3.151   1.470   3.972
10380SOL    HW132039   3.075   1.457   4.035
10380SOL    HW232040   3.121   1.525   3.894
10381SOL     OW32041   2.489   0.314   3.386
10381SOL    HW132042   2.587   0.302   3.405
10381SOL    HW232043   2.461   0.251   3.314
10382SOL     OW32044   4.087   5.971   2.337
10382SOL    HW132045   4.100   5.873   2.319
10382SOL    HW232046   4.108   5.990   2.433
10383SOL     OW32047   0.469   6.863   0.130
10383SOL    HW132048   0.384   6.816   0.103
10383SOL    HW232049   0.545   6.824   0.078
10384SOL     OW32050   4.937   5.123   1.543
10384SOL    HW132051   4.907   5.081   1.457
10384SOL    HW232052   4.914   5.062   1.619
10385SOL     OW32053   3.980   4.318   6.742
10385SOL    HW132054   4.058   4.380   6.728
10385SOL    HW232055   3.908   4.366   6.792
10386SOL     OW32056   0.196   0.108   2.234
10386SOL    HW132057   0.133   0.184   2.250
10386SOL    HW232058   0.160   0.050   2.161
10387SOL     OW32059   5.781   1.647   1.712
10387SOL    HW132060   5.857   1.656   1.647
10387SOL    HW232061   5.816   1.654   1.805
10388SOL     OW32062   0.963   0.298   4.629
10388SOL    HW132063   1.023   0.218   4.634
10388SOL    HW232064   1.015   0.377   4.595
10389SOL     OW32065   0.295   3.515   0.731
10389SOL    HW132066   0.306   3.614   0.723
10389SOL    HW232067   0.347   3.470   0.658
10390SOL     OW32068   2.386   2.083   2.159
10390SOL    HW132069   2.435   2.049   2.079
10390SOL    HW232070   2.288   2.085   2.140
10391SOL     OW32071   6.369   6.864   2.736
10391SOL    HW132072   6.393   6.880   2.831
10391SOL    HW232073   6.270   6.867   2.725
10392SOL     OW32074   6.481   3.592   4.074
10392SOL    HW132075   6.528   3.676   4.049
10392SOL    HW232076   6.420   3.610   4.151
10393SOL     OW32077   1.483   2.631   1.893
10393SOL    HW132078   1.493   2.664   1.987
10393SOL    HW232079   1.455   2.707   1.834
10394SOL     OW32080   2.856   6.169   3.793
10394SOL    HW132081   2.806   6.142   3.874
10394SOL    HW232082   2.816   6.126   3.712
10395SOL     OW32083   0.559   1.226   1.622
10395SOL    HW132084   0.594   1.229   1.716
10395SOL    HW232085   0.595   1.145   1.576
10396SOL     OW32086   3.436   2.060   5.172
10396SOL    HW132087   3.373   2.138   5.171
10396SOL    HW232088   3.526   2.090   5.139
10397SOL     OW32089   5.220   1.558   3.933
10397SOL    HW132090   5.193   1.504   4.013
10397SOL    HW232091   5.285   1.506   3.878
10398SOL     OW32092   4.854   2.976   2.532
10398SOL    HW132093   4.854   2.989   2.433
10398SOL    HW232094   4.766   2.939   2.560
10399SOL     OW32095   0.445   3.826   2.076
10399SOL    HW132096   0.527   3.775   2.104
10399SOL    HW232097   0.379   3.762   2.036
10400SOL     OW32098   1.942   6.475   0.547
10400SOL    HW132099   1.853   6.479   0.502
10400SOL    HW232100   2.013   6.500   0.481
10401SOL     OW32101   6.552   1.136   5.659
10401SOL    HW132102   6.487   1.112   5.587
10401SOL    HW232103   6.514   1.209   5.716
10402SOL     OW32104   6.865   4.726   5.241
10402SOL    HW132105   6.885   4.646   5.297
10402SOL    HW232106   6.941   4.791   5.248
10403SOL     OW32107   3.433   7.020   1.062
10403SOL    HW132108   3.388   6.983   1.143
10403SOL    HW232109   3.371   0.062   1.015
10404SOL     OW32110   0.120   5.645   5.843
10404SOL    HW132111   0.120   5.610   5.937
10404SOL    HW232112   0.154   5.574   5.781
10405SOL     OW32113   0.276   1.430   0.269
10405SOL    HW132114   0.274   1.350   0.209
10405SOL    HW232115   0.370   1.465   0.274
10406SOL     OW32116   1.668   5.267   1.027
10406SOL    HW132117   1.632   5.181   1.063
10406SOL    HW232118   1.767   5.271   1.044
10407SOL     OW32119   2.453   6.140   6.969
10407SOL    HW132120   2.388   6.066   6.950
10407SOL    HW232121   2.433   6.178   0.039
10408SOL     OW32122   4.579   0.412   0.184
10408SOL    HW132123   4.563   0.490   0.243
10408SOL    HW232124   4.635   0.344   0.232
10409SOL     OW32125   6.185   4.059   0.294
10409SOL    HW132126   6.127   4.134   0.263
10409SOL    HW232127   6.229   4.016   0.214
10410SOL     OW32128   4.584   6.995   0.786
10410SOL    HW132129   4.513   6.942   0.833
10410SOL    HW232130   4.674   6.955   0.806
10411SOL     OW32131   1.702   5.406   4.139
10411SOL    HW132132   1.736   5.367   4.225
10411SOL    HW232133   1.622   5.463   4.157
10412SOL     OW32134   5.118   0.003   1.574
10412SOL    HW132135   5.109   0.059   1.492
10412SOL    HW232136   5.200   0.031   1.624
10413SOL     OW32137   5.937   3.262   2.435
10413SOL    HW132138   5.983   3.177   2.461
10413SOL    HW232139   5.965   3.289   2.343
10414SOL     OW32140   5.600   3.387   4.053
10414SOL    HW132141   5.608   3.448   4.132
10414SOL    HW232142   5.571   3.441   3.973
10415SOL     OW32143   0.800   0.778   6.901
10415SOL    HW132144   0.856   0.854   6.933
10415SOL    HW232145   0.711   0.779   6.947
10416SOL     OW32146   5.233   3.072   3.943
10416SOL    HW132147   5.216   3.010   4.019
10416SOL    HW232148   5.331   3.091   3.937
10417SOL     OW32149   1.652   4.028   2.445
10417SOL    HW132150   1.752   4.022   2.442
10417SOL    HW232151   1.624   4.059   2.536
10418SOL     OW32152   1.621   5.734   6.330
10418SOL    HW132153   1.576   5.781   6.406
10418SOL    HW232154   1.692   5.673   6.366
10419SOL     OW32155   1.813   0.681   6.747
10419SOL    HW132156   1.774   0.607   6.802
10419SOL    HW232157   1.747   0.756   6.740
10420SOL     OW32158   0.638   2.737   2.648
10420SOL    HW132159   0.616   2.645   2.617
10420SOL    HW232160   0.708   2.777   2.589
10421SOL     OW32161   0.680   2.110   3.086
10421SOL    HW132162   0.663   2.148   2.995
10421SOL    HW232163   0.654   2.014   3.087
10422SOL     OW32164   5.290   2.374   0.083
10422SOL    HW132165   5.222   2.348   0.152
10422SOL    HW232166   5.357   2.301   0.073
10423SOL     OW32167   4.773   5.644   3.152
10423SOL    HW132168   4.796   5.715   3.219
10423SOL    HW232169   4.747   5.687   3.065
10424SOL     OW32170   4.473   1.399   6.637
10424SOL    HW132171   4.418   1.458   6.696
10424SOL    HW232172   4.416   1.323   6.604
10425SOL     OW32173   1.771   6.760   2.103
10425SOL    HW132174   1.781   6.698   2.181
10425SOL    HW232175   1.727   6.712   2.027
10426SOL     OW32176   6.432   4.137   6.235
10426SOL    HW132177   6.338   4.172   6.234
10426SOL    HW232178   6.430   4.038   6.253
10427SOL     OW32179   5.485   1.066   1.280
10427SOL    HW132180   5.433   1.049   1.196
10427SOL    HW232181   5.534   0.984   1.306
10428SOL     OW32182   4.506   1.829   3.421
10428SOL    HW132183   4.486   1.907   3.481
10428SOL    HW232184   4.559   1.860   3.343
10429SOL     OW32185   5.184   5.573   2.911
10429SOL    HW132186   5.136   5.487   2.933
10429SOL    HW232187   5.282   5.560   2.923
10430SOL     OW32188   3.948   6.372   2.597
10430SOL    HW132189   3.967   6.445   2.663
10430SOL    HW232190   3.854   6.381   2.564
10431SOL     OW32191   2.279   1.242   5.353
10431SOL    HW132192   2.314   1.332   5.381
10431SOL    HW232193   2.268   1.240   5.254
10432SOL     OW32194   4.358   0.601   4.702
10432SOL    HW132195   4.318   0.608   4.793
10432SOL    HW232196   4.343   0.509   4.665
10433SOL     OW32197   3.230   6.203   0.986
10433SOL    HW132198   3.177   6.287   0.970
10433SOL    HW232199   3.245   6.192   1.085
10434SOL     OW32200   3.102   2.113   5.318
10434SOL    HW132201   3.030   2.065   5.267
10434SOL    HW232202   3.118   2.203   5.277
10435SOL     OW32203   5.744   5.235   6.307
10435SOL    HW132204   5.716   5.216   6.213
10435SOL    HW232205   5.707   5.164   6.368
10436SOL     OW32206   0.464   1.313   2.762
10436SOL    HW132207   0.440   1.229   2.713
10436SOL    HW232208   0.385   1.347   2.812
10437SOL     OW32209   0.596   3.586   6.376
10437SOL    HW132210   0.538   3.506   6.355
10437SOL    HW232211   0.657   3.604   6.299
10438SOL     OW32212   3.365   0.013   6.024
10438SOL    HW132213   3.443   6.975   6.043
10438SOL    HW232214   3.316   0.033   6.109
10439SOL     OW32215   3.391   0.475   5.727
10439SOL    HW132216   3.380   0.503   5.632
10439SOL    HW232217   3.355   0.382   5.738
10440SOL     OW32218   0.864   5.623   1.133
10440SOL    HW132219   0.930   5.682   1.181
10440SOL    HW232220   0.857   5.535   1.179
10441SOL     OW32221   3.994   0.363   0.709
10441SOL    HW132222   4.004   0.266   0.733
10441SOL    HW232223   3.949   0.370   0.620
10442SOL     OW32224   4.411   5.882   5.995
10442SOL    HW132225   4.312   5.867   5.994
10442SOL    HW232226   4.445   5.890   5.901
10443SOL     OW32227   6.235   2.876   4.710
10443SOL    HW132228   6.317   2.907   4.662
10443SOL    HW232229   6.256   2.861   4.807
10444SOL     OW32230   4.249   5.183   4.918
10444SOL    HW132231   4.194   5.242   4.859
10444SOL    HW232232   4.240   5.211   5.013
10445SOL     OW32233   6.122   6.414   2.097
10445SOL    HW132234   6.134   6.380   2.004
10445SOL    HW232235   6.051   6.485   2.097
10446SOL     OW32236   1.361   6.511   6.266
10446SOL    HW132237   1.389   6.554   6.180
10446SOL    HW232238   1.422   6.434   6.286
10447SOL     OW32239   5.719   1.869   6.768
10447SOL    HW132240   5.675   1.783   6.793
10447SOL    HW232241   5.812   1.872   6.806
10448SOL     OW32242   3.331   3.554   2.377
10448SOL    HW132243   3.422   3.574   2.414
10448SOL    HW232244   3.316   3.608   2.295
10449SOL     OW32245   1.969   5.322   4.558
10449SOL    HW132246   1.894   5.354   4.616
10449SOL    HW232247   2.057   5.344   4.601
10450SOL     OW32248   6.910   3.400   0.816
10450SOL    HW132249   6.978   3.424   0.885
10450SOL    HW232250   6.830   3.460   0.826
10451SOL     OW32251   2.371   4.636   1.836
10451SOL    HW132252   2.468   4.657   1.849
10451SOL    HW232253   2.333   4.696   1.765
10452SOL     OW32254   2.037   3.454   6.001
10452SOL    HW132255   2.045   3.406   5.914
10452SOL    HW232256   2.064   3.393   6.075
10453SOL     OW32257   5.320   0.888   1.693
10453SOL    HW132258   5.229   0.894   1.651
10453SOL    HW232259   5.376   0.822   1.643
10454SOL     OW32260   4.941   4.675   2.510
10454SOL    HW132261   5.031   4.633   2.517
10454SOL    HW232262   4.885   4.625   2.444
10455SOL     OW32263   0.872   4.794   3.116
10455SOL    HW132264   0.971   4.782   3.129
10455SOL    HW232265   0.824   4.766   3.199
10456SOL     OW32266   4.322   6.439   1.280
10456SOL    HW132267   4.372   6.361   1.245
10456SOL    HW232268   4.245   6.460   1.219
10457SOL     OW32269   3.274   2.902   4.013
10457SOL    HW132270   3.198   2.941   4.065
10457SOL    HW232271   3.274   2.803   4.024
10458SOL     OW32272   6.808   6.019   1.963
10458SOL    HW132273   6.721   6.004   1.917
10458SOL    HW232274   6.883   5.989   1.904
10459SOL     OW32275   6.867   4.881   1.477
10459SOL    HW132276   6.935   4.879   1.550
10459SOL    HW232277   6.778   4.853   1.513
10460SOL     OW32278   1.032   4.017   1.576
10460SOL    HW132279   1.063   4.006   1.670
10460SOL    HW232280   0.942   4.062   1.576
10461SOL     OW32281   3.418   7.000   6.702
10461SOL    HW132282   3.430   0.056   6.765
10461SOL    HW232283   3.347   0.001   6.635
10462SOL     OW32284   5.372   6.559   0.966
10462SOL    HW132285   5.320   6.477   0.990
10462SOL    HW232286   5.315   6.618   0.909
10463SOL     OW32287   3.951   3.294   0.659
10463SOL    HW132288   4.045   3.313   0.630
10463SOL    HW232289   3.894   3.375   0.643
10464SOL     OW32290   5.470   6.585   2.268
10464SOL    HW132291   5.398   6.546   2.326
10464SOL    HW232292   5.512   6.663   2.315
10465SOL     OW32293   0.550   5.040   4.812
10465SOL    HW132294   0.617   4.979   4.770
10465SOL    HW232295   0.548   5.127   4.761
10466SOL     OW32296   4.830   6.372   5.278
10466SOL    HW132297   4.907   6.423   5.318
10466SOL    HW232298   4.844   6.362   5.180
10467SOL     OW32299   4.129   1.135   4.600
10467SOL    HW132300   4.106   1.217   4.653
10467SOL    HW232301   4.084   1.139   4.511
10468SOL     OW32302   2.912   4.963   3.399
10468SOL    HW132303   2.908   5.015   3.314
10468SOL    HW232304   3.005   4.926   3.411
10469SOL     OW32305   1.093   4.638   6.034
10469SOL    HW132306   1.092   4.557   6.094
10469SOL    HW232307   0.999   4.670   6.021
10470SOL     OW32308   2.318   2.239   4.385
10470SOL    HW132309   2.296   2.336   4.385
10470SOL    HW232310   2.355   2.212   4.474
10471SOL     OW32311   4.795   3.743   6.842
10471SOL    HW132312   4.713   3.712   6.890
10471SOL    HW232313   4.770   3.775   6.751
10472SOL     OW32314   3.925   1.260   3.692
10472SOL    HW132315   3.859   1.186   3.700
10472SOL    HW232316   3.881   1.347   3.714
10473SOL     OW32317   5.150   5.272   6.823
10473SOL    HW132318   5.173   5.353   6.877
10473SOL    HW232319   5.088   5.214   6.876
10474SOL     OW32320   4.884   0.703   4.001
10474SOL    HW132321   4.937   0.785   4.022
10474SOL    HW232322   4.830   0.677   4.082
10475SOL     OW32323   3.968   6.481   1.500
10475SOL    HW132324   3.908   6.537   1.444
10475SOL    HW232325   3.914   6.420   1.558
10476SOL     OW32326   0.786   4.993   6.467
10476SOL    HW132327   0.739   4.906   6.450
10476SOL    HW232328   0.762   5.059   6.396
10477SOL     OW32329   4.699   4.298   5.016
10477SOL    HW132330   4.669   4.239   4.942
10477SOL    HW232331   4.701   4.246   5.102
10478SOL     OW32332   0.630   6.535   3.361
10478SOL    HW132333   0.535   6.545   3.391
10478SOL    HW232334   0.677   6.623   3.372
10479SOL     OW32335   0.758   4.250   2.239
10479SOL    HW132336   0.659   4.249   2.245
10479SOL    HW232337   0.797   4.274   2.328
10480SOL     OW32338   4.912   1.374   0.521
10480SOL    HW132339   4.931   1.277   0.536
10480SOL    HW232340   4.999   1.424   0.515
10481SOL     OW32341   2.720   1.946   4.224
10481SOL    HW132342   2.785   1.870   4.236
10481SOL    HW232343   2.629   1.909   4.205
10482SOL     OW32344   1.145   6.517   6.851
10482SOL    HW132345   1.168   6.593   6.913
10482SOL    HW232346   1.089   6.551   6.776
10483SOL     OW32347   0.456   5.937   0.950
10483SOL    HW132348   0.500   5.968   0.866
10483SOL    HW232349   0.512   5.866   0.993
10484SOL     OW32350   6.771   1.713   1.674
10484SOL    HW132351   6.771   1.625   1.626
10484SOL    HW232352   6.772   1.787   1.607
10485SOL     OW32353   4.110   3.728   4.460
10485SOL    HW132354   4.132   3.739   4.363
10485SOL    HW232355   4.084   3.634   4.477
10486SOL     OW32356   6.094   5.389   5.747
10486SOL    HW132357   5.997   5.376   5.725
10486SOL    HW232358   6.132   5.463   5.691
10487SOL     OW32359   5.532   4.006   2.721
10487SOL    HW132360   5.564   3.978   2.630
10487SOL    HW232361   5.456   3.948   2.748
10488SOL     OW32362   0.714   2.528   5.778
10488SOL    HW132363   0.655   2.608   5.785
10488SOL    HW232364   0.773   2.522   5.859
10489SOL     OW32365   5.798   5.165   2.858
10489SOL    HW132366   5.844   5.078   2.843
10489SOL    HW232367   5.759   5.197   2.771
10490SOL     OW32368   5.075   6.570   6.262
10490SOL    HW132369   5.145   6.518   6.213
10490SOL    HW232370   5.117   6.649   6.306
10491SOL     OW32371   2.185   1.784   5.189
10491SOL    HW132372   2.218   1.862   5.242
10491SOL    HW232373   2.259   1.718   5.177
10492SOL     OW32374   2.814   6.130   0.286
10492SOL    HW132375   2.848   6.082   0.367
10492SOL    HW232376   2.891   6.160   0.230
10493SOL     OW32377   3.622   5.799   0.675
10493SOL    HW132378   3.550   5.863   0.648
10493SOL    HW232379   3.709   5.827   0.635
10494SOL     OW32380   7.002   5.720   3.780
10494SOL    HW132381   6.930   5.679   3.836
10494SOL    HW232382   0.053   5.756   3.840
10495SOL     OW32383   5.976   6.343   0.056
10495SOL    HW132384   5.940   6.255   0.086
10495SOL    HW232385   6.054   6.329   7.016
10496SOL     OW32386   1.035   4.039   5.787
10496SOL    HW132387   1.040   4.130   5.830
10496SOL    HW232388   1.072   3.971   5.849
10497SOL     OW32389   3.847   6.231   0.367
10497SOL    HW132390   3.878   6.288   0.291
10497SOL    HW232391   3.926   6.188   0.410
10498SOL     OW32392   3.018   3.545   0.228
10498SOL    HW132393   3.092   3.481   0.247
10498SOL    HW232394   2.966   3.562   0.312
10499SOL     OW32395   4.311   4.780   3.279
10499SOL    HW132396   4.250   4.783   3.358
10499SOL    HW232397   4.404   4.757   3.309
10500SOL     OW32398   1.896   3.231   5.117
10500SOL    HW132399   1.971   3.233   5.050
10500SOL    HW232400   1.875   3.136   5.141
10501SOL     OW32401   3.867   4.985   3.258
10501SOL    HW132402   3.793   5.050   3.274
10501SOL    HW232403   3.952   5.034   3.240
10502SOL     OW32404   3.194   4.015   2.856
10502SOL    HW132405   3.121   4.003   2.788
10502SOL    HW232406   3.160   3.989   2.947
10503SOL     OW32407   6.899   0.625   0.875
10503SOL    HW132408   6.829   0.685   0.913
10503SOL    HW232409   6.989   0.653   0.908
10504SOL     OW32410   1.322   2.722   5.762
10504SOL    HW132411   1.247   2.677   5.713
10504SOL    HW232412   1.286   2.767   5.844
10505SOL     OW32413   5.615   6.434   1.104
10505SOL    HW132414   5.542   6.462   1.042
10505SOL    HW232415   5.654   6.515   1.149
10506SOL     OW32416   1.302   4.899   5.058
10506SOL    HW132417   1.402   4.907   5.051
10506SOL    HW232418   1.277   4.883   5.153
10507SOL     OW32419   1.548   6.508   5.760
10507SOL    HW132420   1.640   6.531   5.794
10507SOL    HW232421   1.480   6.549   5.821
10508SOL     OW32422   1.899   6.410   1.408
10508SOL    HW132423   1.916   6.391   1.312
10508SOL    HW232424   1.967   6.362   1.464
10509SOL     OW32425   4.995   3.365   2.150
10509SOL    HW132426   5.033   3.456   2.133
10509SOL    HW232427   5.013   3.340   2.245
10510SOL     OW32428   5.805   6.282   2.239
10510SOL    HW132429   5.751   6.340   2.302
10510SOL    HW232430   5.870   6.228   2.292
10511SOL     OW32431   3.927   1.873   0.985
10511SOL    HW132432   4.011   1.830   0.953
10511SOL    HW232433   3.879   1.810   1.047
10512SOL     OW32434   4.044   0.872   4.896
10512SOL    HW132435   3.972   0.820   4.940
10512SOL    HW232436   4.079   0.941   4.959
10513SOL     OW32437   3.711   3.736   0.518
10513SOL    HW132438   3.723   3.831   0.548
10513SOL    HW232439   3.721   3.731   0.418
10514SOL     OW32440   1.492   5.205   2.024
10514SOL    HW132441   1.566   5.181   1.962
10514SOL    HW232442   1.513   5.292   2.068
10515SOL     OW32443   1.972   3.869   4.926
10515SOL    HW132444   2.033   3.813   4.871
10515SOL    HW232445   2.024   3.938   4.977
10516SOL     OW32446   5.529   1.874   1.783
10516SOL    HW132447   5.476   1.958   1.782
10516SOL    HW232448   5.595   1.878   1.858
10517SOL     OW32449   0.193   2.172   2.391
10517SOL    HW132450   0.264   2.208   2.331
10517SOL    HW232451   0.198   2.072   2.393
10518SOL     OW32452   0.848   5.673   2.803
10518SOL    HW132453   0.827   5.681   2.901
10518SOL    HW232454   0.934   5.720   2.784
10519SOL     OW32455   2.212   6.595   0.766
10519SOL    HW132456   2.251   6.517   0.814
10519SOL    HW232457   2.112   6.593   0.774
10520SOL     OW32458   3.025   2.607   5.900
10520SOL    HW132459   3.029   2.685   5.837
10520SOL    HW232460   3.078   2.531   5.863
10521SOL     OW32461   6.167   1.862   2.643
10521SOL    HW132462   6.213   1.893   2.726
10521SOL    HW232463   6.090   1.923   2.623
10522SOL     OW32464   4.960   1.704   3.135
10522SOL    HW132465   5.030   1.639   3.108
10522SOL    HW232466   5.002   1.778   3.188
10523SOL     OW32467   0.253   3.707   1.879
10523SOL    HW132468   0.280   3.733   1.786
10523SOL    HW232469   0.185   3.634   1.875
10524SOL     OW32470   5.966   6.728   4.893
10524SOL    HW132471   5.874   6.745   4.855
10524SOL    HW232472   6.015   6.815   4.901
10525SOL     OW32473   4.529   2.245   3.096
10525SOL    HW132474   4.624   2.214   3.091
10525SOL    HW232475   4.474   2.178   3.145
10526SOL     OW32476   1.467   5.747   5.882
10526SOL    HW132477   1.510   5.825   5.927
10526SOL    HW232478   1.484   5.664   5.935
10527SOL     OW32479   0.301   6.248   6.443
10527SOL    HW132480   0.351   6.334   6.432
10527SOL    HW232481   0.252   6.248   6.531
10528SOL     OW32482   2.361   6.421   5.183
10528SOL    HW132483   2.397   6.510   5.153
10528SOL    HW232484   2.429   6.350   5.166
10529SOL     OW32485   6.787   4.990   0.245
10529SOL    HW132486   6.699   5.033   0.264
10529SOL    HW232487   6.797   4.975   0.146
10530SOL     OW32488   6.094   0.514   1.378
10530SOL    HW132489   6.117   0.587   1.442
10530SOL    HW232490   6.092   0.551   1.285
10531SOL     OW32491   3.079   1.366   6.225
10531SOL    HW132492   3.134   1.436   6.180
10531SOL    HW232493   3.002   1.341   6.166
10532SOL     OW32494   4.944   5.533   6.066
10532SOL    HW132495   4.988   5.607   6.015
10532SOL    HW232496   4.845   5.545   6.064
10533SOL     OW32497   3.859   6.775   3.194
10533SOL    HW132498   3.928   6.807   3.258
10533SOL    HW232499   3.847   6.676   3.203
10534SOL     OW32500   0.604   6.346   4.221
10534SOL    HW132501   0.515   6.390   4.209
10534SOL    HW232502   0.598   6.278   4.294
10535SOL     OW32503   4.221   1.488   2.327
10535SOL    HW132504   4.301   1.438   2.360
10535SOL    HW232505   4.156   1.424   2.285
10536SOL     OW32506   6.370   3.848   4.417
10536SOL    HW132507   6.397   3.752   4.424
10536SOL    HW232508   6.271   3.855   4.426
10537SOL     OW32509   2.859   1.184   2.667
10537SOL    HW132510   2.869   1.122   2.588
10537SOL    HW232511   2.911   1.268   2.650
10538SOL     OW32512   6.234   2.700   3.835
10538SOL    HW132513   6.158   2.639   3.810
10538SOL    HW232514   6.228   2.723   3.932
10539SOL     OW32515   6.678   6.846   2.384
10539SOL    HW132516   6.633   6.787   2.452
10539SOL    HW232517   6.762   6.801   2.352
10540SOL     OW32518   1.784   3.168   6.268
10540SOL    HW132519   1.753   3.259   6.240
10540SOL    HW232520   1.786   3.163   6.368
10541SOL     OW32521   3.207   1.905   5.776
10541SOL    HW132522   3.179   1.911   5.680
10541SOL    HW232523   3.303   1.929   5.784
10542SOL     OW32524   3.806   6.639   2.187
10542SOL    HW132525   3.840   6.571   2.122
10542SOL    HW232526   3.707   6.628   2.199
10543SOL     OW32527   1.275   2.795   4.089
10543SOL    HW132528   1.219   2.712   4.095
10543SOL    HW232529   1.371   2.768   4.075
10544SOL     OW32530   2.977   2.175   2.238
10544SOL    HW132531   2.952   2.236   2.163
10544SOL    HW232532   2.941   2.083   2.220
10545SOL     OW32533   1.331   3.072   1.953
10545SOL    HW132534   1.298   3.131   1.880
10545SOL    HW232535   1.255   3.018   1.990
10546SOL     OW32536   1.729   6.928   4.808
10546SOL    HW132537   1.633   6.943   4.788
10546SOL    HW232538   1.741   6.841   4.855
10547SOL     OW32539   3.373   5.704   6.033
10547SOL    HW132540   3.320   5.732   5.953
10547SOL    HW232541   3.453   5.652   6.003
10548SOL     OW32542   1.132   4.982   3.381
10548SOL    HW132543   1.123   5.081   3.378
10548SOL    HW232544   1.094   4.947   3.467
10549SOL     OW32545   6.842   1.327   2.590
10549SOL    HW132546   6.745   1.317   2.566
10549SOL    HW232547   6.858   1.293   2.682
10550SOL     OW32548   6.898   5.103   2.624
10550SOL    HW132549   6.902   5.049   2.708
10550SOL    HW232550   6.832   5.177   2.635
10551SOL     OW32551   4.594   0.322   4.518
10551SOL    HW132552   4.519   0.257   4.511
10551SOL    HW232553   4.620   0.354   4.427
10552SOL     OW32554   2.657   6.983   3.375
10552SOL    HW132555   2.633   7.012   3.283
10552SOL    HW232556   2.605   0.016   3.441
10553SOL     OW32557   5.447   5.682   1.248
10553SOL    HW132558   5.497   5.683   1.161
10553SOL    HW232559   5.374   5.751   1.245
10554SOL     OW32560   6.170   5.661   1.155
10554SOL    HW132561   6.193   5.574   1.112
10554SOL    HW232562   6.199   5.659   1.251
10555SOL     OW32563   3.346   3.115   2.065
10555SOL    HW132564   3.298   3.137   1.980
10555SOL    HW232565   3.321   3.023   2.095
10556SOL     OW32566   2.559   2.632   1.730
10556SOL    HW132567   2.525   2.539   1.719
10556SOL    HW232568   2.505   2.694   1.673
10557SOL     OW32569   1.047   4.043   2.862
10557SOL    HW132570   0.985   3.974   2.899
10557SOL    HW232571   0.995   4.110   2.810
10558SOL     OW32572   4.896   4.955   4.589
10558SOL    HW132573   4.911   4.863   4.625
10558SOL    HW232574   4.800   4.966   4.565
10559SOL     OW32575   3.862   6.038   1.160
10559SOL    HW132576   3.813   6.117   1.125
10559SOL    HW232577   3.935   6.068   1.221
10560SOL     OW32578   5.498   0.152   4.092
10560SOL    HW132579   5.447   0.069   4.069
10560SOL    HW232580   5.566   0.169   4.021
10561SOL     OW32581   1.365   5.196   5.236
10561SOL    HW132582   1.451   5.145   5.245
10561SOL    HW232583   1.312   5.187   5.321
10562SOL     OW32584   3.418   0.631   2.511
10562SOL    HW132585   3.476   0.581   2.576
10562SOL    HW232586   3.329   0.585   2.505
10563SOL     OW32587   2.094   5.799   1.677
10563SOL    HW132588   2.129   5.873   1.620
10563SOL    HW232589   2.075   5.719   1.620
10564SOL     OW32590   5.414   4.904   3.246
10564SOL    HW132591   5.447   4.886   3.338
10564SOL    HW232592   5.472   4.974   3.203
10565SOL     OW32593   0.329   1.350   4.431
10565SOL    HW132594   0.302   1.371   4.337
10565SOL    HW232595   0.357   1.435   4.477
10566SOL     OW32596   3.979   1.859   0.234
10566SOL    HW132597   4.017   1.784   0.180
10566SOL    HW232598   3.927   1.920   0.174
10567SOL     OW32599   2.956   1.582   6.510
10567SOL    HW132600   3.000   1.493   6.496
10567SOL    HW232601   2.990   1.623   6.595
10568SOL     OW32602   5.960   2.059   6.309
10568SOL    HW132603   5.910   2.140   6.279
10568SOL    HW232604   6.049   2.057   6.265
10569SOL     OW32605   4.843   0.429   0.806
10569SOL    HW132606   4.824   0.477   0.720
10569SOL    HW232607   4.761   0.432   0.864
10570SOL     OW32608   1.070   4.389   3.190
10570SOL    HW132609   1.153   4.415   3.240
10570SOL    HW232610   1.089   4.394   3.091
10571SOL     OW32611   0.400   3.678   5.312
10571SOL    HW132612   0.482   3.730   5.337
10571SOL    HW232613   0.419   3.580   5.321
10572SOL     OW32614   0.031   4.634   0.463
10572SOL    HW132615   0.065   4.717   0.418
10572SOL    HW232616   0.016   4.652   0.560
10573SOL     OW32617   6.004   2.529   3.663
10573SOL    HW132618   6.071   2.456   3.646
10573SOL    HW232619   5.968   2.562   3.575
10574SOL     OW32620   5.300   2.605   2.385
10574SOL    HW132621   5.269   2.677   2.323
10574SOL    HW232622   5.280   2.631   2.479
10575SOL     OW32623   5.058   0.601   2.558
10575SOL    HW132624   5.125   0.668   2.591
10575SOL    HW232625   5.106   0.526   2.513
10576SOL     OW32626   1.714   3.158   4.840
10576SOL    HW132627   1.742   3.173   4.935
10576SOL    HW232628   1.795   3.162   4.781
10577SOL     OW32629   4.091   4.098   6.850
10577SOL    HW132630   4.039   4.170   6.804
10577SOL    HW232631   4.132   4.038   6.782
10578SOL     OW32632   1.395   3.900   2.091
10578SOL    HW132633   1.347   3.884   2.177
10578SOL    HW232634   1.491   3.922   2.110
10579SOL     OW32635   0.053   3.626   7.015
10579SOL    HW132636   0.128   3.574   6.974
10579SOL    HW232637   7.002   3.641   6.946
10580SOL     OW32638   5.285   7.014   6.697
10580SOL    HW132639   5.283   7.001   6.598
10580SOL    HW232640   5.380   7.009   6.729
10581SOL     OW32641   4.377   0.853   2.659
10581SOL    HW132642   4.381   0.781   2.728
10581SOL    HW232643   4.373   0.942   2.705
10582SOL     OW32644   0.177   3.304   0.313
10582SOL    HW132645   0.105   3.303   0.244
10582SOL    HW232646   0.157   3.376   0.380
10583SOL     OW32647   4.210   1.941   5.545
10583SOL    HW132648   4.219   1.843   5.530
10583SOL    HW232649   4.299   1.980   5.567
10584SOL     OW32650   6.117   0.591   3.572
10584SOL    HW132651   6.061   0.650   3.631
10584SOL    HW232652   6.183   0.541   3.629
10585SOL     OW32653   1.226   1.327   5.117
10585SOL    HW132654   1.130   1.338   5.139
10585SOL    HW232655   1.249   1.382   5.037
10586SOL     OW32656   4.910   3.367   5.977
10586SOL    HW132657   4.909   3.267   5.965
10586SOL    HW232658   4.889   3.411   5.889
10587SOL     OW32659   2.588   5.178   5.162
10587SOL    HW132660   2.647   5.123   5.102
10587SOL    HW232661   2.575   5.131   5.249
10588SOL     OW32662   1.084   4.020   4.575
10588SOL    HW132663   1.059   3.932   4.535
10588SOL    HW232664   1.143   4.005   4.655
10589SOL     OW32665   5.305   0.228   3.788
10589SOL    HW132666   5.296   0.132   3.814
10589SOL    HW232667   5.242   0.248   3.713
10590SOL     OW32668   0.259   6.170   2.309
10590SOL    HW132669   0.199   6.142   2.385
10590SOL    HW232670   0.318   6.093   2.284
10591SOL     OW32671   6.249   4.510   2.354
10591SOL    HW132672   6.184   4.586   2.348
10591SOL    HW232673   6.301   4.503   2.269
10592SOL     OW32674   6.450   3.619   4.587
10592SOL    HW132675   6.366   3.568   4.571
10592SOL    HW232676   6.430   3.698   4.646
10593SOL     OW32677   3.811   5.571   3.661
10593SOL    HW132678   3.772   5.482   3.636
10593SOL    HW232679   3.905   5.558   3.691
10594SOL     OW32680   3.917   5.922   3.827
10594SOL    HW132681   3.839   5.870   3.862
10594SOL    HW232682   3.998   5.864   3.827
10595SOL     OW32683   5.483   6.057   0.470
10595SOL    HW132684   5.456   6.111   0.549
10595SOL    HW232685   5.581   6.069   0.454
10596SOL     OW32686   5.823   4.013   0.275
10596SOL    HW132687   5.766   3.956   0.334
10596SOL    HW232688   5.791   4.006   0.180
10597SOL     OW32689   1.179   6.212   5.369
10597SOL    HW132690   1.172   6.253   5.278
10597SOL    HW232691   1.226   6.276   5.431
10598SOL     OW32692   3.599   1.680   0.881
10598SOL    HW132693   3.534   1.612   0.915
10598SOL    HW232694   3.585   1.766   0.929
10599SOL     OW32695   0.936   2.111   0.997
10599SOL    HW132696   0.985   2.191   1.031
10599SOL    HW232697   0.841   2.135   0.977
10600SOL     OW32698   4.818   1.624   1.901
10600SOL    HW132699   4.798   1.610   1.804
10600SOL    HW232700   4.886   1.697   1.910
10601SOL     OW32701   1.980   1.800   4.739
10601SOL    HW132702   2.059   1.750   4.773
10601SOL    HW232703   1.948   1.864   4.809
10602SOL     OW32704   6.791   6.967   1.482
10602SOL    HW132705   6.704   7.013   1.464
10602SOL    HW232706   6.774   6.875   1.519
10603SOL     OW32707   5.670   0.926   2.712
10603SOL    HW132708   5.637   0.958   2.623
10603SOL    HW232709   5.762   0.889   2.702
10604SOL     OW32710   5.405   2.212   5.130
10604SOL    HW132711   5.321   2.195   5.181
10604SOL    HW232712   5.396   2.296   5.077
10605SOL     OW32713   4.437   2.321   1.175
10605SOL    HW132714   4.485   2.234   1.161
10605SOL    HW232715   4.491   2.380   1.234
10606SOL     OW32716   5.731   1.467   0.820
10606SOL    HW132717   5.711   1.468   0.722
10606SOL    HW232718   5.656   1.422   0.869
10607SOL     OW32719   2.693   4.982   0.661
10607SOL    HW132720   2.696   5.031   0.574
10607SOL    HW232721   2.749   4.899   0.655
10608SOL     OW32722   5.206   4.357   2.681
10608SOL    HW132723   5.273   4.347   2.754
10608SOL    HW232724   5.197   4.271   2.631
10609SOL     OW32725   5.906   0.009   6.418
10609SOL    HW132726   5.934   0.066   6.341
10609SOL    HW232727   5.834   6.967   6.390
10610SOL     OW32728   0.568   1.864   3.134
10610SOL    HW132729   0.471   1.870   3.111
10610SOL    HW232730   0.580   1.868   3.233
10611SOL     OW32731   4.236   5.340   5.929
10611SOL    HW132732   4.141   5.316   5.949
10611SOL    HW232733   4.277   5.270   5.872
10612SOL     OW32734   5.373   2.632   3.122
10612SOL    HW132735   5.355   2.706   3.057
10612SOL    HW232736   5.451   2.578   3.091
10613SOL     OW32737   5.297   5.420   5.494
10613SOL    HW132738   5.306   5.477   5.412
10613SOL    HW232739   5.388   5.403   5.533
10614SOL     OW32740   4.088   2.389   6.785
10614SOL    HW132741   4.182   2.370   6.757
10614SOL    HW232742   4.084   2.394   6.885
10615SOL     OW32743   2.790   2.300   5.452
10615SOL    HW132744   2.817   2.385   5.406
10615SOL    HW232745   2.760   2.233   5.384
10616SOL     OW32746   1.428   5.507   0.078
10616SOL    HW132747   1.394   5.589   0.125
10616SOL    HW232748   1.350   5.451   0.049
10617SOL     OW32749   2.371   3.061   0.119
10617SOL    HW132750   2.312   3.098   0.191
10617SOL    HW232751   2.459   3.108   0.120
10618SOL     OW32752   0.316   4.858   3.967
10618SOL    HW132753   0.378   4.807   4.027
10618SOL    HW232754   0.340   4.955   3.969
10619SOL     OW32755   1.165   2.779   1.102
10619SOL    HW132756   1.133   2.775   1.197
10619SOL    HW232757   1.197   2.688   1.074
10620SOL     OW32758   3.903   1.105   5.729
10620SOL    HW132759   3.911   1.197   5.766
10620SOL    HW232760   3.808   1.087   5.705
10621SOL     OW32761   0.716   4.807   4.730
10621SOL    HW132762   0.764   4.809   4.818
10621SOL    HW232763   0.716   4.714   4.694
10622SOL     OW32764   3.830   1.802   6.001
10622SOL    HW132765   3.780   1.832   6.083
10622SOL    HW232766   3.764   1.776   5.931
10623SOL     OW32767   5.611   4.486   5.426
10623SOL    HW132768   5.537   4.539   5.468
10623SOL    HW232769   5.580   4.449   5.339
10624SOL     OW32770   6.892   1.557   5.636
10624SOL    HW132771   6.940   1.568   5.723
10624SOL    HW232772   6.956   1.570   5.560
10625SOL     OW32773   5.578   5.818   6.589
10625SOL    HW132774   5.534   5.771   6.512
10625SOL    HW232775   5.510   5.836   6.660
10626SOL     OW32776   5.661   3.644   2.425
10626SOL    HW132777   5.582   3.646   2.486
10626SOL    HW232778   5.666   3.730   2.374
10627SOL     OW32779   5.638   4.871   5.413
10627SOL    HW132780   5.619   4.811   5.336
10627SOL    HW232781   5.585   4.840   5.493
10628SOL     OW32782   3.165   5.821   1.712
10628SOL    HW132783   3.215   5.816   1.625
10628SOL    HW232784   3.147   5.917   1.734
10629SOL     OW32785   4.364   5.988   4.449
10629SOL    HW132786   4.452   6.026   4.477
10629SOL    HW232787   4.325   5.934   4.523
10630SOL     OW32788   3.905   0.735   1.168
10630SOL    HW132789   3.843   0.669   1.209
10630SOL    HW232790   3.858   0.784   1.094
10631SOL     OW32791   3.873   6.411   2.023
10631SOL    HW132792   3.793   6.384   1.970
10631SOL    HW232793   3.904   6.334   2.078
10632SOL     OW32794   5.577   0.464   4.856
10632SOL    HW132795   5.595   0.560   4.876
10632SOL    HW232796   5.591   0.447   4.759
10633SOL     OW32797   2.628   3.189   0.056
10633SOL    HW132798   2.568   3.219   7.003
10633SOL    HW232799   2.649   3.092   0.046
10634SOL     OW32800   0.902   4.260   0.117
10634SOL    HW132801   0.817   4.313   0.119
10634SOL    HW232802   0.903   4.197   0.195
10635SOL     OW32803   2.885   4.779   6.761
10635SOL    HW132804   2.859   4.862   6.811
10635SOL    HW232805   2.851   4.699   6.810
10636SOL     OW32806   6.481   2.826   1.036
10636SOL    HW132807   6.443   2.918   1.044
10636SOL    HW232808   6.560   2.827   0.975
10637SOL     OW32809   1.806   0.582   5.558
10637SOL    HW132810   1.879   0.537   5.508
10637SOL    HW232811   1.845   0.647   5.624
10638SOL     OW32812   5.707   4.980   7.015
10638SOL    HW132813   5.685   4.909   0.061
10638SOL    HW232814   5.797   5.019   0.016
10639SOL     OW32815   6.731   5.508   6.968
10639SOL    HW132816   6.649   5.556   7.001
10639SOL    HW232817   6.704   5.419   6.931
10640SOL     OW32818   3.638   5.915   4.727
10640SOL    HW132819   3.721   5.859   4.721
10640SOL    HW232820   3.609   5.941   4.635
10641SOL     OW32821   1.042   1.464   3.834
10641SOL    HW132822   0.970   1.516   3.789
10641SOL    HW232823   1.111   1.526   3.871
10642SOL     OW32824   0.338   2.023   6.405
10642SOL    HW132825   0.367   2.017   6.500
10642SOL    HW232826   0.369   1.941   6.355
10643SOL     OW32827   2.815   5.418   5.011
10643SOL    HW132828   2.757   5.490   5.047
10643SOL    HW232829   2.764   5.366   4.942
10644SOL     OW32830   1.122   3.283   3.629
10644SOL    HW132831   1.089   3.348   3.560
10644SOL    HW232832   1.167   3.333   3.703
10645SOL     OW32833   1.830   3.584   3.715
10645SOL    HW132834   1.753   3.604   3.655
10645SOL    HW232835   1.913   3.628   3.680
10646SOL     OW32836   5.050   1.122   3.241
10646SOL    HW132837   5.101   1.196   3.197
10646SOL    HW232838   4.954   1.147   3.248
10647SOL     OW32839   4.164   5.543   4.699
10647SOL    HW132840   4.247   5.564   4.751
10647SOL    HW232841   4.126   5.456   4.731
10648SOL     OW32842   4.817   3.637   5.613
10648SOL    HW132843   4.790   3.706   5.545
10648SOL    HW232844   4.883   3.676   5.676
10649SOL     OW32845   5.947   3.246   3.697
10649SOL    HW132846   6.034   3.276   3.735
10649SOL    HW232847   5.955   3.151   3.668
10650SOL     OW32848   1.107   0.444   2.987
10650SOL    HW132849   1.146   0.534   2.974
10650SOL    HW232850   1.175   0.374   2.966
10651SOL     OW32851   2.085   5.790   5.290
10651SOL    HW132852   1.997   5.797   5.242
10651SOL    HW232853   2.074   5.820   5.384
10652SOL     OW32854   2.969   0.671   0.018
10652SOL    HW132855   2.979   0.751   0.077
10652SOL    HW232856   2.962   0.700   6.944
10653SOL     OW32857   5.584   6.203   4.200
10653SOL    HW132858   5.484   6.213   4.201
10653SOL    HW232859   5.611   6.140   4.273
10654SOL     OW32860   6.981   1.552   4.305
10654SOL    HW132861   6.904   1.571   4.244
10654SOL    HW232862   6.969   1.461   4.346
10655SOL     OW32863   6.379   5.528   0.748
10655SOL    HW132864   6.441   5.570   0.682
10655SOL    HW232865   6.429   5.461   0.803
10656SOL     OW32866   6.313   0.857   6.422
10656SOL    HW132867   6.360   0.924   6.480
10656SOL    HW232868   6.337   0.873   6.326
10657SOL     OW32869   4.307   6.524   5.766
10657SOL    HW132870   4.331   6.574   5.683
10657SOL    HW232871   4.293   6.588   5.842
10658SOL     OW32872   1.271   1.289   6.015
10658SOL    HW132873   1.303   1.258   5.925
10658SOL    HW232874   1.250   1.387   6.011
10659SOL     OW32875   0.577   5.722   6.892
10659SOL    HW132876   0.497   5.752   6.840
10659SOL    HW232877   0.657   5.775   6.863
10660SOL     OW32878   6.300   2.616   6.619
10660SOL    HW132879   6.268   2.642   6.529
10660SOL    HW232880   6.367   2.542   6.611
10661SOL     OW32881   3.394   5.901   5.397
10661SOL    HW132882   3.404   5.874   5.301
10661SOL    HW232883   3.474   5.954   5.425
10662SOL     OW32884   3.150   1.653   0.642
10662SOL    HW132885   3.161   1.736   0.697
10662SOL    HW232886   3.207   1.580   0.681
10663SOL     OW32887   6.685   3.136   4.129
10663SOL    HW132888   6.747   3.202   4.088
10663SOL    HW232889   6.617   3.107   4.061
10664SOL     OW32890   1.209   6.254   4.911
10664SOL    HW132891   1.175   6.287   4.999
10664SOL    HW232892   1.306   6.279   4.901
10665SOL     OW32893   3.617   3.383   0.771
10665SOL    HW132894   3.546   3.450   0.751
10665SOL    HW232895   3.575   3.295   0.792
10666SOL     OW32896   4.593   3.445   1.298
10666SOL    HW132897   4.511   3.411   1.346
10666SOL    HW232898   4.672   3.392   1.326
10667SOL     OW32899   5.742   2.551   4.189
10667SOL    HW132900   5.667   2.493   4.158
10667SOL    HW232901   5.714   2.601   4.271
10668SOL     OW32902   3.430   3.552   6.041
10668SOL    HW132903   3.331   3.566   6.032
10668SOL    HW232904   3.448   3.456   6.064
10669SOL     OW32905   6.372   3.152   1.719
10669SOL    HW132906   6.413   3.091   1.651
10669SOL    HW232907   6.387   3.247   1.692
10670SOL     OW32908   4.483   4.633   4.329
10670SOL    HW132909   4.393   4.669   4.352
10670SOL    HW232910   4.553   4.700   4.353
10671SOL     OW32911   1.955   3.153   4.728
10671SOL    HW132912   1.951   3.236   4.673
10671SOL    HW232913   2.027   3.163   4.797
10672SOL     OW32914   6.249   4.701   1.357
10672SOL    HW132915   6.150   4.714   1.368
10672SOL    HW232916   6.286   4.776   1.301
10673SOL     OW32917   3.277   1.461   1.704
10673SOL    HW132918   3.208   1.440   1.634
10673SOL    HW232919   3.366   1.428   1.674
10674SOL     OW32920   3.812   3.216   4.475
10674SOL    HW132921   3.775   3.203   4.383
10674SOL    HW232922   3.912   3.209   4.472
10675SOL     OW32923   3.925   6.107   5.782
10675SOL    HW132924   3.903   6.072   5.691
10675SOL    HW232925   4.025   6.108   5.794
10676SOL     OW32926   1.284   1.457   4.868
10676SOL    HW132927   1.320   1.379   4.817
10676SOL    HW232928   1.353   1.528   4.874
10677SOL     OW32929   0.079   1.705   6.804
10677SOL    HW132930   0.159   1.722   6.748
10677SOL    HW232931   0.101   1.639   6.876
10678SOL     OW32932   3.636   5.037   2.477
10678SOL    HW132933   3.598   5.026   2.569
10678SOL    HW232934   3.733   5.058   2.483
10679SOL     OW32935   5.345   4.078   0.111
10679SOL    HW132936   5.281   4.153   0.092
10679SOL    HW232937   5.384   4.046   0.024
10680SOL     OW32938   4.759   0.946   5.433
10680SOL    HW132939   4.738   1.026   5.377
10680SOL    HW232940   4.834   0.968   5.496
10681SOL     OW32941   2.718   3.153   5.418
10681SOL    HW132942   2.697   3.249   5.398
10681SOL    HW232943   2.647   3.095   5.380
10682SOL     OW32944   5.262   3.268   5.882
10682SOL    HW132945   5.242   3.340   5.949
10682SOL    HW232946   5.359   3.268   5.861
10683SOL     OW32947   1.904   0.667   3.146
10683SOL    HW132948   1.878   0.705   3.057
10683SOL    HW232949   1.832   0.687   3.212
10684SOL     OW32950   4.705   4.168   1.527
10684SOL    HW132951   4.667   4.081   1.559
10684SOL    HW232952   4.684   4.239   1.594
10685SOL     OW32953   0.972   0.269   2.797
10685SOL    HW132954   1.024   0.184   2.804
10685SOL    HW232955   1.006   0.334   2.864
10686SOL     OW32956   2.826   1.092   6.225
10686SOL    HW132957   2.795   1.086   6.319
10686SOL    HW232958   2.845   1.188   6.202
10687SOL     OW32959   0.716   2.903   3.172
10687SOL    HW132960   0.748   2.997   3.177
10687SOL    HW232961   0.618   2.902   3.151
10688SOL     OW32962   5.441   1.131   3.750
10688SOL    HW132963   5.380   1.160   3.823
10688SOL    HW232964   5.512   1.201   3.736
10689SOL     OW32965   1.431   1.281   2.668
10689SOL    HW132966   1.515   1.330   2.646
10689SOL    HW232967   1.386   1.326   2.745
10690SOL     OW32968   0.585   6.781   4.610
10690SOL    HW132969   0.666   6.792   4.553
10690SOL    HW232970   0.559   6.685   4.614
10691SOL     OW32971   3.415   6.560   1.166
10691SOL    HW132972   3.502   6.609   1.169
10691SOL    HW232973   3.417   6.484   1.232
10692SOL     OW32974   2.756   2.197   4.335
10692SOL    HW132975   2.853   2.215   4.350
10692SOL    HW232976   2.744   2.106   4.296
10693SOL     OW32977   1.068   4.588   0.228
10693SOL    HW132978   1.047   4.514   0.293
10693SOL    HW232979   1.127   4.553   0.156
10694SOL     OW32980   5.310   1.088   5.309
10694SOL    HW132981   5.292   1.181   5.277
10694SOL    HW232982   5.233   1.029   5.282
10695SOL     OW32983   5.012   4.655   1.175
10695SOL    HW132984   5.103   4.667   1.135
10695SOL    HW232985   5.020   4.614   1.266
10696SOL     OW32986   6.529   4.065   4.981
10696SOL    HW132987   6.541   3.966   4.974
10696SOL    HW232988   6.512   4.102   4.889
10697SOL     OW32989   2.765   5.066   4.469
10697SOL    HW132990   2.774   5.059   4.369
10697SOL    HW232991   2.740   4.976   4.506
10698SOL     OW32992   4.140   4.340   0.141
10698SOL    HW132993   4.135   4.252   0.095
10698SOL    HW232994   4.181   4.329   0.231
10699SOL     OW32995   3.877   3.675   1.165
10699SOL    HW132996   3.876   3.588   1.116
10699SOL    HW232997   3.971   3.699   1.188
10700SOL     OW32998   4.740   0.153   1.450
10700SOL    HW132999   4.758   0.067   1.402
10700SOL    HW233000   4.661   0.199   1.410
10701SOL     OW33001   3.338   6.067   6.281
10701SOL    HW133002   3.377   6.060   6.373
10701SOL    HW233003   3.375   5.995   6.223
10702SOL     OW33004   5.795   2.690   2.168
10702SOL    HW133005   5.816   2.600   2.129
10702SOL    HW233006   5.746   2.745   2.101
10703SOL     OW33007   0.439   1.761   5.653
10703SOL    HW133008   0.444   1.663   5.634
10703SOL    HW233009   0.343   1.791   5.653
10704SOL     OW33010   5.471   0.032   2.102
10704SOL    HW133011   5.550   0.014   2.162
10704SOL    HW233012   5.424   6.967   2.082
10705SOL     OW33013   4.989   3.290   0.752
10705SOL    HW133014   4.946   3.286   0.662
10705SOL    HW233015   5.041   3.206   0.768
10706SOL     OW33016   3.186   0.754   1.518
10706SOL    HW133017   3.195   0.806   1.432
10706SOL    HW233018   3.110   0.791   1.571
10707SOL     OW33019   4.107   6.831   3.329
10707SOL    HW133020   4.185   6.770   3.321
10707SOL    HW233021   4.079   6.838   3.425
10708SOL     OW33022   4.528   0.892   1.275
10708SOL    HW133023   4.497   0.881   1.370
10708SOL    HW233024   4.628   0.885   1.272
10709SOL     OW33025   5.838   4.832   2.475
10709SOL    HW133026   5.770   4.811   2.545
10709SOL    HW233027   5.928   4.799   2.506
10710SOL     OW33028   4.368   1.622   3.101
10710SOL    HW133029   4.355   1.721   3.102
10710SOL    HW233030   4.393   1.590   3.192
10711SOL     OW33031   2.696   6.567   2.924
10711SOL    HW133032   2.694   6.664   2.949
10711SOL    HW233033   2.775   6.524   2.966
10712SOL     OW33034   5.347   0.693   3.359
10712SOL    HW133035   5.414   0.637   3.408
10712SOL    HW233036   5.362   0.789   3.379
10713SOL     OW33037   1.354   3.582   1.668
10713SOL    HW133038   1.255   3.586   1.663
10713SOL    HW233039   1.385   3.615   1.757
10714SOL     OW33040   3.106   4.203   5.248
10714SOL    HW133041   3.039   4.131   5.229
10714SOL    HW233042   3.127   4.253   5.164
10715SOL     OW33043   6.028   0.934   1.960
10715SOL    HW133044   5.962   0.859   1.958
10715SOL    HW233045   5.979   1.021   1.952
10716SOL     OW33046   4.915   0.934   3.438
10716SOL    HW133047   4.941   0.838   3.438
10716SOL    HW233048   4.976   0.985   3.378
10717SOL     OW33049   3.010   2.276   6.676
10717SOL    HW133050   3.042   2.294   6.769
10717SOL    HW233051   3.010   2.361   6.624
10718SOL     OW33052   1.703   5.093   6.238
10718SOL    HW133053   1.704   5.186   6.273
10718SOL    HW233054   1.736   5.092   6.143
10719SOL     OW33055   0.290   5.620   4.657
10719SOL    HW133056   0.206   5.568   4.671
10719SOL    HW233057   0.328   5.598   4.567
10720SOL     OW33058   6.956   5.215   3.040
10720SOL    HW133059   6.936   5.277   2.963
10720SOL    HW233060   7.015   5.141   3.009
10721SOL     OW33061   5.050   2.265   6.114
10721SOL    HW133062   4.960   2.224   6.096
10721SOL    HW233063   5.040   2.341   6.178
10722SOL     OW33064   0.184   3.324   5.257
10722SOL    HW133065   0.279   3.354   5.268
10722SOL    HW233066   0.175   3.229   5.287
10723SOL     OW33067   5.072   6.841   0.544
10723SOL    HW133068   5.140   6.804   0.481
10723SOL    HW233069   4.985   6.854   0.496
10724SOL     OW33070   0.532   6.034   6.509
10724SOL    HW133071   0.447   6.022   6.458
10724SOL    HW233072   0.539   6.128   6.542
10725SOL     OW33073   2.008   6.159   6.252
10725SOL    HW133074   2.083   6.189   6.194
10725SOL    HW233075   2.040   6.089   6.316
10726SOL     OW33076   3.989   0.699   4.016
10726SOL    HW133077   3.923   0.774   4.013
10726SOL    HW233078   3.969   0.640   4.095
10727SOL     OW33079   1.848   6.334   6.458
10727SOL    HW133080   1.871   6.250   6.408
10727SOL    HW233081   1.753   6.329   6.490
10728SOL     OW33082   5.148   5.527   1.183
10728SOL    HW133083   5.196   5.548   1.268
10728SOL    HW233084   5.205   5.556   1.106
10729SOL     OW33085   6.346   2.012   1.040
10729SOL    HW133086   6.433   2.003   1.089
10729SOL    HW233087   6.276   2.046   1.103
10730SOL     OW33088   4.443   0.454   2.980
10730SOL    HW133089   4.467   0.396   2.902
10730SOL    HW233090   4.527   0.480   3.028
10731SOL     OW33091   3.822   0.050   1.047
10731SOL    HW133092   3.787   0.036   1.140
10731SOL    HW233093   3.758   0.012   0.981
10732SOL     OW33094   0.769   3.300   6.233
10732SOL    HW133095   0.824   3.276   6.312
10732SOL    HW233096   0.828   3.336   6.160
10733SOL     OW33097   5.583   1.303   0.380
10733SOL    HW133098   5.570   1.206   0.359
10733SOL    HW233099   5.677   1.318   0.410
10734SOL     OW33100   6.319   3.084   1.976
10734SOL    HW133101   6.382   3.006   1.980
10734SOL    HW233102   6.320   3.123   1.884
10735SOL     OW33103   0.315   5.302   3.029
10735SOL    HW133104   0.287   5.285   3.124
10735SOL    HW233105   0.358   5.392   3.023
10736SOL     OW33106   1.977   1.190   4.415
10736SOL    HW133107   1.920   1.257   4.463
10736SOL    HW233108   2.015   1.125   4.480
10737SOL     OW33109   6.838   1.804   0.372
10737SOL    HW133110   6.757   1.858   0.393
10737SOL    HW233111   6.915   1.836   0.427
10738SOL     OW33112   3.944   0.284   3.814
10738SOL    HW133113   3.879   0.211   3.838
10738SOL    HW233114   3.956   0.287   3.715
10739SOL     OW33115   2.665   1.710   1.950
10739SOL    HW133116   2.752   1.668   1.926
10739SOL    HW233117   2.622   1.747   1.867
10740SOL     OW33118   4.542   6.096   3.144
10740SOL    HW133119   4.526   6.190   3.112
10740SOL    HW233120   4.639   6.074   3.136
10741SOL     OW33121   2.670   0.680   2.929
10741SOL    HW133122   2.767   0.675   2.907
10741SOL    HW233123   2.645   0.776   2.947
10742SOL     OW33124   6.751   5.417   0.832
10742SOL    HW133125   6.797   5.486   0.776
10742SOL    HW233126   6.803   5.402   0.916
10743SOL     OW33127   2.644   2.053   5.309
10743SOL    HW133128   2.677   1.975   5.256
10743SOL    HW233129   2.667   2.138   5.260
10744SOL     OW33130   5.898   1.734   0.331
10744SOL    HW133131   5.933   1.663   0.270
10744SOL    HW233132   5.820   1.780   0.288
10745SOL     OW33133   0.268   5.946   6.410
10745SOL    HW133134   0.248   6.044   6.410
10745SOL    HW233135   0.236   5.905   6.496
10746SOL     OW33136   1.788   4.198   5.994
10746SOL    HW133137   1.817   4.294   5.999
10746SOL    HW233138   1.693   4.194   5.962
10747SOL     OW33139   3.401   2.127   4.555
10747SOL    HW133140   3.428   2.144   4.460
10747SOL    HW233141   3.481   2.094   4.607
10748SOL     OW33142   5.413   1.384   2.407
10748SOL    HW133143   5.332   1.435   2.378
10748SOL    HW233144   5.480   1.384   2.333
10749SOL     OW33145   3.022   6.621   0.156
10749SOL    HW133146   3.082   6.699   0.137
10749SOL    HW233147   2.995   6.578   0.070
10750SOL     OW33148   4.038   6.498   6.063
10750SOL    HW133149   4.101   6.569   6.095
10750SOL    HW233150   4.089   6.416   6.039
10751SOL     OW33151   2.287   5.419   3.648
10751SOL    HW133152   2.381   5.405   3.681
10751SOL    HW233153   2.242   5.330   3.637
10752SOL     OW33154   4.900   4.948   3.905
10752SOL    HW133155   4.820   4.891   3.920
10752SOL    HW233156   4.946   4.921   3.820
10753SOL     OW33157   6.452   4.057   4.616
10753SOL    HW133158   6.405   4.028   4.532
10753SOL    HW233159   6.533   4.000   4.630
10754SOL     OW33160   1.383   6.918   2.279
10754SOL    HW133161   1.475   6.942   2.308
10754SOL    HW233162   1.385   6.831   2.229
10755SOL     OW33163   6.069   5.424   1.566
10755SOL    HW133164   5.998   5.442   1.634
10755SOL    HW233165   6.082   5.325   1.557
10756SOL     OW33166   0.399   6.962   4.982
10756SOL    HW133167   0.332   0.012   5.000
10756SOL    HW233168   0.477   6.972   5.045
10757SOL     OW33169   2.966   2.815   1.016
10757SOL    HW133170   3.041   2.750   1.019
10757SOL    HW233171   2.938   2.832   0.922
10758SOL     OW33172   7.017   5.332   4.063
10758SOL    HW133173   6.970   5.273   3.997
10758SOL    HW233174   7.013   5.290   4.154
10759SOL     OW33175   6.848   1.361   6.711
10759SOL    HW133176   6.864   1.443   6.656
10759SOL    HW233177   6.928   1.344   6.769
10760SOL     OW33178   5.981   1.621   4.806
10760SOL    HW133179   6.022   1.574   4.728
10760SOL    HW233180   5.929   1.556   4.860
10761SOL     OW33181   2.807   5.156   5.436
10761SOL    HW133182   2.795   5.238   5.381
10761SOL    HW233183   2.758   5.166   5.523
10762SOL     OW33184   2.772   1.497   5.481
10762SOL    HW133185   2.722   1.562   5.539
10762SOL    HW233186   2.756   1.404   5.513
10763SOL     OW33187   4.418   6.483   4.255
10763SOL    HW133188   4.512   6.486   4.289
10763SOL    HW233189   4.405   6.402   4.198
10764SOL     OW33190   4.269   6.913   4.943
10764SOL    HW133191   4.181   6.879   4.974
10764SOL    HW233192   4.302   6.857   4.867
10765SOL     OW33193   6.420   3.909   6.826
10765SOL    HW133194   6.425   3.879   6.731
10765SOL    HW233195   6.493   3.974   6.845
10766SOL     OW33196   3.571   3.572   1.430
10766SOL    HW133197   3.576   3.637   1.355
10766SOL    HW233198   3.515   3.494   1.403
10767SOL     OW33199   4.740   1.807   2.352
10767SOL    HW133200   4.684   1.780   2.430
10767SOL    HW233201   4.698   1.774   2.268
10768SOL     OW33202   6.267   4.765   6.440
10768SOL    HW133203   6.350   4.710   6.445
10768SOL    HW233204   6.230   4.761   6.347
10769SOL     OW33205   1.804   3.539   4.851
10769SOL    HW133206   1.809   3.527   4.950
10769SOL    HW233207   1.710   3.560   4.824
10770SOL     OW33208   4.167   6.268   4.022
10770SOL    HW133209   4.155   6.212   4.105
10770SOL    HW233210   4.106   6.233   3.950
10771SOL     OW33211   2.138   1.262   4.190
10771SOL    HW133212   2.166   1.350   4.226
10771SOL    HW233213   2.076   1.218   4.254
10772SOL     OW33214   5.333   5.598   3.746
10772SOL    HW133215   5.270   5.521   3.761
10772SOL    HW233216   5.297   5.680   3.790
10773SOL     OW33217   5.749   4.748   2.757
10773SOL    HW133218   5.763   4.651   2.738
10773SOL    HW233219   5.690   4.759   2.837
10774SOL     OW33220   0.156   6.891   2.953
10774SOL    HW133221   0.177   6.848   2.865
10774SOL    HW233222   0.097   6.830   3.006
10775SOL     OW33223   0.079   3.324   1.261
10775SOL    HW133224   0.114   3.364   1.346
10775SOL    HW233225   0.154   3.285   1.208
10776SOL     OW33226   1.215   0.478   5.811
10776SOL    HW133227   1.234   0.387   5.846
10776SOL    HW233228   1.272   0.497   5.731
10777SOL     OW33229   2.684   5.611   1.038
10777SOL    HW133230   2.770   5.639   0.995
10777SOL    HW233231   2.703   5.570   1.127
10778SOL     OW33232   5.656   5.841   2.345
10778SOL    HW133233   5.675   5.867   2.440
10778SOL    HW233234   5.613   5.751   2.343
10779SOL     OW33235   4.859   3.069   3.610
10779SOL    HW133236   4.898   3.069   3.702
10779SOL    HW233237   4.815   2.981   3.592
10780SOL     OW33238   6.833   0.408   2.198
10780SOL    HW133239   6.777   0.326   2.187
10780SOL    HW233240   6.779   0.479   2.244
10781SOL     OW33241   3.324   0.188   4.286
10781SOL    HW133242   3.304   0.275   4.329
10781SOL    HW233243   3.240   0.135   4.275
10782SOL     OW33244   6.105   4.971   3.815
10782SOL    HW133245   6.148   4.912   3.747
10782SOL    HW233246   6.175   5.025   3.862
10783SOL     OW33247   6.795   2.214   3.290
10783SOL    HW133248   6.768   2.290   3.349
10783SOL    HW233249   6.731   2.138   3.304
10784SOL     OW33250   2.448   1.694   5.119
10784SOL    HW133251   2.431   1.636   5.040
10784SOL    HW233252   2.531   1.749   5.103
10785SOL     OW33253   1.174   3.493   5.976
10785SOL    HW133254   1.172   3.541   6.064
10785SOL    HW233255   1.183   3.394   5.992
10786SOL     OW33256   6.937   4.432   3.988
10786SOL    HW133257   0.007   4.394   4.001
10786SOL    HW233258   6.888   4.432   4.075
10787SOL     OW33259   2.469   2.229   6.646
10787SOL    HW133260   2.528   2.202   6.569
10787SOL    HW233261   2.462   2.329   6.647
10788SOL     OW33262   5.593   3.644   6.163
10788SOL    HW133263   5.508   3.593   6.152
10788SOL    HW233264   5.669   3.590   6.127
10789SOL     OW33265   5.445   1.397   0.594
10789SOL    HW133266   5.418   1.487   0.560
10789SOL    HW233267   5.497   1.349   0.524
10790SOL     OW33268   5.831   6.270   2.933
10790SOL    HW133269   5.893   6.270   2.854
10790SOL    HW233270   5.801   6.177   2.953
10791SOL     OW33271   0.614   6.545   2.454
10791SOL    HW133272   0.538   6.611   2.451
10791SOL    HW233273   0.587   6.463   2.403
10792SOL     OW33274   3.997   4.304   6.174
10792SOL    HW133275   3.928   4.326   6.243
10792SOL    HW233276   3.952   4.270   6.091
10793SOL     OW33277   6.184   3.975   3.872
10793SOL    HW133278   6.143   3.884   3.862
10793SOL    HW233279   6.229   3.983   3.961
10794SOL     OW33280   3.441   3.821   4.518
10794SOL    HW133281   3.427   3.920   4.513
10794SOL    HW233282   3.476   3.798   4.609
10795SOL     OW33283   0.157   5.050   2.626
10795SOL    HW133284   0.060   5.073   2.620
10795SOL    HW233285   0.199   5.058   2.536
10796SOL     OW33286   0.885   6.228   5.580
10796SOL    HW133287   0.958   6.176   5.537
10796SOL    HW233288   0.890   6.324   5.550
10797SOL     OW33289   3.580   2.784   0.307
10797SOL    HW133290   3.666   2.757   0.263
10797SOL    HW233291   3.593   2.785   0.407
10798SOL     OW33292   6.417   1.506   0.609
10798SOL    HW133293   6.485   1.562   0.563
10798SOL    HW233294   6.325   1.539   0.586
10799SOL     OW33295   5.098   1.807   1.111
10799SOL    HW133296   5.148   1.756   1.041
10799SOL    HW233297   5.000   1.795   1.097
10800SOL     OW33298   6.452   6.858   1.687
10800SOL    HW133299   6.397   6.846   1.604
10800SOL    HW233300   6.524   6.926   1.670
10801SOL     OW33301   1.802   0.652   1.276
10801SOL    HW133302   1.856   0.577   1.315
10801SOL    HW233303   1.861   0.707   1.217
10802SOL     OW33304   5.608   1.513   3.469
10802SOL    HW133305   5.699   1.485   3.439
10802SOL    HW233306   5.617   1.589   3.534
10803SOL     OW33307   2.218   5.103   6.083
10803SOL    HW133308   2.307   5.132   6.119
10803SOL    HW233309   2.221   5.005   6.062
10804SOL     OW33310   7.016   3.676   4.283
10804SOL    HW133311   0.086   3.709   4.255
10804SOL    HW233312   7.021   3.577   4.300
10805SOL     OW33313   6.569   0.327   6.585
10805SOL    HW133314   6.505   0.310   6.510
10805SOL    HW233315   6.661   0.302   6.556
10806SOL     OW33316   1.570   5.315   0.236
10806SOL    HW133317   1.508   5.390   0.212
10806SOL    HW233318   1.562   5.296   0.334
10807SOL     OW33319   3.335   5.704   4.710
10807SOL    HW133320   3.404   5.700   4.782
10807SOL    HW233321   3.244   5.690   4.750
10808SOL     OW33322   1.157   3.273   6.233
10808SOL    HW133323   1.230   3.260   6.300
10808SOL    HW233324   1.115   3.184   6.212
10809SOL     OW33325   1.180   0.127   4.642
10809SOL    HW133326   1.203   0.132   4.545
10809SOL    HW233327   1.256   0.161   4.696
10810SOL     OW33328   6.377   0.720   4.097
10810SOL    HW133329   6.458   0.751   4.148
10810SOL    HW233330   6.299   0.716   4.159
10811SOL     OW33331   5.395   6.029   4.968
10811SOL    HW133332   5.441   6.057   4.884
10811SOL    HW233333   5.311   5.979   4.945
10812SOL     OW33334   0.300   3.020   0.369
10812SOL    HW133335   0.270   3.113   0.345
10812SOL    HW233336   0.226   2.974   0.420
10813SOL     OW33337   1.236   3.722   6.524
10813SOL    HW133338   1.178   3.643   6.505
10813SOL    HW233339   1.202   3.769   6.605
10814SOL     OW33340   3.389   1.536   1.013
10814SOL    HW133341   3.364   1.605   1.080
10814SOL    HW233342   3.355   1.447   1.042
10815SOL     OW33343   5.112   0.979   4.750
10815SOL    HW133344   5.024   1.024   4.734
10815SOL    HW233345   5.181   1.019   4.691
10816SOL     OW33346   3.166   3.072   4.759
10816SOL    HW133347   3.149   3.084   4.662
10816SOL    HW233348   3.100   3.127   4.811
10817SOL     OW33349   1.259   6.132   4.061
10817SOL    HW133350   1.272   6.082   4.147
10817SOL    HW233351   1.161   6.147   4.046
10818SOL     OW33352   4.211   4.057   0.117
10818SOL    HW133353   4.152   4.008   0.182
10818SOL    HW233354   4.237   3.995   0.042
10819SOL     OW33355   5.856   6.218   5.804
10819SOL    HW133356   5.951   6.209   5.836
10819SOL    HW233357   5.842   6.159   5.725
10820SOL     OW33358   2.602   4.706   6.111
10820SOL    HW133359   2.666   4.712   6.034
10820SOL    HW233360   2.550   4.621   6.104
10821SOL     OW33361   4.440   5.966   3.997
10821SOL    HW133362   4.519   5.905   4.005
10821SOL    HW233363   4.360   5.914   3.969
10822SOL     OW33364   5.900   1.145   2.093
10822SOL    HW133365   5.876   1.239   2.070
10822SOL    HW233366   5.826   1.084   2.064
10823SOL     OW33367   5.141   6.523   1.760
10823SOL    HW133368   5.201   6.543   1.837
10823SOL    HW233369   5.128   6.606   1.705
10824SOL     OW33370   0.904   3.126   3.156
10824SOL    HW133371   0.901   3.076   3.070
10824SOL    HW233372   0.904   3.224   3.138
10825SOL     OW33373   0.407   2.328   0.681
10825SOL    HW133374   0.444   2.235   0.684
10825SOL    HW233375   0.319   2.331   0.727
10826SOL     OW33376   6.435   3.260   2.579
10826SOL    HW133377   6.359   3.325   2.577
10826SOL    HW233378   6.452   3.232   2.674
10827SOL     OW33379   0.182   3.574   4.572
10827SOL    HW133380   0.127   3.542   4.495
10827SOL    HW233381   0.278   3.552   4.556
10828SOL     OW33382   6.701   4.102   5.361
10828SOL    HW133383   6.647   4.164   5.303
10828SOL    HW233384   6.730   4.151   5.443
10829SOL     OW33385   3.646   2.964   5.561
10829SOL    HW133386   3.737   2.997   5.585
10829SOL    HW233387   3.585   2.977   5.639
10830SOL     OW33388   5.464   2.278   3.261
10830SOL    HW133389   5.374   2.321   3.256
10830SOL    HW233390   5.453   2.178   3.256
10831SOL     OW33391   3.769   0.070   3.868
10831SOL    HW133392   3.814   0.036   3.950
10831SOL    HW233393   3.669   0.065   3.880
10832SOL     OW33394   6.671   2.645   6.834
10832SOL    HW133395   6.574   2.639   6.855
10832SOL    HW233396   6.687   2.616   6.739
10833SOL     OW33397   0.399   0.956   6.497
10833SOL    HW133398   0.476   0.998   6.544
10833SOL    HW233399   0.419   0.952   6.399
10834SOL     OW33400   6.126   6.106   1.756
10834SOL    HW133401   6.052   6.103   1.823
10834SOL    HW233402   6.126   6.021   1.703
10835SOL     OW33403   6.951   2.910   5.496
10835SOL    HW133404   0.005   2.977   5.493
10835SOL    HW233405   6.929   2.881   5.403
10836SOL     OW33406   0.320   1.411   3.377
10836SOL    HW133407   0.248   1.452   3.321
10836SOL    HW233408   0.402   1.468   3.373
10837SOL     OW33409   0.037   3.408   4.380
10837SOL    HW133410   0.131   3.395   4.347
10837SOL    HW233411   7.007   3.323   4.369
10838SOL     OW33412   0.843   5.871   2.329
10838SOL    HW133413   0.789   5.921   2.262
10838SOL    HW233414   0.815   5.899   2.421
10839SOL     OW33415   4.370   2.952   0.283
10839SOL    HW133416   4.359   3.051   0.291
10839SOL    HW233417   4.311   2.906   0.350
10840SOL     OW33418   2.622   0.281   2.078
10840SOL    HW133419   2.532   0.299   2.118
10840SOL    HW233420   2.693   0.316   2.139
10841SOL     OW33421   2.465   5.063   4.770
10841SOL    HW133422   2.466   4.971   4.730
10841SOL    HW233423   2.518   5.062   4.855
10842SOL     OW33424   6.371   4.437   1.896
10842SOL    HW133425   6.345   4.350   1.938
10842SOL    HW233426   6.304   4.462   1.827
10843SOL     OW33427   2.885   1.447   1.275
10843SOL    HW133428   2.833   1.429   1.358
10843SOL    HW233429   2.826   1.437   1.195
10844SOL     OW33430   1.965   5.901   4.865
10844SOL    HW133431   1.900   5.977   4.860
10844SOL    HW233432   2.049   5.932   4.909
10845SOL     OW33433   4.677   0.729   4.749
10845SOL    HW133434   4.746   0.784   4.795
10845SOL    HW233435   4.675   0.637   4.788
10846SOL     OW33436   5.733   0.307   5.997
10846SOL    HW133437   5.726   0.217   5.954
10846SOL    HW233438   5.695   0.303   6.090
10847SOL     OW33439   2.804   0.040   0.127
10847SOL    HW133440   2.792   0.130   0.084
10847SOL    HW233441   2.867   7.006   0.073
10848SOL     OW33442   1.937   3.591   1.772
10848SOL    HW133443   1.948   3.672   1.829
10848SOL    HW233444   1.845   3.552   1.786
10849SOL     OW33445   1.698   6.856   3.411
10849SOL    HW133446   1.735   6.796   3.339
10849SOL    HW233447   1.725   6.821   3.501
10850SOL     OW33448   4.752   4.800   0.868
10850SOL    HW133449   4.789   4.832   0.955
10850SOL    HW233450   4.819   4.816   0.796
10851SOL     OW33451   1.567   4.179   0.846
10851SOL    HW133452   1.549   4.273   0.872
10851SOL    HW233453   1.599   4.176   0.751
10852SOL     OW33454   2.640   1.487   2.377
10852SOL    HW133455   2.731   1.512   2.410
10852SOL    HW233456   2.642   1.479   2.277
10853SOL     OW33457   3.251   0.915   6.276
10853SOL    HW133458   3.298   0.999   6.247
10853SOL    HW233459   3.158   0.915   6.240
10854SOL     OW33460   3.053   6.142   5.875
10854SOL    HW133461   3.069   6.048   5.903
10854SOL    HW233462   3.140   6.187   5.857
10855SOL     OW33463   4.219   0.953   6.960
10855SOL    HW133464   4.212   0.869   7.012
10855SOL    HW233465   4.296   0.947   6.896
10856SOL     OW33466   0.645   1.208   0.521
10856SOL    HW133467   0.562   1.215   0.577
10856SOL    HW233468   0.702   1.288   0.535
10857SOL     OW33469   0.030   2.674   1.711
10857SOL    HW133470   6.965   2.722   1.692
10857SOL    HW233471   0.017   2.614   1.790
10858SOL     OW33472   2.094   6.229   2.078
10858SOL    HW133473   2.173   6.235   2.140
10858SOL    HW233474   2.054   6.320   2.067
10859SOL     OW33475   1.460   5.103   3.656
10859SOL    HW133476   1.556   5.078   3.660
10859SOL    HW233477   1.412   5.067   3.735
10860SOL     OW33478   0.148   3.913   3.415
10860SOL    HW133479   0.118   3.825   3.452
10860SOL    HW233480   0.086   3.985   3.445
10861SOL     OW33481   4.212   2.817   5.524
10861SOL    HW133482   4.189   2.908   5.558
10861SOL    HW233483   4.145   2.790   5.455
10862SOL     OW33484   0.812   0.760   5.047
10862SOL    HW133485   0.825   0.858   5.040
10862SOL    HW233486   0.727   0.734   5.001
10863SOL     OW33487   2.109   6.368   4.071
10863SOL    HW133488   2.080   6.273   4.087
10863SOL    HW233489   2.167   6.398   4.147
10864SOL     OW33490   3.556   6.486   3.025
10864SOL    HW133491   3.509   6.562   3.070
10864SOL    HW233492   3.515   6.399   3.054
10865SOL     OW33493   6.855   1.385   6.089
10865SOL    HW133494   6.875   1.293   6.124
10865SOL    HW233495   6.938   1.425   6.052
10866SOL     OW33496   5.729   4.940   6.740
10866SOL    HW133497   5.718   4.946   6.839
10866SOL    HW233498   5.826   4.946   6.717
10867SOL     OW33499   2.878   1.132   6.770
10867SOL    HW133500   2.810   1.103   6.838
10867SOL    HW233501   2.958   1.073   6.775
10868SOL     OW33502   1.927   2.112   3.170
10868SOL    HW133503   1.887   2.139   3.258
10868SOL    HW233504   1.859   2.063   3.116
10869NA      NA33505   6.396   2.253   5.631
10870NA      NA33506   4.311   4.616   5.238
10871NA      NA33507   2.167   3.527   1.749
10872NA      NA33508   4.943   3.663   5.168
10873NA      NA33509   4.254   2.336   5.243
10874NA      NA33510   3.693   4.728   1.685
10875NA      NA33511   6.868   6.035   4.735
10876NA      NA33512   3.689   3.414   4.994
10877NA      NA33513   4.820   6.585   6.249
10878NA      NA33514   2.634   0.511   5.217
10879NA      NA33515   0.701   4.941   2.538
10880NA      NA33516   2.275   0.292   2.406
10881NA      NA33517   3.362   4.395   1.245
10882NA      NA33518   3.814   3.316   3.025
   7.02104   7.02104   7.02104
